<LesHouchesEvents version="3.0">
<header>
<!--
#*********************************************************************
#                                                                    *
#                        MadGraph5_aMC@NLO                           *
#                                                                    *
#                           Going Beyond                             *
#                                                                    *
#                   http://madgraph.hep.uiuc.edu                     *
#                   http://madgraph.phys.ucl.ac.be                   *
#                   http://amcatnlo.cern.ch                          *
#                                                                    *
#                     The MadGraph5_aMC@NLO team                     *
#                                                                    *
#....................................................................*
#                                                                    *
# This file contains all the information necessary to reproduce      *
# the events generated:                                              *
#                                                                    *
# 1. software version                                                *
# 2. proc_card          : code generation info including model       *
# 3. param_card         : model primary parameters in the LH format  *
# 4. run_card           : running parameters (collider and cuts)     *
# 5. pythia_card        : present only if pythia has been run        *
# 6. pgs_card           : present only if pgs has been run           *
# 7. delphes_cards      : present only if delphes has been run       *
#                                                                    *
#                                                                    *
#*********************************************************************
-->
<MGVersion>
#5.2.2.3
</MGVersion>
<MG5ProcCard>
#************************************************************
#*                     MadGraph5_aMC@NLO                    *
#*                                                          *
#*                *                       *                 *
#*                  *        * *        *                   *
#*                    * * * * 5 * * * *                     *
#*                  *        * *        *                   *
#*                *                       *                 *
#*                                                          *
#*                                                          *
#*         VERSION 2.2.3                 2015-02-10         *
#*                                                          *
#*    The MadGraph5_aMC@NLO Development Team - Find us at   *
#*    https://server06.fynu.ucl.ac.be/projects/madgraph     *
#*                                                          *
#************************************************************
#*                                                          *
#*               Command File for MadGraph5_aMC@NLO         *
#*                                                          *
#*     run as ./bin/mg5_aMC  filename                       *
#*                                                          *
#************************************************************
set group_subprocesses Auto
set ignore_six_quark_processes False
set loop_optimized_output True
set gauge unitary
set complex_mass_scheme False
import model sm
define p = g u c d s u~ c~ d~ s~
define j = g u c d s u~ c~ d~ s~
define l+ = e+ mu+
define l- = e- mu-
define vl = ve vm vt
define vl~ = ve~ vm~ vt~
import model Zprime_UFO
generate p p > zph, zph > j j
add process p p > zph, zph > b b~
output Dijet_signal
</MG5ProcCard>
<MGProcCard>
#*********************************************************************
#                        MadGraph/MadEvent                           *
#                   http://madgraph.hep.uiuc.edu                     *
#                                                                    *
#                          proc_card.dat                             *
#*********************************************************************
#                                                                    *
#            This Files is generated by MADGRAPH 5                   *
#                                                                    *
# WARNING: This Files is generated for MADEVENT (compatibility issue)*
#          This files is NOT a valid MG4 proc_card.dat               *
#          Running this in MG4 will NEVER reproduce the result of MG5*
#                                                                    *
#*********************************************************************
#*********************************************************************
# Process(es) requested : mg2 input                                  *
#*********************************************************************
# Begin PROCESS # This is TAG. Do not modify this line
p p > zph , zph > j j           #Process
# Be carefull the coupling are here in MG5 convention
          
end_coup           # End the couplings input

done               # this tells MG there are no more procs
# End PROCESS  # This is TAG. Do not modify this line
#*********************************************************************
# Model information                                                  *
#*********************************************************************
# Begin MODEL  # This is TAG. Do not modify this line
Zprime_UFO
# End   MODEL  # This is TAG. Do not modify this line
#*********************************************************************
# Start multiparticle definitions                                    *
#*********************************************************************
# Begin MULTIPARTICLES # This is TAG. Do not modify this line

# End  MULTIPARTICLES # This is TAG. Do not modify this line
</MGProcCard>
<MGRunCard>
#*********************************************************************
#                       MadGraph5_aMC@NLO                            *
#                                                                    *
#                     run_card.dat MadEvent                          *
#                                                                    *
#  This file is used to set the parameters of the run.               *
#                                                                    *
#  Some notation/conventions:                                        *
#                                                                    *
#   Lines starting with a '# ' are info or comments                  *
#                                                                    *
#   mind the format:   value    = variable     ! comment             *
#*********************************************************************
#
#*******************                                                 
# Running parameters
#*******************                                                 
#                                                                    
#*********************************************************************
# Tag name for the run (one word)                                    *
#*********************************************************************
  tag_1     = run_tag ! name of the run 
#*********************************************************************
# Run to generate the grid pack                                      *
#*********************************************************************
  .false.     = gridpack  !True = setting up the grid pack
#*********************************************************************
# Number of events and rnd seed                                      *
# Warning: Do not generate more than 1M events in a single run       *
# If you want to run Pythia, avoid more than 50k events in a run.    *
#*********************************************************************
  2000 = nevents ! Number of unweighted events requested 
 516 = iseed   ! rnd seed (0=assigned automatically=default))
#*********************************************************************
# Collider type and energy                                           *
# lpp: 0=No PDF, 1=proton, -1=antiproton, 2=photon from proton,      *
#                                         3=photon from electron     *
#*********************************************************************
        1     = lpp1    ! beam 1 type 
        1     = lpp2    ! beam 2 type
     4000     = ebeam1  ! beam 1 total energy in GeV
     4000     = ebeam2  ! beam 2 total energy in GeV
#*********************************************************************
# Beam polarization from -100 (left-handed) to 100 (right-handed)    *
#*********************************************************************
        0     = polbeam1 ! beam polarization for beam 1
        0     = polbeam2 ! beam polarization for beam 2
#*********************************************************************
# PDF CHOICE: this automatically fixes also alpha_s and its evol.    *
#*********************************************************************
 'nn23lo1'    = pdlabel     ! PDF set                                     
 230000    = lhaid     ! if pdlabel=lhapdf, this is the lhapdf number
#*********************************************************************
# Renormalization and factorization scales                           *
#*********************************************************************
 F        = fixed_ren_scale  ! if .true. use fixed ren scale
 F        = fixed_fac_scale  ! if .true. use fixed fac scale
 91.1880  = scale            ! fixed ren scale
 91.1880  = dsqrt_q2fact1    ! fixed fact scale for pdf1
 91.1880  = dsqrt_q2fact2    ! fixed fact scale for pdf2
 1        = scalefact        ! scale factor for event-by-event scales
#*********************************************************************
# Matching - Warning! ickkw > 1 is still beta
#*********************************************************************
 0        = ickkw            ! 0 no matching, 1 MLM, 2 CKKW matching
 1        = highestmult      ! for ickkw=2, highest mult group
 1        = ktscheme         ! for ickkw=1, 1 Durham kT, 2 Pythia pTE
 1        = alpsfact         ! scale factor for QCD emission vx
 F        = chcluster        ! cluster only according to channel diag
 T        = pdfwgt           ! for ickkw=1, perform pdf reweighting
 5        = asrwgtflavor     ! highest quark flavor for a_s reweight
 T        = clusinfo         ! include clustering tag in output
 3.0      = lhe_version       ! Change the way clustering information pass to shower.        
#*********************************************************************
#**********************************************************
#
#**********************************************************
# Automatic ptj and mjj cuts if xqcut > 0
# (turn off for VBF and single top processes)
#**********************************************************
   T  = auto_ptj_mjj  ! Automatic setting of ptj and mjj
#**********************************************************
#                                                                    
#**********************************
# BW cutoff (M+/-bwcutoff*Gamma)
#**********************************
  15  = bwcutoff      ! (M+/-bwcutoff*Gamma)
#**********************************************************
# Apply pt/E/eta/dr/mij cuts on decay products or not
# (note that etmiss/ptll/ptheavy/ht/sorted cuts always apply)
#**********************************************************
   T  = cut_decays    ! Cut decay products 
#*************************************************************
# Number of helicities to sum per event (0 = all helicities)
# 0 gives more stable result, but longer run time (needed for
# long decay chains e.g.).
# Use >=2 if most helicities contribute, e.g. pure QCD.
#*************************************************************
   0  = nhel          ! Number of helicities used per event
#*******************                                                 
# Standard Cuts
#*******************                                                 
#                                                                    
#*********************************************************************
# Minimum and maximum pt's (for max, -1 means no cut)                *
#*********************************************************************
 20  = ptj       ! minimum pt for the jets 
  0  = ptb       ! minimum pt for the b 
 10  = pta       ! minimum pt for the photons 
 10  = ptl       ! minimum pt for the charged leptons 
  0  = misset    ! minimum missing Et (sum of neutrino's momenta)
  0  = ptheavy   ! minimum pt for one heavy final state
 1.0 = ptonium   ! minimum pt for the quarkonium states
 -1  = ptjmax    ! maximum pt for the jets
 -1  = ptbmax    ! maximum pt for the b
 -1  = ptamax    ! maximum pt for the photons
 -1  = ptlmax    ! maximum pt for the charged leptons
 -1  = missetmax ! maximum missing Et (sum of neutrino's momenta)
#*********************************************************************
# Minimum and maximum E's (in the center of mass frame)              *
#*********************************************************************
  0  = ej     ! minimum E for the jets 
  0  = eb     ! minimum E for the b 
  0  = ea     ! minimum E for the photons 
  0  = el     ! minimum E for the charged leptons 
 -1   = ejmax ! maximum E for the jets
 -1   = ebmax ! maximum E for the b
 -1   = eamax ! maximum E for the photons
 -1   = elmax ! maximum E for the charged leptons
#*********************************************************************
# Maximum and minimum absolute rapidity (for max, -1 means no cut)   *
#*********************************************************************
   5  = etaj    ! max rap for the jets 
  -1  = etab    ! max rap for the b
 2.5  = etaa    ! max rap for the photons 
 2.5  = etal    ! max rap for the charged leptons 
 0.6  = etaonium ! max rap for the quarkonium states
   0  = etajmin ! min rap for the jets
   0  = etabmin ! min rap for the b
   0  = etaamin ! min rap for the photons
   0  = etalmin ! main rap for the charged leptons
#*********************************************************************
# Minimum and maximum DeltaR distance                                *
#*********************************************************************
 0.4 = drjj    ! min distance between jets 
 0   = drbb    ! min distance between b's 
 0.4 = drll    ! min distance between leptons 
 0.4 = draa    ! min distance between gammas 
 0   = drbj    ! min distance between b and jet 
 0.4 = draj    ! min distance between gamma and jet 
 0.4 = drjl    ! min distance between jet and lepton 
 0   = drab    ! min distance between gamma and b 
 0   = drbl    ! min distance between b and lepton 
 0.4 = dral    ! min distance between gamma and lepton 
 -1  = drjjmax ! max distance between jets
 -1  = drbbmax ! max distance between b's
 -1  = drllmax ! max distance between leptons
 -1  = draamax ! max distance between gammas
 -1  = drbjmax ! max distance between b and jet
 -1  = drajmax ! max distance between gamma and jet
 -1  = drjlmax ! max distance between jet and lepton
 -1  = drabmax ! max distance between gamma and b
 -1  = drblmax ! max distance between b and lepton
 -1  = dralmax ! maxdistance between gamma and lepton
#*********************************************************************
# Minimum and maximum invariant mass for pairs                       *
# WARNING: for four lepton final state mmll cut require to have      *
#          different lepton masses for each flavor!                  *           
#*********************************************************************
 0   = mmjj    ! min invariant mass of a jet pair 
 0   = mmbb    ! min invariant mass of a b pair 
 0   = mmaa    ! min invariant mass of gamma gamma pair
 0   = mmll    ! min invariant mass of l+l- (same flavour) lepton pair
 -1  = mmjjmax ! max invariant mass of a jet pair
 -1  = mmbbmax ! max invariant mass of a b pair
 -1  = mmaamax ! max invariant mass of gamma gamma pair
 -1  = mmllmax ! max invariant mass of l+l- (same flavour) lepton pair
#*********************************************************************
# Minimum and maximum invariant mass for all letpons                 *
#*********************************************************************
 0   = mmnl    ! min invariant mass for all letpons (l+- and vl) 
 -1  = mmnlmax ! max invariant mass for all letpons (l+- and vl) 
#*********************************************************************
# Minimum and maximum pt for 4-momenta sum of leptons                *
#*********************************************************************
 0   = ptllmin  ! Minimum pt for 4-momenta sum of leptons(l and vl)
 -1  = ptllmax  ! Maximum pt for 4-momenta sum of leptons(l and vl)
#*********************************************************************
# Inclusive cuts                                                     *
#*********************************************************************
 0  = xptj ! minimum pt for at least one jet  
 0  = xptb ! minimum pt for at least one b 
 0  = xpta ! minimum pt for at least one photon 
 0  = xptl ! minimum pt for at least one charged lepton 
#*********************************************************************
# Control the pt's of the jets sorted by pt                          *
#*********************************************************************
 0   = ptj1min ! minimum pt for the leading jet in pt
 0   = ptj2min ! minimum pt for the second jet in pt
 0   = ptj3min ! minimum pt for the third jet in pt
 0   = ptj4min ! minimum pt for the fourth jet in pt
 -1  = ptj1max ! maximum pt for the leading jet in pt 
 -1  = ptj2max ! maximum pt for the second jet in pt
 -1  = ptj3max ! maximum pt for the third jet in pt
 -1  = ptj4max ! maximum pt for the fourth jet in pt
 0   = cutuse  ! reject event if fails any (0) / all (1) jet pt cuts
#*********************************************************************
# Control the pt's of leptons sorted by pt                           *
#*********************************************************************
 0   = ptl1min ! minimum pt for the leading lepton in pt
 0   = ptl2min ! minimum pt for the second lepton in pt
 0   = ptl3min ! minimum pt for the third lepton in pt
 0   = ptl4min ! minimum pt for the fourth lepton in pt
 -1  = ptl1max ! maximum pt for the leading lepton in pt 
 -1  = ptl2max ! maximum pt for the second lepton in pt
 -1  = ptl3max ! maximum pt for the third lepton in pt
 -1  = ptl4max ! maximum pt for the fourth lepton in pt
#*********************************************************************
# Control the Ht(k)=Sum of k leading jets                            *
#*********************************************************************
 0   = htjmin ! minimum jet HT=Sum(jet pt)
 -1  = htjmax ! maximum jet HT=Sum(jet pt)
 0   = ihtmin  !inclusive Ht for all partons (including b)
 -1  = ihtmax  !inclusive Ht for all partons (including b)
 0   = ht2min ! minimum Ht for the two leading jets
 0   = ht3min ! minimum Ht for the three leading jets
 0   = ht4min ! minimum Ht for the four leading jets
 -1  = ht2max ! maximum Ht for the two leading jets
 -1  = ht3max ! maximum Ht for the three leading jets
 -1  = ht4max ! maximum Ht for the four leading jets
#***********************************************************************
# Photon-isolation cuts, according to hep-ph/9801442                   *
# When ptgmin=0, all the other parameters are ignored                  *
# When ptgmin>0, pta and draj are not going to be used                 *
#***********************************************************************
   0 = ptgmin ! Min photon transverse momentum
 0.4 = R0gamma ! Radius of isolation code
 1.0 = xn ! n parameter of eq.(3.4) in hep-ph/9801442
 1.0 = epsgamma ! epsilon_gamma parameter of eq.(3.4) in hep-ph/9801442
 .true. = isoEM ! isolate photons from EM energy (photons and leptons)
#*********************************************************************
# WBF cuts                                                           *
#*********************************************************************
 0   = xetamin ! minimum rapidity for two jets in the WBF case  
 0   = deltaeta ! minimum rapidity for two jets in the WBF case 
#*********************************************************************
# KT DURHAM CUT                                                      *
#*********************************************************************
 -1    =  ktdurham        
 0.4  =  dparameter 
#*********************************************************************
# maximal pdg code for quark to be considered as a light jet         *
# (otherwise b cuts are applied)                                     *
#*********************************************************************
 4 = maxjetflavor    ! Maximum jet pdg code
#*********************************************************************
# Jet measure cuts                                                   *
#*********************************************************************
 0   = xqcut   ! minimum kt jet measure between partons
#*********************************************************************
#
#*********************************************************************
# Store info for systematics studies                                 *
# WARNING: If use_syst is T, matched Pythia output is                *
#          meaningful ONLY if plotted taking matchscale              *
#          reweighting into account!                                 *
#*********************************************************************
   F  = use_syst      ! Enable systematics studies
#
#**************************************
# Parameter of the systematics study
#  will be used by SysCalc (if installed)
#**************************************                                  
#
0.5 1 2 = sys_scalefact  # factorization/renormalization scale factor
0.5 1 2 = sys_alpsfact  # \alpha_s emission scale factors
30 50 = sys_matchscale # variation of merging scale
# PDF sets and number of members (0 or none for all members).
CT10nlo.LHgrid = sys_pdf # matching scales
# MSTW2008nlo68cl.LHgrid 1  = sys_pdf
</MGRunCard>
<slha>
######################################################################
## PARAM_CARD AUTOMATICALY GENERATED BY MG5 FOLLOWING UFO MODEL   ####
######################################################################
##                                                                  ##
##  Width set on Auto will be computed following the information    ##
##        present in the decay.py files of the model.               ##
##        See  arXiv:1402.1178 for more details.                    ##
##                                                                  ##
######################################################################

###################################
## INFORMATION FOR CKMBLOCK
###################################
Block ckmblock 
    1 2.277360e-01 # cabi 

###################################
## INFORMATION FOR FRBLOCK
###################################
Block frblock 
    1 2.000000e-01 # gz 

###################################
## INFORMATION FOR MASS
###################################
Block mass 
    1 5.040000e-03 # MD 
    2 2.550000e-03 # MU 
    3 1.010000e-01 # MS 
    4 1.270000e+00 # MC 
    5 4.700000e+00 # MB 
    6 1.720000e+02 # MT 
   11 5.110000e-04 # Me 
   13 1.056600e-01 # MM 
   15 1.777000e+00 # MTA 
   23 9.118760e+01 # MZ 
   25 1.200000e+02 # MH 
  10030 7.000000e+02 # MZph 
  10031 3.000000e+02 # MZpl 
## Dependent parameters, given by model restrictions.
## Those values should be edited following the 
## analytical expression. MG5 ignores those values 
## but they are important for interfacing the output of MG5
## to external program such as Pythia.
  12 0.000000 # ve : 0.0 
  14 0.000000 # vm : 0.0 
  16 0.000000 # vt : 0.0 
  21 0.000000 # g : 0.0 
  22 0.000000 # a : 0.0 
  24 79.824360 # w+ : cmath.sqrt(MZ__exp__2/2. + cmath.sqrt(MZ__exp__4/4. - (aEW*cmath.pi*MZ__exp__2)/(Gf*sqrt__2))) 

###################################
## INFORMATION FOR SMINPUTS
###################################
Block sminputs 
    1 1.279000e+02 # aEWM1 
    2 1.166370e-05 # Gf 
    3 1.184000e-01 # aS 

###################################
## INFORMATION FOR YUKAWA
###################################
Block yukawa 
    1 5.040000e-03 # ymdo 
    2 2.550000e-03 # ymup 
    3 1.010000e-01 # yms 
    4 1.270000e+00 # ymc 
    5 4.700000e+00 # ymb 
    6 1.720000e+02 # ymt 
   11 5.110000e-04 # yme 
   13 1.056600e-01 # ymm 
   15 1.777000e+00 # ymtau 

###################################
## INFORMATION FOR DECAY
###################################
DECAY   6 1.508336e+00 # WT 
DECAY  23 2.495200e+00 # WZ 
DECAY  24 2.085000e+00 # WW 
DECAY  25 5.753088e-03 # WH 
## Dependent parameters, given by model restrictions.
## Those values should be edited following the 
## analytical expression. MG5 ignores those values 
## but they are important for interfacing the output of MG5
## to external program such as Pythia.
DECAY  1 0.000000 # d : 0.0 
DECAY  2 0.000000 # u : 0.0 
DECAY  3 0.000000 # s : 0.0 
DECAY  4 0.000000 # c : 0.0 
DECAY  5 0.000000 # b : 0.0 
DECAY  11 0.000000 # e- : 0.0 
DECAY  12 0.000000 # ve : 0.0 
DECAY  13 0.000000 # mu- : 0.0 
DECAY  14 0.000000 # vm : 0.0 
DECAY  15 0.000000 # ta- : 0.0 
DECAY  16 0.000000 # vt : 0.0 
DECAY  21 0.000000 # g : 0.0 
DECAY  22 0.000000 # a : 0.0 
DECAY  10030 0.308725 # zph : (gz__exp__2*MZph*(5 + cmath.sqrt(1 - (4*MT__exp__2)/MZph__exp__2)))/(144.*cmath.pi) 
DECAY  10031 0.132629 # zpl : (5*gz__exp__2*MZpl)/(144.*cmath.pi) 
#===========================================================
# QUANTUM NUMBERS OF NEW STATE(S) (NON SM PDG CODE)
#===========================================================

Block QNUMBERS 10030  # zph 
        1 0  # 3 times electric charge
        2 3  # number of spin states (2S+1)
        3 1  # colour rep (1: singlet, 3: triplet, 8: octet)
        4 0  # Particle/Antiparticle distinction (0=own anti)
Block QNUMBERS 10031  # zpl 
        1 0  # 3 times electric charge
        2 3  # number of spin states (2S+1)
        3 1  # colour rep (1: singlet, 3: triplet, 8: octet)
        4 0  # Particle/Antiparticle distinction (0=own anti)
</slha>
## END BANNER##
<MGGenerationInfo>
#  Number of Events        :         4132
#  Integrated weight (pb)  :  0.39488E+00
#  Max wgt                 :  0.12825E-03
#  Average wgt             :  0.95566E-04
</MGGenerationInfo>
</header>
<init>
     2212     2212  0.40000000000E+04  0.40000000000E+04 0 0  247000  247000 2   1
  0.39463200494E+00  0.85964977798E-03  0.12825460000E-03   0
</init>
<event>
 5   0  0.1265562E-03  0.7000049E+03  0.7818609E-02  0.9717224E-01
       -2   -1    0    0    0  501  0.00000000000E+00  0.00000000000E+00  0.12787226874E+03  0.12787226877E+03  0.25500000920E-02 0. -1.
        2   -1    0    0  501    0  0.00000000000E+00  0.00000000000E+00 -0.95800058302E+03  0.95800058302E+03  0.25500000920E-02 0.  1.
    10030    2    1    2    0    0  0.00000000000E+00  0.00000000000E+00 -0.83012831427E+03  0.10858728518E+04  0.70000488005E+03 0.  0.
        1    1    3    3  502    0 -0.28571395193E+03 -0.16630210970E+03 -0.23675394141E+03  0.40662179333E+03  0.50400001928E-02 0. -1.
       -1    1    3    3    0  502  0.28571395193E+03  0.16630210970E+03 -0.59337437287E+03  0.67925105846E+03  0.50400001928E-02 0.  1.
</event>
<event>
 5   0  0.4936000E-04  0.6998842E+03  0.7818609E-02  0.9717430E-01
       -3   -1    0    0    0  501  0.00000000000E+00  0.00000000000E+00  0.41976338341E+03  0.41976339556E+03  0.10100000352E+00 0.  1.
        3   -1    0    0  501    0  0.00000000000E+00  0.00000000000E+00 -0.29173453301E+03  0.29173455049E+03  0.10100000352E+00 0. -1.
    10030    2    1    2    0    0  0.00000000000E+00  0.00000000000E+00  0.12802885041E+03  0.71149794605E+03  0.69988423379E+03 0.  0.
        3    1    3    3  502    0  0.16210027570E+03 -0.95244101928E+02 -0.23602980360E+03  0.30175820904E+03  0.10100000352E+00 0.  1.
       -3    1    3    3    0  502 -0.16210027570E+03  0.95244101928E+02  0.36405865400E+03  0.40973973702E+03  0.10100000352E+00 0. -1.
</event>
<event>
 5   0  0.1265562E-03  0.7001784E+03  0.7818609E-02  0.9716927E-01
       -2   -1    0    0    0  501  0.00000000000E+00  0.00000000000E+00  0.10311227397E+04  0.10311227397E+04  0.25500000920E-02 0. -1.
        2   -1    0    0  501    0  0.00000000000E+00  0.00000000000E+00 -0.11886309320E+03  0.11886309323E+03  0.25500000920E-02 0.  1.
    10030    2    1    2    0    0  0.00000000000E+00  0.00000000000E+00  0.91225964653E+03  0.11499858330E+04  0.70017837250E+03 0.  0.
        1    1    3    3  502    0 -0.45289873104E+02  0.40327545429E+02 -0.11017107008E+03  0.12575829290E+03  0.50400001928E-02 0.  1.
       -1    1    3    3    0  502  0.45289873104E+02 -0.40327545429E+02  0.10224307166E+04  0.10242275401E+04  0.50400001928E-02 0. -1.
</event>
<event>
 5   0  0.1224048E-03  0.6983601E+03  0.7818609E-02  0.9720041E-01
       -2   -1    0    0    0  501  0.00000000000E+00  0.00000000000E+00  0.78475838175E+02  0.78475838216E+02  0.25500000920E-02 0.  1.
        2   -1    0    0  501    0  0.00000000000E+00  0.00000000000E+00 -0.15536845834E+04  0.15536845834E+04  0.25500000920E-02 0. -1.
    10030    2    1    2    0    0  0.00000000000E+00  0.00000000000E+00 -0.14752087452E+04  0.16321604216E+04  0.69836007897E+03 0.  0.
        3    1    3    3  502    0  0.26399518997E+03  0.62446723099E+02 -0.22378772466E+03  0.35167315715E+03  0.10100000352E+00 0.  1.
       -3    1    3    3    0  502 -0.26399518997E+03 -0.62446723099E+02 -0.12514210205E+04  0.12804872644E+04  0.10100000352E+00 0. -1.
</event>
<event>
 5   0  0.1265562E-03  0.7008249E+03  0.7818609E-02  0.9715823E-01
        2   -1    0    0  501    0  0.00000000000E+00  0.00000000000E+00  0.10509840975E+04  0.10509840975E+04  0.25500000920E-02 0. -1.
       -2   -1    0    0    0  501  0.00000000000E+00  0.00000000000E+00 -0.11683230290E+03  0.11683230293E+03  0.25500000920E-02 0.  1.
    10030    2    1    2    0    0  0.00000000000E+00  0.00000000000E+00  0.93415179463E+03  0.11678164005E+04  0.70082492092E+03 0.  0.
        1    1    3    3  502    0  0.26211974507E+03 -0.21375927274E+03  0.61969990316E+03  0.70599416247E+03  0.50400001928E-02 0. -1.
       -1    1    3    3    0  502 -0.26211974507E+03  0.21375927274E+03  0.31445189147E+03  0.46182223800E+03  0.50400001928E-02 0.  1.
</event>
<event>
 5   0  0.1224048E-03  0.7002864E+03  0.7818609E-02  0.9716742E-01
        2   -1    0    0  501    0  0.00000000000E+00  0.00000000000E+00  0.21248670133E+03  0.21248670135E+03  0.25500000920E-02 0. -1.
       -2   -1    0    0    0  501  0.00000000000E+00  0.00000000000E+00 -0.57697858138E+03  0.57697858138E+03  0.25500000920E-02 0.  1.
    10030    2    1    2    0    0  0.00000000000E+00  0.00000000000E+00 -0.36449188004E+03  0.78946528273E+03  0.70028644283E+03 0.  0.
        3    1    3    3  502    0 -0.24866876541E+03  0.42933604637E+02  0.91401691801E+02  0.26839099978E+03  0.10100000352E+00 0. -1.
       -3    1    3    3    0  502  0.24866876541E+03 -0.42933604637E+02 -0.45589357185E+03  0.52107428295E+03  0.10100000352E+00 0.  1.
</event>
<event>
 5   0  0.7013526E-04  0.6999518E+03  0.7818609E-02  0.9717315E-01
       -1   -1    0    0    0  501  0.00000000000E+00  0.00000000000E+00  0.17689303351E+03  0.17689303359E+03  0.50400001928E-02 0.  1.
        1   -1    0    0  501    0  0.00000000000E+00  0.00000000000E+00 -0.69241356744E+03  0.69241356746E+03  0.50400001928E-02 0. -1.
    10030    2    1    2    0    0  0.00000000000E+00  0.00000000000E+00 -0.51552053393E+03  0.86930660105E+03  0.69995181672E+03 0.  0.
        1    1    3    3  502    0  0.98496068385E+02 -0.27633764263E+03 -0.49477199870E+03  0.57520717915E+03  0.50400001928E-02 0. -1.
       -1    1    3    3    0  502 -0.98496068385E+02  0.27633764263E+03 -0.20748535231E+02  0.29409942190E+03  0.50400001928E-02 0.  1.
</event>
<event>
 5   0  0.7574241E-04  0.7001582E+03  0.7818609E-02  0.9716962E-01
       -1   -1    0    0    0  501  0.00000000000E+00  0.00000000000E+00  0.24082909356E+03  0.24082909361E+03  0.50400001928E-02 0. -1.
        1   -1    0    0  501    0  0.00000000000E+00  0.00000000000E+00 -0.50888937672E+03  0.50888937675E+03  0.50400001928E-02 0.  1.
    10030    2    1    2    0    0  0.00000000000E+00  0.00000000000E+00 -0.26806028317E+03  0.74971847036E+03  0.70015817455E+03 0.  0.
        3    1    3    3  502    0 -0.11405139923E+03 -0.24731146666E+03  0.10150513207E+03  0.29064408690E+03  0.10100000352E+00 0. -1.
       -3    1    3    3    0  502  0.11405139923E+03  0.24731146666E+03 -0.36956541524E+03  0.45907438346E+03  0.10100000352E+00 0.  1.
</event>
<event>
 5   0  0.1265562E-03  0.6999793E+03  0.7818609E-02  0.9717268E-01
        2   -1    0    0  501    0  0.00000000000E+00  0.00000000000E+00  0.53646335170E+03  0.53646335171E+03  0.25500000920E-02 0.  1.
       -2   -1    0    0    0  501  0.00000000000E+00  0.00000000000E+00 -0.22833389210E+03  0.22833389211E+03  0.25500000920E-02 0. -1.
    10030    2    1    2    0    0  0.00000000000E+00  0.00000000000E+00  0.30812945960E+03  0.76479724382E+03  0.69997932846E+03 0.  0.
        1    1    3    3  502    0  0.26625203045E+03 -0.22573721039E+03  0.18182048788E+03  0.39358115010E+03  0.50400001928E-02 0.  1.
       -1    1    3    3    0  502 -0.26625203045E+03  0.22573721039E+03  0.12630897172E+03  0.37121609372E+03  0.50400001928E-02 0. -1.
</event>
<event>
 5   0  0.4936000E-04  0.7039927E+03  0.7818609E-02  0.9710428E-01
        4   -1    0    0  501    0  0.00000000000E+00  0.00000000000E+00  0.36914720578E+03  0.36914939041E+03  0.12699999809E+01 0. -1.
       -4   -1    0    0    0  501  0.00000000000E+00  0.00000000000E+00 -0.33563799619E+03  0.33564039892E+03  0.12699999809E+01 0.  1.
    10030    2    1    2    0    0  0.00000000000E+00  0.00000000000E+00  0.33509209592E+02  0.70478978933E+03  0.70399274145E+03 0.  0.
        5    1    3    3  502    0  0.15780601096E+03  0.20614361581E+03  0.25468189301E+03  0.36370714051E+03  0.46999998093E+01 0. -1.
       -5    1    3    3    0  502 -0.15780601096E+03 -0.20614361581E+03 -0.22117268342E+03  0.34108264882E+03  0.46999998093E+01 0.  1.
</event>
<event>
 5   0  0.1265562E-03  0.7007792E+03  0.7818609E-02  0.9715901E-01
        2   -1    0    0  501    0  0.00000000000E+00  0.00000000000E+00  0.59840177497E+03  0.59840177497E+03  0.25500000920E-02 0.  1.
       -2   -1    0    0    0  501  0.00000000000E+00  0.00000000000E+00 -0.20516796057E+03  0.20516796059E+03  0.25500000920E-02 0. -1.
    10030    2    1    2    0    0  0.00000000000E+00  0.00000000000E+00  0.39323381439E+03  0.80356973556E+03  0.70077919999E+03 0.  0.
        1    1    3    3  502    0  0.60055501153E+02  0.31974355590E+02  0.59075456085E+03  0.59465954447E+03  0.50400001928E-02 0.  1.
       -1    1    3    3    0  502 -0.60055501153E+02 -0.31974355590E+02 -0.19752074646E+03  0.20891019109E+03  0.50400001928E-02 0. -1.
</event>
<event>
 5   0  0.4936000E-04  0.6998611E+03  0.7818609E-02  0.9717470E-01
       -4   -1    0    0    0  501  0.00000000000E+00  0.00000000000E+00  0.30163063835E+03  0.30163331197E+03  0.12699999809E+01 0. -1.
        4   -1    0    0  501    0  0.00000000000E+00  0.00000000000E+00 -0.40595917007E+03  0.40596115659E+03  0.12699999809E+01 0.  1.
    10030    2    1    2    0    0  0.00000000000E+00  0.00000000000E+00 -0.10432853172E+03  0.70759446856E+03  0.69986105007E+03 0.  0.
        4    1    3    3  502    0  0.24948263989E+03  0.29790854035E+02  0.19408540240E+03  0.31748990364E+03  0.12699999809E+01 0. -1.
       -4    1    3    3    0  502 -0.24948263989E+03 -0.29790854035E+02 -0.29841393412E+03  0.39010456492E+03  0.12699999809E+01 0.  1.
</event>
<event>
 5   0  0.1282546E-03  0.7000499E+03  0.7818609E-02  0.9717147E-01
        2   -1    0    0  501    0  0.00000000000E+00  0.00000000000E+00  0.66996938537E+03  0.66996938538E+03  0.25500000920E-02 0.  1.
       -2   -1    0    0    0  501  0.00000000000E+00  0.00000000000E+00 -0.18287024280E+03  0.18287024282E+03  0.25500000920E-02 0. -1.
    10030    2    1    2    0    0  0.00000000000E+00  0.00000000000E+00  0.48709914257E+03  0.85283962820E+03  0.70004989588E+03 0.  0.
        5    1    3    3  502    0  0.93958476789E+02  0.66311119966E+02  0.64625629107E+03  0.65642565744E+03  0.46999998093E+01 0.  1.
       -5    1    3    3    0  502 -0.93958476789E+02 -0.66311119966E+02 -0.15915714850E+03  0.19641397076E+03  0.46999998093E+01 0. -1.
</event>
<event>
 5   0  0.7570633E-04  0.7006389E+03  0.7818609E-02  0.9716140E-01
        1   -1    0    0  501    0  0.00000000000E+00  0.00000000000E+00  0.27703888373E+03  0.27703888378E+03  0.50400001928E-02 0.  1.
       -1   -1    0    0    0  501  0.00000000000E+00  0.00000000000E+00 -0.44298374336E+03  0.44298374339E+03  0.50400001928E-02 0. -1.
    10030    2    1    2    0    0  0.00000000000E+00  0.00000000000E+00 -0.16594485963E+03  0.72002262717E+03  0.70063891356E+03 0.  0.
        5    1    3    3  502    0  0.22065519668E+03  0.17504603921E+03 -0.29699304798E+03  0.40933701544E+03  0.46999998093E+01 0. -1.
       -5    1    3    3    0  502 -0.22065519668E+03 -0.17504603921E+03  0.13104818835E+03  0.31068561173E+03  0.46999998093E+01 0.  1.
</event>
<event>
 5   0  0.4936000E-04  0.7003277E+03  0.7818609E-02  0.9716672E-01
        3   -1    0    0  501    0  0.00000000000E+00  0.00000000000E+00  0.79251764345E+03  0.79251764988E+03  0.10100000352E+00 0.  1.
       -3   -1    0    0    0  501  0.00000000000E+00  0.00000000000E+00 -0.15471542610E+03  0.15471545906E+03  0.10100000352E+00 0. -1.
    10030    2    1    2    0    0  0.00000000000E+00  0.00000000000E+00  0.63780221735E+03  0.94723310895E+03  0.70032770488E+03 0.  0.
        2    1    3    3  502    0  0.91124919150E+02  0.33721090282E+03  0.35202576920E+03  0.49592044327E+03  0.25500000920E-02 0.  1.
       -2    1    3    3    0  502 -0.91124919150E+02 -0.33721090282E+03  0.28577644815E+03  0.45131266567E+03  0.25500000920E-02 0. -1.
</event>
<event>
 5   0  0.7013526E-04  0.7004398E+03  0.7818609E-02  0.9716480E-01
       -1   -1    0    0    0  501  0.00000000000E+00  0.00000000000E+00  0.28701308195E+03  0.28701308200E+03  0.50400001928E-02 0. -1.
        1   -1    0    0  501    0  0.00000000000E+00  0.00000000000E+00 -0.42734633075E+03  0.42734633078E+03  0.50400001928E-02 0.  1.
    10030    2    1    2    0    0  0.00000000000E+00  0.00000000000E+00 -0.14033324880E+03  0.71435941278E+03  0.70043982604E+03 0.  0.
        1    1    3    3  502    0 -0.11299758696E+02  0.22887374522E+03  0.19994200181E+03  0.30411787173E+03  0.50400001928E-02 0. -1.
       -1    1    3    3    0  502  0.11299758696E+02 -0.22887374522E+03 -0.34027525061E+03  0.41024154104E+03  0.50400001928E-02 0.  1.
</event>
<event>
 5   0  0.7574241E-04  0.6999746E+03  0.7818609E-02  0.9717276E-01
        1   -1    0    0  501    0  0.00000000000E+00  0.00000000000E+00  0.97835085126E+03  0.97835085127E+03  0.50400001928E-02 0.  1.
       -1   -1    0    0    0  501  0.00000000000E+00  0.00000000000E+00 -0.12520162557E+03  0.12520162568E+03  0.50400001928E-02 0. -1.
    10030    2    1    2    0    0  0.00000000000E+00  0.00000000000E+00  0.85314922569E+03  0.11035524769E+04  0.69997461960E+03 0.  0.
        3    1    3    3  502    0 -0.19535401767E+02 -0.25285537992E+03  0.46320617960E+02  0.25780435397E+03  0.10100000352E+00 0. -1.
       -3    1    3    3    0  502  0.19535401767E+02  0.25285537992E+03  0.80682860773E+03  0.84574812298E+03  0.10100000352E+00 0.  1.
</event>
<event>
 5   0  0.7574241E-04  0.6965881E+03  0.7818609E-02  0.9723085E-01
       -1   -1    0    0    0  501  0.00000000000E+00  0.00000000000E+00  0.11238677489E+03  0.11238677500E+03  0.50400001928E-02 0. -1.
        1   -1    0    0  501    0  0.00000000000E+00  0.00000000000E+00 -0.10793862022E+04  0.10793862022E+04  0.50400001928E-02 0.  1.
    10030    2    1    2    0    0  0.00000000000E+00  0.00000000000E+00 -0.96699942730E+03  0.11917729772E+04  0.69658806823E+03 0.  0.
        3    1    3    3  502    0  0.32793412850E+02  0.92129424181E+02  0.88416614161E+02  0.13183605951E+03  0.10100000352E+00 0. -1.
       -3    1    3    3    0  502 -0.32793412850E+02 -0.92129424181E+02 -0.10554160415E+04  0.10599369177E+04  0.10100000352E+00 0.  1.
</event>
<event>
 5   0  0.1265562E-03  0.7009726E+03  0.7818609E-02  0.9715570E-01
       -2   -1    0    0    0  501  0.00000000000E+00  0.00000000000E+00  0.10971782863E+04  0.10971782863E+04  0.25500000920E-02 0.  1.
        2   -1    0    0  501    0  0.00000000000E+00  0.00000000000E+00 -0.11196051261E+03  0.11196051264E+03  0.25500000920E-02 0. -1.
    10030    2    1    2    0    0  0.00000000000E+00  0.00000000000E+00  0.98521777365E+03  0.12091387989E+04  0.70097259111E+03 0.  0.
        1    1    3    3  502    0  0.15273454432E+03  0.31904918584E+02 -0.48745854226E+02  0.16346841649E+03  0.50400001928E-02 0. -1.
       -1    1    3    3    0  502 -0.15273454432E+03 -0.31904918584E+02  0.10339636279E+04  0.10456703824E+04  0.50400001928E-02 0.  1.
</event>
<event>
 5   0  0.7572415E-04  0.7000798E+03  0.7818609E-02  0.9717096E-01
        1   -1    0    0  501    0  0.00000000000E+00  0.00000000000E+00  0.31968552938E+03  0.31968552942E+03  0.50400001928E-02 0.  1.
       -1   -1    0    0    0  501  0.00000000000E+00  0.00000000000E+00 -0.38327644963E+03  0.38327644966E+03  0.50400001928E-02 0. -1.
    10030    2    1    2    0    0  0.00000000000E+00  0.00000000000E+00 -0.63590920253E+02  0.70296197908E+03  0.70007980894E+03 0.  0.
        4    1    3    3  502    0  0.20326503325E+02 -0.11365486903E+03 -0.36360365166E+03  0.38149682094E+03  0.12699999809E+01 0. -1.
       -4    1    3    3    0  502 -0.20326503325E+02  0.11365486903E+03  0.30001273140E+03  0.32146515814E+03  0.12699999809E+01 0.  1.
</event>
<event>
 5   0  0.7013526E-04  0.7027915E+03  0.7818609E-02  0.9712470E-01
        1   -1    0    0  501    0  0.00000000000E+00  0.00000000000E+00  0.20777728213E+03  0.20777728219E+03  0.50400001928E-02 0. -1.
       -1   -1    0    0    0  501  0.00000000000E+00  0.00000000000E+00 -0.59428525715E+03  0.59428525717E+03  0.50400001928E-02 0.  1.
    10030    2    1    2    0    0  0.00000000000E+00  0.00000000000E+00 -0.38650797502E+03  0.80206253936E+03  0.70279150698E+03 0.  0.
        1    1    3    3  502    0  0.12310796223E+03 -0.66339483413E+02  0.17465167783E+03  0.22374026464E+03  0.50400001928E-02 0. -1.
       -1    1    3    3    0  502 -0.12310796223E+03  0.66339483413E+02 -0.56115965285E+03  0.57832227472E+03  0.50400001928E-02 0.  1.
</event>
<event>
 5   0  0.1222679E-03  0.7003126E+03  0.7818609E-02  0.9716698E-01
        2   -1    0    0  501    0  0.00000000000E+00  0.00000000000E+00  0.93950217117E+03  0.93950217118E+03  0.25500000920E-02 0. -1.
       -2   -1    0    0    0  501  0.00000000000E+00  0.00000000000E+00 -0.13050467848E+03  0.13050467850E+03  0.25500000920E-02 0.  1.
    10030    2    1    2    0    0  0.00000000000E+00  0.00000000000E+00  0.80899749270E+03  0.10700068497E+04  0.70031258390E+03 0.  0.
        2    1    3    3  502    0  0.34095801876E+02  0.20449941444E+03  0.83564490092E+03  0.86097905587E+03  0.25500000920E-02 0. -1.
       -2    1    3    3    0  502 -0.34095801876E+02 -0.20449941444E+03 -0.26647408218E+02  0.20902779381E+03  0.25500000920E-02 0.  1.
</event>
<event>
 5   0  0.7574241E-04  0.6999900E+03  0.7818609E-02  0.9717249E-01
        1   -1    0    0  501    0  0.00000000000E+00  0.00000000000E+00  0.67523777347E+03  0.67523777349E+03  0.50400001928E-02 0. -1.
       -1   -1    0    0    0  501  0.00000000000E+00  0.00000000000E+00 -0.18141240837E+03  0.18141240844E+03  0.50400001928E-02 0.  1.
    10030    2    1    2    0    0  0.00000000000E+00  0.00000000000E+00  0.49382536510E+03  0.85665018193E+03  0.69999003063E+03 0.  0.
        3    1    3    3  502    0 -0.22483701388E+03  0.90003230968E+02 -0.62310826599E+02  0.25006981766E+03  0.10100000352E+00 0.  1.
       -3    1    3    3    0  502  0.22483701388E+03 -0.90003230968E+02  0.55613619170E+03  0.60658036427E+03  0.10100000352E+00 0. -1.
</event>
<event>
 5   0  0.4936000E-04  0.6999204E+03  0.7818609E-02  0.9717368E-01
        3   -1    0    0  501    0  0.00000000000E+00  0.00000000000E+00  0.78439057044E+03  0.78439057694E+03  0.10100000352E+00 0.  1.
       -3   -1    0    0    0  501  0.00000000000E+00  0.00000000000E+00 -0.15613664933E+03  0.15613668200E+03  0.10100000352E+00 0. -1.
    10030    2    1    2    0    0  0.00000000000E+00  0.00000000000E+00  0.62825392111E+03  0.94052725894E+03  0.69992037792E+03 0.  0.
        4    1    3    3  502    0  0.28317560369E+03  0.14377504953E+03  0.11658538726E+03  0.33830969956E+03  0.12699999809E+01 0. -1.
       -4    1    3    3    0  502 -0.28317560369E+03 -0.14377504953E+03  0.51166853385E+03  0.60221755938E+03  0.12699999809E+01 0.  1.
</event>
<event>
 5   0  0.1224048E-03  0.6994041E+03  0.7818609E-02  0.9718252E-01
        2   -1    0    0  501    0  0.00000000000E+00  0.00000000000E+00  0.67045485725E+03  0.67045485725E+03  0.25500000920E-02 0.  1.
       -2   -1    0    0    0  501  0.00000000000E+00  0.00000000000E+00 -0.18240080786E+03  0.18240080787E+03  0.25500000920E-02 0. -1.
    10030    2    1    2    0    0  0.00000000000E+00  0.00000000000E+00  0.48805404939E+03  0.85285566513E+03  0.69940405376E+03 0.  0.
        3    1    3    3  502    0  0.11046691782E+03 -0.24341171109E+03  0.51897286848E+03  0.58376797570E+03  0.10100000352E+00 0.  1.
       -3    1    3    3    0  502 -0.11046691782E+03  0.24341171109E+03 -0.30918819092E+02  0.26908768943E+03  0.10100000352E+00 0. -1.
</event>
<event>
 5   0  0.7013526E-04  0.7000707E+03  0.7818609E-02  0.9717111E-01
        1   -1    0    0  501    0  0.00000000000E+00  0.00000000000E+00  0.11974809274E+04  0.11974809274E+04  0.50400001928E-02 0. -1.
       -1   -1    0    0    0  501  0.00000000000E+00  0.00000000000E+00 -0.10231875942E+03  0.10231875955E+03  0.50400001928E-02 0.  1.
    10030    2    1    2    0    0  0.00000000000E+00  0.00000000000E+00  0.10951621680E+04  0.12997996870E+04  0.70007074788E+03 0.  0.
        1    1    3    3  502    0 -0.89280163698E+02 -0.18605695031E+03  0.22643817860E+02  0.20760751167E+03  0.50400001928E-02 0.  1.
       -1    1    3    3    0  502  0.89280163698E+02  0.18605695031E+03  0.10725183501E+04  0.10921921753E+04  0.50400001928E-02 0. -1.
</event>
<event>
 5   0  0.1222679E-03  0.6999490E+03  0.7818609E-02  0.9717319E-01
        2   -1    0    0  501    0  0.00000000000E+00  0.00000000000E+00  0.48669292090E+03  0.48669292091E+03  0.25500000920E-02 0. -1.
       -2   -1    0    0    0  501  0.00000000000E+00  0.00000000000E+00 -0.25166206074E+03  0.25166206076E+03  0.25500000920E-02 0.  1.
    10030    2    1    2    0    0  0.00000000000E+00  0.00000000000E+00  0.23503086016E+03  0.73835498167E+03  0.69994897937E+03 0.  0.
        2    1    3    3  502    0  0.15780798283E+03 -0.29194223680E+03  0.23473663472E+03  0.40649097993E+03  0.25500000920E-02 0. -1.
       -2    1    3    3    0  502 -0.15780798283E+03  0.29194223680E+03  0.29422543615E+00  0.33186400174E+03  0.25500000920E-02 0.  1.
</event>
<event>
 5   0  0.7459843E-04  0.6995293E+03  0.7818609E-02  0.9718037E-01
        1   -1    0    0  501    0  0.00000000000E+00  0.00000000000E+00  0.62254870952E+03  0.62254870954E+03  0.50400001928E-02 0. -1.
       -1   -1    0    0    0  501  0.00000000000E+00  0.00000000000E+00 -0.19650721741E+03  0.19650721748E+03  0.50400001928E-02 0.  1.
    10030    2    1    2    0    0  0.00000000000E+00  0.00000000000E+00  0.42604149211E+03  0.81905592702E+03  0.69952931217E+03 0.  0.
        2    1    3    3  502    0 -0.57339951505E+02 -0.34500142272E+03  0.21844515070E+03  0.41234953085E+03  0.25500000920E-02 0.  1.
       -2    1    3    3    0  502  0.57339951505E+02  0.34500142272E+03  0.20759634140E+03  0.40670639617E+03  0.25500000920E-02 0. -1.
</event>
<event>
 5   0  0.1224048E-03  0.6998541E+03  0.7818609E-02  0.9717482E-01
        2   -1    0    0  501    0  0.00000000000E+00  0.00000000000E+00  0.17090927375E+04  0.17090927375E+04  0.25500000920E-02 0. -1.
       -2   -1    0    0    0  501  0.00000000000E+00  0.00000000000E+00 -0.71645585274E+02  0.71645585320E+02  0.25500000920E-02 0.  1.
    10030    2    1    2    0    0  0.00000000000E+00  0.00000000000E+00  0.16374471522E+04  0.17807383228E+04  0.69985412625E+03 0.  0.
        3    1    3    3  502    0 -0.19985977059E+03  0.15491778638E+03  0.20327624686E+03  0.32444520520E+03  0.10100000352E+00 0.  1.
       -3    1    3    3    0  502  0.19985977059E+03 -0.15491778638E+03  0.14341709054E+04  0.14562931176E+04  0.10100000352E+00 0. -1.
</event>
<event>
 5   0  0.1282546E-03  0.7002136E+03  0.7818609E-02  0.9716867E-01
       -2   -1    0    0    0  501  0.00000000000E+00  0.00000000000E+00  0.97247515961E+02  0.97247515995E+02  0.25500000920E-02 0. -1.
        2   -1    0    0  501    0  0.00000000000E+00  0.00000000000E+00 -0.12604412653E+04  0.12604412653E+04  0.25500000920E-02 0.  1.
    10030    2    1    2    0    0  0.00000000000E+00  0.00000000000E+00 -0.11631937493E+04  0.13576887813E+04  0.70021363052E+03 0.  0.
        5    1    3    3  502    0  0.15514973632E+03 -0.18173750724E+03 -0.10776561233E+04  0.11038409180E+04  0.46999998093E+01 0.  1.
       -5    1    3    3    0  502 -0.15514973632E+03  0.18173750724E+03 -0.85537626021E+02  0.25384786326E+03  0.46999998093E+01 0. -1.
</event>
<event>
 5   0  0.7459843E-04  0.6998237E+03  0.7818609E-02  0.9717534E-01
       -1   -1    0    0    0  501  0.00000000000E+00  0.00000000000E+00  0.37031297490E+03  0.37031297494E+03  0.50400001928E-02 0.  1.
        1   -1    0    0  501    0  0.00000000000E+00  0.00000000000E+00 -0.33063465344E+03  0.33063465348E+03  0.50400001928E-02 0. -1.
    10030    2    1    2    0    0  0.00000000000E+00  0.00000000000E+00  0.39678321460E+02  0.70094762842E+03  0.69982369822E+03 0.  0.
        2    1    3    3  502    0  0.15406711317E+03  0.10389944331E+03  0.31680568802E+03  0.36728410481E+03  0.25500000920E-02 0.  1.
       -2    1    3    3    0  502 -0.15406711317E+03 -0.10389944331E+03 -0.27712736656E+03  0.33366352360E+03  0.25500000920E-02 0. -1.
</event>
<event>
 5   0  0.1224048E-03  0.7012536E+03  0.7818609E-02  0.9715091E-01
       -2   -1    0    0    0  501  0.00000000000E+00  0.00000000000E+00  0.13038931791E+03  0.13038931794E+03  0.25500000920E-02 0. -1.
        2   -1    0    0  501    0  0.00000000000E+00  0.00000000000E+00 -0.94286207261E+03  0.94286207261E+03  0.25500000920E-02 0.  1.
    10030    2    1    2    0    0  0.00000000000E+00  0.00000000000E+00 -0.81247275470E+03  0.10732513906E+04  0.70125357054E+03 0.  0.
        3    1    3    3  502    0 -0.66947634938E+02  0.81857249661E+01  0.12036760875E+03  0.13797595209E+03  0.10100000352E+00 0. -1.
       -3    1    3    3    0  502  0.66947634938E+02 -0.81857249661E+01 -0.93284036345E+03  0.93527543846E+03  0.10100000352E+00 0.  1.
</event>
<event>
 5   0  0.1265562E-03  0.6998259E+03  0.7818609E-02  0.9717530E-01
        2   -1    0    0  501    0  0.00000000000E+00  0.00000000000E+00  0.90770450272E+03  0.90770450272E+03  0.25500000920E-02 0. -1.
       -2   -1    0    0    0  501  0.00000000000E+00  0.00000000000E+00 -0.13488868211E+03  0.13488868214E+03  0.25500000920E-02 0.  1.
    10030    2    1    2    0    0  0.00000000000E+00  0.00000000000E+00  0.77281582061E+03  0.10425931849E+04  0.69982587587E+03 0.  0.
        1    1    3    3  502    0  0.13420457866E+03  0.27583610188E+03  0.63721801890E+03  0.70720805119E+03  0.50400001928E-02 0. -1.
       -1    1    3    3    0  502 -0.13420457866E+03 -0.27583610188E+03  0.13559780171E+03  0.33538513367E+03  0.50400001928E-02 0.  1.
</event>
<event>
 5   0  0.7574241E-04  0.6996688E+03  0.7818609E-02  0.9717799E-01
       -1   -1    0    0    0  501  0.00000000000E+00  0.00000000000E+00  0.38979828107E+03  0.38979828111E+03  0.50400001928E-02 0.  1.
        1   -1    0    0  501    0  0.00000000000E+00  0.00000000000E+00 -0.31396775199E+03  0.31396775204E+03  0.50400001928E-02 0. -1.
    10030    2    1    2    0    0  0.00000000000E+00  0.00000000000E+00  0.75830529080E+02  0.70376603314E+03  0.69966875038E+03 0.  0.
        3    1    3    3  502    0 -0.83875600270E+02  0.18509165053E+03 -0.24851545502E+03  0.32102021276E+03  0.10100000352E+00 0. -1.
       -3    1    3    3    0  502  0.83875600270E+02 -0.18509165053E+03  0.32434598410E+03  0.38274582038E+03  0.10100000352E+00 0.  1.
</event>
<event>
 5   0  0.1224048E-03  0.6998866E+03  0.7818609E-02  0.9717426E-01
       -2   -1    0    0    0  501  0.00000000000E+00  0.00000000000E+00  0.23770816803E+03  0.23770816805E+03  0.25500000920E-02 0.  1.
        2   -1    0    0  501    0  0.00000000000E+00  0.00000000000E+00 -0.51517076749E+03  0.51517076749E+03  0.25500000920E-02 0. -1.
    10030    2    1    2    0    0  0.00000000000E+00  0.00000000000E+00 -0.27746259946E+03  0.75287893554E+03  0.69988656044E+03 0.  0.
        3    1    3    3  502    0  0.32770225319E+03 -0.41320237275E+02 -0.26308775448E+03  0.42226923344E+03  0.10100000352E+00 0.  1.
       -3    1    3    3    0  502 -0.32770225319E+03  0.41320237275E+02 -0.14374844972E+02  0.33060970210E+03  0.10100000352E+00 0. -1.
</event>
<event>
 5   0  0.7572415E-04  0.7001941E+03  0.7818609E-02  0.9716900E-01
        1   -1    0    0  501    0  0.00000000000E+00  0.00000000000E+00  0.13413354942E+04  0.13413354943E+04  0.50400001928E-02 0.  1.
       -1   -1    0    0    0  501  0.00000000000E+00  0.00000000000E+00 -0.91377541922E+02  0.91377542061E+02  0.50400001928E-02 0. -1.
    10030    2    1    2    0    0  0.00000000000E+00  0.00000000000E+00  0.12499579523E+04  0.14327130363E+04  0.70019408870E+03 0.  0.
        4    1    3    3  502    0 -0.32477582173E+03 -0.61206241256E+02  0.86131587566E+03  0.92254657818E+03  0.12699999809E+01 0.  1.
       -4    1    3    3    0  502  0.32477582173E+03  0.61206241256E+02  0.38864207666E+03  0.51016645813E+03  0.12699999809E+01 0. -1.
</event>
<event>
 5   0  0.7013526E-04  0.6977304E+03  0.7818609E-02  0.9721121E-01
       -1   -1    0    0    0  501  0.00000000000E+00  0.00000000000E+00  0.29821040387E+03  0.29821040391E+03  0.50400001928E-02 0. -1.
        1   -1    0    0  501    0  0.00000000000E+00  0.00000000000E+00 -0.40812432407E+03  0.40812432411E+03  0.50400001928E-02 0.  1.
    10030    2    1    2    0    0  0.00000000000E+00  0.00000000000E+00 -0.10991392021E+03  0.70633472801E+03  0.69773037639E+03 0.  0.
        1    1    3    3  502    0  0.21244681553E+03  0.83000237491E+02 -0.32219001938E+03  0.39475194422E+03  0.50400001928E-02 0.  1.
       -1    1    3    3    0  502 -0.21244681553E+03 -0.83000237491E+02  0.21227609917E+03  0.31158278379E+03  0.50400001928E-02 0. -1.
</event>
<event>
 5   0  0.7574241E-04  0.7028170E+03  0.7818609E-02  0.9712427E-01
        1   -1    0    0  501    0  0.00000000000E+00  0.00000000000E+00  0.63124117482E+03  0.63124117484E+03  0.50400001928E-02 0.  1.
       -1   -1    0    0    0  501  0.00000000000E+00  0.00000000000E+00 -0.19562716850E+03  0.19562716857E+03  0.50400001928E-02 0. -1.
    10030    2    1    2    0    0  0.00000000000E+00  0.00000000000E+00  0.43561400632E+03  0.82686834341E+03  0.70281697107E+03 0.  0.
        3    1    3    3  502    0  0.11765475488E+03  0.11806951409E+03  0.58177326319E+03  0.60518029666E+03  0.10100000352E+00 0.  1.
       -3    1    3    3    0  502 -0.11765475488E+03 -0.11806951409E+03 -0.14615925687E+03  0.22168804675E+03  0.10100000352E+00 0. -1.
</event>
<event>
 5   0  0.1243087E-03  0.6998354E+03  0.7818609E-02  0.9717514E-01
        2   -1    0    0  501    0  0.00000000000E+00  0.00000000000E+00  0.10628470101E+04  0.10628470101E+04  0.25500000920E-02 0. -1.
       -2   -1    0    0    0  501  0.00000000000E+00  0.00000000000E+00 -0.11520226919E+03  0.11520226922E+03  0.25500000920E-02 0.  1.
    10030    2    1    2    0    0  0.00000000000E+00  0.00000000000E+00  0.94764474095E+03  0.11780492794E+04  0.69983537319E+03 0.  0.
        4    1    3    3  502    0 -0.34545065400E+03 -0.47245622440E+02  0.52354374699E+03  0.62902143931E+03  0.12699999809E+01 0.  1.
       -4    1    3    3    0  502  0.34545065400E+03  0.47245622440E+02  0.42410099396E+03  0.54902784006E+03  0.12699999809E+01 0. -1.
</event>
<event>
 5   0  0.1243087E-03  0.6990860E+03  0.7818609E-02  0.9718796E-01
       -2   -1    0    0    0  501  0.00000000000E+00  0.00000000000E+00  0.16190500400E+03  0.16190500402E+03  0.25500000920E-02 0. -1.
        2   -1    0    0  501    0  0.00000000000E+00  0.00000000000E+00 -0.75464206348E+03  0.75464206349E+03  0.25500000920E-02 0.  1.
    10030    2    1    2    0    0  0.00000000000E+00  0.00000000000E+00 -0.59273705948E+03  0.91654706751E+03  0.69908604998E+03 0.  0.
        4    1    3    3  502    0  0.71622004901E+02 -0.21896449367E+03  0.48278327707E+02  0.23538812821E+03  0.12699999809E+01 0. -1.
       -4    1    3    3    0  502 -0.71622004901E+02  0.21896449367E+03 -0.64101538719E+03  0.68115893930E+03  0.12699999809E+01 0.  1.
</event>
<event>
 5   0  0.4936000E-04  0.7000291E+03  0.7818609E-02  0.9717182E-01
       -4   -1    0    0    0  501  0.00000000000E+00  0.00000000000E+00  0.10472772474E+04  0.10472780174E+04  0.12699999809E+01 0. -1.
        4   -1    0    0  501    0  0.00000000000E+00  0.00000000000E+00 -0.11697545943E+03  0.11698235341E+03  0.12699999809E+01 0.  1.
    10030    2    1    2    0    0  0.00000000000E+00  0.00000000000E+00  0.93030178792E+03  0.11642603708E+04  0.70002913826E+03 0.  0.
        1    1    3    3  502    0 -0.96648927238E+02  0.16676155671E+03  0.95106623113E+03  0.97040064301E+03  0.50400001928E-02 0. -1.
       -1    1    3    3    0  502  0.96648927238E+02 -0.16676155671E+03 -0.20764443211E+02  0.19385972779E+03  0.50400001928E-02 0.  1.
</event>
<event>
 5   0  0.7574241E-04  0.7000672E+03  0.7818609E-02  0.9717117E-01
       -1   -1    0    0    0  501  0.00000000000E+00  0.00000000000E+00  0.27841943313E+03  0.27841943318E+03  0.50400001928E-02 0. -1.
        1   -1    0    0  501    0  0.00000000000E+00  0.00000000000E+00 -0.44006815502E+03  0.44006815505E+03  0.50400001928E-02 0.  1.
    10030    2    1    2    0    0  0.00000000000E+00  0.00000000000E+00 -0.16164872189E+03  0.71848758823E+03  0.70006721474E+03 0.  0.
        3    1    3    3  502    0 -0.20470908582E+03 -0.26700185769E+03  0.18296975185E+02  0.33694300902E+03  0.10100000352E+00 0. -1.
       -3    1    3    3    0  502  0.20470908582E+03  0.26700185769E+03 -0.17994569707E+03  0.38154457921E+03  0.10100000352E+00 0.  1.
</event>
<event>
 5   0  0.7570633E-04  0.7000413E+03  0.7818609E-02  0.9717162E-01
        1   -1    0    0  501    0  0.00000000000E+00  0.00000000000E+00  0.16533238607E+03  0.16533238614E+03  0.50400001928E-02 0.  1.
       -1   -1    0    0    0  501  0.00000000000E+00  0.00000000000E+00 -0.74101914748E+03  0.74101914750E+03  0.50400001928E-02 0. -1.
    10030    2    1    2    0    0  0.00000000000E+00  0.00000000000E+00 -0.57568676141E+03  0.90635153364E+03  0.70004132397E+03 0.  0.
        5    1    3    3  502    0  0.46544952993E+02  0.11738475746E+03 -0.71045664132E+03  0.72160677874E+03  0.46999998093E+01 0. -1.
       -5    1    3    3    0  502 -0.46544952993E+02 -0.11738475746E+03  0.13476987991E+03  0.18474475490E+03  0.46999998093E+01 0.  1.
</event>
<event>
 5   0  0.1222679E-03  0.7003198E+03  0.7818609E-02  0.9716685E-01
        2   -1    0    0  501    0  0.00000000000E+00  0.00000000000E+00  0.67416447536E+03  0.67416447537E+03  0.25500000920E-02 0.  1.
       -2   -1    0    0    0  501  0.00000000000E+00  0.00000000000E+00 -0.18187245580E+03  0.18187245582E+03  0.25500000920E-02 0. -1.
    10030    2    1    2    0    0  0.00000000000E+00  0.00000000000E+00  0.49229201956E+03  0.85603693118E+03  0.70031978055E+03 0.  0.
        2    1    3    3  502    0 -0.22034305535E+03  0.66362733178E+02  0.56875621371E+03  0.61354600890E+03  0.25500000920E-02 0.  1.
       -2    1    3    3    0  502  0.22034305535E+03 -0.66362733178E+02 -0.76464194145E+02  0.24249092228E+03  0.25500000920E-02 0. -1.
</event>
<event>
 5   0  0.1224048E-03  0.6993229E+03  0.7818609E-02  0.9718391E-01
        2   -1    0    0  501    0  0.00000000000E+00  0.00000000000E+00  0.12297519242E+04  0.12297519242E+04  0.25500000920E-02 0.  1.
       -2   -1    0    0    0  501  0.00000000000E+00  0.00000000000E+00 -0.99420982645E+02  0.99420982677E+02  0.25500000920E-02 0. -1.
    10030    2    1    2    0    0  0.00000000000E+00  0.00000000000E+00  0.11303309415E+04  0.13291729069E+04  0.69932294323E+03 0.  0.
        3    1    3    3  502    0 -0.11018620540E+03 -0.25873495238E+03  0.96011060757E+03  0.10004484816E+04  0.10100000352E+00 0.  1.
       -3    1    3    3    0  502  0.11018620540E+03  0.25873495238E+03  0.17022033396E+03  0.32872442522E+03  0.10100000352E+00 0. -1.
</event>
<event>
 5   0  0.1265562E-03  0.6999265E+03  0.7818609E-02  0.9717358E-01
       -2   -1    0    0    0  501  0.00000000000E+00  0.00000000000E+00  0.10889828879E+03  0.10889828882E+03  0.25500000920E-02 0.  1.
        2   -1    0    0  501    0  0.00000000000E+00  0.00000000000E+00 -0.11246668259E+04  0.11246668259E+04  0.25500000920E-02 0. -1.
    10030    2    1    2    0    0  0.00000000000E+00  0.00000000000E+00 -0.10157685371E+04  0.12335651148E+04  0.69992654707E+03 0.  0.
        1    1    3    3  502    0 -0.26753391956E+03  0.11800695374E+03 -0.16899382625E+03  0.33772615028E+03  0.50400001928E-02 0.  1.
       -1    1    3    3    0  502  0.26753391956E+03 -0.11800695374E+03 -0.84677471090E+03  0.89583896448E+03  0.50400001928E-02 0. -1.
</event>
<event>
 5   0  0.1222679E-03  0.7001388E+03  0.7818609E-02  0.9716995E-01
        2   -1    0    0  501    0  0.00000000000E+00  0.00000000000E+00  0.93215072695E+03  0.93215072695E+03  0.25500000920E-02 0.  1.
       -2   -1    0    0    0  501  0.00000000000E+00  0.00000000000E+00 -0.13146863319E+03  0.13146863322E+03  0.25500000920E-02 0. -1.
    10030    2    1    2    0    0  0.00000000000E+00  0.00000000000E+00  0.80068209375E+03  0.10636193602E+04  0.70013879201E+03 0.  0.
        2    1    3    3  502    0  0.71765336118E+02 -0.30494565416E+03  0.63767208963E+03  0.71047013263E+03  0.25500000920E-02 0.  1.
       -2    1    3    3    0  502 -0.71765336118E+02  0.30494565416E+03  0.16301000413E+03  0.35314922754E+03  0.25500000920E-02 0. -1.
</event>
<event>
 5   0  0.1224048E-03  0.6999963E+03  0.7818609E-02  0.9717239E-01
       -2   -1    0    0    0  501  0.00000000000E+00  0.00000000000E+00  0.25463251469E+03  0.25463251470E+03  0.25500000920E-02 0. -1.
        2   -1    0    0  501    0  0.00000000000E+00  0.00000000000E+00 -0.48108030818E+03  0.48108030818E+03  0.25500000920E-02 0.  1.
    10030    2    1    2    0    0  0.00000000000E+00  0.00000000000E+00 -0.22644779349E+03  0.73571282289E+03  0.69999625327E+03 0.  0.
        3    1    3    3  502    0  0.16036318801E+03  0.21767622840E+03  0.12037639746E+03  0.29595570571E+03  0.10100000352E+00 0. -1.
       -3    1    3    3    0  502 -0.16036318801E+03 -0.21767622840E+03 -0.34682419095E+03  0.43975711717E+03  0.10100000352E+00 0.  1.
</event>
<event>
 5   0  0.7574241E-04  0.6999102E+03  0.7818609E-02  0.9717386E-01
       -1   -1    0    0    0  501  0.00000000000E+00  0.00000000000E+00  0.21336389501E+03  0.21336389507E+03  0.50400001928E-02 0. -1.
        1   -1    0    0  501    0  0.00000000000E+00  0.00000000000E+00 -0.57398915337E+03  0.57398915339E+03  0.50400001928E-02 0.  1.
    10030    2    1    2    0    0  0.00000000000E+00  0.00000000000E+00 -0.36062525835E+03  0.78735304846E+03  0.69991016992E+03 0.  0.
        3    1    3    3  502    0  0.54475192766E+02 -0.30119089353E+03  0.10545519030E+02  0.30625923520E+03  0.10100000352E+00 0. -1.
       -3    1    3    3    0  502 -0.54475192766E+02  0.30119089353E+03 -0.37117077738E+03  0.48109381326E+03  0.10100000352E+00 0.  1.
</event>
<event>
 5   0  0.1282546E-03  0.7003175E+03  0.7818609E-02  0.9716689E-01
        2   -1    0    0  501    0  0.00000000000E+00  0.00000000000E+00  0.92210261985E+03  0.92210261985E+03  0.25500000920E-02 0. -1.
       -2   -1    0    0    0  501  0.00000000000E+00  0.00000000000E+00 -0.13296910054E+03  0.13296910057E+03  0.25500000920E-02 0.  1.
    10030    2    1    2    0    0  0.00000000000E+00  0.00000000000E+00  0.78913351930E+03  0.10550717204E+04  0.70031751651E+03 0.  0.
        5    1    3    3  502    0 -0.12395185556E+03 -0.32388850983E+03  0.46715173053E+03  0.58182528187E+03  0.46999998093E+01 0. -1.
       -5    1    3    3    0  502  0.12395185556E+03  0.32388850983E+03  0.32198178878E+03  0.47324643855E+03  0.46999998093E+01 0.  1.
</event>
<event>
 5   0  0.7570633E-04  0.6999013E+03  0.7818609E-02  0.9717401E-01
        1   -1    0    0  501    0  0.00000000000E+00  0.00000000000E+00  0.34800627556E+03  0.34800627559E+03  0.50400001928E-02 0. -1.
       -1   -1    0    0    0  501  0.00000000000E+00  0.00000000000E+00 -0.35190588019E+03  0.35190588022E+03  0.50400001928E-02 0.  1.
    10030    2    1    2    0    0  0.00000000000E+00  0.00000000000E+00 -0.38996046290E+01  0.69991215582E+03  0.69990129228E+03 0.  0.
        5    1    3    3  502    0 -0.32351154948E+03 -0.13076456476E+03 -0.28108776621E+02  0.35010182428E+03  0.46999998093E+01 0.  1.
       -5    1    3    3    0  502  0.32351154948E+03  0.13076456476E+03  0.24209171992E+02  0.34981033154E+03  0.46999998093E+01 0. -1.
</event>
<event>
 5   0  0.7574241E-04  0.6999116E+03  0.7818609E-02  0.9717383E-01
       -1   -1    0    0    0  501  0.00000000000E+00  0.00000000000E+00  0.45137758059E+03  0.45137758061E+03  0.50400001928E-02 0. -1.
        1   -1    0    0  501    0  0.00000000000E+00  0.00000000000E+00 -0.27132289487E+03  0.27132289492E+03  0.50400001928E-02 0.  1.
    10030    2    1    2    0    0  0.00000000000E+00  0.00000000000E+00  0.18005468571E+03  0.72270047553E+03  0.69991162834E+03 0.  0.
        3    1    3    3  502    0 -0.15360382993E+03  0.27148434019E+03 -0.73792650171E+02  0.32053587780E+03  0.10100000352E+00 0.  1.
       -3    1    3    3    0  502  0.15360382993E+03 -0.27148434019E+03  0.25384733589E+03  0.40216459774E+03  0.10100000352E+00 0. -1.
</event>
<event>
 5   0  0.4936000E-04  0.6999380E+03  0.7818609E-02  0.9717338E-01
        3   -1    0    0  501    0  0.00000000000E+00  0.00000000000E+00  0.54801477733E+03  0.54801478664E+03  0.10100000352E+00 0.  1.
       -3   -1    0    0    0  501  0.00000000000E+00  0.00000000000E+00 -0.22349450904E+03  0.22349453186E+03  0.10100000352E+00 0. -1.
    10030    2    1    2    0    0  0.00000000000E+00  0.00000000000E+00  0.32452026829E+03  0.77150931850E+03  0.69993801440E+03 0.  0.
        5    1    3    3  502    0  0.17692488306E+03  0.29432675730E+03  0.23641127540E+03  0.41694488298E+03  0.46999998093E+01 0.  1.
       -5    1    3    3    0  502 -0.17692488306E+03 -0.29432675730E+03  0.88108992883E+02  0.35456443552E+03  0.46999998093E+01 0. -1.
</event>
<event>
 5   0  0.1224048E-03  0.6998971E+03  0.7818609E-02  0.9717408E-01
       -2   -1    0    0    0  501  0.00000000000E+00  0.00000000000E+00  0.17491706424E+03  0.17491706426E+03  0.25500000920E-02 0. -1.
        2   -1    0    0  501    0  0.00000000000E+00  0.00000000000E+00 -0.70012592046E+03  0.70012592046E+03  0.25500000920E-02 0.  1.
    10030    2    1    2    0    0  0.00000000000E+00  0.00000000000E+00 -0.52520885621E+03  0.87504298472E+03  0.69989705134E+03 0.  0.
        3    1    3    3  502    0  0.12503483471E+02  0.26820053564E+03  0.18008372066E+02  0.26909510601E+03  0.10100000352E+00 0. -1.
       -3    1    3    3    0  502 -0.12503483471E+02 -0.26820053564E+03 -0.54321722828E+03  0.60594787871E+03  0.10100000352E+00 0.  1.
</event>
<event>
 5   0  0.7013526E-04  0.6998124E+03  0.7818609E-02  0.9717553E-01
       -1   -1    0    0    0  501  0.00000000000E+00  0.00000000000E+00  0.11146461031E+03  0.11146461042E+03  0.50400001928E-02 0. -1.
        1   -1    0    0  501    0  0.00000000000E+00  0.00000000000E+00 -0.10984145706E+04  0.10984145706E+04  0.50400001928E-02 0.  1.
    10030    2    1    2    0    0  0.00000000000E+00  0.00000000000E+00 -0.98694996029E+03  0.12098791810E+04  0.69981240957E+03 0.  0.
        1    1    3    3  502    0 -0.16827368454E+03 -0.30523920424E+03 -0.54668764390E+03  0.64834742594E+03  0.50400001928E-02 0.  1.
       -1    1    3    3    0  502  0.16827368454E+03  0.30523920424E+03 -0.44026231640E+03  0.56153175510E+03  0.50400001928E-02 0. -1.
</event>
<event>
 5   0  0.7574241E-04  0.7000564E+03  0.7818609E-02  0.9717136E-01
       -1   -1    0    0    0  501  0.00000000000E+00  0.00000000000E+00  0.10935097757E+04  0.10935097757E+04  0.50400001928E-02 0. -1.
        1   -1    0    0  501    0  0.00000000000E+00  0.00000000000E+00 -0.11204266606E+03  0.11204266617E+03  0.50400001928E-02 0.  1.
    10030    2    1    2    0    0  0.00000000000E+00  0.00000000000E+00  0.98146710967E+03  0.12055524419E+04  0.70005642831E+03 0.  0.
        3    1    3    3  502    0 -0.17662948962E+03 -0.17782713332E+03  0.91149659663E+03  0.94532879033E+03  0.10100000352E+00 0. -1.
       -3    1    3    3    0  502  0.17662948962E+03  0.17782713332E+03  0.69970513040E+02  0.26022365158E+03  0.10100000352E+00 0.  1.
</event>
<event>
 5   0  0.7459843E-04  0.7003125E+03  0.7818609E-02  0.9716698E-01
       -1   -1    0    0    0  501  0.00000000000E+00  0.00000000000E+00  0.29626140989E+03  0.29626140993E+03  0.50400001928E-02 0. -1.
        1   -1    0    0  501    0  0.00000000000E+00  0.00000000000E+00 -0.41385547939E+03  0.41385547942E+03  0.50400001928E-02 0.  1.
    10030    2    1    2    0    0  0.00000000000E+00  0.00000000000E+00 -0.11759406950E+03  0.71011688935E+03  0.70031252406E+03 0.  0.
        2    1    3    3  502    0 -0.14353730068E+03  0.16905876245E+03 -0.33356219206E+03  0.40055905660E+03  0.25500000920E-02 0.  1.
       -2    1    3    3    0  502  0.14353730068E+03 -0.16905876245E+03  0.21596812256E+03  0.30955783275E+03  0.25500000920E-02 0. -1.
</event>
<event>
 5   0  0.7570633E-04  0.6998477E+03  0.7818609E-02  0.9717493E-01
       -1   -1    0    0    0  501  0.00000000000E+00  0.00000000000E+00  0.21858275640E+03  0.21858275646E+03  0.50400001928E-02 0. -1.
        1   -1    0    0  501    0  0.00000000000E+00  0.00000000000E+00 -0.56018460095E+03  0.56018460097E+03  0.50400001928E-02 0.  1.
    10030    2    1    2    0    0  0.00000000000E+00  0.00000000000E+00 -0.34160184454E+03  0.77876735743E+03  0.69984768114E+03 0.  0.
        5    1    3    3  502    0  0.14203769126E+03  0.13778987631E+03  0.15029327084E+03  0.24853754849E+03  0.46999998093E+01 0. -1.
       -5    1    3    3    0  502 -0.14203769126E+03 -0.13778987631E+03 -0.49189511538E+03  0.53022980894E+03  0.46999998093E+01 0.  1.
</event>
<event>
 5   0  0.1243087E-03  0.6999608E+03  0.7818609E-02  0.9717299E-01
       -2   -1    0    0    0  501  0.00000000000E+00  0.00000000000E+00  0.40274179630E+03  0.40274179631E+03  0.25500000920E-02 0.  1.
        2   -1    0    0  501    0  0.00000000000E+00  0.00000000000E+00 -0.30413100459E+03  0.30413100460E+03  0.25500000920E-02 0. -1.
    10030    2    1    2    0    0  0.00000000000E+00  0.00000000000E+00  0.98610791704E+02  0.70687280091E+03  0.69996076206E+03 0.  0.
        4    1    3    3  502    0  0.27903089245E+03  0.58822542758E+02  0.25420382003E+03  0.38202032079E+03  0.12699999809E+01 0.  1.
       -4    1    3    3    0  502 -0.27903089245E+03 -0.58822542758E+02 -0.15559302833E+03  0.32485248012E+03  0.12699999809E+01 0. -1.
</event>
<event>
 5   0  0.1265562E-03  0.7000241E+03  0.7818609E-02  0.9717191E-01
        2   -1    0    0  501    0  0.00000000000E+00  0.00000000000E+00  0.35961841705E+03  0.35961841706E+03  0.25500000920E-02 0.  1.
       -2   -1    0    0    0  501  0.00000000000E+00  0.00000000000E+00 -0.34066225695E+03  0.34066225696E+03  0.25500000920E-02 0. -1.
    10030    2    1    2    0    0  0.00000000000E+00  0.00000000000E+00  0.18956160096E+02  0.70028067402E+03  0.70002406130E+03 0.  0.
        1    1    3    3  502    0 -0.14257679238E+03  0.26829410373E+03 -0.16436293354E+03  0.34543456944E+03  0.50400001928E-02 0. -1.
       -1    1    3    3    0  502  0.14257679238E+03 -0.26829410373E+03  0.18331909364E+03  0.35484610458E+03  0.50400001928E-02 0.  1.
</event>
<event>
 5   0  0.7572415E-04  0.7000236E+03  0.7818609E-02  0.9717192E-01
       -1   -1    0    0    0  501  0.00000000000E+00  0.00000000000E+00  0.59175086494E+03  0.59175086496E+03  0.50400001928E-02 0. -1.
        1   -1    0    0  501    0  0.00000000000E+00  0.00000000000E+00 -0.20702678133E+03  0.20702678139E+03  0.50400001928E-02 0.  1.
    10030    2    1    2    0    0  0.00000000000E+00  0.00000000000E+00  0.38472408361E+03  0.79877764635E+03  0.70002364803E+03 0.  0.
        4    1    3    3  502    0  0.22409165887E+03 -0.16492869880E+03 -0.49932839518E+02  0.28268966841E+03  0.12699999809E+01 0.  1.
       -4    1    3    3    0  502 -0.22409165887E+03  0.16492869880E+03  0.43465692313E+03  0.51608797795E+03  0.12699999809E+01 0. -1.
</event>
<event>
 5   0  0.1222679E-03  0.7001880E+03  0.7818609E-02  0.9716911E-01
       -2   -1    0    0    0  501  0.00000000000E+00  0.00000000000E+00  0.30716849608E+03  0.30716849609E+03  0.25500000920E-02 0. -1.
        2   -1    0    0  501    0  0.00000000000E+00  0.00000000000E+00 -0.39901820220E+03  0.39901820221E+03  0.25500000920E-02 0.  1.
    10030    2    1    2    0    0  0.00000000000E+00  0.00000000000E+00 -0.91849706120E+02  0.70618669831E+03  0.70018803500E+03 0.  0.
        2    1    3    3  502    0  0.18762507379E+03 -0.89233871563E+02 -0.33011892461E+03  0.39005686322E+03  0.25500000920E-02 0.  1.
       -2    1    3    3    0  502 -0.18762507379E+03  0.89233871563E+02  0.23826921849E+03  0.31612983509E+03  0.25500000920E-02 0. -1.
</event>
<event>
 5   0  0.7574241E-04  0.7001695E+03  0.7818609E-02  0.9716942E-01
       -1   -1    0    0    0  501  0.00000000000E+00  0.00000000000E+00  0.13480622423E+03  0.13480622432E+03  0.50400001928E-02 0. -1.
        1   -1    0    0  501    0  0.00000000000E+00  0.00000000000E+00 -0.90915178991E+03  0.90915178992E+03  0.50400001928E-02 0.  1.
    10030    2    1    2    0    0  0.00000000000E+00  0.00000000000E+00 -0.77434556568E+03  0.10439580142E+04  0.70016946550E+03 0.  0.
        3    1    3    3  502    0 -0.25659177829E+03 -0.29043651600E+02 -0.34725463050E+02  0.26055468211E+03  0.10100000352E+00 0.  1.
       -3    1    3    3    0  502  0.25659177829E+03  0.29043651600E+02 -0.73962010263E+03  0.78340333214E+03  0.10100000352E+00 0. -1.
</event>
<event>
 5   0  0.1222679E-03  0.6999242E+03  0.7818609E-02  0.9717362E-01
        2   -1    0    0  501    0  0.00000000000E+00  0.00000000000E+00  0.11857371720E+04  0.11857371720E+04  0.25500000920E-02 0. -1.
       -2   -1    0    0    0  501  0.00000000000E+00  0.00000000000E+00 -0.10328887961E+03  0.10328887965E+03  0.25500000920E-02 0.  1.
    10030    2    1    2    0    0  0.00000000000E+00  0.00000000000E+00  0.10824482924E+04  0.12890260516E+04  0.69992417885E+03 0.  0.
        2    1    3    3  502    0 -0.94218974294E+00  0.34984279043E+03  0.52448642878E+03  0.63045767480E+03  0.25500000920E-02 0.  1.
       -2    1    3    3    0  502  0.94218974294E+00 -0.34984279043E+03  0.55796186360E+03  0.65856837684E+03  0.25500000920E-02 0. -1.
</event>
<event>
 5   0  0.7459843E-04  0.7001899E+03  0.7818609E-02  0.9716907E-01
        1   -1    0    0  501    0  0.00000000000E+00  0.00000000000E+00  0.14799192245E+03  0.14799192254E+03  0.50400001928E-02 0.  1.
       -1   -1    0    0    0  501  0.00000000000E+00  0.00000000000E+00 -0.82819716779E+03  0.82819716781E+03  0.50400001928E-02 0. -1.
    10030    2    1    2    0    0  0.00000000000E+00  0.00000000000E+00 -0.68020524534E+03  0.97618909034E+03  0.70018994875E+03 0.  0.
        2    1    3    3  502    0  0.10161713689E+03 -0.18798668091E+03  0.46518306202E+02  0.21869839398E+03  0.25500000920E-02 0.  1.
       -2    1    3    3    0  502 -0.10161713689E+03  0.18798668091E+03 -0.72672355154E+03  0.75749069636E+03  0.25500000920E-02 0. -1.
</event>
<event>
 5   0  0.7459843E-04  0.6999020E+03  0.7818609E-02  0.9717400E-01
       -1   -1    0    0    0  501  0.00000000000E+00  0.00000000000E+00  0.43014370430E+03  0.43014370433E+03  0.50400001928E-02 0.  1.
        1   -1    0    0  501    0  0.00000000000E+00  0.00000000000E+00 -0.28470881237E+03  0.28470881241E+03  0.50400001928E-02 0. -1.
    10030    2    1    2    0    0  0.00000000000E+00  0.00000000000E+00  0.14543489193E+03  0.71485251675E+03  0.69990200236E+03 0.  0.
        2    1    3    3  502    0 -0.16098965385E+03  0.26796239279E+03  0.23338043441E+03  0.39011272700E+03  0.25500000920E-02 0.  1.
       -2    1    3    3    0  502  0.16098965385E+03 -0.26796239279E+03 -0.87945542481E+02  0.32473978974E+03  0.25500000920E-02 0. -1.
</event>
<event>
 5   0  0.7459843E-04  0.6996927E+03  0.7818609E-02  0.9717758E-01
        1   -1    0    0  501    0  0.00000000000E+00  0.00000000000E+00  0.11380886440E+03  0.11380886452E+03  0.50400001928E-02 0.  1.
       -1   -1    0    0    0  501  0.00000000000E+00  0.00000000000E+00 -0.10754213175E+04  0.10754213175E+04  0.50400001928E-02 0. -1.
    10030    2    1    2    0    0  0.00000000000E+00  0.00000000000E+00 -0.96161245310E+03  0.11892301820E+04  0.69969272963E+03 0.  0.
        2    1    3    3  502    0 -0.67725550225E+02  0.54522854005E+02  0.95153202887E+02  0.12889384698E+03  0.25500000920E-02 0.  1.
       -2    1    3    3    0  502  0.67725550225E+02 -0.54522854005E+02 -0.10567656560E+04  0.10603363351E+04  0.25500000920E-02 0. -1.
</event>
<event>
 5   0  0.1222679E-03  0.6983378E+03  0.7818609E-02  0.9720079E-01
       -2   -1    0    0    0  501  0.00000000000E+00  0.00000000000E+00  0.44609937160E+03  0.44609937161E+03  0.25500000920E-02 0. -1.
        2   -1    0    0  501    0  0.00000000000E+00  0.00000000000E+00 -0.27329988372E+03  0.27329988373E+03  0.25500000920E-02 0.  1.
    10030    2    1    2    0    0  0.00000000000E+00  0.00000000000E+00  0.17279948789E+03  0.71939925534E+03  0.69833775894E+03 0.  0.
        2    1    3    3  502    0  0.52942958818E+02  0.22080499902E+03 -0.18685692832E+03  0.29406345599E+03  0.25500000920E-02 0.  1.
       -2    1    3    3    0  502 -0.52942958818E+02 -0.22080499902E+03  0.35965641621E+03  0.42533579935E+03  0.25500000920E-02 0. -1.
</event>
<event>
 5   0  0.7570633E-04  0.7000541E+03  0.7818609E-02  0.9717140E-01
        1   -1    0    0  501    0  0.00000000000E+00  0.00000000000E+00  0.67704831821E+02  0.67704832008E+02  0.50400001928E-02 0. -1.
       -1   -1    0    0    0  501  0.00000000000E+00  0.00000000000E+00 -0.18096041806E+04  0.18096041806E+04  0.50400001928E-02 0.  1.
    10030    2    1    2    0    0  0.00000000000E+00  0.00000000000E+00 -0.17418993488E+04  0.18773090126E+04  0.70005413188E+03 0.  0.
        5    1    3    3  502    0 -0.38212254569E+02 -0.34703232298E+03 -0.93692333342E+03  0.99986950764E+03  0.46999998093E+01 0.  1.
       -5    1    3    3    0  502  0.38212254569E+02  0.34703232298E+03 -0.80497601535E+03  0.87743950497E+03  0.46999998093E+01 0. -1.
</event>
<event>
 5   0  0.1282546E-03  0.6998115E+03  0.7818609E-02  0.9717555E-01
       -2   -1    0    0    0  501  0.00000000000E+00  0.00000000000E+00  0.23825013743E+03  0.23825013745E+03  0.25500000920E-02 0. -1.
        2   -1    0    0  501    0  0.00000000000E+00  0.00000000000E+00 -0.51388866052E+03  0.51388866052E+03  0.25500000920E-02 0.  1.
    10030    2    1    2    0    0  0.00000000000E+00  0.00000000000E+00 -0.27563852308E+03  0.75213879797E+03  0.69981152892E+03 0.  0.
        5    1    3    3  502    0 -0.81198693210E+02  0.20887852952E+03  0.15094993595E+03  0.27024329970E+03  0.46999998093E+01 0. -1.
       -5    1    3    3    0  502  0.81198693210E+02 -0.20887852952E+03 -0.42658845903E+03  0.48189549827E+03  0.46999998093E+01 0.  1.
</event>
<event>
 5   0  0.1282546E-03  0.7001120E+03  0.7818609E-02  0.9717041E-01
        2   -1    0    0  501    0  0.00000000000E+00  0.00000000000E+00  0.12099318942E+04  0.12099318942E+04  0.25500000920E-02 0.  1.
       -2   -1    0    0    0  501  0.00000000000E+00  0.00000000000E+00 -0.10127775582E+03  0.10127775585E+03  0.25500000920E-02 0. -1.
    10030    2    1    2    0    0  0.00000000000E+00  0.00000000000E+00  0.11086541384E+04  0.13112096500E+04  0.70011195380E+03 0.  0.
        5    1    3    3  502    0  0.14537514803E+03 -0.21542349479E+03  0.99345467863E+03  0.10268960533E+04  0.46999998093E+01 0.  1.
       -5    1    3    3    0  502 -0.14537514803E+03  0.21542349479E+03  0.11519945972E+03  0.28431359674E+03  0.46999998093E+01 0. -1.
</event>
<event>
 5   0  0.1243087E-03  0.6999987E+03  0.7818609E-02  0.9717234E-01
        2   -1    0    0  501    0  0.00000000000E+00  0.00000000000E+00  0.85970826124E+03  0.85970826124E+03  0.25500000920E-02 0.  1.
       -2   -1    0    0    0  501  0.00000000000E+00  0.00000000000E+00 -0.14248966384E+03  0.14248966386E+03  0.25500000920E-02 0. -1.
    10030    2    1    2    0    0  0.00000000000E+00  0.00000000000E+00  0.71721859740E+03  0.10021979251E+04  0.69999868901E+03 0.  0.
        4    1    3    3  502    0  0.26230370064E+02  0.20960408564E+03  0.75814735786E+03  0.78702664133E+03  0.12699999809E+01 0.  1.
       -4    1    3    3    0  502 -0.26230370064E+02 -0.20960408564E+03 -0.40928760457E+02  0.21517128378E+03  0.12699999809E+01 0. -1.
</event>
<event>
 5   0  0.7572415E-04  0.6999545E+03  0.7818609E-02  0.9717310E-01
        1   -1    0    0  501    0  0.00000000000E+00  0.00000000000E+00  0.43872333560E+03  0.43872333563E+03  0.50400001928E-02 0. -1.
       -1   -1    0    0    0  501  0.00000000000E+00  0.00000000000E+00 -0.27918291992E+03  0.27918291997E+03  0.50400001928E-02 0.  1.
    10030    2    1    2    0    0  0.00000000000E+00  0.00000000000E+00  0.15954041568E+03  0.71790625560E+03  0.69995446109E+03 0.  0.
        4    1    3    3  502    0 -0.40868527576E+02 -0.23436601139E+03 -0.18349321219E+03  0.30044805818E+03  0.12699999809E+01 0.  1.
       -4    1    3    3    0  502  0.40868527576E+02  0.23436601139E+03  0.34303362788E+03  0.41745819742E+03  0.12699999809E+01 0. -1.
</event>
<event>
 5   0  0.7459843E-04  0.6998599E+03  0.7818609E-02  0.9717472E-01
       -1   -1    0    0    0  501  0.00000000000E+00  0.00000000000E+00  0.21924678406E+03  0.21924678411E+03  0.50400001928E-02 0. -1.
        1   -1    0    0  501    0  0.00000000000E+00  0.00000000000E+00 -0.55850752807E+03  0.55850752809E+03  0.50400001928E-02 0.  1.
    10030    2    1    2    0    0  0.00000000000E+00  0.00000000000E+00 -0.33926074402E+03  0.77775431221E+03  0.69985992722E+03 0.  0.
        2    1    3    3  502    0  0.32838202585E+03  0.10756339291E+03 -0.10829365029E+03  0.36212173795E+03  0.25500000920E-02 0.  1.
       -2    1    3    3    0  502 -0.32838202585E+03 -0.10756339291E+03 -0.23096709372E+03  0.41563257426E+03  0.25500000920E-02 0. -1.
</event>
<event>
 5   0  0.4936000E-04  0.6997130E+03  0.7818609E-02  0.9717723E-01
        3   -1    0    0  501    0  0.00000000000E+00  0.00000000000E+00  0.13424424043E+04  0.13424424081E+04  0.10100000352E+00 0. -1.
       -3   -1    0    0    0  501  0.00000000000E+00  0.00000000000E+00 -0.91176738043E+02  0.91176793984E+02  0.10100000352E+00 0.  1.
    10030    2    1    2    0    0  0.00000000000E+00  0.00000000000E+00  0.12512656663E+04  0.14336192021E+04  0.69971297619E+03 0.  0.
        1    1    3    3  502    0  0.35431654017E+02  0.28839205859E+03  0.22637073237E+03  0.36833285228E+03  0.50400001928E-02 0.  1.
       -1    1    3    3    0  502 -0.35431654017E+02 -0.28839205859E+03  0.10248949339E+04  0.10652863498E+04  0.50400001928E-02 0. -1.
</event>
<event>
 5   0  0.1222679E-03  0.7004399E+03  0.7818609E-02  0.9716480E-01
        2   -1    0    0  501    0  0.00000000000E+00  0.00000000000E+00  0.44596675155E+03  0.44596675155E+03  0.25500000920E-02 0.  1.
       -2   -1    0    0    0  501  0.00000000000E+00  0.00000000000E+00 -0.27502953588E+03  0.27502953589E+03  0.25500000920E-02 0. -1.
    10030    2    1    2    0    0  0.00000000000E+00  0.00000000000E+00  0.17093721567E+03  0.72099628744E+03  0.70043994375E+03 0.  0.
        2    1    3    3  502    0 -0.29124596526E+03  0.10535568090E+03 -0.82822658481E+02  0.32059885299E+03  0.25500000920E-02 0. -1.
       -2    1    3    3    0  502  0.29124596526E+03 -0.10535568090E+03  0.25375987415E+03  0.40039743445E+03  0.25500000920E-02 0.  1.
</event>
<event>
 5   0  0.7459843E-04  0.7006727E+03  0.7818609E-02  0.9716082E-01
       -1   -1    0    0    0  501  0.00000000000E+00  0.00000000000E+00  0.19085850578E+03  0.19085850584E+03  0.50400001928E-02 0. -1.
        1   -1    0    0  501    0  0.00000000000E+00  0.00000000000E+00 -0.64307094684E+03  0.64307094686E+03  0.50400001928E-02 0.  1.
    10030    2    1    2    0    0  0.00000000000E+00  0.00000000000E+00 -0.45221244107E+03  0.83392945271E+03  0.70067270551E+03 0.  0.
        2    1    3    3  502    0  0.12973520533E+03 -0.24337268152E+03 -0.48323575870E+03  0.55639759534E+03  0.25500000920E-02 0.  1.
       -2    1    3    3    0  502 -0.12973520533E+03  0.24337268152E+03  0.31023317636E+02  0.27753185737E+03  0.25500000920E-02 0. -1.
</event>
<event>
 5   0  0.1224048E-03  0.7002554E+03  0.7818609E-02  0.9716795E-01
        2   -1    0    0  501    0  0.00000000000E+00  0.00000000000E+00  0.45854160064E+03  0.45854160065E+03  0.25500000920E-02 0.  1.
       -2   -1    0    0    0  501  0.00000000000E+00  0.00000000000E+00 -0.26734632567E+03  0.26734632568E+03  0.25500000920E-02 0. -1.
    10030    2    1    2    0    0  0.00000000000E+00  0.00000000000E+00  0.19119527497E+03  0.72588792633E+03  0.70025541656E+03 0.  0.
        3    1    3    3  502    0 -0.14859670586E+03 -0.24098148355E+03 -0.11794376186E+03  0.30669821904E+03  0.10100000352E+00 0. -1.
       -3    1    3    3    0  502  0.14859670586E+03  0.24098148355E+03  0.30913903683E+03  0.41918970729E+03  0.10100000352E+00 0.  1.
</event>
<event>
 5   0  0.1282546E-03  0.7001128E+03  0.7818609E-02  0.9717039E-01
        2   -1    0    0  501    0  0.00000000000E+00  0.00000000000E+00  0.16031359220E+04  0.16031359220E+04  0.25500000920E-02 0. -1.
       -2   -1    0    0    0  501  0.00000000000E+00  0.00000000000E+00 -0.76437367843E+02  0.76437367886E+02  0.25500000920E-02 0.  1.
    10030    2    1    2    0    0  0.00000000000E+00  0.00000000000E+00  0.15266985541E+04  0.16795732899E+04  0.70011282008E+03 0.  0.
        5    1    3    3  502    0  0.13701674026E+03  0.40073774476E+02  0.15300474061E+04  0.15366999217E+04  0.46999998093E+01 0. -1.
       -5    1    3    3    0  502 -0.13701674026E+03 -0.40073774476E+02 -0.33488519800E+01  0.14287336813E+03  0.46999998093E+01 0.  1.
</event>
<event>
 5   0  0.7570633E-04  0.7001822E+03  0.7818609E-02  0.9716921E-01
        1   -1    0    0  501    0  0.00000000000E+00  0.00000000000E+00  0.56006350597E+03  0.56006350599E+03  0.50400001928E-02 0. -1.
       -1   -1    0    0    0  501  0.00000000000E+00  0.00000000000E+00 -0.21883909893E+03  0.21883909899E+03  0.50400001928E-02 0.  1.
    10030    2    1    2    0    0  0.00000000000E+00  0.00000000000E+00  0.34122440704E+03  0.77890260498E+03  0.70018224205E+03 0.  0.
        5    1    3    3  502    0  0.30646945940E+03  0.11671646986E+03  0.34388821413E+02  0.32977408163E+03  0.46999998093E+01 0.  1.
       -5    1    3    3    0  502 -0.30646945940E+03 -0.11671646986E+03  0.30683558563E+03  0.44912852335E+03  0.46999998093E+01 0. -1.
</event>
<event>
 5   0  0.7574241E-04  0.7011343E+03  0.7818609E-02  0.9715294E-01
       -1   -1    0    0    0  501  0.00000000000E+00  0.00000000000E+00  0.15573918920E+03  0.15573918928E+03  0.50400001928E-02 0. -1.
        1   -1    0    0  501    0  0.00000000000E+00  0.00000000000E+00 -0.78912268630E+03  0.78912268632E+03  0.50400001928E-02 0.  1.
    10030    2    1    2    0    0  0.00000000000E+00  0.00000000000E+00 -0.63338349710E+03  0.94486187560E+03  0.70113430208E+03 0.  0.
        3    1    3    3  502    0 -0.29349755902E+03 -0.14074840192E+03 -0.14126101632E+03  0.35483181189E+03  0.10100000352E+00 0. -1.
       -3    1    3    3    0  502  0.29349755902E+03  0.14074840192E+03 -0.49212248078E+03  0.59003006371E+03  0.10100000352E+00 0.  1.
</event>
<event>
 5   0  0.1224048E-03  0.6995577E+03  0.7818609E-02  0.9717989E-01
        2   -1    0    0  501    0  0.00000000000E+00  0.00000000000E+00  0.21777768270E+04  0.21777768270E+04  0.25500000920E-02 0.  1.
       -2   -1    0    0    0  501  0.00000000000E+00  0.00000000000E+00 -0.56178963784E+02  0.56178963842E+02  0.25500000920E-02 0. -1.
    10030    2    1    2    0    0  0.00000000000E+00  0.00000000000E+00  0.21215978632E+04  0.22339557908E+04  0.69955770473E+03 0.  0.
        3    1    3    3  502    0  0.13347755423E+03 -0.31794410849E+03  0.12481098892E+04  0.12948679544E+04  0.10100000352E+00 0.  1.
       -3    1    3    3    0  502 -0.13347755423E+03  0.31794410849E+03  0.87348797398E+03  0.93908783641E+03  0.10100000352E+00 0. -1.
</event>
<event>
 5   0  0.1265562E-03  0.7006887E+03  0.7818609E-02  0.9716055E-01
       -2   -1    0    0    0  501  0.00000000000E+00  0.00000000000E+00  0.70698242793E+02  0.70698242839E+02  0.25500000920E-02 0. -1.
        2   -1    0    0  501    0  0.00000000000E+00  0.00000000000E+00 -0.17361277184E+04  0.17361277184E+04  0.25500000920E-02 0.  1.
    10030    2    1    2    0    0  0.00000000000E+00  0.00000000000E+00 -0.16654294756E+04  0.18068259613E+04  0.70068874402E+03 0.  0.
        1    1    3    3  502    0 -0.11339045827E+03 -0.23523428322E+03 -0.23045608963E+03  0.34828518960E+03  0.50400001928E-02 0. -1.
       -1    1    3    3    0  502  0.11339045827E+03  0.23523428322E+03 -0.14349733860E+04  0.14585407717E+04  0.50400001928E-02 0.  1.
</event>
<event>
 5   0  0.1265562E-03  0.6998442E+03  0.7818609E-02  0.9717499E-01
        2   -1    0    0  501    0  0.00000000000E+00  0.00000000000E+00  0.93056890381E+03  0.93056890382E+03  0.25500000920E-02 0. -1.
       -2   -1    0    0    0  501  0.00000000000E+00  0.00000000000E+00 -0.13158131729E+03  0.13158131732E+03  0.25500000920E-02 0.  1.
    10030    2    1    2    0    0  0.00000000000E+00  0.00000000000E+00  0.79898758652E+03  0.10621502211E+04  0.69984421755E+03 0.  0.
        1    1    3    3  502    0  0.13572878449E+03 -0.29107720763E+03  0.61032366611E+03  0.68966892143E+03  0.50400001928E-02 0. -1.
       -1    1    3    3    0  502 -0.13572878449E+03  0.29107720763E+03  0.18866392040E+03  0.37248129970E+03  0.50400001928E-02 0.  1.
</event>
<event>
 5   0  0.1222679E-03  0.6999470E+03  0.7818609E-02  0.9717323E-01
        2   -1    0    0  501    0  0.00000000000E+00  0.00000000000E+00  0.49254012368E+03  0.49254012369E+03  0.25500000920E-02 0. -1.
       -2   -1    0    0    0  501  0.00000000000E+00  0.00000000000E+00 -0.24867306717E+03  0.24867306719E+03  0.25500000920E-02 0.  1.
    10030    2    1    2    0    0  0.00000000000E+00  0.00000000000E+00  0.24386705651E+03  0.74121319087E+03  0.69994703591E+03 0.  0.
        2    1    3    3  502    0  0.15381572932E+03 -0.27085453993E+03 -0.47035530565E+02  0.31501397037E+03  0.25500000920E-02 0.  1.
       -2    1    3    3    0  502 -0.15381572932E+03  0.27085453993E+03  0.29090258707E+03  0.42619922050E+03  0.25500000920E-02 0. -1.
</event>
<event>
 5   0  0.7013526E-04  0.6999518E+03  0.7818609E-02  0.9717315E-01
        1   -1    0    0  501    0  0.00000000000E+00  0.00000000000E+00  0.60794643136E+03  0.60794643138E+03  0.50400001928E-02 0. -1.
       -1   -1    0    0    0  501  0.00000000000E+00  0.00000000000E+00 -0.20147028176E+03  0.20147028182E+03  0.50400001928E-02 0.  1.
    10030    2    1    2    0    0  0.00000000000E+00  0.00000000000E+00  0.40647614960E+03  0.80941671320E+03  0.69995182364E+03 0.  0.
        1    1    3    3  502    0  0.28123067256E+03 -0.71395554499E+02 -0.23057337459E+02  0.29106641377E+03  0.50400001928E-02 0.  1.
       -1    1    3    3    0  502 -0.28123067256E+03  0.71395554499E+02  0.42953348706E+03  0.51835029943E+03  0.50400001928E-02 0. -1.
</event>
<event>
 5   0  0.1265562E-03  0.6998820E+03  0.7818609E-02  0.9717434E-01
        2   -1    0    0  501    0  0.00000000000E+00  0.00000000000E+00  0.10339711920E+04  0.10339711920E+04  0.25500000920E-02 0. -1.
       -2   -1    0    0    0  501  0.00000000000E+00  0.00000000000E+00 -0.11843531236E+03  0.11843531239E+03  0.25500000920E-02 0.  1.
    10030    2    1    2    0    0  0.00000000000E+00  0.00000000000E+00  0.91553587965E+03  0.11524065044E+04  0.69988199325E+03 0.  0.
        1    1    3    3  502    0  0.21014602735E+03 -0.19868080568E+03  0.13333344384E+03  0.31845442787E+03  0.50400001928E-02 0.  1.
       -1    1    3    3    0  502 -0.21014602735E+03  0.19868080568E+03  0.78220243582E+03  0.83395207655E+03  0.50400001928E-02 0. -1.
</event>
<event>
 5   0  0.1243087E-03  0.6999679E+03  0.7818609E-02  0.9717287E-01
       -2   -1    0    0    0  501  0.00000000000E+00  0.00000000000E+00  0.52144601225E+03  0.52144601225E+03  0.25500000920E-02 0.  1.
        2   -1    0    0  501    0  0.00000000000E+00  0.00000000000E+00 -0.23490211268E+03  0.23490211270E+03  0.25500000920E-02 0. -1.
    10030    2    1    2    0    0  0.00000000000E+00  0.00000000000E+00  0.28654389956E+03  0.75634812495E+03  0.69996791337E+03 0.  0.
        4    1    3    3  502    0 -0.20323428289E+03  0.22459155193E+03  0.33272733903E+03  0.44994959048E+03  0.12699999809E+01 0.  1.
       -4    1    3    3    0  502  0.20323428289E+03 -0.22459155193E+03 -0.46183439465E+02  0.30639853447E+03  0.12699999809E+01 0. -1.
</event>
<event>
 5   0  0.1224048E-03  0.6991437E+03  0.7818609E-02  0.9718698E-01
        2   -1    0    0  501    0  0.00000000000E+00  0.00000000000E+00  0.10065202714E+04  0.10065202714E+04  0.25500000920E-02 0.  1.
       -2   -1    0    0    0  501  0.00000000000E+00  0.00000000000E+00 -0.12140886631E+03  0.12140886633E+03  0.25500000920E-02 0. -1.
    10030    2    1    2    0    0  0.00000000000E+00  0.00000000000E+00  0.88511140508E+03  0.11279291377E+04  0.69914371936E+03 0.  0.
        3    1    3    3  502    0  0.32743346223E+03  0.13511337384E+02  0.63885700265E+03  0.71800662146E+03  0.10100000352E+00 0.  1.
       -3    1    3    3    0  502 -0.32743346223E+03 -0.13511337384E+02  0.24625440243E+03  0.40992251626E+03  0.10100000352E+00 0. -1.
</event>
<event>
 5   0  0.7574241E-04  0.6992556E+03  0.7818609E-02  0.9718506E-01
        1   -1    0    0  501    0  0.00000000000E+00  0.00000000000E+00  0.81469490716E+03  0.81469490717E+03  0.50400001928E-02 0. -1.
       -1   -1    0    0    0  501  0.00000000000E+00  0.00000000000E+00 -0.15004339435E+03  0.15004339444E+03  0.50400001928E-02 0.  1.
    10030    2    1    2    0    0  0.00000000000E+00  0.00000000000E+00  0.66465151280E+03  0.96473830161E+03  0.69925557354E+03 0.  0.
        3    1    3    3  502    0 -0.30659276652E+03  0.12162220506E+03  0.17232928364E+03  0.37214040018E+03  0.10100000352E+00 0.  1.
       -3    1    3    3    0  502  0.30659276652E+03 -0.12162220506E+03  0.49232222916E+03  0.59259790143E+03  0.10100000352E+00 0. -1.
</event>
<event>
 5   0  0.4936000E-04  0.6983101E+03  0.7818609E-02  0.9720127E-01
        4   -1    0    0  501    0  0.00000000000E+00  0.00000000000E+00  0.15402356074E+03  0.15402879654E+03  0.12699999809E+01 0.  1.
       -4   -1    0    0    0  501  0.00000000000E+00  0.00000000000E+00 -0.79147822558E+03  0.79147924450E+03  0.12699999809E+01 0. -1.
    10030    2    1    2    0    0  0.00000000000E+00  0.00000000000E+00 -0.63745466484E+03  0.94550804103E+03  0.69831010728E+03 0.  0.
        3    1    3    3  502    0  0.67634662379E+01 -0.33874003485E+03 -0.20448769795E+03  0.39573448737E+03  0.10100000352E+00 0. -1.
       -3    1    3    3    0  502 -0.67634662379E+01  0.33874003485E+03 -0.43296696689E+03  0.54977355366E+03  0.10100000352E+00 0.  1.
</event>
<event>
 5   0  0.1265562E-03  0.6997180E+03  0.7818609E-02  0.9717715E-01
       -2   -1    0    0    0  501  0.00000000000E+00  0.00000000000E+00  0.15484297929E+03  0.15484297931E+03  0.25500000920E-02 0.  1.
        2   -1    0    0  501    0  0.00000000000E+00  0.00000000000E+00 -0.79048662923E+03  0.79048662924E+03  0.25500000920E-02 0. -1.
    10030    2    1    2    0    0  0.00000000000E+00  0.00000000000E+00 -0.63564364994E+03  0.94532960855E+03  0.69971795681E+03 0.  0.
        1    1    3    3  502    0 -0.22821635294E+03  0.24494192925E+03 -0.45508159554E+03  0.56495885787E+03  0.50400001928E-02 0. -1.
       -1    1    3    3    0  502  0.22821635294E+03 -0.24494192925E+03 -0.18056205440E+03  0.38037075068E+03  0.50400001928E-02 0.  1.
</event>
<event>
 5   0  0.1243087E-03  0.6997925E+03  0.7818609E-02  0.9717587E-01
       -2   -1    0    0    0  501  0.00000000000E+00  0.00000000000E+00  0.12926029936E+03  0.12926029938E+03  0.25500000920E-02 0.  1.
        2   -1    0    0  501    0  0.00000000000E+00  0.00000000000E+00 -0.94713824417E+03  0.94713824418E+03  0.25500000920E-02 0. -1.
    10030    2    1    2    0    0  0.00000000000E+00  0.00000000000E+00 -0.81787794482E+03  0.10763985436E+04  0.69979246349E+03 0.  0.
        4    1    3    3  502    0 -0.27905903248E+03 -0.62576095083E+02 -0.98869095312E+02  0.30259944182E+03  0.12699999809E+01 0.  1.
       -4    1    3    3    0  502  0.27905903248E+03  0.62576095083E+02 -0.71900884950E+03  0.77379910174E+03  0.12699999809E+01 0. -1.
</event>
<event>
 5   0  0.1224048E-03  0.7000438E+03  0.7818609E-02  0.9717157E-01
        2   -1    0    0  501    0  0.00000000000E+00  0.00000000000E+00  0.34255232179E+03  0.34255232180E+03  0.25500000920E-02 0. -1.
       -2   -1    0    0    0  501  0.00000000000E+00  0.00000000000E+00 -0.35765439201E+03  0.35765439202E+03  0.25500000920E-02 0.  1.
    10030    2    1    2    0    0  0.00000000000E+00  0.00000000000E+00 -0.15102070224E+02  0.70020671382E+03  0.70004383402E+03 0.  0.
        3    1    3    3  502    0 -0.30688148763E+02 -0.19546716974E+03  0.28124812265E+03  0.34387453180E+03  0.10100000352E+00 0. -1.
       -3    1    3    3    0  502  0.30688148763E+02  0.19546716974E+03 -0.29635019288E+03  0.35633218202E+03  0.10100000352E+00 0.  1.
</event>
<event>
 5   0  0.7013526E-04  0.6994291E+03  0.7818609E-02  0.9718209E-01
        1   -1    0    0  501    0  0.00000000000E+00  0.00000000000E+00  0.14879584097E+04  0.14879584097E+04  0.50400001928E-02 0. -1.
       -1   -1    0    0    0  501  0.00000000000E+00  0.00000000000E+00 -0.82193329860E+02  0.82193330015E+02  0.50400001928E-02 0.  1.
    10030    2    1    2    0    0  0.00000000000E+00  0.00000000000E+00  0.14057650798E+04  0.15701517397E+04  0.69942907150E+03 0.  0.
        1    1    3    3  502    0  0.25459194994E+03 -0.21810573458E+03  0.92639530928E+03  0.98518802343E+03  0.50400001928E-02 0. -1.
       -1    1    3    3    0  502 -0.25459194994E+03  0.21810573458E+03  0.47936977057E+03  0.58496371630E+03  0.50400001928E-02 0.  1.
</event>
<event>
 5   0  0.1222679E-03  0.6993218E+03  0.7818609E-02  0.9718393E-01
        2   -1    0    0  501    0  0.00000000000E+00  0.00000000000E+00  0.23132619447E+04  0.23132619447E+04  0.25500000920E-02 0.  1.
       -2   -1    0    0    0  501  0.00000000000E+00  0.00000000000E+00 -0.52852954783E+02  0.52852954844E+02  0.25500000920E-02 0. -1.
    10030    2    1    2    0    0  0.00000000000E+00  0.00000000000E+00  0.22604089899E+04  0.23661148995E+04  0.69932175438E+03 0.  0.
        2    1    3    3  502    0  0.17969197961E+03  0.27367336075E+03  0.15456440137E+04  0.15799372560E+04  0.25500000920E-02 0.  1.
       -2    1    3    3    0  502 -0.17969197961E+03 -0.27367336075E+03  0.71476497621E+03  0.78617764350E+03  0.25500000920E-02 0. -1.
</event>
<event>
 5   0  0.7572415E-04  0.6999420E+03  0.7818609E-02  0.9717331E-01
       -1   -1    0    0    0  501  0.00000000000E+00  0.00000000000E+00  0.55523036965E+03  0.55523036967E+03  0.50400001928E-02 0.  1.
        1   -1    0    0  501    0  0.00000000000E+00  0.00000000000E+00 -0.22059260528E+03  0.22059260533E+03  0.50400001928E-02 0. -1.
    10030    2    1    2    0    0  0.00000000000E+00  0.00000000000E+00  0.33463776437E+03  0.77582297500E+03  0.69994203703E+03 0.  0.
        4    1    3    3  502    0 -0.13634901708E+03 -0.22185265207E+03  0.42647945350E+03  0.49969589837E+03  0.12699999809E+01 0.  1.
       -4    1    3    3    0  502  0.13634901708E+03  0.22185265207E+03 -0.91841689125E+02  0.27612707664E+03  0.12699999809E+01 0. -1.
</event>
<event>
 5   0  0.7459843E-04  0.7003431E+03  0.7818609E-02  0.9716646E-01
        1   -1    0    0  501    0  0.00000000000E+00  0.00000000000E+00  0.13361246839E+04  0.13361246839E+04  0.50400001928E-02 0.  1.
       -1   -1    0    0    0  501  0.00000000000E+00  0.00000000000E+00 -0.91772965153E+02  0.91772965291E+02  0.50400001928E-02 0. -1.
    10030    2    1    2    0    0  0.00000000000E+00  0.00000000000E+00  0.12443517187E+04  0.14278976492E+04  0.70034312778E+03 0.  0.
        2    1    3    3  502    0 -0.37022470106E+02  0.17726936042E+03  0.11114384381E+02  0.18143488910E+03  0.25500000920E-02 0. -1.
       -2    1    3    3    0  502  0.37022470106E+02 -0.17726936042E+03  0.12332373343E+04  0.12464627601E+04  0.25500000920E-02 0.  1.
</event>
<event>
 5   0  0.1282546E-03  0.6955263E+03  0.7818609E-02  0.9724913E-01
       -2   -1    0    0    0  501  0.00000000000E+00  0.00000000000E+00  0.43957646643E+03  0.43957646644E+03  0.25500000920E-02 0. -1.
        2   -1    0    0  501    0  0.00000000000E+00  0.00000000000E+00 -0.27512668955E+03  0.27512668956E+03  0.25500000920E-02 0.  1.
    10030    2    1    2    0    0  0.00000000000E+00  0.00000000000E+00  0.16444977688E+03  0.71470315600E+03  0.69552632738E+03 0.  0.
        5    1    3    3  502    0 -0.14589024714E+02  0.23128005031E+03 -0.18417953832E+03  0.29605319395E+03  0.46999998093E+01 0.  1.
       -5    1    3    3    0  502  0.14589024714E+02 -0.23128005031E+03  0.34862931520E+03  0.41864996205E+03  0.46999998093E+01 0. -1.
</event>
<event>
 5   0  0.7013526E-04  0.6999179E+03  0.7818609E-02  0.9717373E-01
       -1   -1    0    0    0  501  0.00000000000E+00  0.00000000000E+00  0.44445820958E+03  0.44445820960E+03  0.50400001928E-02 0.  1.
        1   -1    0    0  501    0  0.00000000000E+00  0.00000000000E+00 -0.27555183211E+03  0.27555183215E+03  0.50400001928E-02 0. -1.
    10030    2    1    2    0    0  0.00000000000E+00  0.00000000000E+00  0.16890637747E+03  0.72001004176E+03  0.69991792082E+03 0.  0.
        1    1    3    3  502    0 -0.60300086346E+02  0.29018936350E+03 -0.10696722713E+03  0.31509991242E+03  0.50400001928E-02 0. -1.
       -1    1    3    3    0  502  0.60300086346E+02 -0.29018936350E+03  0.27587360460E+03  0.40491012934E+03  0.50400001928E-02 0.  1.
</event>
<event>
 5   0  0.1243087E-03  0.7005600E+03  0.7818609E-02  0.9716275E-01
        2   -1    0    0  501    0  0.00000000000E+00  0.00000000000E+00  0.19565517289E+04  0.19565517289E+04  0.25500000920E-02 0. -1.
       -2   -1    0    0    0  501  0.00000000000E+00  0.00000000000E+00 -0.62710367850E+02  0.62710367902E+02  0.25500000920E-02 0.  1.
    10030    2    1    2    0    0  0.00000000000E+00  0.00000000000E+00  0.18938413611E+04  0.20192620968E+04  0.70056000084E+03 0.  0.
        4    1    3    3  502    0  0.28334470004E+02 -0.20034265957E+03  0.17710645575E+04  0.17825855669E+04  0.12699999809E+01 0. -1.
       -4    1    3    3    0  502 -0.28334470004E+02  0.20034265957E+03  0.12277680354E+03  0.23667652993E+03  0.12699999809E+01 0.  1.
</event>
<event>
 5   0  0.7570633E-04  0.6998958E+03  0.7818609E-02  0.9717410E-01
       -1   -1    0    0    0  501  0.00000000000E+00  0.00000000000E+00  0.45787071466E+03  0.45787071468E+03  0.50400001928E-02 0. -1.
        1   -1    0    0  501    0  0.00000000000E+00  0.00000000000E+00 -0.26746313440E+03  0.26746313445E+03  0.50400001928E-02 0.  1.
    10030    2    1    2    0    0  0.00000000000E+00  0.00000000000E+00  0.19040758026E+03  0.72533384913E+03  0.69989581087E+03 0.  0.
        5    1    3    3  502    0 -0.20670609920E+03 -0.14183421586E+03  0.34820178509E+03  0.42908149503E+03  0.46999998093E+01 0. -1.
       -5    1    3    3    0  502  0.20670609920E+03  0.14183421586E+03 -0.15779420484E+03  0.29625235410E+03  0.46999998093E+01 0.  1.
</event>
<event>
 5   0  0.1224048E-03  0.7001356E+03  0.7818609E-02  0.9717000E-01
       -2   -1    0    0    0  501  0.00000000000E+00  0.00000000000E+00  0.21294576693E+03  0.21294576695E+03  0.25500000920E-02 0.  1.
        2   -1    0    0  501    0  0.00000000000E+00  0.00000000000E+00 -0.57548679532E+03  0.57548679533E+03  0.25500000920E-02 0. -1.
    10030    2    1    2    0    0  0.00000000000E+00  0.00000000000E+00 -0.36254102839E+03  0.78843256227E+03  0.70013563542E+03 0.  0.
        3    1    3    3  502    0 -0.31108304359E+03 -0.61584939142E+02 -0.34823226084E+03  0.47098947167E+03  0.10100000352E+00 0. -1.
       -3    1    3    3    0  502  0.31108304359E+03  0.61584939142E+02 -0.14308767553E+02  0.31744309060E+03  0.10100000352E+00 0.  1.
</event>
<event>
 5   0  0.1224048E-03  0.6977493E+03  0.7818609E-02  0.9721089E-01
       -2   -1    0    0    0  501  0.00000000000E+00  0.00000000000E+00  0.69697348734E+03  0.69697348734E+03  0.25500000920E-02 0.  1.
        2   -1    0    0  501    0  0.00000000000E+00  0.00000000000E+00 -0.17463151661E+03  0.17463151663E+03  0.25500000920E-02 0. -1.
    10030    2    1    2    0    0  0.00000000000E+00  0.00000000000E+00  0.52234197073E+03  0.87160500398E+03  0.69774934509E+03 0.  0.
        3    1    3    3  502    0 -0.13264837721E+02 -0.15081970897E+03  0.65379687936E+03  0.67109828654E+03  0.10100000352E+00 0.  1.
       -3    1    3    3    0  502  0.13264837721E+02  0.15081970897E+03 -0.13145490863E+03  0.20050671744E+03  0.10100000352E+00 0. -1.
</event>
<event>
 5   0  0.7574241E-04  0.7000661E+03  0.7818609E-02  0.9717119E-01
       -1   -1    0    0    0  501  0.00000000000E+00  0.00000000000E+00  0.83586796364E+03  0.83586796365E+03  0.50400001928E-02 0. -1.
        1   -1    0    0  501    0  0.00000000000E+00  0.00000000000E+00 -0.14658192248E+03  0.14658192257E+03  0.50400001928E-02 0.  1.
    10030    2    1    2    0    0  0.00000000000E+00  0.00000000000E+00  0.68928604116E+03  0.98244988622E+03  0.70006609145E+03 0.  0.
        3    1    3    3  502    0 -0.28631861573E+03  0.14467469885E+03  0.54118462707E+03  0.62911837438E+03  0.10100000352E+00 0. -1.
       -3    1    3    3    0  502  0.28631861573E+03 -0.14467469885E+03  0.14810141409E+03  0.35333151184E+03  0.10100000352E+00 0.  1.
</event>
<event>
 5   0  0.1222679E-03  0.6999176E+03  0.7818609E-02  0.9717373E-01
       -2   -1    0    0    0  501  0.00000000000E+00  0.00000000000E+00  0.86343459141E+03  0.86343459141E+03  0.25500000920E-02 0.  1.
        2   -1    0    0  501    0  0.00000000000E+00  0.00000000000E+00 -0.14184186695E+03  0.14184186697E+03  0.25500000920E-02 0. -1.
    10030    2    1    2    0    0  0.00000000000E+00  0.00000000000E+00  0.72159272445E+03  0.10052764584E+04  0.69991763644E+03 0.  0.
        2    1    3    3  502    0  0.50562937385E+01 -0.90265982147E+02 -0.12477967501E+03  0.15408919801E+03  0.25500000920E-02 0. -1.
       -2    1    3    3    0  502 -0.50562937385E+01  0.90265982147E+02  0.84637239947E+03  0.85118726038E+03  0.25500000920E-02 0.  1.
</event>
<event>
 5   0  0.1243087E-03  0.6995904E+03  0.7818609E-02  0.9717933E-01
        2   -1    0    0  501    0  0.00000000000E+00  0.00000000000E+00  0.32813328670E+03  0.32813328671E+03  0.25500000920E-02 0. -1.
       -2   -1    0    0    0  501  0.00000000000E+00  0.00000000000E+00 -0.37288710030E+03  0.37288710031E+03  0.25500000920E-02 0.  1.
    10030    2    1    2    0    0  0.00000000000E+00  0.00000000000E+00 -0.44753813600E+02  0.70102038703E+03  0.69959036528E+03 0.  0.
        4    1    3    3  502    0  0.71004494419E+02 -0.31669393809E+03 -0.15309803485E+03  0.35885555565E+03  0.12699999809E+01 0.  1.
       -4    1    3    3    0  502 -0.71004494419E+02  0.31669393809E+03  0.10834422125E+03  0.34216483137E+03  0.12699999809E+01 0. -1.
</event>
<event>
 5   0  0.1243087E-03  0.6996320E+03  0.7818609E-02  0.9717862E-01
        2   -1    0    0  501    0  0.00000000000E+00  0.00000000000E+00  0.33337955959E+03  0.33337955960E+03  0.25500000920E-02 0.  1.
       -2   -1    0    0    0  501  0.00000000000E+00  0.00000000000E+00 -0.36706276229E+03  0.36706276230E+03  0.25500000920E-02 0. -1.
    10030    2    1    2    0    0  0.00000000000E+00  0.00000000000E+00 -0.33683202701E+02  0.70044232191E+03  0.69963196623E+03 0.  0.
        4    1    3    3  502    0  0.10385721477E+03  0.24779549682E+02 -0.35034793319E+03  0.36625897167E+03  0.12699999809E+01 0. -1.
       -4    1    3    3    0  502 -0.10385721477E+03 -0.24779549682E+02  0.31666473048E+03  0.33418335024E+03  0.12699999809E+01 0.  1.
</event>
<event>
 5   0  0.7572415E-04  0.6998496E+03  0.7818609E-02  0.9717489E-01
       -1   -1    0    0    0  501  0.00000000000E+00  0.00000000000E+00  0.26682008381E+03  0.26682008386E+03  0.50400001928E-02 0.  1.
        1   -1    0    0  501    0  0.00000000000E+00  0.00000000000E+00 -0.45891355669E+03  0.45891355672E+03  0.50400001928E-02 0. -1.
    10030    2    1    2    0    0  0.00000000000E+00  0.00000000000E+00 -0.19209347288E+03  0.72573364058E+03  0.69984956580E+03 0.  0.
        4    1    3    3  502    0 -0.26669588116E+02 -0.28583112374E+03  0.11144112981E+03  0.30794713271E+03  0.12699999809E+01 0.  1.
       -4    1    3    3    0  502  0.26669588116E+02  0.28583112374E+03 -0.30353460270E+03  0.41778650787E+03  0.12699999809E+01 0. -1.
</event>
<event>
 5   0  0.7574241E-04  0.7000054E+03  0.7818609E-02  0.9717223E-01
        1   -1    0    0  501    0  0.00000000000E+00  0.00000000000E+00  0.31624798444E+03  0.31624798448E+03  0.50400001928E-02 0.  1.
       -1   -1    0    0    0  501  0.00000000000E+00  0.00000000000E+00 -0.38736020259E+03  0.38736020263E+03  0.50400001928E-02 0. -1.
    10030    2    1    2    0    0  0.00000000000E+00  0.00000000000E+00 -0.71112218153E+02  0.70360818711E+03  0.70000538097E+03 0.  0.
        3    1    3    3  502    0  0.37613400184E+02 -0.30070733871E+03  0.14045139079E+03  0.33401538109E+03  0.10100000352E+00 0.  1.
       -3    1    3    3    0  502 -0.37613400184E+02  0.30070733871E+03 -0.21156360894E+03  0.36959280602E+03  0.10100000352E+00 0. -1.
</event>
<event>
 5   0  0.7013526E-04  0.7000054E+03  0.7818609E-02  0.9717223E-01
       -1   -1    0    0    0  501  0.00000000000E+00  0.00000000000E+00  0.12395446300E+03  0.12395446310E+03  0.50400001928E-02 0.  1.
        1   -1    0    0  501    0  0.00000000000E+00  0.00000000000E+00 -0.98828129146E+03  0.98828129147E+03  0.50400001928E-02 0. -1.
    10030    2    1    2    0    0  0.00000000000E+00  0.00000000000E+00 -0.86432682846E+03  0.11122357546E+04  0.70000536238E+03 0.  0.
        1    1    3    3  502    0 -0.13803973399E+03  0.21797679661E+03 -0.56386895974E+02  0.26409909898E+03  0.50400001928E-02 0.  1.
       -1    1    3    3    0  502  0.13803973399E+03 -0.21797679661E+03 -0.80793993248E+03  0.84813665559E+03  0.50400001928E-02 0. -1.
</event>
<event>
 5   0  0.7459843E-04  0.6999269E+03  0.7818609E-02  0.9717357E-01
        1   -1    0    0  501    0  0.00000000000E+00  0.00000000000E+00  0.12050309664E+03  0.12050309675E+03  0.50400001928E-02 0. -1.
       -1   -1    0    0    0  501  0.00000000000E+00  0.00000000000E+00 -0.10163591037E+04  0.10163591037E+04  0.50400001928E-02 0.  1.
    10030    2    1    2    0    0  0.00000000000E+00  0.00000000000E+00 -0.89585600702E+03  0.11368622004E+04  0.69992690864E+03 0.  0.
        2    1    3    3  502    0  0.24607586107E+03 -0.22728065774E+03 -0.61248865366E+03  0.69810613638E+03  0.25500000920E-02 0. -1.
       -2    1    3    3    0  502 -0.24607586107E+03  0.22728065774E+03 -0.28336735336E+03  0.43875606405E+03  0.25500000920E-02 0.  1.
</event>
<event>
 5   0  0.7013526E-04  0.6998801E+03  0.7818609E-02  0.9717437E-01
       -1   -1    0    0    0  501  0.00000000000E+00  0.00000000000E+00  0.12079268474E+04  0.12079268474E+04  0.50400001928E-02 0. -1.
        1   -1    0    0  501    0  0.00000000000E+00  0.00000000000E+00 -0.10137868181E+03  0.10137868193E+03  0.50400001928E-02 0.  1.
    10030    2    1    2    0    0  0.00000000000E+00  0.00000000000E+00  0.11065481656E+04  0.13093055294E+04  0.69988008001E+03 0.  0.
        1    1    3    3  502    0  0.28018333015E+03  0.74906242563E+02  0.18694763568E+03  0.34505515817E+03  0.50400001928E-02 0.  1.
       -1    1    3    3    0  502 -0.28018333015E+03 -0.74906242563E+02  0.91960052994E+03  0.96425037120E+03  0.50400001928E-02 0. -1.
</event>
<event>
 5   0  0.1222679E-03  0.6999174E+03  0.7818609E-02  0.9717373E-01
        2   -1    0    0  501    0  0.00000000000E+00  0.00000000000E+00  0.46881216580E+03  0.46881216580E+03  0.25500000920E-02 0.  1.
       -2   -1    0    0    0  501  0.00000000000E+00  0.00000000000E+00 -0.26123703436E+03  0.26123703437E+03  0.25500000920E-02 0. -1.
    10030    2    1    2    0    0  0.00000000000E+00  0.00000000000E+00  0.20757513144E+03  0.73004920017E+03  0.69991742333E+03 0.  0.
        2    1    3    3  502    0 -0.25369916373E+03 -0.60786888396E+02 -0.13952011321E+03  0.29584484697E+03  0.25500000920E-02 0. -1.
       -2    1    3    3    0  502  0.25369916373E+03  0.60786888396E+02  0.34709524465E+03  0.43420435321E+03  0.25500000920E-02 0.  1.
</event>
<event>
 5   0  0.7572415E-04  0.6992028E+03  0.7818609E-02  0.9718597E-01
        1   -1    0    0  501    0  0.00000000000E+00  0.00000000000E+00  0.33186766358E+03  0.33186766362E+03  0.50400001928E-02 0. -1.
       -1   -1    0    0    0  501  0.00000000000E+00  0.00000000000E+00 -0.36828271882E+03  0.36828271886E+03  0.50400001928E-02 0.  1.
    10030    2    1    2    0    0  0.00000000000E+00  0.00000000000E+00 -0.36415055241E+02  0.70015038248E+03  0.69920276161E+03 0.  0.
        4    1    3    3  502    0 -0.11971149367E+03  0.34556476728E+02  0.30887643755E+03  0.33306344497E+03  0.12699999809E+01 0. -1.
       -4    1    3    3    0  502  0.11971149367E+03 -0.34556476728E+02 -0.34529149279E+03  0.36708693751E+03  0.12699999809E+01 0.  1.
</event>
<event>
 5   0  0.1222679E-03  0.6993498E+03  0.7818609E-02  0.9718345E-01
       -2   -1    0    0    0  501  0.00000000000E+00  0.00000000000E+00  0.12567127863E+03  0.12567127866E+03  0.25500000920E-02 0. -1.
        2   -1    0    0  501    0  0.00000000000E+00  0.00000000000E+00 -0.97295517840E+03  0.97295517841E+03  0.25500000920E-02 0.  1.
    10030    2    1    2    0    0  0.00000000000E+00  0.00000000000E+00 -0.84728389977E+03  0.10986264571E+04  0.69934975895E+03 0.  0.
        2    1    3    3  502    0  0.26845272469E+03 -0.22296408614E+03 -0.45851056231E+03  0.57620463801E+03  0.25500000920E-02 0. -1.
       -2    1    3    3    0  502 -0.26845272469E+03  0.22296408614E+03 -0.38877333746E+03  0.52242181906E+03  0.25500000920E-02 0.  1.
</event>
<event>
 5   0  0.7572415E-04  0.6999333E+03  0.7818609E-02  0.9717346E-01
       -1   -1    0    0    0  501  0.00000000000E+00  0.00000000000E+00  0.13582661721E+03  0.13582661730E+03  0.50400001928E-02 0.  1.
        1   -1    0    0  501    0  0.00000000000E+00  0.00000000000E+00 -0.90171328968E+03  0.90171328970E+03  0.50400001928E-02 0. -1.
    10030    2    1    2    0    0  0.00000000000E+00  0.00000000000E+00 -0.76588667247E+03  0.10375399070E+04  0.69993332793E+03 0.  0.
        4    1    3    3  502    0  0.86719140495E+02 -0.25692126891E+03 -0.54992989938E+02  0.27668500065E+03  0.12699999809E+01 0.  1.
       -4    1    3    3    0  502 -0.86719140495E+02  0.25692126891E+03 -0.71089368253E+03  0.76085490634E+03  0.12699999809E+01 0. -1.
</event>
<event>
 5   0  0.7574241E-04  0.7001479E+03  0.7818609E-02  0.9716979E-01
       -1   -1    0    0    0  501  0.00000000000E+00  0.00000000000E+00  0.23752987802E+03  0.23752987807E+03  0.50400001928E-02 0.  1.
        1   -1    0    0  501    0  0.00000000000E+00  0.00000000000E+00 -0.51594257480E+03  0.51594257482E+03  0.50400001928E-02 0. -1.
    10030    2    1    2    0    0  0.00000000000E+00  0.00000000000E+00 -0.27841269678E+03  0.75347245289E+03  0.70014791832E+03 0.  0.
        3    1    3    3  502    0 -0.20168575366E+03 -0.22996885561E+03 -0.32243517970E+03  0.44444040442E+03  0.10100000352E+00 0. -1.
       -3    1    3    3    0  502  0.20168575366E+03  0.22996885561E+03  0.44022482915E+02  0.30903204847E+03  0.10100000352E+00 0.  1.
</event>
<event>
 5   0  0.1222679E-03  0.6998578E+03  0.7818609E-02  0.9717475E-01
        2   -1    0    0  501    0  0.00000000000E+00  0.00000000000E+00  0.16600523067E+04  0.16600523067E+04  0.25500000920E-02 0. -1.
       -2   -1    0    0    0  501  0.00000000000E+00  0.00000000000E+00 -0.73762867758E+02  0.73762867802E+02  0.25500000920E-02 0.  1.
    10030    2    1    2    0    0  0.00000000000E+00  0.00000000000E+00  0.15862894389E+04  0.17338151745E+04  0.69985775357E+03 0.  0.
        2    1    3    3  502    0 -0.19342910905E+03 -0.31737612163E+02  0.75010946973E+02  0.20987791315E+03  0.25500000920E-02 0.  1.
       -2    1    3    3    0  502  0.19342910905E+03  0.31737612163E+02  0.15112784919E+04  0.15239372613E+04  0.25500000920E-02 0. -1.
</event>
<event>
 5   0  0.1224048E-03  0.7002309E+03  0.7818609E-02  0.9716837E-01
       -2   -1    0    0    0  501  0.00000000000E+00  0.00000000000E+00  0.16141532120E+03  0.16141532122E+03  0.25500000920E-02 0.  1.
        2   -1    0    0  501    0  0.00000000000E+00  0.00000000000E+00 -0.75941259606E+03  0.75941259606E+03  0.25500000920E-02 0. -1.
    10030    2    1    2    0    0  0.00000000000E+00  0.00000000000E+00 -0.59799727486E+03  0.92082791728E+03  0.70023089942E+03 0.  0.
        3    1    3    3  502    0  0.33925687305E+02 -0.33171568111E+03 -0.15862478277E+03  0.36925340522E+03  0.10100000352E+00 0.  1.
       -3    1    3    3    0  502 -0.33925687305E+02  0.33171568111E+03 -0.43937249209E+03  0.55157451206E+03  0.10100000352E+00 0. -1.
</event>
<event>
 5   0  0.1282546E-03  0.7001526E+03  0.7818609E-02  0.9716971E-01
       -2   -1    0    0    0  501  0.00000000000E+00  0.00000000000E+00  0.99029115853E+02  0.99029115886E+02  0.25500000920E-02 0.  1.
        2   -1    0    0  501    0  0.00000000000E+00  0.00000000000E+00 -0.12375494703E+04  0.12375494703E+04  0.25500000920E-02 0. -1.
    10030    2    1    2    0    0  0.00000000000E+00  0.00000000000E+00 -0.11385203544E+04  0.13365785862E+04  0.70015264019E+03 0.  0.
        5    1    3    3  502    0 -0.79661843440E+02  0.68468261299E+02  0.68172307673E+02  0.12531346950E+03  0.46999998093E+01 0.  1.
       -5    1    3    3    0  502  0.79661843440E+02 -0.68468261299E+02 -0.12066926621E+04  0.12112651167E+04  0.46999998093E+01 0. -1.
</event>
<event>
 5   0  0.7572415E-04  0.7001596E+03  0.7818609E-02  0.9716959E-01
        1   -1    0    0  501    0  0.00000000000E+00  0.00000000000E+00  0.67826297117E+03  0.67826297119E+03  0.50400001928E-02 0. -1.
       -1   -1    0    0    0  501  0.00000000000E+00  0.00000000000E+00 -0.18069079128E+03  0.18069079135E+03  0.50400001928E-02 0.  1.
    10030    2    1    2    0    0  0.00000000000E+00  0.00000000000E+00  0.49757217990E+03  0.85895376254E+03  0.70015961892E+03 0.  0.
        4    1    3    3  502    0 -0.42233008589E+02  0.27715966009E+03  0.50598419145E+03  0.57846583226E+03  0.12699999809E+01 0. -1.
       -4    1    3    3    0  502  0.42233008589E+02 -0.27715966009E+03 -0.84120115498E+01  0.28048793028E+03  0.12699999809E+01 0.  1.
</event>
<event>
 5   0  0.7013526E-04  0.6991037E+03  0.7818609E-02  0.9718766E-01
        1   -1    0    0  501    0  0.00000000000E+00  0.00000000000E+00  0.48363322279E+03  0.48363322282E+03  0.50400001928E-02 0. -1.
       -1   -1    0    0    0  501  0.00000000000E+00  0.00000000000E+00 -0.25264287903E+03  0.25264287908E+03  0.50400001928E-02 0.  1.
    10030    2    1    2    0    0  0.00000000000E+00  0.00000000000E+00  0.23099034376E+03  0.73627610189E+03  0.69910368280E+03 0.  0.
        1    1    3    3  502    0 -0.24123452116E+03 -0.21969056575E+03  0.24757670161E+03  0.40957570983E+03  0.50400001928E-02 0. -1.
       -1    1    3    3    0  502  0.24123452116E+03  0.21969056575E+03 -0.16586357846E+02  0.32670039206E+03  0.50400001928E-02 0.  1.
</event>
<event>
 5   0  0.7574241E-04  0.6998281E+03  0.7818609E-02  0.9717526E-01
        1   -1    0    0  501    0  0.00000000000E+00  0.00000000000E+00  0.21403783853E+03  0.21403783859E+03  0.50400001928E-02 0. -1.
       -1   -1    0    0    0  501  0.00000000000E+00  0.00000000000E+00 -0.57204766485E+03  0.57204766488E+03  0.50400001928E-02 0.  1.
    10030    2    1    2    0    0  0.00000000000E+00  0.00000000000E+00 -0.35800982632E+03  0.78608550347E+03  0.69982810962E+03 0.  0.
        3    1    3    3  502    0 -0.30417347904E+03 -0.33714973898E+02 -0.36956682586E+03  0.47983106798E+03  0.10100000352E+00 0.  1.
       -3    1    3    3    0  502  0.30417347904E+03  0.33714973898E+02  0.11556999539E+02  0.30625443549E+03  0.10100000352E+00 0. -1.
</event>
<event>
 5   0  0.1224048E-03  0.6999783E+03  0.7818609E-02  0.9717269E-01
        2   -1    0    0  501    0  0.00000000000E+00  0.00000000000E+00  0.63046276541E+03  0.63046276541E+03  0.25500000920E-02 0. -1.
       -2   -1    0    0    0  501  0.00000000000E+00  0.00000000000E+00 -0.19428968680E+03  0.19428968682E+03  0.25500000920E-02 0.  1.
    10030    2    1    2    0    0  0.00000000000E+00  0.00000000000E+00  0.43617307860E+03  0.82475245223E+03  0.69997832321E+03 0.  0.
        3    1    3    3  502    0 -0.19197592914E+02  0.19008540219E+03  0.56360123390E+03  0.59510282200E+03  0.10100000352E+00 0. -1.
       -3    1    3    3    0  502  0.19197592914E+02 -0.19008540219E+03 -0.12742815530E+03  0.22964963023E+03  0.10100000352E+00 0.  1.
</event>
<event>
 5   0  0.1222679E-03  0.7002104E+03  0.7818609E-02  0.9716872E-01
       -2   -1    0    0    0  501  0.00000000000E+00  0.00000000000E+00  0.28957849114E+03  0.28957849115E+03  0.25500000920E-02 0.  1.
        2   -1    0    0  501    0  0.00000000000E+00  0.00000000000E+00 -0.42328300769E+03  0.42328300769E+03  0.25500000920E-02 0. -1.
    10030    2    1    2    0    0  0.00000000000E+00  0.00000000000E+00 -0.13370451655E+03  0.71286149885E+03  0.70021041037E+03 0.  0.
        2    1    3    3  502    0  0.72889937398E+02  0.60915243948E+02  0.27620787418E+03  0.29208628808E+03  0.25500000920E-02 0.  1.
       -2    1    3    3    0  502 -0.72889937398E+02 -0.60915243948E+02 -0.40991239073E+03  0.42077521077E+03  0.25500000920E-02 0. -1.
</event>
<event>
 5   0  0.4936000E-04  0.7002111E+03  0.7818609E-02  0.9716871E-01
        4   -1    0    0  501    0  0.00000000000E+00  0.00000000000E+00  0.53478409266E+03  0.53478560065E+03  0.12699999809E+01 0.  1.
       -4   -1    0    0    0  501  0.00000000000E+00  0.00000000000E+00 -0.22919897742E+03  0.22920249595E+03  0.12699999809E+01 0. -1.
    10030    2    1    2    0    0  0.00000000000E+00  0.00000000000E+00  0.30558511524E+03  0.76398809659E+03  0.70021107466E+03 0.  0.
        1    1    3    3  502    0 -0.34004033789E+02 -0.58931186625E+02 -0.22191882303E+03  0.23211446123E+03  0.50400001928E-02 0. -1.
       -1    1    3    3    0  502  0.34004033789E+02  0.58931186625E+02  0.52750393827E+03  0.53187363536E+03  0.50400001928E-02 0.  1.
</event>
<event>
 5   0  0.7459843E-04  0.6992276E+03  0.7818609E-02  0.9718554E-01
        1   -1    0    0  501    0  0.00000000000E+00  0.00000000000E+00  0.12403609315E+04  0.12403609316E+04  0.50400001928E-02 0. -1.
       -1   -1    0    0    0  501  0.00000000000E+00  0.00000000000E+00 -0.98543740241E+02  0.98543740370E+02  0.50400001928E-02 0.  1.
    10030    2    1    2    0    0  0.00000000000E+00  0.00000000000E+00  0.11418171913E+04  0.13389046719E+04  0.69922758966E+03 0.  0.
        2    1    3    3  502    0 -0.22734528794E+03 -0.24191844012E+03  0.36097962069E+03  0.49042501789E+03  0.25500000920E-02 0.  1.
       -2    1    3    3    0  502  0.22734528794E+03  0.24191844012E+03  0.78083757062E+03  0.84847965404E+03  0.25500000920E-02 0. -1.
</event>
<event>
 5   0  0.1243087E-03  0.7000523E+03  0.7818609E-02  0.9717143E-01
       -2   -1    0    0    0  501  0.00000000000E+00  0.00000000000E+00  0.15340272613E+03  0.15340272615E+03  0.25500000920E-02 0.  1.
        2   -1    0    0  501    0  0.00000000000E+00  0.00000000000E+00 -0.79867105779E+03  0.79867105780E+03  0.25500000920E-02 0. -1.
    10030    2    1    2    0    0  0.00000000000E+00  0.00000000000E+00 -0.64526833166E+03  0.95207378395E+03  0.70005233392E+03 0.  0.
        4    1    3    3  502    0  0.14656216877E+03 -0.49211261109E+02  0.10444703881E+03  0.18658245992E+03  0.12699999809E+01 0.  1.
       -4    1    3    3    0  502 -0.14656216877E+03  0.49211261109E+02 -0.74971537047E+03  0.76549132402E+03  0.12699999809E+01 0. -1.
</event>
<event>
 5   0  0.7574241E-04  0.6997951E+03  0.7818609E-02  0.9717583E-01
       -1   -1    0    0    0  501  0.00000000000E+00  0.00000000000E+00  0.47760532546E+03  0.47760532549E+03  0.50400001928E-02 0.  1.
        1   -1    0    0  501    0  0.00000000000E+00  0.00000000000E+00 -0.25633780435E+03  0.25633780440E+03  0.50400001928E-02 0. -1.
    10030    2    1    2    0    0  0.00000000000E+00  0.00000000000E+00  0.22126752111E+03  0.73394312989E+03  0.69979511431E+03 0.  0.
        3    1    3    3  502    0 -0.19261923506E+03  0.15886174796E+03  0.36772615490E+03  0.44447920072E+03  0.10100000352E+00 0.  1.
       -3    1    3    3    0  502  0.19261923506E+03 -0.15886174796E+03 -0.14645863379E+03  0.28946392917E+03  0.10100000352E+00 0. -1.
</event>
<event>
 5   0  0.1265562E-03  0.6999933E+03  0.7818609E-02  0.9717244E-01
       -2   -1    0    0    0  501  0.00000000000E+00  0.00000000000E+00  0.14766440347E+03  0.14766440349E+03  0.25500000920E-02 0.  1.
        2   -1    0    0  501    0  0.00000000000E+00  0.00000000000E+00 -0.82956804907E+03  0.82956804908E+03  0.25500000920E-02 0. -1.
    10030    2    1    2    0    0  0.00000000000E+00  0.00000000000E+00 -0.68190364560E+03  0.97723245257E+03  0.69999334602E+03 0.  0.
        1    1    3    3  502    0 -0.13632557956E+03 -0.62072644897E+02  0.10065340484E+03  0.18046823770E+03  0.50400001928E-02 0.  1.
       -1    1    3    3    0  502  0.13632557956E+03  0.62072644897E+02 -0.78255705044E+03  0.79676421487E+03  0.50400001928E-02 0. -1.
</event>
<event>
 5   0  0.4936000E-04  0.7002522E+03  0.7818609E-02  0.9716801E-01
        4   -1    0    0  501    0  0.00000000000E+00  0.00000000000E+00  0.80421661896E+02  0.80431689041E+02  0.12699999809E+01 0. -1.
       -4   -1    0    0    0  501  0.00000000000E+00  0.00000000000E+00 -0.15242140512E+04  0.15242145803E+04  0.12699999809E+01 0.  1.
    10030    2    1    2    0    0  0.00000000000E+00  0.00000000000E+00 -0.14437923893E+04  0.16046462694E+04  0.70025223047E+03 0.  0.
        3    1    3    3  502    0  0.55197952766E+02 -0.21706468163E+03 -0.10520570350E+03  0.24745128864E+03  0.10100000352E+00 0. -1.
       -3    1    3    3    0  502 -0.55197952766E+02  0.21706468163E+03 -0.13385866858E+04  0.13571949807E+04  0.10100000352E+00 0.  1.
</event>
<event>
 5   0  0.7572415E-04  0.6998839E+03  0.7818609E-02  0.9717431E-01
        1   -1    0    0  501    0  0.00000000000E+00  0.00000000000E+00  0.41802804602E+03  0.41802804605E+03  0.50400001928E-02 0.  1.
       -1   -1    0    0    0  501  0.00000000000E+00  0.00000000000E+00 -0.29294534998E+03  0.29294535003E+03  0.50400001928E-02 0. -1.
    10030    2    1    2    0    0  0.00000000000E+00  0.00000000000E+00  0.12508269604E+03  0.71097339608E+03  0.69988391115E+03 0.  0.
        4    1    3    3  502    0  0.14803510813E+03 -0.15355477482E+03  0.34436146718E+03  0.40506776605E+03  0.12699999809E+01 0.  1.
       -4    1    3    3    0  502 -0.14803510813E+03  0.15355477482E+03 -0.21927877115E+03  0.30590563003E+03  0.12699999809E+01 0. -1.
</event>
<event>
 5   0  0.1243087E-03  0.6998439E+03  0.7818609E-02  0.9717499E-01
        2   -1    0    0  501    0  0.00000000000E+00  0.00000000000E+00  0.54769631874E+03  0.54769631874E+03  0.25500000920E-02 0. -1.
       -2   -1    0    0    0  501  0.00000000000E+00  0.00000000000E+00 -0.22356438077E+03  0.22356438078E+03  0.25500000920E-02 0.  1.
    10030    2    1    2    0    0  0.00000000000E+00  0.00000000000E+00  0.32413193797E+03  0.77126069952E+03  0.69984394933E+03 0.  0.
        4    1    3    3  502    0 -0.34597636522E+02  0.31595657407E+03  0.78181489953E+00  0.31784867041E+03  0.12699999809E+01 0.  1.
       -4    1    3    3    0  502  0.34597636522E+02 -0.31595657407E+03  0.32335012307E+03  0.45341202911E+03  0.12699999809E+01 0. -1.
</event>
<event>
 5   0  0.1222679E-03  0.7005469E+03  0.7818609E-02  0.9716297E-01
        2   -1    0    0  501    0  0.00000000000E+00  0.00000000000E+00  0.23196777714E+03  0.23196777715E+03  0.25500000920E-02 0. -1.
       -2   -1    0    0    0  501  0.00000000000E+00  0.00000000000E+00 -0.52891610635E+03  0.52891610635E+03  0.25500000920E-02 0.  1.
    10030    2    1    2    0    0  0.00000000000E+00  0.00000000000E+00 -0.29694832921E+03  0.76088388351E+03  0.70054691061E+03 0.  0.
        2    1    3    3  502    0  0.34141219941E+02 -0.29515181813E+03  0.53005650778E+02  0.30181089720E+03  0.25500000920E-02 0. -1.
       -2    1    3    3    0  502 -0.34141219941E+02  0.29515181813E+03 -0.34995397998E+03  0.45907298631E+03  0.25500000920E-02 0.  1.
</event>
<event>
 5   0  0.7570633E-04  0.7004084E+03  0.7818609E-02  0.9716534E-01
        1   -1    0    0  501    0  0.00000000000E+00  0.00000000000E+00  0.90302503916E+03  0.90302503918E+03  0.50400001928E-02 0.  1.
       -1   -1    0    0    0  501  0.00000000000E+00  0.00000000000E+00 -0.13581347539E+03  0.13581347548E+03  0.50400001928E-02 0. -1.
    10030    2    1    2    0    0  0.00000000000E+00  0.00000000000E+00  0.76721156378E+03  0.10388385147E+04  0.70040836370E+03 0.  0.
        5    1    3    3  502    0 -0.19513328119E+03  0.21020034748E+03  0.68157449105E+03  0.73947755906E+03  0.46999998093E+01 0.  1.
       -5    1    3    3    0  502  0.19513328119E+03 -0.21020034748E+03  0.85637072731E+02  0.29936095560E+03  0.46999998093E+01 0. -1.
</event>
<event>
 5   0  0.1282546E-03  0.7000668E+03  0.7818609E-02  0.9717118E-01
       -2   -1    0    0    0  501  0.00000000000E+00  0.00000000000E+00  0.54520320943E+02  0.54520321003E+02  0.25500000920E-02 0.  1.
        2   -1    0    0  501    0  0.00000000000E+00  0.00000000000E+00 -0.22472972696E+04  0.22472972696E+04  0.25500000920E-02 0. -1.
    10030    2    1    2    0    0  0.00000000000E+00  0.00000000000E+00 -0.21927769487E+04  0.23018175906E+04  0.70006676386E+03 0.  0.
        5    1    3    3  502    0 -0.26794973505E+02 -0.89996405524E+02 -0.22050041921E+04  0.22070076803E+04  0.46999998093E+01 0. -1.
       -5    1    3    3    0  502  0.26794973505E+02  0.89996405524E+02  0.12227243462E+02  0.94809910312E+02  0.46999998093E+01 0.  1.
</event>
<event>
 5   0  0.1222679E-03  0.7001130E+03  0.7818609E-02  0.9717039E-01
       -2   -1    0    0    0  501  0.00000000000E+00  0.00000000000E+00  0.72296511091E+02  0.72296511136E+02  0.25500000920E-02 0.  1.
        2   -1    0    0  501    0  0.00000000000E+00  0.00000000000E+00 -0.16949581375E+04  0.16949581375E+04  0.25500000920E-02 0. -1.
    10030    2    1    2    0    0  0.00000000000E+00  0.00000000000E+00 -0.16226616264E+04  0.17672546487E+04  0.70011301896E+03 0.  0.
        2    1    3    3  502    0 -0.20219490902E+03 -0.14112297841E+02 -0.90892431744E+02  0.22213368123E+03  0.25500000920E-02 0.  1.
       -2    1    3    3    0  502  0.20219490902E+03  0.14112297841E+02 -0.15317691947E+04  0.15451209674E+04  0.25500000920E-02 0. -1.
</event>
<event>
 5   0  0.4936000E-04  0.7008909E+03  0.7818609E-02  0.9715710E-01
       -4   -1    0    0    0  501  0.00000000000E+00  0.00000000000E+00  0.12169054168E+04  0.12169060795E+04  0.12699999809E+01 0. -1.
        4   -1    0    0  501    0  0.00000000000E+00  0.00000000000E+00 -0.10091689950E+03  0.10092489041E+03  0.12699999809E+01 0.  1.
    10030    2    1    2    0    0  0.00000000000E+00  0.00000000000E+00  0.11159885173E+04  0.13178309700E+04  0.70089092914E+03 0.  0.
        2    1    3    3  502    0 -0.22669547519E+03  0.63045675974E+02  0.69691984537E+02  0.24540286967E+03  0.25500000920E-02 0.  1.
       -2    1    3    3    0  502  0.22669547519E+03 -0.63045675974E+02  0.10462965328E+04  0.10724281003E+04  0.25500000920E-02 0. -1.
</event>
<event>
 5   0  0.7574241E-04  0.7001188E+03  0.7818609E-02  0.9717029E-01
        1   -1    0    0  501    0  0.00000000000E+00  0.00000000000E+00  0.43876387314E+03  0.43876387317E+03  0.50400001928E-02 0.  1.
       -1   -1    0    0    0  501  0.00000000000E+00  0.00000000000E+00 -0.27928826276E+03  0.27928826280E+03  0.50400001928E-02 0. -1.
    10030    2    1    2    0    0  0.00000000000E+00  0.00000000000E+00  0.15947561038E+03  0.71805213597E+03  0.70011884682E+03 0.  0.
        3    1    3    3  502    0  0.34283716683E+03  0.70739332915E+02  0.80211742121E+02  0.35913132689E+03  0.10100000352E+00 0.  1.
       -3    1    3    3    0  502 -0.34283716683E+03 -0.70739332915E+02  0.79263868258E+02  0.35892080908E+03  0.10100000352E+00 0. -1.
</event>
<event>
 5   0  0.1265562E-03  0.6992652E+03  0.7818609E-02  0.9718490E-01
        2   -1    0    0  501    0  0.00000000000E+00  0.00000000000E+00  0.17222567441E+03  0.17222567443E+03  0.25500000920E-02 0. -1.
       -2   -1    0    0    0  501  0.00000000000E+00  0.00000000000E+00 -0.70978354978E+03  0.70978354978E+03  0.25500000920E-02 0.  1.
    10030    2    1    2    0    0  0.00000000000E+00  0.00000000000E+00 -0.53755787537E+03  0.88200922421E+03  0.69926518734E+03 0.  0.
        1    1    3    3  502    0  0.16599989120E+03  0.10104463671E+03 -0.63538562154E+03  0.66444026862E+03  0.50400001928E-02 0.  1.
       -1    1    3    3    0  502 -0.16599989120E+03 -0.10104463671E+03  0.97827746170E+02  0.21756895559E+03  0.50400001928E-02 0. -1.
</event>
<event>
 5   0  0.7574241E-04  0.7002656E+03  0.7818609E-02  0.9716778E-01
       -1   -1    0    0    0  501  0.00000000000E+00  0.00000000000E+00  0.95157400145E+02  0.95157400279E+02  0.50400001928E-02 0. -1.
        1   -1    0    0  501    0  0.00000000000E+00  0.00000000000E+00 -0.12883177407E+04  0.12883177407E+04  0.50400001928E-02 0.  1.
    10030    2    1    2    0    0  0.00000000000E+00  0.00000000000E+00 -0.11931603405E+04  0.13834751409E+04  0.70026556923E+03 0.  0.
        3    1    3    3  502    0  0.17622393642E+03  0.13621602038E+03 -0.62851828185E+02  0.23143042688E+03  0.10100000352E+00 0. -1.
       -3    1    3    3    0  502 -0.17622393642E+03 -0.13621602038E+03 -0.11303085123E+04  0.11520447141E+04  0.10100000352E+00 0.  1.
</event>
<event>
 5   0  0.1222679E-03  0.6992759E+03  0.7818609E-02  0.9718471E-01
       -2   -1    0    0    0  501  0.00000000000E+00  0.00000000000E+00  0.81653807824E+02  0.81653807864E+02  0.25500000920E-02 0. -1.
        2   -1    0    0  501    0  0.00000000000E+00  0.00000000000E+00 -0.14971339403E+04  0.14971339403E+04  0.25500000920E-02 0.  1.
    10030    2    1    2    0    0  0.00000000000E+00  0.00000000000E+00 -0.14154801325E+04  0.15787877482E+04  0.69927587427E+03 0.  0.
        2    1    3    3  502    0 -0.30901595104E+03 -0.41786743636E+02 -0.10647903799E+04  0.11095113983E+04  0.25500000920E-02 0.  1.
       -2    1    3    3    0  502  0.30901595104E+03  0.41786743636E+02 -0.35068975263E+03  0.46927634987E+03  0.25500000920E-02 0. -1.
</event>
<event>
 5   0  0.1224048E-03  0.7003918E+03  0.7818609E-02  0.9716562E-01
       -2   -1    0    0    0  501  0.00000000000E+00  0.00000000000E+00  0.79240910782E+02  0.79240910823E+02  0.25500000920E-02 0.  1.
        2   -1    0    0  501    0  0.00000000000E+00  0.00000000000E+00 -0.15476494891E+04  0.15476494891E+04  0.25500000920E-02 0. -1.
    10030    2    1    2    0    0  0.00000000000E+00  0.00000000000E+00 -0.14684085783E+04  0.16268903999E+04  0.70039176215E+03 0.  0.
        3    1    3    3  502    0  0.24581864889E+02 -0.19765064106E+03 -0.14032722361E+04  0.14173365947E+04  0.10100000352E+00 0. -1.
       -3    1    3    3    0  502 -0.24581864889E+02  0.19765064106E+03 -0.65136342242E+02  0.20955380520E+03  0.10100000352E+00 0.  1.
</event>
<event>
 5   0  0.1265562E-03  0.6994834E+03  0.7818609E-02  0.9718116E-01
        2   -1    0    0  501    0  0.00000000000E+00  0.00000000000E+00  0.75011393209E+03  0.75011393209E+03  0.25500000920E-02 0.  1.
       -2   -1    0    0    0  501  0.00000000000E+00  0.00000000000E+00 -0.16306758311E+03  0.16306758313E+03  0.25500000920E-02 0. -1.
    10030    2    1    2    0    0  0.00000000000E+00  0.00000000000E+00  0.58704634898E+03  0.91318151522E+03  0.69948342645E+03 0.  0.
        1    1    3    3  502    0  0.33936567379E+03 -0.13347202500E+02  0.40253162482E+03  0.52666774856E+03  0.50400001928E-02 0.  1.
       -1    1    3    3    0  502 -0.33936567379E+03  0.13347202500E+02  0.18451472415E+03  0.38651376666E+03  0.50400001928E-02 0. -1.
</event>
<event>
 5   0  0.1282546E-03  0.7003463E+03  0.7818609E-02  0.9716640E-01
       -2   -1    0    0    0  501  0.00000000000E+00  0.00000000000E+00  0.75203646293E+02  0.75203646336E+02  0.25500000920E-02 0.  1.
        2   -1    0    0  501    0  0.00000000000E+00  0.00000000000E+00 -0.16305226427E+04  0.16305226427E+04  0.25500000920E-02 0. -1.
    10030    2    1    2    0    0  0.00000000000E+00  0.00000000000E+00 -0.15553189964E+04  0.17057262890E+04  0.70034633756E+03 0.  0.
        5    1    3    3  502    0  0.19745927288E+03 -0.19863759141E+03 -0.12894263687E+04  0.13195035080E+04  0.46999998093E+01 0. -1.
       -5    1    3    3    0  502 -0.19745927288E+03  0.19863759141E+03 -0.26589262770E+03  0.38622278109E+03  0.46999998093E+01 0.  1.
</event>
<event>
 5   0  0.7572415E-04  0.7009438E+03  0.7818609E-02  0.9715619E-01
       -1   -1    0    0    0  501  0.00000000000E+00  0.00000000000E+00  0.65139747418E+03  0.65139747420E+03  0.50400001928E-02 0. -1.
        1   -1    0    0  501    0  0.00000000000E+00  0.00000000000E+00 -0.18856470022E+03  0.18856470029E+03  0.50400001928E-02 0.  1.
    10030    2    1    2    0    0  0.00000000000E+00  0.00000000000E+00  0.46283277396E+03  0.83996217448E+03  0.70094384790E+03 0.  0.
        4    1    3    3  502    0  0.22014744260E+03  0.17619738155E+02  0.55751548925E+03  0.59966697867E+03  0.12699999809E+01 0. -1.
       -4    1    3    3    0  502 -0.22014744260E+03 -0.17619738155E+02 -0.94682715289E+02  0.24029519582E+03  0.12699999809E+01 0.  1.
</event>
<event>
 5   0  0.7574241E-04  0.7001598E+03  0.7818609E-02  0.9716959E-01
        1   -1    0    0  501    0  0.00000000000E+00  0.00000000000E+00  0.72966488662E+03  0.72966488663E+03  0.50400001928E-02 0.  1.
       -1   -1    0    0    0  501  0.00000000000E+00  0.00000000000E+00 -0.16796196886E+03  0.16796196894E+03  0.50400001928E-02 0. -1.
    10030    2    1    2    0    0  0.00000000000E+00  0.00000000000E+00  0.56170291775E+03  0.89762685557E+03  0.70015984177E+03 0.  0.
        3    1    3    3  502    0  0.16983325025E+03 -0.89374990787E+02 -0.94511725365E+02  0.21392451543E+03  0.10100000352E+00 0. -1.
       -3    1    3    3    0  502 -0.16983325025E+03  0.89374990787E+02  0.65621464312E+03  0.68370234014E+03  0.10100000352E+00 0.  1.
</event>
<event>
 5   0  0.4936000E-04  0.7001737E+03  0.7818609E-02  0.9716935E-01
       -3   -1    0    0    0  501  0.00000000000E+00  0.00000000000E+00  0.15079635472E+03  0.15079638854E+03  0.10100000352E+00 0.  1.
        3   -1    0    0  501    0  0.00000000000E+00  0.00000000000E+00 -0.81275689811E+03  0.81275690439E+03  0.10100000352E+00 0. -1.
    10030    2    1    2    0    0  0.00000000000E+00  0.00000000000E+00 -0.66196054339E+03  0.96355329292E+03  0.70017368366E+03 0.  0.
        4    1    3    3  502    0 -0.16034799630E+03 -0.23679720269E+03 -0.60886572723E+03  0.67268379036E+03  0.12699999809E+01 0. -1.
       -4    1    3    3    0  502  0.16034799630E+03  0.23679720269E+03 -0.53094816164E+02  0.29086950256E+03  0.12699999809E+01 0.  1.
</event>
<event>
 5   0  0.1243087E-03  0.6998704E+03  0.7818609E-02  0.9717454E-01
        2   -1    0    0  501    0  0.00000000000E+00  0.00000000000E+00  0.53914873671E+03  0.53914873671E+03  0.25500000920E-02 0. -1.
       -2   -1    0    0    0  501  0.00000000000E+00  0.00000000000E+00 -0.22712590934E+03  0.22712590935E+03  0.25500000920E-02 0.  1.
    10030    2    1    2    0    0  0.00000000000E+00  0.00000000000E+00  0.31202282737E+03  0.76627464607E+03  0.69987040830E+03 0.  0.
        4    1    3    3  502    0 -0.19062002256E+03  0.27421853452E+03  0.41591206080E+02  0.33654604291E+03  0.12699999809E+01 0.  1.
       -4    1    3    3    0  502  0.19062002256E+03 -0.27421853452E+03  0.27043162129E+03  0.42972860315E+03  0.12699999809E+01 0. -1.
</event>
<event>
 5   0  0.7572415E-04  0.7001990E+03  0.7818609E-02  0.9716892E-01
        1   -1    0    0  501    0  0.00000000000E+00  0.00000000000E+00  0.10875669697E+03  0.10875669709E+03  0.50400001928E-02 0.  1.
       -1   -1    0    0    0  501  0.00000000000E+00  0.00000000000E+00 -0.11270079580E+04  0.11270079580E+04  0.50400001928E-02 0. -1.
    10030    2    1    2    0    0  0.00000000000E+00  0.00000000000E+00 -0.10182512610E+04  0.12357646551E+04  0.70019900901E+03 0.  0.
        4    1    3    3  502    0  0.48191910786E+02  0.24132591207E+03 -0.69648765637E+02  0.25576008202E+03  0.12699999809E+01 0.  1.
       -4    1    3    3    0  502 -0.48191910786E+02 -0.24132591207E+03 -0.94860249541E+03  0.98000457310E+03  0.12699999809E+01 0. -1.
</event>
<event>
 5   0  0.4936000E-04  0.6994165E+03  0.7818609E-02  0.9718231E-01
        3   -1    0    0  501    0  0.00000000000E+00  0.00000000000E+00  0.96177139114E+03  0.96177139644E+03  0.10100000352E+00 0. -1.
       -3   -1    0    0    0  501  0.00000000000E+00  0.00000000000E+00 -0.12715687741E+03  0.12715691752E+03  0.10100000352E+00 0.  1.
    10030    2    1    2    0    0  0.00000000000E+00  0.00000000000E+00  0.83461451373E+03  0.10889283140E+04  0.69941653285E+03 0.  0.
        4    1    3    3  502    0 -0.26295772488E+03 -0.18581441221E+03  0.62975838448E+03  0.70729837875E+03  0.12699999809E+01 0. -1.
       -4    1    3    3    0  502  0.26295772488E+03  0.18581441221E+03  0.20485612925E+03  0.38162993522E+03  0.12699999809E+01 0.  1.
</event>
<event>
 5   0  0.7013526E-04  0.6999185E+03  0.7818609E-02  0.9717372E-01
        1   -1    0    0  501    0  0.00000000000E+00  0.00000000000E+00  0.17517213400E+04  0.17517213400E+04  0.50400001928E-02 0.  1.
       -1   -1    0    0    0  501  0.00000000000E+00  0.00000000000E+00 -0.69914940143E+02  0.69914940325E+02  0.50400001928E-02 0. -1.
    10030    2    1    2    0    0  0.00000000000E+00  0.00000000000E+00  0.16818063999E+04  0.18216362803E+04  0.69991854613E+03 0.  0.
        1    1    3    3  502    0  0.16470828326E+03  0.27027534611E+03  0.45229916813E+03  0.55204358415E+03  0.50400001928E-02 0. -1.
       -1    1    3    3    0  502 -0.16470828326E+03 -0.27027534611E+03  0.12295072317E+04  0.12695926962E+04  0.50400001928E-02 0.  1.
</event>
<event>
 5   0  0.1265562E-03  0.7000661E+03  0.7818609E-02  0.9717119E-01
        2   -1    0    0  501    0  0.00000000000E+00  0.00000000000E+00  0.93996615187E+03  0.93996615187E+03  0.25500000920E-02 0.  1.
       -2   -1    0    0    0  501  0.00000000000E+00  0.00000000000E+00 -0.13034847243E+03  0.13034847246E+03  0.25500000920E-02 0. -1.
    10030    2    1    2    0    0  0.00000000000E+00  0.00000000000E+00  0.80961767944E+03  0.10703146243E+04  0.70006614559E+03 0.  0.
        1    1    3    3  502    0  0.89206474872E+02  0.34175282976E+02 -0.11003313222E+03  0.14571559744E+03  0.50400001928E-02 0. -1.
       -1    1    3    3    0  502 -0.89206474872E+02 -0.34175282976E+02  0.91965081165E+03  0.92459902689E+03  0.50400001928E-02 0.  1.
</event>
<event>
 5   0  0.7570633E-04  0.6998557E+03  0.7818609E-02  0.9717479E-01
        1   -1    0    0  501    0  0.00000000000E+00  0.00000000000E+00  0.74506241616E+03  0.74506241618E+03  0.50400001928E-02 0.  1.
       -1   -1    0    0    0  501  0.00000000000E+00  0.00000000000E+00 -0.16434797568E+03  0.16434797576E+03  0.50400001928E-02 0. -1.
    10030    2    1    2    0    0  0.00000000000E+00  0.00000000000E+00  0.58071444047E+03  0.90941039194E+03  0.69985569912E+03 0.  0.
        5    1    3    3  502    0  0.42394547665E+02  0.89232477857E+02  0.72652248801E+03  0.73322353233E+03  0.46999998093E+01 0.  1.
       -5    1    3    3    0  502 -0.42394547665E+02 -0.89232477857E+02 -0.14580804753E+03  0.17618685961E+03  0.46999998093E+01 0. -1.
</event>
<event>
 5   0  0.1243087E-03  0.6991708E+03  0.7818609E-02  0.9718651E-01
       -2   -1    0    0    0  501  0.00000000000E+00  0.00000000000E+00  0.23835810148E+03  0.23835810150E+03  0.25500000920E-02 0. -1.
        2   -1    0    0  501    0  0.00000000000E+00  0.00000000000E+00 -0.51271577657E+03  0.51271577657E+03  0.25500000920E-02 0.  1.
    10030    2    1    2    0    0  0.00000000000E+00  0.00000000000E+00 -0.27435767508E+03  0.75107387807E+03  0.69917082065E+03 0.  0.
        4    1    3    3  502    0 -0.89033894390E+01 -0.25037657216E+03  0.12472455873E+03  0.27986698033E+03  0.12699999809E+01 0. -1.
       -4    1    3    3    0  502  0.89033894390E+01  0.25037657216E+03 -0.39908223381E+03  0.47120689774E+03  0.12699999809E+01 0.  1.
</event>
<event>
 5   0  0.1265562E-03  0.6999927E+03  0.7818609E-02  0.9717245E-01
       -2   -1    0    0    0  501  0.00000000000E+00  0.00000000000E+00  0.28214676908E+03  0.28214676909E+03  0.25500000920E-02 0.  1.
        2   -1    0    0  501    0  0.00000000000E+00  0.00000000000E+00 -0.43416219999E+03  0.43416219999E+03  0.25500000920E-02 0. -1.
    10030    2    1    2    0    0  0.00000000000E+00  0.00000000000E+00 -0.15201543091E+03  0.71630896909E+03  0.69999274851E+03 0.  0.
        1    1    3    3  502    0  0.35546584945E+02 -0.79551811673E+02  0.27087055037E+03  0.28453981360E+03  0.50400001928E-02 0.  1.
       -1    1    3    3    0  502 -0.35546584945E+02  0.79551811673E+02 -0.42288598128E+03  0.43176915548E+03  0.50400001928E-02 0. -1.
</event>
<event>
 5   0  0.1224048E-03  0.6996113E+03  0.7818609E-02  0.9717897E-01
       -2   -1    0    0    0  501  0.00000000000E+00  0.00000000000E+00  0.83093052349E+02  0.83093052388E+02  0.25500000920E-02 0. -1.
        2   -1    0    0  501    0  0.00000000000E+00  0.00000000000E+00 -0.14726139662E+04  0.14726139662E+04  0.25500000920E-02 0.  1.
    10030    2    1    2    0    0  0.00000000000E+00  0.00000000000E+00 -0.13895209139E+04  0.15557070186E+04  0.69961129040E+03 0.  0.
        3    1    3    3  502    0 -0.75155656633E+02  0.11335029492E+03 -0.14114159904E+04  0.14179533738E+04  0.10100000352E+00 0.  1.
       -3    1    3    3    0  502  0.75155656633E+02 -0.11335029492E+03  0.21895076536E+02  0.13775364481E+03  0.10100000352E+00 0. -1.
</event>
<event>
 5   0  0.1222679E-03  0.6999950E+03  0.7818609E-02  0.9717241E-01
        2   -1    0    0  501    0  0.00000000000E+00  0.00000000000E+00  0.19003108160E+03  0.19003108162E+03  0.25500000920E-02 0. -1.
       -2   -1    0    0    0  501  0.00000000000E+00  0.00000000000E+00 -0.64462212443E+03  0.64462212443E+03  0.25500000920E-02 0.  1.
    10030    2    1    2    0    0  0.00000000000E+00  0.00000000000E+00 -0.45459104282E+03  0.83465320606E+03  0.69999497010E+03 0.  0.
        2    1    3    3  502    0  0.27756846629E+03 -0.43596739830E+02 -0.47613640310E+03  0.55285694675E+03  0.25500000920E-02 0.  1.
       -2    1    3    3    0  502 -0.27756846629E+03  0.43596739830E+02  0.21545360273E+02  0.28179625931E+03  0.25500000920E-02 0. -1.
</event>
<event>
 5   0  0.1265562E-03  0.6992483E+03  0.7818609E-02  0.9718519E-01
       -2   -1    0    0    0  501  0.00000000000E+00  0.00000000000E+00  0.83561838965E+02  0.83561839004E+02  0.25500000920E-02 0. -1.
        2   -1    0    0  501    0  0.00000000000E+00  0.00000000000E+00 -0.14628331833E+04  0.14628331833E+04  0.25500000920E-02 0.  1.
    10030    2    1    2    0    0  0.00000000000E+00  0.00000000000E+00 -0.13792713443E+04  0.15463950223E+04  0.69924825613E+03 0.  0.
        1    1    3    3  502    0 -0.17985999103E+03 -0.20337824887E+03 -0.20247694009E+03  0.33868752528E+03  0.50400001928E-02 0. -1.
       -1    1    3    3    0  502  0.17985999103E+03  0.20337824887E+03 -0.11767944042E+04  0.12077074970E+04  0.50400001928E-02 0.  1.
</event>
<event>
 5   0  0.1282546E-03  0.6947730E+03  0.7818609E-02  0.9726213E-01
       -2   -1    0    0    0  501  0.00000000000E+00  0.00000000000E+00  0.51128917317E+02  0.51128917380E+02  0.25500000920E-02 0. -1.
        2   -1    0    0  501    0  0.00000000000E+00  0.00000000000E+00 -0.23602570049E+04  0.23602570049E+04  0.25500000920E-02 0.  1.
    10030    2    1    2    0    0  0.00000000000E+00  0.00000000000E+00 -0.23091280876E+04  0.24113859223E+04  0.69477301424E+03 0.  0.
        5    1    3    3  502    0  0.60895829326E+01  0.33742906460E+03 -0.86920480008E+03  0.93243473291E+03  0.46999998093E+01 0. -1.
       -5    1    3    3    0  502 -0.60895829326E+01 -0.33742906460E+03 -0.14399232875E+04  0.14789511894E+04  0.46999998093E+01 0.  1.
</event>
<event>
 5   0  0.4936000E-04  0.6999860E+03  0.7818609E-02  0.9717256E-01
       -3   -1    0    0    0  501  0.00000000000E+00  0.00000000000E+00  0.39850985933E+03  0.39850987212E+03  0.10100000352E+00 0. -1.
        3   -1    0    0  501    0  0.00000000000E+00  0.00000000000E+00 -0.30738285698E+03  0.30738287357E+03  0.10100000352E+00 0.  1.
    10030    2    1    2    0    0  0.00000000000E+00  0.00000000000E+00  0.91127002344E+02  0.70589274570E+03  0.69998602691E+03 0.  0.
        5    1    3    3  502    0  0.18660163006E+03 -0.14080829226E+03  0.30819514605E+03  0.38685072257E+03  0.46999998093E+01 0. -1.
       -5    1    3    3    0  502 -0.18660163006E+03  0.14080829226E+03 -0.21706814370E+03  0.31904202313E+03  0.46999998093E+01 0.  1.
</event>
<event>
 5   0  0.1222679E-03  0.6995099E+03  0.7818609E-02  0.9718071E-01
       -2   -1    0    0    0  501  0.00000000000E+00  0.00000000000E+00  0.23221191487E+03  0.23221191488E+03  0.25500000920E-02 0. -1.
        2   -1    0    0  501    0  0.00000000000E+00  0.00000000000E+00 -0.52679695658E+03  0.52679695659E+03  0.25500000920E-02 0.  1.
    10030    2    1    2    0    0  0.00000000000E+00  0.00000000000E+00 -0.29458504171E+03  0.75900887147E+03  0.69950991427E+03 0.  0.
        2    1    3    3  502    0  0.31669539300E+03 -0.13338987711E+03 -0.21794387312E+03  0.40692550067E+03  0.25500000920E-02 0. -1.
       -2    1    3    3    0  502 -0.31669539300E+03  0.13338987711E+03 -0.76641168587E+02  0.35208337079E+03  0.25500000920E-02 0.  1.
</event>
<event>
 5   0  0.7574241E-04  0.7000937E+03  0.7818609E-02  0.9717072E-01
       -1   -1    0    0    0  501  0.00000000000E+00  0.00000000000E+00  0.10791972205E+03  0.10791972217E+03  0.50400001928E-02 0.  1.
        1   -1    0    0  501    0  0.00000000000E+00  0.00000000000E+00 -0.11354067950E+04  0.11354067950E+04  0.50400001928E-02 0. -1.
    10030    2    1    2    0    0  0.00000000000E+00  0.00000000000E+00 -0.10274870730E+04  0.12433265172E+04  0.70009366748E+03 0.  0.
        3    1    3    3  502    0 -0.46592696966E+02 -0.17752330698E+02 -0.11290680997E+04  0.11301684868E+04  0.10100000352E+00 0. -1.
       -3    1    3    3    0  502  0.46592696966E+02  0.17752330698E+02  0.10158102671E+03  0.11315803040E+03  0.10100000352E+00 0.  1.
</event>
<event>
 5   0  0.7013526E-04  0.7002143E+03  0.7818609E-02  0.9716866E-01
       -1   -1    0    0    0  501  0.00000000000E+00  0.00000000000E+00  0.14473505277E+03  0.14473505286E+03  0.50400001928E-02 0. -1.
        1   -1    0    0  501    0  0.00000000000E+00  0.00000000000E+00 -0.84689232780E+03  0.84689232782E+03  0.50400001928E-02 0.  1.
    10030    2    1    2    0    0  0.00000000000E+00  0.00000000000E+00 -0.70215727503E+03  0.99162738068E+03  0.70021426952E+03 0.  0.
        1    1    3    3  502    0  0.15464816766E+03  0.31409390386E+03 -0.35390020126E+03  0.49781159958E+03  0.50400001928E-02 0. -1.
       -1    1    3    3    0  502 -0.15464816766E+03 -0.31409390386E+03 -0.34825707378E+03  0.49381578110E+03  0.50400001928E-02 0.  1.
</event>
<event>
 5   0  0.1222679E-03  0.7003649E+03  0.7818609E-02  0.9716608E-01
       -2   -1    0    0    0  501  0.00000000000E+00  0.00000000000E+00  0.18610553801E+04  0.18610553801E+04  0.25500000920E-02 0.  1.
        2   -1    0    0  501    0  0.00000000000E+00  0.00000000000E+00 -0.65891513576E+02  0.65891513625E+02  0.25500000920E-02 0. -1.
    10030    2    1    2    0    0  0.00000000000E+00  0.00000000000E+00  0.17951638666E+04  0.19269468938E+04  0.70036492172E+03 0.  0.
        2    1    3    3  502    0  0.56360022148E+01  0.29214330220E+03  0.36657708660E+03  0.46878378168E+03  0.25500000920E-02 0. -1.
       -2    1    3    3    0  502 -0.56360022148E+01 -0.29214330220E+03  0.14285867800E+04  0.14581631121E+04  0.25500000920E-02 0.  1.
</event>
<event>
 5   0  0.1282546E-03  0.7006337E+03  0.7818609E-02  0.9716149E-01
        2   -1    0    0  501    0  0.00000000000E+00  0.00000000000E+00  0.10693331040E+04  0.10693331040E+04  0.25500000920E-02 0.  1.
       -2   -1    0    0    0  501  0.00000000000E+00  0.00000000000E+00 -0.11476489390E+03  0.11476489393E+03  0.25500000920E-02 0. -1.
    10030    2    1    2    0    0  0.00000000000E+00  0.00000000000E+00  0.95456821010E+03  0.11840979979E+04  0.70063371383E+03 0.  0.
        5    1    3    3  502    0 -0.51494304069E+02 -0.54466531265E+02 -0.10099944136E+03  0.12586200194E+03  0.46999998093E+01 0. -1.
       -5    1    3    3    0  502  0.51494304069E+02  0.54466531265E+02  0.10555676515E+04  0.10582359960E+04  0.46999998093E+01 0.  1.
</event>
<event>
 5   0  0.1282546E-03  0.6999593E+03  0.7818609E-02  0.9717302E-01
       -2   -1    0    0    0  501  0.00000000000E+00  0.00000000000E+00  0.25525759813E+03  0.25525759814E+03  0.25500000920E-02 0. -1.
        2   -1    0    0  501    0  0.00000000000E+00  0.00000000000E+00 -0.47985160118E+03  0.47985160119E+03  0.25500000920E-02 0.  1.
    10030    2    1    2    0    0  0.00000000000E+00  0.00000000000E+00 -0.22459400305E+03  0.73510919932E+03  0.69995933362E+03 0.  0.
        5    1    3    3  502    0 -0.31597675616E+03 -0.14228185108E+03 -0.16351316401E+03  0.38320240133E+03  0.46999998093E+01 0.  1.
       -5    1    3    3    0  502  0.31597675616E+03  0.14228185108E+03 -0.61080839044E+02  0.35190679800E+03  0.46999998093E+01 0. -1.
</event>
<event>
 5   0  0.7572415E-04  0.7000099E+03  0.7818609E-02  0.9717215E-01
       -1   -1    0    0    0  501  0.00000000000E+00  0.00000000000E+00  0.92361380256E+02  0.92361380394E+02  0.50400001928E-02 0. -1.
        1   -1    0    0  501    0  0.00000000000E+00  0.00000000000E+00 -0.13263495964E+04  0.13263495964E+04  0.50400001928E-02 0.  1.
    10030    2    1    2    0    0  0.00000000000E+00  0.00000000000E+00 -0.12339882162E+04  0.14187109768E+04  0.70000994145E+03 0.  0.
        4    1    3    3  502    0 -0.11473701302E+03 -0.32712715751E+03 -0.51926786108E+03  0.62435365281E+03  0.12699999809E+01 0. -1.
       -4    1    3    3    0  502  0.11473701302E+03  0.32712715751E+03 -0.71472035510E+03  0.79435732402E+03  0.12699999809E+01 0.  1.
</event>
<event>
 5   0  0.7570633E-04  0.6994696E+03  0.7818609E-02  0.9718140E-01
       -1   -1    0    0    0  501  0.00000000000E+00  0.00000000000E+00  0.14769606893E+03  0.14769606902E+03  0.50400001928E-02 0.  1.
        1   -1    0    0  501    0  0.00000000000E+00  0.00000000000E+00 -0.82814959168E+03  0.82814959170E+03  0.50400001928E-02 0. -1.
    10030    2    1    2    0    0  0.00000000000E+00  0.00000000000E+00 -0.68045352275E+03  0.97584566071E+03  0.69946962543E+03 0.  0.
        5    1    3    3  502    0  0.14169218097E+03 -0.14852052198E+03  0.54761233160E+02  0.21249918177E+03  0.46999998093E+01 0.  1.
       -5    1    3    3    0  502 -0.14169218097E+03  0.14852052198E+03 -0.73521475591E+03  0.76334647894E+03  0.46999998093E+01 0. -1.
</event>
<event>
 5   0  0.1265562E-03  0.7000705E+03  0.7818609E-02  0.9717112E-01
        2   -1    0    0  501    0  0.00000000000E+00  0.00000000000E+00  0.61147390662E+03  0.61147390663E+03  0.25500000920E-02 0.  1.
       -2   -1    0    0    0  501  0.00000000000E+00  0.00000000000E+00 -0.20037599211E+03  0.20037599212E+03  0.25500000920E-02 0. -1.
    10030    2    1    2    0    0  0.00000000000E+00  0.00000000000E+00  0.41109791451E+03  0.81184989875E+03  0.70007054129E+03 0.  0.
        1    1    3    3  502    0 -0.24849973248E+03  0.24405042493E+03  0.24592081629E+03  0.42636812129E+03  0.50400001928E-02 0.  1.
       -1    1    3    3    0  502  0.24849973248E+03 -0.24405042493E+03  0.16517709823E+03  0.38548177746E+03  0.50400001928E-02 0. -1.
</event>
<event>
 5   0  0.1243087E-03  0.6999265E+03  0.7818609E-02  0.9717358E-01
       -2   -1    0    0    0  501  0.00000000000E+00  0.00000000000E+00  0.71029928200E+02  0.71029928245E+02  0.25500000920E-02 0. -1.
        2   -1    0    0  501    0  0.00000000000E+00  0.00000000000E+00 -0.17242632297E+04  0.17242632297E+04  0.25500000920E-02 0.  1.
    10030    2    1    2    0    0  0.00000000000E+00  0.00000000000E+00 -0.16532333015E+04  0.17952931579E+04  0.69992654885E+03 0.  0.
        4    1    3    3  502    0  0.18202262523E+03 -0.15986921527E+03 -0.14744046877E+04  0.14941757587E+04  0.12699999809E+01 0.  1.
       -4    1    3    3    0  502 -0.18202262523E+03  0.15986921527E+03 -0.17882861385E+03  0.30111739922E+03  0.12699999809E+01 0. -1.
</event>
<event>
 5   0  0.1222679E-03  0.7004984E+03  0.7818609E-02  0.9716380E-01
       -2   -1    0    0    0  501  0.00000000000E+00  0.00000000000E+00  0.58713472725E+03  0.58713472726E+03  0.25500000920E-02 0.  1.
        2   -1    0    0  501    0  0.00000000000E+00  0.00000000000E+00 -0.20893755811E+03  0.20893755813E+03  0.25500000920E-02 0. -1.
    10030    2    1    2    0    0  0.00000000000E+00  0.00000000000E+00  0.37819716914E+03  0.79607228538E+03  0.70049838316E+03 0.  0.
        2    1    3    3  502    0 -0.30044336786E+03 -0.12792828331E+03  0.33303914682E+03  0.46641927092E+03  0.25500000920E-02 0.  1.
       -2    1    3    3    0  502  0.30044336786E+03  0.12792828331E+03  0.45158022318E+02  0.32965301447E+03  0.25500000920E-02 0. -1.
</event>
<event>
 5   0  0.1222679E-03  0.7000279E+03  0.7818609E-02  0.9717184E-01
       -2   -1    0    0    0  501  0.00000000000E+00  0.00000000000E+00  0.19792300842E+03  0.19792300844E+03  0.25500000920E-02 0. -1.
        2   -1    0    0  501    0  0.00000000000E+00  0.00000000000E+00 -0.61897686711E+03  0.61897686711E+03  0.25500000920E-02 0.  1.
    10030    2    1    2    0    0  0.00000000000E+00  0.00000000000E+00 -0.42105385868E+03  0.81689987555E+03  0.70002789570E+03 0.  0.
        2    1    3    3  502    0 -0.39699643973E+02 -0.33300368066E+03 -0.93585334879E+02  0.34817485259E+03  0.25500000920E-02 0. -1.
       -2    1    3    3    0  502  0.39699643973E+02  0.33300368066E+03 -0.32746852380E+03  0.46872502296E+03  0.25500000920E-02 0.  1.
</event>
<event>
 5   0  0.4936000E-04  0.6999750E+03  0.7818609E-02  0.9717275E-01
        4   -1    0    0  501    0  0.00000000000E+00  0.00000000000E+00  0.52537069222E+03  0.52537222723E+03  0.12699999809E+01 0.  1.
       -4   -1    0    0    0  501  0.00000000000E+00  0.00000000000E+00 -0.23314842892E+03  0.23315188785E+03  0.12699999809E+01 0. -1.
    10030    2    1    2    0    0  0.00000000000E+00  0.00000000000E+00  0.29222226330E+03  0.75852411508E+03  0.69997498669E+03 0.  0.
        1    1    3    3  502    0  0.11378563519E+02 -0.12087549791E+03 -0.20959987206E+03  0.24222399571E+03  0.50400001928E-02 0. -1.
       -1    1    3    3    0  502 -0.11378563519E+02  0.12087549791E+03  0.50182213536E+03  0.51630011937E+03  0.50400001928E-02 0.  1.
</event>
<event>
 5   0  0.7013526E-04  0.7000531E+03  0.7818609E-02  0.9717141E-01
       -1   -1    0    0    0  501  0.00000000000E+00  0.00000000000E+00  0.40110217570E+03  0.40110217573E+03  0.50400001928E-02 0. -1.
        1   -1    0    0  501    0  0.00000000000E+00  0.00000000000E+00 -0.30545475926E+03  0.30545475930E+03  0.50400001928E-02 0.  1.
    10030    2    1    2    0    0  0.00000000000E+00  0.00000000000E+00  0.95647416441E+02  0.70655693503E+03  0.70005305097E+03 0.  0.
        1    1    3    3  502    0 -0.23633833135E+03  0.45766339584E+02 -0.20863979089E+03  0.31856071176E+03  0.50400001928E-02 0.  1.
       -1    1    3    3    0  502  0.23633833135E+03 -0.45766339584E+02  0.30428720734E+03  0.38799622328E+03  0.50400001928E-02 0. -1.
</event>
<event>
 5   0  0.1282546E-03  0.7009993E+03  0.7818609E-02  0.9715525E-01
        2   -1    0    0  501    0  0.00000000000E+00  0.00000000000E+00  0.38828230804E+03  0.38828230805E+03  0.25500000920E-02 0.  1.
       -2   -1    0    0    0  501  0.00000000000E+00  0.00000000000E+00 -0.31639352020E+03  0.31639352021E+03  0.25500000920E-02 0. -1.
    10030    2    1    2    0    0  0.00000000000E+00  0.00000000000E+00  0.71888787844E+02  0.70467582825E+03  0.70099930464E+03 0.  0.
        5    1    3    3  502    0 -0.13807656176E+02 -0.23788859977E+03  0.29428695752E+03  0.37869320120E+03  0.46999998093E+01 0.  1.
       -5    1    3    3    0  502  0.13807656176E+02  0.23788859977E+03 -0.22239816968E+03  0.32598262706E+03  0.46999998093E+01 0. -1.
</event>
<event>
 5   0  0.1265562E-03  0.6999073E+03  0.7818609E-02  0.9717391E-01
        2   -1    0    0  501    0  0.00000000000E+00  0.00000000000E+00  0.83663060582E+03  0.83663060582E+03  0.25500000920E-02 0. -1.
       -2   -1    0    0    0  501  0.00000000000E+00  0.00000000000E+00 -0.14638187101E+03  0.14638187103E+03  0.25500000920E-02 0.  1.
    10030    2    1    2    0    0  0.00000000000E+00  0.00000000000E+00  0.69024873481E+03  0.98301247686E+03  0.69990728940E+03 0.  0.
        1    1    3    3  502    0  0.68724659755E+02 -0.22206961401E+03 -0.22276680534E+02  0.23352567920E+03  0.50400001928E-02 0.  1.
       -1    1    3    3    0  502 -0.68724659755E+02  0.22206961401E+03  0.71252541534E+03  0.74948679766E+03  0.50400001928E-02 0. -1.
</event>
<event>
 5   0  0.7572415E-04  0.7000949E+03  0.7818609E-02  0.9717070E-01
        1   -1    0    0  501    0  0.00000000000E+00  0.00000000000E+00  0.11704341269E+04  0.11704341270E+04  0.50400001928E-02 0. -1.
       -1   -1    0    0    0  501  0.00000000000E+00  0.00000000000E+00 -0.10469039548E+03  0.10469039560E+03  0.50400001928E-02 0.  1.
    10030    2    1    2    0    0  0.00000000000E+00  0.00000000000E+00  0.10657437315E+04  0.12751245226E+04  0.70009488418E+03 0.  0.
        4    1    3    3  502    0 -0.21713178420E+03 -0.18742489199E+03  0.89831347902E+03  0.94299682997E+03  0.12699999809E+01 0. -1.
       -4    1    3    3    0  502  0.21713178420E+03  0.18742489199E+03  0.16743025245E+03  0.33212769258E+03  0.12699999809E+01 0.  1.
</event>
<event>
 5   0  0.7574241E-04  0.7000092E+03  0.7818609E-02  0.9717216E-01
       -1   -1    0    0    0  501  0.00000000000E+00  0.00000000000E+00  0.11410456938E+04  0.11410456938E+04  0.50400001928E-02 0. -1.
        1   -1    0    0  501    0  0.00000000000E+00  0.00000000000E+00 -0.10736048754E+03  0.10736048766E+03  0.50400001928E-02 0.  1.
    10030    2    1    2    0    0  0.00000000000E+00  0.00000000000E+00  0.10336852063E+04  0.12484061815E+04  0.70000920586E+03 0.  0.
        3    1    3    3  502    0  0.92151008746E+02 -0.69341947963E+02 -0.72502443784E+02  0.13622308437E+03  0.10100000352E+00 0.  1.
       -3    1    3    3    0  502 -0.92151008746E+02  0.69341947963E+02  0.11061876500E+04  0.11121830971E+04  0.10100000352E+00 0. -1.
</event>
<event>
 5   0  0.1282546E-03  0.6991524E+03  0.7818609E-02  0.9718683E-01
       -2   -1    0    0    0  501  0.00000000000E+00  0.00000000000E+00  0.55486721743E+02  0.55486721801E+02  0.25500000920E-02 0.  1.
        2   -1    0    0  501    0  0.00000000000E+00  0.00000000000E+00 -0.22023920881E+04  0.22023920881E+04  0.25500000920E-02 0. -1.
    10030    2    1    2    0    0  0.00000000000E+00  0.00000000000E+00 -0.21469053664E+04  0.22578788099E+04  0.69915239263E+03 0.  0.
        5    1    3    3  502    0  0.27218160145E+03  0.50614124505E+02 -0.38430849665E+03  0.47366625842E+03  0.46999998093E+01 0.  1.
       -5    1    3    3    0  502 -0.27218160145E+03 -0.50614124505E+02 -0.17625968697E+04  0.17842125515E+04  0.46999998093E+01 0. -1.
</event>
<event>
 5   0  0.1282546E-03  0.7000856E+03  0.7818609E-02  0.9717086E-01
        2   -1    0    0  501    0  0.00000000000E+00  0.00000000000E+00  0.54220516306E+03  0.54220516306E+03  0.25500000920E-02 0. -1.
       -2   -1    0    0    0  501  0.00000000000E+00  0.00000000000E+00 -0.22598451675E+03  0.22598451676E+03  0.25500000920E-02 0.  1.
    10030    2    1    2    0    0  0.00000000000E+00  0.00000000000E+00  0.31622064631E+03  0.76818967983E+03  0.70008562836E+03 0.  0.
        5    1    3    3  502    0  0.92566090487E+01  0.23608192097E+03 -0.12525036663E+03  0.26745112181E+03  0.46999998093E+01 0.  1.
       -5    1    3    3    0  502 -0.92566090487E+01 -0.23608192097E+03  0.44147101293E+03  0.50073855801E+03  0.46999998093E+01 0. -1.
</event>
<event>
 5   0  0.1222679E-03  0.7000675E+03  0.7818609E-02  0.9717117E-01
       -2   -1    0    0    0  501  0.00000000000E+00  0.00000000000E+00  0.13692719929E+03  0.13692719932E+03  0.25500000920E-02 0. -1.
        2   -1    0    0  501    0  0.00000000000E+00  0.00000000000E+00 -0.89480860022E+03  0.89480860022E+03  0.25500000920E-02 0.  1.
    10030    2    1    2    0    0  0.00000000000E+00  0.00000000000E+00 -0.75788140092E+03  0.10317357995E+04  0.70006752688E+03 0.  0.
        2    1    3    3  502    0 -0.24793323665E+03 -0.41042906899E+02 -0.73803259403E+03  0.77964576566E+03  0.25500000920E-02 0.  1.
       -2    1    3    3    0  502  0.24793323665E+03  0.41042906899E+02 -0.19848806889E+02  0.25209003388E+03  0.25500000920E-02 0. -1.
</event>
<event>
 5   0  0.1243087E-03  0.7001289E+03  0.7818609E-02  0.9717012E-01
       -2   -1    0    0    0  501  0.00000000000E+00  0.00000000000E+00  0.17769412730E+04  0.17769412730E+04  0.25500000920E-02 0. -1.
        2   -1    0    0  501    0  0.00000000000E+00  0.00000000000E+00 -0.68964072559E+02  0.68964072606E+02  0.25500000920E-02 0.  1.
    10030    2    1    2    0    0  0.00000000000E+00  0.00000000000E+00  0.17079772005E+04  0.18459053456E+04  0.70012886509E+03 0.  0.
        4    1    3    3  502    0  0.20517748365E+03 -0.20389795687E+03  0.13738003287E+04  0.14039234782E+04  0.12699999809E+01 0. -1.
       -4    1    3    3    0  502 -0.20517748365E+03  0.20389795687E+03  0.33417687178E+03  0.44198186744E+03  0.12699999809E+01 0.  1.
</event>
<event>
 5   0  0.7013526E-04  0.7001190E+03  0.7818609E-02  0.9717029E-01
        1   -1    0    0  501    0  0.00000000000E+00  0.00000000000E+00  0.73288449248E+03  0.73288449250E+03  0.50400001928E-02 0.  1.
       -1   -1    0    0    0  501  0.00000000000E+00  0.00000000000E+00 -0.16720458999E+03  0.16720459007E+03  0.50400001928E-02 0. -1.
    10030    2    1    2    0    0  0.00000000000E+00  0.00000000000E+00  0.56567990249E+03  0.90008908256E+03  0.70011899308E+03 0.  0.
        1    1    3    3  502    0  0.53277985509E+02  0.30438727655E+02 -0.16023690250E+03  0.17158357972E+03  0.50400001928E-02 0. -1.
       -1    1    3    3    0  502 -0.53277985509E+02 -0.30438727655E+02  0.72591680499E+03  0.72850550284E+03  0.50400001928E-02 0.  1.
</event>
<event>
 5   0  0.7013526E-04  0.7004288E+03  0.7818609E-02  0.9716499E-01
       -1   -1    0    0    0  501  0.00000000000E+00  0.00000000000E+00  0.24416967352E+03  0.24416967357E+03  0.50400001928E-02 0. -1.
        1   -1    0    0  501    0  0.00000000000E+00  0.00000000000E+00 -0.50231511511E+03  0.50231511513E+03  0.50400001928E-02 0.  1.
    10030    2    1    2    0    0  0.00000000000E+00  0.00000000000E+00 -0.25814544159E+03  0.74648478870E+03  0.70042877636E+03 0.  0.
        1    1    3    3  502    0  0.36261959157E+02 -0.31856228157E+03  0.21093726231E+02  0.32131262383E+03  0.50400001928E-02 0.  1.
       -1    1    3    3    0  502 -0.36261959157E+02  0.31856228157E+03 -0.27923916782E+03  0.42517216488E+03  0.50400001928E-02 0. -1.
</event>
<event>
 5   0  0.7574241E-04  0.6985526E+03  0.7818609E-02  0.9719711E-01
        1   -1    0    0  501    0  0.00000000000E+00  0.00000000000E+00  0.51565778069E+03  0.51565778071E+03  0.50400001928E-02 0.  1.
       -1   -1    0    0    0  501  0.00000000000E+00  0.00000000000E+00 -0.23657924403E+03  0.23657924408E+03  0.50400001928E-02 0. -1.
    10030    2    1    2    0    0  0.00000000000E+00  0.00000000000E+00  0.27907853666E+03  0.75223702480E+03  0.69855258345E+03 0.  0.
        3    1    3    3  502    0 -0.25197933698E+03  0.90218128216E+02 -0.10211967083E+03  0.28646349557E+03  0.10100000352E+00 0. -1.
       -3    1    3    3    0  502  0.25197933698E+03 -0.90218128216E+02  0.38119820749E+03  0.46577352922E+03  0.10100000352E+00 0.  1.
</event>
<event>
 5   0  0.1265562E-03  0.7021838E+03  0.7818609E-02  0.9713505E-01
       -2   -1    0    0    0  501  0.00000000000E+00  0.00000000000E+00  0.17612503908E+03  0.17612503910E+03  0.25500000920E-02 0. -1.
        2   -1    0    0  501    0  0.00000000000E+00  0.00000000000E+00 -0.69987498093E+03  0.69987498094E+03  0.25500000920E-02 0.  1.
    10030    2    1    2    0    0  0.00000000000E+00  0.00000000000E+00 -0.52374994185E+03  0.87600002004E+03  0.70218376051E+03 0.  0.
        1    1    3    3  502    0  0.73234943199E+02  0.68871485645E+02 -0.68153502829E+03  0.68890974245E+03  0.50400001928E-02 0.  1.
       -1    1    3    3    0  502 -0.73234943199E+02 -0.68871485645E+02  0.15778508644E+03  0.18709027759E+03  0.50400001928E-02 0. -1.
</event>
<event>
 5   0  0.4936000E-04  0.7000306E+03  0.7818609E-02  0.9717180E-01
       -3   -1    0    0    0  501  0.00000000000E+00  0.00000000000E+00  0.16870654347E+03  0.16870657370E+03  0.10100000352E+00 0. -1.
        3   -1    0    0  501    0  0.00000000000E+00  0.00000000000E+00 -0.72617624034E+03  0.72617624737E+03  0.10100000352E+00 0.  1.
    10030    2    1    2    0    0  0.00000000000E+00  0.00000000000E+00 -0.55746969688E+03  0.89488282107E+03  0.70003057112E+03 0.  0.
        2    1    3    3  502    0  0.11160153975E+03  0.21118957080E+03  0.48319394219E+02  0.24370207704E+03  0.25500000920E-02 0. -1.
       -2    1    3    3    0  502 -0.11160153975E+03 -0.21118957080E+03 -0.60578909110E+03  0.65118074403E+03  0.25500000920E-02 0.  1.
</event>
<event>
 5   0  0.1243087E-03  0.7000896E+03  0.7818609E-02  0.9717079E-01
        2   -1    0    0  501    0  0.00000000000E+00  0.00000000000E+00  0.10971766767E+04  0.10971766767E+04  0.25500000920E-02 0. -1.
       -2   -1    0    0    0  501  0.00000000000E+00  0.00000000000E+00 -0.11167879186E+03  0.11167879189E+03  0.25500000920E-02 0.  1.
    10030    2    1    2    0    0  0.00000000000E+00  0.00000000000E+00  0.98549788489E+03  0.12088554686E+04  0.70008961065E+03 0.  0.
        4    1    3    3  502    0 -0.25420351606E+03  0.10771477726E+03  0.86432529312E+03  0.90734873452E+03  0.12699999809E+01 0. -1.
       -4    1    3    3    0  502  0.25420351606E+03 -0.10771477726E+03  0.12117259177E+03  0.30150673411E+03  0.12699999809E+01 0.  1.
</event>
<event>
 5   0  0.7572415E-04  0.7008464E+03  0.7818609E-02  0.9715786E-01
        1   -1    0    0  501    0  0.00000000000E+00  0.00000000000E+00  0.98132181982E+03  0.98132181983E+03  0.50400001928E-02 0.  1.
       -1   -1    0    0    0  501  0.00000000000E+00  0.00000000000E+00 -0.12513367794E+03  0.12513367804E+03  0.50400001928E-02 0. -1.
    10030    2    1    2    0    0  0.00000000000E+00  0.00000000000E+00  0.85618814188E+03  0.11064554979E+04  0.70084637010E+03 0.  0.
        4    1    3    3  502    0 -0.98506437806E+02  0.14997060301E+03 -0.47104855567E+02  0.18551328894E+03  0.12699999809E+01 0. -1.
       -4    1    3    3    0  502  0.98506437806E+02 -0.14997060301E+03  0.90329299745E+03  0.92094220893E+03  0.12699999809E+01 0.  1.
</event>
<event>
 5   0  0.7570633E-04  0.6999101E+03  0.7818609E-02  0.9717386E-01
       -1   -1    0    0    0  501  0.00000000000E+00  0.00000000000E+00  0.25153224517E+03  0.25153224522E+03  0.50400001928E-02 0. -1.
        1   -1    0    0  501    0  0.00000000000E+00  0.00000000000E+00 -0.48688999222E+03  0.48688999225E+03  0.50400001928E-02 0.  1.
    10030    2    1    2    0    0  0.00000000000E+00  0.00000000000E+00 -0.23535774705E+03  0.73842223747E+03  0.69991008830E+03 0.  0.
        5    1    3    3  502    0  0.28415457318E+03  0.19231718002E+03 -0.45221475611E+02  0.34611673037E+03  0.46999998093E+01 0.  1.
       -5    1    3    3    0  502 -0.28415457318E+03 -0.19231718002E+03 -0.19013627144E+03  0.39230550710E+03  0.46999998093E+01 0. -1.
</event>
<event>
 5   0  0.1265562E-03  0.7001362E+03  0.7818609E-02  0.9716999E-01
       -2   -1    0    0    0  501  0.00000000000E+00  0.00000000000E+00  0.19073980024E+03  0.19073980026E+03  0.25500000920E-02 0.  1.
        2   -1    0    0  501    0  0.00000000000E+00  0.00000000000E+00 -0.64248610602E+03  0.64248610602E+03  0.25500000920E-02 0. -1.
    10030    2    1    2    0    0  0.00000000000E+00  0.00000000000E+00 -0.45174630577E+03  0.83322590628E+03  0.70013619112E+03 0.  0.
        1    1    3    3  502    0 -0.40764850898E+02  0.51241020542E+02  0.18338717196E+03  0.19472614134E+03  0.50400001928E-02 0.  1.
       -1    1    3    3    0  502  0.40764850898E+02 -0.51241020542E+02 -0.63513347774E+03  0.63849976494E+03  0.50400001928E-02 0. -1.
</event>
<event>
 5   0  0.7574241E-04  0.7000774E+03  0.7818609E-02  0.9717100E-01
        1   -1    0    0  501    0  0.00000000000E+00  0.00000000000E+00  0.74488935757E+03  0.74488935759E+03  0.50400001928E-02 0.  1.
       -1   -1    0    0    0  501  0.00000000000E+00  0.00000000000E+00 -0.16449034622E+03  0.16449034630E+03  0.50400001928E-02 0. -1.
    10030    2    1    2    0    0  0.00000000000E+00  0.00000000000E+00  0.58039901136E+03  0.90937970389E+03  0.70007744818E+03 0.  0.
        3    1    3    3  502    0  0.21476137731E+03 -0.54884228103E+00  0.64925221289E+03  0.68385027349E+03  0.10100000352E+00 0.  1.
       -3    1    3    3    0  502 -0.21476137731E+03  0.54884228103E+00 -0.68853201533E+02  0.22552943039E+03  0.10100000352E+00 0. -1.
</event>
<event>
 5   0  0.1222679E-03  0.6999414E+03  0.7818609E-02  0.9717332E-01
       -2   -1    0    0    0  501  0.00000000000E+00  0.00000000000E+00  0.21517053364E+03  0.21517053365E+03  0.25500000920E-02 0. -1.
        2   -1    0    0  501    0  0.00000000000E+00  0.00000000000E+00 -0.56922059914E+03  0.56922059915E+03  0.25500000920E-02 0.  1.
    10030    2    1    2    0    0  0.00000000000E+00  0.00000000000E+00 -0.35405006551E+03  0.78439113280E+03  0.69994142636E+03 0.  0.
        2    1    3    3  502    0 -0.11505006206E+03 -0.11437553123E+03 -0.52453795803E+03  0.54905222734E+03  0.25500000920E-02 0.  1.
       -2    1    3    3    0  502  0.11505006206E+03  0.11437553123E+03  0.17048789252E+03  0.23533890547E+03  0.25500000920E-02 0. -1.
</event>
<event>
 5   0  0.1222679E-03  0.6998375E+03  0.7818609E-02  0.9717510E-01
       -2   -1    0    0    0  501  0.00000000000E+00  0.00000000000E+00  0.14087158389E+03  0.14087158392E+03  0.25500000920E-02 0. -1.
        2   -1    0    0  501    0  0.00000000000E+00  0.00000000000E+00 -0.86918249177E+03  0.86918249177E+03  0.25500000920E-02 0.  1.
    10030    2    1    2    0    0  0.00000000000E+00  0.00000000000E+00 -0.72831090788E+03  0.10100540757E+04  0.69983745062E+03 0.  0.
        2    1    3    3  502    0  0.21021806770E+03 -0.27741304853E+03 -0.41606259493E+03  0.54245526857E+03  0.25500000920E-02 0. -1.
       -2    1    3    3    0  502 -0.21021806770E+03  0.27741304853E+03 -0.31224831294E+03  0.46759880713E+03  0.25500000920E-02 0.  1.
</event>
<event>
 5   0  0.1243087E-03  0.6975595E+03  0.7818609E-02  0.9721415E-01
        2   -1    0    0  501    0  0.00000000000E+00  0.00000000000E+00  0.66191010055E+03  0.66191010056E+03  0.25500000920E-02 0.  1.
       -2   -1    0    0    0  501  0.00000000000E+00  0.00000000000E+00 -0.18378225239E+03  0.18378225240E+03  0.25500000920E-02 0. -1.
    10030    2    1    2    0    0  0.00000000000E+00  0.00000000000E+00  0.47812784817E+03  0.84569235296E+03  0.69755954345E+03 0.  0.
        4    1    3    3  502    0 -0.24043015883E+03 -0.22378668734E+03  0.38126989239E+03  0.50324495670E+03  0.12699999809E+01 0.  1.
       -4    1    3    3    0  502  0.24043015883E+03  0.22378668734E+03  0.96857955780E+02  0.34244739626E+03  0.12699999809E+01 0. -1.
</event>
<event>
 5   0  0.1224048E-03  0.7000940E+03  0.7818609E-02  0.9717071E-01
       -2   -1    0    0    0  501  0.00000000000E+00  0.00000000000E+00  0.23760301927E+03  0.23760301928E+03  0.25500000920E-02 0.  1.
        2   -1    0    0  501    0  0.00000000000E+00  0.00000000000E+00 -0.51570427690E+03  0.51570427690E+03  0.25500000920E-02 0. -1.
    10030    2    1    2    0    0  0.00000000000E+00  0.00000000000E+00 -0.27810125763E+03  0.75330729618E+03  0.70009397440E+03 0.  0.
        3    1    3    3  502    0 -0.34074947210E+02 -0.30794741429E+03  0.36243630155E+02  0.31193961423E+03  0.10100000352E+00 0.  1.
       -3    1    3    3    0  502  0.34074947210E+02  0.30794741429E+03 -0.31434488779E+03  0.44136768196E+03  0.10100000352E+00 0. -1.
</event>
<event>
 5   0  0.1265562E-03  0.6997621E+03  0.7818609E-02  0.9717639E-01
        2   -1    0    0  501    0  0.00000000000E+00  0.00000000000E+00  0.17537313863E+03  0.17537313865E+03  0.25500000920E-02 0.  1.
       -2   -1    0    0    0  501  0.00000000000E+00  0.00000000000E+00 -0.69803583131E+03  0.69803583132E+03  0.25500000920E-02 0. -1.
    10030    2    1    2    0    0  0.00000000000E+00  0.00000000000E+00 -0.52266269269E+03  0.87340896996E+03  0.69976205848E+03 0.  0.
        1    1    3    3  502    0 -0.32094655630E+03 -0.13558608979E+03 -0.30132003683E+03  0.46063439338E+03  0.50400001928E-02 0.  1.
       -1    1    3    3    0  502  0.32094655630E+03  0.13558608979E+03 -0.22134265586E+03  0.41277457659E+03  0.50400001928E-02 0. -1.
</event>
<event>
 5   0  0.1282546E-03  0.6998965E+03  0.7818609E-02  0.9717409E-01
        2   -1    0    0  501    0  0.00000000000E+00  0.00000000000E+00  0.31946966990E+03  0.31946966991E+03  0.25500000920E-02 0. -1.
       -2   -1    0    0    0  501  0.00000000000E+00  0.00000000000E+00 -0.38333457052E+03  0.38333457053E+03  0.25500000920E-02 0.  1.
    10030    2    1    2    0    0  0.00000000000E+00  0.00000000000E+00 -0.63864900617E+02  0.70280424044E+03  0.69989647438E+03 0.  0.
        5    1    3    3  502    0 -0.22052632216E+03  0.26555889111E+03  0.25649447338E+02  0.34616956475E+03  0.46999998093E+01 0. -1.
       -5    1    3    3    0  502  0.22052632216E+03 -0.26555889111E+03 -0.89514347955E+02  0.35663467569E+03  0.46999998093E+01 0.  1.
</event>
<event>
 5   0  0.7572415E-04  0.7001309E+03  0.7818609E-02  0.9717008E-01
       -1   -1    0    0    0  501  0.00000000000E+00  0.00000000000E+00  0.25617279022E+03  0.25617279027E+03  0.50400001928E-02 0. -1.
        1   -1    0    0  501    0  0.00000000000E+00  0.00000000000E+00 -0.47837169369E+03  0.47837169371E+03  0.50400001928E-02 0.  1.
    10030    2    1    2    0    0  0.00000000000E+00  0.00000000000E+00 -0.22219890346E+03  0.73454448398E+03  0.70013087794E+03 0.  0.
        4    1    3    3  502    0 -0.21581088744E+03  0.27553466301E+03 -0.10364315343E+03  0.36501671991E+03  0.12699999809E+01 0. -1.
       -4    1    3    3    0  502  0.21581088744E+03 -0.27553466301E+03 -0.11855575003E+03  0.36952776408E+03  0.12699999809E+01 0.  1.
</event>
<event>
 5   0  0.7570633E-04  0.6993968E+03  0.7818609E-02  0.9718264E-01
        1   -1    0    0  501    0  0.00000000000E+00  0.00000000000E+00  0.16054724562E+04  0.16054724562E+04  0.50400001928E-02 0. -1.
       -1   -1    0    0    0  501  0.00000000000E+00  0.00000000000E+00 -0.76170088528E+02  0.76170088695E+02  0.50400001928E-02 0.  1.
    10030    2    1    2    0    0  0.00000000000E+00  0.00000000000E+00  0.15293023676E+04  0.16816425449E+04  0.69939682373E+03 0.  0.
        5    1    3    3  502    0  0.18423849212E+03 -0.29211649602E+03  0.89614934871E+03  0.96040700456E+03  0.46999998093E+01 0.  1.
       -5    1    3    3    0  502 -0.18423849212E+03  0.29211649602E+03  0.63315301893E+03  0.72123554031E+03  0.46999998093E+01 0. -1.
</event>
<event>
 5   0  0.1243087E-03  0.6999820E+03  0.7818609E-02  0.9717263E-01
        2   -1    0    0  501    0  0.00000000000E+00  0.00000000000E+00  0.82017114902E+03  0.82017114903E+03  0.25500000920E-02 0. -1.
       -2   -1    0    0    0  501  0.00000000000E+00  0.00000000000E+00 -0.14935136999E+03  0.14935137001E+03  0.25500000920E-02 0.  1.
    10030    2    1    2    0    0  0.00000000000E+00  0.00000000000E+00  0.67081977903E+03  0.96952251904E+03  0.69998195618E+03 0.  0.
        4    1    3    3  502    0  0.11812689279E+03  0.98341823659E+02  0.77091847639E+03  0.78609286170E+03  0.12699999809E+01 0. -1.
       -4    1    3    3    0  502 -0.11812689279E+03 -0.98341823659E+02 -0.10009869735E+03  0.18342965734E+03  0.12699999809E+01 0.  1.
</event>
<event>
 5   0  0.1222679E-03  0.6998198E+03  0.7818609E-02  0.9717540E-01
       -2   -1    0    0    0  501  0.00000000000E+00  0.00000000000E+00  0.27318566113E+03  0.27318566114E+03  0.25500000920E-02 0.  1.
        2   -1    0    0  501    0  0.00000000000E+00  0.00000000000E+00 -0.44818221278E+03  0.44818221279E+03  0.25500000920E-02 0. -1.
    10030    2    1    2    0    0  0.00000000000E+00  0.00000000000E+00 -0.17499655165E+03  0.72136787393E+03  0.69981984571E+03 0.  0.
        2    1    3    3  502    0  0.33375781027E+03  0.32168699493E+02 -0.19061782388E+03  0.38569969657E+03  0.25500000920E-02 0.  1.
       -2    1    3    3    0  502 -0.33375781027E+03 -0.32168699493E+02  0.15621272233E+02  0.33566817736E+03  0.25500000920E-02 0. -1.
</event>
<event>
 5   0  0.7570633E-04  0.7001145E+03  0.7818609E-02  0.9717036E-01
        1   -1    0    0  501    0  0.00000000000E+00  0.00000000000E+00  0.62779359474E+03  0.62779359476E+03  0.50400001928E-02 0.  1.
       -1   -1    0    0    0  501  0.00000000000E+00  0.00000000000E+00 -0.19519167642E+03  0.19519167648E+03  0.50400001928E-02 0. -1.
    10030    2    1    2    0    0  0.00000000000E+00  0.00000000000E+00  0.43260191832E+03  0.82298527124E+03  0.70011451702E+03 0.  0.
        5    1    3    3  502    0 -0.10491486521E+03  0.53073881886E+02  0.60384924670E+03  0.61520725663E+03  0.46999998093E+01 0.  1.
       -5    1    3    3    0  502  0.10491486521E+03 -0.53073881886E+02 -0.17124732837E+03  0.20777801461E+03  0.46999998093E+01 0. -1.
</event>
<event>
 5   0  0.7459843E-04  0.7022465E+03  0.7818609E-02  0.9713398E-01
        1   -1    0    0  501    0  0.00000000000E+00  0.00000000000E+00  0.95484550184E+03  0.95484550185E+03  0.50400001928E-02 0. -1.
       -1   -1    0    0    0  501  0.00000000000E+00  0.00000000000E+00 -0.12911779013E+03  0.12911779023E+03  0.50400001928E-02 0.  1.
    10030    2    1    2    0    0  0.00000000000E+00  0.00000000000E+00  0.82572771171E+03  0.10839632921E+04  0.70224651278E+03 0.  0.
        2    1    3    3  502    0 -0.26893669986E+03  0.38502328728E+02  0.69518032378E+02  0.28043205003E+03  0.25500000920E-02 0.  1.
       -2    1    3    3    0  502  0.26893669986E+03 -0.38502328728E+02  0.75620967933E+03  0.80353124206E+03  0.25500000920E-02 0. -1.
</event>
<event>
 5   0  0.1282546E-03  0.7004957E+03  0.7818609E-02  0.9716385E-01
        2   -1    0    0  501    0  0.00000000000E+00  0.00000000000E+00  0.12340205633E+04  0.12340205633E+04  0.25500000920E-02 0. -1.
       -2   -1    0    0    0  501  0.00000000000E+00  0.00000000000E+00 -0.99409652271E+02  0.99409652304E+02  0.25500000920E-02 0.  1.
    10030    2    1    2    0    0  0.00000000000E+00  0.00000000000E+00  0.11346109110E+04  0.13334302156E+04  0.70049569624E+03 0.  0.
        5    1    3    3  502    0 -0.11965995725E+03 -0.24896130109E+03  0.97712763038E+03  0.10154313029E+04  0.46999998093E+01 0. -1.
       -5    1    3    3    0  502  0.11965995725E+03  0.24896130109E+03  0.15748328062E+03  0.31799891270E+03  0.46999998093E+01 0.  1.
</event>
<event>
 5   0  0.7459843E-04  0.7007465E+03  0.7818609E-02  0.9715956E-01
        1   -1    0    0  501    0  0.00000000000E+00  0.00000000000E+00  0.69976472424E+03  0.69976472426E+03  0.50400001928E-02 0.  1.
       -1   -1    0    0    0  501  0.00000000000E+00  0.00000000000E+00 -0.17543242107E+03  0.17543242114E+03  0.50400001928E-02 0. -1.
    10030    2    1    2    0    0  0.00000000000E+00  0.00000000000E+00  0.52433230318E+03  0.87519714540E+03  0.70074651563E+03 0.  0.
        2    1    3    3  502    0 -0.25247377374E+03 -0.35754537506E+02 -0.37945899215E+02  0.25780086239E+03  0.25500000920E-02 0. -1.
       -2    1    3    3    0  502  0.25247377374E+03  0.35754537506E+02  0.56227820239E+03  0.61739628301E+03  0.25500000920E-02 0.  1.
</event>
<event>
 5   0  0.7574241E-04  0.6998119E+03  0.7818609E-02  0.9717554E-01
        1   -1    0    0  501    0  0.00000000000E+00  0.00000000000E+00  0.10791280320E+04  0.10791280320E+04  0.50400001928E-02 0.  1.
       -1   -1    0    0    0  501  0.00000000000E+00  0.00000000000E+00 -0.11345657899E+03  0.11345657910E+03  0.50400001928E-02 0. -1.
    10030    2    1    2    0    0  0.00000000000E+00  0.00000000000E+00  0.96567145301E+03  0.11925846111E+04  0.69981190294E+03 0.  0.
        3    1    3    3  502    0  0.21065665870E+02 -0.34880060646E+03  0.45194688938E+03  0.57128068965E+03  0.10100000352E+00 0.  1.
       -3    1    3    3    0  502 -0.21065665870E+02  0.34880060646E+03  0.51372456363E+03  0.62130392146E+03  0.10100000352E+00 0. -1.
</event>
<event>
 5   0  0.7013526E-04  0.6998680E+03  0.7818609E-02  0.9717458E-01
        1   -1    0    0  501    0  0.00000000000E+00  0.00000000000E+00  0.82210665194E+02  0.82210665349E+02  0.50400001928E-02 0.  1.
       -1   -1    0    0    0  501  0.00000000000E+00  0.00000000000E+00 -0.14895125920E+04  0.14895125920E+04  0.50400001928E-02 0. -1.
    10030    2    1    2    0    0  0.00000000000E+00  0.00000000000E+00 -0.14073019268E+04  0.15717232574E+04  0.69986804795E+03 0.  0.
        1    1    3    3  502    0  0.32602494400E+00 -0.28927644351E+03 -0.11458561156E+04  0.11818067544E+04  0.50400001928E-02 0. -1.
       -1    1    3    3    0  502 -0.32602494400E+00  0.28927644351E+03 -0.26144581122E+03  0.38991650298E+03  0.50400001928E-02 0.  1.
</event>
<event>
 5   0  0.1265562E-03  0.7000766E+03  0.7818609E-02  0.9717101E-01
       -2   -1    0    0    0  501  0.00000000000E+00  0.00000000000E+00  0.81921885205E+02  0.81921885244E+02  0.25500000920E-02 0. -1.
        2   -1    0    0  501    0  0.00000000000E+00  0.00000000000E+00 -0.14956541024E+04  0.14956541024E+04  0.25500000920E-02 0.  1.
    10030    2    1    2    0    0  0.00000000000E+00  0.00000000000E+00 -0.14137322172E+04  0.15775759876E+04  0.70007657785E+03 0.  0.
        1    1    3    3  502    0  0.12686481957E+03  0.26270402370E+02  0.25905228509E+02  0.13212076814E+03  0.50400001928E-02 0. -1.
       -1    1    3    3    0  502 -0.12686481957E+03 -0.26270402370E+02 -0.14396374457E+04  0.14454552195E+04  0.50400001928E-02 0.  1.
</event>
<event>
 5   0  0.4936000E-04  0.6999244E+03  0.7818609E-02  0.9717361E-01
        3   -1    0    0  501    0  0.00000000000E+00  0.00000000000E+00  0.40337152422E+03  0.40337153686E+03  0.10100000352E+00 0.  1.
       -3   -1    0    0    0  501  0.00000000000E+00  0.00000000000E+00 -0.30362462874E+03  0.30362464553E+03  0.10100000352E+00 0. -1.
    10030    2    1    2    0    0  0.00000000000E+00  0.00000000000E+00  0.99746895481E+02  0.70699618239E+03  0.69992439503E+03 0.  0.
        2    1    3    3  502    0 -0.10535791937E+02 -0.31831600736E+03 -0.96634960816E+02  0.33282788211E+03  0.25500000920E-02 0. -1.
       -2    1    3    3    0  502  0.10535791937E+02  0.31831600736E+03  0.19638185630E+03  0.37416830029E+03  0.25500000920E-02 0.  1.
</event>
<event>
 5   0  0.1224048E-03  0.6999775E+03  0.7818609E-02  0.9717271E-01
        2   -1    0    0  501    0  0.00000000000E+00  0.00000000000E+00  0.17515989642E+04  0.17515989642E+04  0.25500000920E-02 0.  1.
       -2   -1    0    0    0  501  0.00000000000E+00  0.00000000000E+00 -0.69931597969E+02  0.69931598015E+02  0.25500000920E-02 0. -1.
    10030    2    1    2    0    0  0.00000000000E+00  0.00000000000E+00  0.16816673662E+04  0.18215305622E+04  0.69997746995E+03 0.  0.
        3    1    3    3  502    0 -0.21161997030E+03  0.25659481598E+03  0.11243282241E+04  0.11724921651E+04  0.10100000352E+00 0.  1.
       -3    1    3    3    0  502  0.21161997030E+03 -0.25659481598E+03  0.55733914206E+03  0.64903839708E+03  0.10100000352E+00 0. -1.
</event>
<event>
 5   0  0.1282546E-03  0.7001592E+03  0.7818609E-02  0.9716960E-01
       -2   -1    0    0    0  501  0.00000000000E+00  0.00000000000E+00  0.11446715152E+03  0.11446715155E+03  0.25500000920E-02 0. -1.
        2   -1    0    0  501    0  0.00000000000E+00  0.00000000000E+00 -0.10706628305E+04  0.10706628305E+04  0.25500000920E-02 0.  1.
    10030    2    1    2    0    0  0.00000000000E+00  0.00000000000E+00 -0.95619567896E+03  0.11851299820E+04  0.70015919466E+03 0.  0.
        5    1    3    3  502    0  0.28771331304E+02  0.65422000549E+02  0.10193283998E+03  0.12458018111E+03  0.46999998093E+01 0. -1.
       -5    1    3    3    0  502 -0.28771331304E+02 -0.65422000549E+02 -0.10581285189E+04  0.10605498009E+04  0.46999998093E+01 0.  1.
</event>
<event>
 5   0  0.1243087E-03  0.6999982E+03  0.7818609E-02  0.9717235E-01
       -2   -1    0    0    0  501  0.00000000000E+00  0.00000000000E+00  0.96060419664E+03  0.96060419664E+03  0.25500000920E-02 0.  1.
        2   -1    0    0  501    0  0.00000000000E+00  0.00000000000E+00 -0.12752326215E+03  0.12752326218E+03  0.25500000920E-02 0. -1.
    10030    2    1    2    0    0  0.00000000000E+00  0.00000000000E+00  0.83308093448E+03  0.10881274588E+04  0.69999823088E+03 0.  0.
        4    1    3    3  502    0  0.11278980055E+03  0.18516798624E+03  0.84363576993E+03  0.87105203486E+03  0.12699999809E+01 0.  1.
       -4    1    3    3    0  502 -0.11278980055E+03 -0.18516798624E+03 -0.10554835443E+02  0.21707542396E+03  0.12699999809E+01 0. -1.
</event>
<event>
 5   0  0.1265562E-03  0.7005961E+03  0.7818609E-02  0.9716213E-01
       -2   -1    0    0    0  501  0.00000000000E+00  0.00000000000E+00  0.81689310398E+02  0.81689310438E+02  0.25500000920E-02 0.  1.
        2   -1    0    0  501    0  0.00000000000E+00  0.00000000000E+00 -0.15021393431E+04  0.15021393431E+04  0.25500000920E-02 0. -1.
    10030    2    1    2    0    0  0.00000000000E+00  0.00000000000E+00 -0.14204500327E+04  0.15838286535E+04  0.70059610930E+03 0.  0.
        1    1    3    3  502    0 -0.15093163367E+03 -0.17398834861E+03 -0.13068769613E+04  0.13270191014E+04  0.50400001928E-02 0. -1.
       -1    1    3    3    0  502  0.15093163367E+03  0.17398834861E+03 -0.11357307139E+03  0.25680955213E+03  0.50400001928E-02 0.  1.
</event>
<event>
 5   0  0.7459843E-04  0.7001613E+03  0.7818609E-02  0.9716956E-01
       -1   -1    0    0    0  501  0.00000000000E+00  0.00000000000E+00  0.85240844292E+03  0.85240844293E+03  0.50400001928E-02 0. -1.
        1   -1    0    0  501    0  0.00000000000E+00  0.00000000000E+00 -0.14377668690E+03  0.14377668699E+03  0.50400001928E-02 0.  1.
    10030    2    1    2    0    0  0.00000000000E+00  0.00000000000E+00  0.70863175601E+03  0.99618512992E+03  0.70016130102E+03 0.  0.
        2    1    3    3  502    0 -0.24211378160E+03 -0.22183436424E+03  0.18165357704E+03  0.37527002339E+03  0.25500000920E-02 0.  1.
       -2    1    3    3    0  502  0.24211378160E+03  0.22183436424E+03  0.52697817897E+03  0.62091510653E+03  0.25500000920E-02 0. -1.
</event>
<event>
 5   0  0.7574241E-04  0.6992932E+03  0.7818609E-02  0.9718442E-01
       -1   -1    0    0    0  501  0.00000000000E+00  0.00000000000E+00  0.53814376886E+03  0.53814376888E+03  0.50400001928E-02 0.  1.
        1   -1    0    0  501    0  0.00000000000E+00  0.00000000000E+00 -0.22717486336E+03  0.22717486342E+03  0.50400001928E-02 0. -1.
    10030    2    1    2    0    0  0.00000000000E+00  0.00000000000E+00  0.31096890550E+03  0.76531863230E+03  0.69929317797E+03 0.  0.
        3    1    3    3  502    0 -0.25907338842E+03  0.23014304168E+03  0.10452775299E+03  0.36195428104E+03  0.10100000352E+00 0. -1.
       -3    1    3    3    0  502  0.25907338842E+03 -0.23014304168E+03  0.20644115250E+03  0.40336435126E+03  0.10100000352E+00 0.  1.
</event>
<event>
 5   0  0.4936000E-04  0.7006338E+03  0.7818609E-02  0.9716149E-01
        3   -1    0    0  501    0  0.00000000000E+00  0.00000000000E+00  0.32571393392E+03  0.32571394958E+03  0.10100000352E+00 0.  1.
       -3   -1    0    0    0  501  0.00000000000E+00  0.00000000000E+00 -0.37677822338E+03  0.37677823692E+03  0.10100000352E+00 0. -1.
    10030    2    1    2    0    0  0.00000000000E+00  0.00000000000E+00 -0.51064289463E+02  0.70249218650E+03  0.70063379196E+03 0.  0.
        1    1    3    3  502    0 -0.32298219578E+03  0.13306401649E+03  0.96514078703E+00  0.34932000057E+03  0.50400001928E-02 0.  1.
       -1    1    3    3    0  502  0.32298219578E+03 -0.13306401649E+03 -0.52029430250E+02  0.35317218593E+03  0.50400001928E-02 0. -1.
</event>
<event>
 5   0  0.1224048E-03  0.7004934E+03  0.7818609E-02  0.9716389E-01
        2   -1    0    0  501    0  0.00000000000E+00  0.00000000000E+00  0.94701830301E+03  0.94701830302E+03  0.25500000920E-02 0.  1.
       -2   -1    0    0    0  501  0.00000000000E+00  0.00000000000E+00 -0.12953577895E+03  0.12953577898E+03  0.25500000920E-02 0. -1.
    10030    2    1    2    0    0  0.00000000000E+00  0.00000000000E+00  0.81748252406E+03  0.10765540820E+04  0.70049340776E+03 0.  0.
        3    1    3    3  502    0 -0.75006764111E+02  0.34065660353E+03  0.36014644782E+03  0.50137651548E+03  0.10100000352E+00 0.  1.
       -3    1    3    3    0  502  0.75006764111E+02 -0.34065660353E+03  0.45733607624E+03  0.57517756652E+03  0.10100000352E+00 0. -1.
</event>
<event>
 5   0  0.1224048E-03  0.6994515E+03  0.7818609E-02  0.9718171E-01
       -2   -1    0    0    0  501  0.00000000000E+00  0.00000000000E+00  0.29089833281E+03  0.29089833282E+03  0.25500000920E-02 0. -1.
        2   -1    0    0  501    0  0.00000000000E+00  0.00000000000E+00 -0.42044962112E+03  0.42044962113E+03  0.25500000920E-02 0.  1.
    10030    2    1    2    0    0  0.00000000000E+00  0.00000000000E+00 -0.12955128831E+03  0.71134795395E+03  0.69945148173E+03 0.  0.
        3    1    3    3  502    0  0.47239540837E+02 -0.31482081826E+03  0.82477750391E+02  0.32885606478E+03  0.10100000352E+00 0. -1.
       -3    1    3    3    0  502 -0.47239540837E+02  0.31482081826E+03 -0.21202903870E+03  0.38249188917E+03  0.10100000352E+00 0.  1.
</event>
<event>
 5   0  0.7459843E-04  0.6999876E+03  0.7818609E-02  0.9717253E-01
        1   -1    0    0  501    0  0.00000000000E+00  0.00000000000E+00  0.24636938486E+03  0.24636938491E+03  0.50400001928E-02 0.  1.
       -1   -1    0    0    0  501  0.00000000000E+00  0.00000000000E+00 -0.49720322899E+03  0.49720322901E+03  0.50400001928E-02 0. -1.
    10030    2    1    2    0    0  0.00000000000E+00  0.00000000000E+00 -0.25083384413E+03  0.74357261393E+03  0.69998758191E+03 0.  0.
        2    1    3    3  502    0 -0.11078239528E+03 -0.15837642020E+03  0.18453863354E+03  0.26722712597E+03  0.25500000920E-02 0.  1.
       -2    1    3    3    0  502  0.11078239528E+03  0.15837642020E+03 -0.43537247766E+03  0.47634548795E+03  0.25500000920E-02 0. -1.
</event>
<event>
 5   0  0.7013526E-04  0.7001736E+03  0.7818609E-02  0.9716935E-01
        1   -1    0    0  501    0  0.00000000000E+00  0.00000000000E+00  0.23387988556E+03  0.23387988561E+03  0.50400001928E-02 0. -1.
       -1   -1    0    0    0  501  0.00000000000E+00  0.00000000000E+00 -0.52403288862E+03  0.52403288865E+03  0.50400001928E-02 0.  1.
    10030    2    1    2    0    0  0.00000000000E+00  0.00000000000E+00 -0.29015300306E+03  0.75791277426E+03  0.70017355577E+03 0.  0.
        1    1    3    3  502    0  0.32996424344E+03 -0.78513866578E+02 -0.23894507427E+03  0.41489224835E+03  0.50400001928E-02 0.  1.
       -1    1    3    3    0  502 -0.32996424344E+03  0.78513866578E+02 -0.51207928792E+02  0.34302052591E+03  0.50400001928E-02 0. -1.
</event>
<event>
 5   0  0.1282546E-03  0.7000684E+03  0.7818609E-02  0.9717115E-01
       -2   -1    0    0    0  501  0.00000000000E+00  0.00000000000E+00  0.70670850510E+02  0.70670850556E+02  0.25500000920E-02 0. -1.
        2   -1    0    0  501    0  0.00000000000E+00  0.00000000000E+00 -0.17337265582E+04  0.17337265582E+04  0.25500000920E-02 0.  1.
    10030    2    1    2    0    0  0.00000000000E+00  0.00000000000E+00 -0.16630557077E+04  0.18043974088E+04  0.70006836942E+03 0.  0.
        5    1    3    3  502    0 -0.27801481205E+03  0.72282665081E+02 -0.13469218054E+04  0.13772209188E+04  0.46999998093E+01 0.  1.
       -5    1    3    3    0  502  0.27801481205E+03 -0.72282665081E+02 -0.31613390237E+03  0.42717649001E+03  0.46999998093E+01 0. -1.
</event>
<event>
 5   0  0.7572415E-04  0.6998165E+03  0.7818609E-02  0.9717546E-01
       -1   -1    0    0    0  501  0.00000000000E+00  0.00000000000E+00  0.30903070482E+03  0.30903070486E+03  0.50400001928E-02 0.  1.
        1   -1    0    0  501    0  0.00000000000E+00  0.00000000000E+00 -0.39619291118E+03  0.39619291121E+03  0.50400001928E-02 0. -1.
    10030    2    1    2    0    0  0.00000000000E+00  0.00000000000E+00 -0.87162206355E+02  0.70522361607E+03  0.69981647483E+03 0.  0.
        4    1    3    3  502    0 -0.16907133113E+03 -0.24334597842E+03 -0.23111513957E+03  0.37579010213E+03  0.12699999809E+01 0. -1.
       -4    1    3    3    0  502  0.16907133113E+03  0.24334597842E+03  0.14395293322E+03  0.32943351394E+03  0.12699999809E+01 0.  1.
</event>
<event>
 5   0  0.7013526E-04  0.7006716E+03  0.7818609E-02  0.9716084E-01
       -1   -1    0    0    0  501  0.00000000000E+00  0.00000000000E+00  0.31527871164E+03  0.31527871168E+03  0.50400001928E-02 0.  1.
        1   -1    0    0  501    0  0.00000000000E+00  0.00000000000E+00 -0.38929107689E+03  0.38929107693E+03  0.50400001928E-02 0. -1.
    10030    2    1    2    0    0  0.00000000000E+00  0.00000000000E+00 -0.74012365251E+02  0.70456978861E+03  0.70067164693E+03 0.  0.
        1    1    3    3  502    0  0.17208505315E+03  0.30473703753E+03 -0.53134793736E+02  0.35397914330E+03  0.50400001928E-02 0. -1.
       -1    1    3    3    0  502 -0.17208505315E+03 -0.30473703753E+03 -0.20877571515E+02  0.35059064531E+03  0.50400001928E-02 0.  1.
</event>
<event>
 5   0  0.1243087E-03  0.6999917E+03  0.7818609E-02  0.9717246E-01
        2   -1    0    0  501    0  0.00000000000E+00  0.00000000000E+00  0.40524229897E+03  0.40524229898E+03  0.25500000920E-02 0.  1.
       -2   -1    0    0    0  501  0.00000000000E+00  0.00000000000E+00 -0.30228114191E+03  0.30228114192E+03  0.25500000920E-02 0. -1.
    10030    2    1    2    0    0  0.00000000000E+00  0.00000000000E+00  0.10296115707E+03  0.70752344090E+03  0.69999172821E+03 0.  0.
        4    1    3    3  502    0  0.17957155441E+03 -0.30007189639E+03  0.36959164556E+02  0.35164851614E+03  0.12699999809E+01 0.  1.
       -4    1    3    3    0  502 -0.17957155441E+03  0.30007189639E+03  0.66001992512E+02  0.35587492476E+03  0.12699999809E+01 0. -1.
</event>
<event>
 5   0  0.7013526E-04  0.6992325E+03  0.7818609E-02  0.9718546E-01
        1   -1    0    0  501    0  0.00000000000E+00  0.00000000000E+00  0.58010951880E+03  0.58010951882E+03  0.50400001928E-02 0. -1.
       -1   -1    0    0    0  501  0.00000000000E+00  0.00000000000E+00 -0.21070422626E+03  0.21070422632E+03  0.50400001928E-02 0.  1.
    10030    2    1    2    0    0  0.00000000000E+00  0.00000000000E+00  0.36940529254E+03  0.79081374514E+03  0.69923251451E+03 0.  0.
        1    1    3    3  502    0  0.90741754893E+02 -0.32163499534E+03  0.30085973109E+03  0.44966622525E+03  0.50400001928E-02 0. -1.
       -1    1    3    3    0  502 -0.90741754893E+02  0.32163499534E+03  0.68545561448E+02  0.34114751990E+03  0.50400001928E-02 0.  1.
</event>
<event>
 5   0  0.7013526E-04  0.6998642E+03  0.7818609E-02  0.9717464E-01
       -1   -1    0    0    0  501  0.00000000000E+00  0.00000000000E+00  0.82558210653E+02  0.82558210807E+02  0.50400001928E-02 0. -1.
        1   -1    0    0  501    0  0.00000000000E+00  0.00000000000E+00 -0.14832260710E+04  0.14832260710E+04  0.50400001928E-02 0.  1.
    10030    2    1    2    0    0  0.00000000000E+00  0.00000000000E+00 -0.14006678604E+04  0.15657842819E+04  0.69986424554E+03 0.  0.
        1    1    3    3  502    0 -0.11441568903E+03  0.54802220312E+02  0.29297827058E+02  0.13020213494E+03  0.50400001928E-02 0. -1.
       -1    1    3    3    0  502  0.11441568903E+03 -0.54802220312E+02 -0.14299656874E+04  0.14355821469E+04  0.50400001928E-02 0.  1.
</event>
<event>
 5   0  0.7013526E-04  0.7001746E+03  0.7818609E-02  0.9716934E-01
        1   -1    0    0  501    0  0.00000000000E+00  0.00000000000E+00  0.61026546385E+03  0.61026546387E+03  0.50400001928E-02 0. -1.
       -1   -1    0    0    0  501  0.00000000000E+00  0.00000000000E+00 -0.20083245794E+03  0.20083245800E+03  0.50400001928E-02 0.  1.
    10030    2    1    2    0    0  0.00000000000E+00  0.00000000000E+00  0.40943300591E+03  0.81109792188E+03  0.70017458719E+03 0.  0.
        1    1    3    3  502    0 -0.22955146517E+03 -0.19970739627E+03  0.41247226017E+01  0.30429251165E+03  0.50400001928E-02 0. -1.
       -1    1    3    3    0  502  0.22955146517E+03  0.19970739627E+03  0.40530828331E+03  0.50680541022E+03  0.50400001928E-02 0.  1.
</event>
<event>
 5   0  0.7570633E-04  0.7000356E+03  0.7818609E-02  0.9717171E-01
        1   -1    0    0  501    0  0.00000000000E+00  0.00000000000E+00  0.74452930474E+03  0.74452930476E+03  0.50400001928E-02 0. -1.
       -1   -1    0    0    0  501  0.00000000000E+00  0.00000000000E+00 -0.16455022640E+03  0.16455022647E+03  0.50400001928E-02 0.  1.
    10030    2    1    2    0    0  0.00000000000E+00  0.00000000000E+00  0.57997907835E+03  0.90907953123E+03  0.70003561537E+03 0.  0.
        5    1    3    3  502    0 -0.28379050396E+02  0.24651911977E+02 -0.16188002106E+03  0.16625377735E+03  0.46999998093E+01 0.  1.
       -5    1    3    3    0  502  0.28379050396E+02 -0.24651911977E+02  0.74185909941E+03  0.74282575389E+03  0.46999998093E+01 0. -1.
</event>
<event>
 5   0  0.7574241E-04  0.7000774E+03  0.7818609E-02  0.9717100E-01
       -1   -1    0    0    0  501  0.00000000000E+00  0.00000000000E+00  0.14240334479E+03  0.14240334488E+03  0.50400001928E-02 0.  1.
        1   -1    0    0  501    0  0.00000000000E+00  0.00000000000E+00 -0.86042289190E+03  0.86042289191E+03  0.50400001928E-02 0. -1.
    10030    2    1    2    0    0  0.00000000000E+00  0.00000000000E+00 -0.71801954711E+03  0.10028262368E+04  0.70007741797E+03 0.  0.
        3    1    3    3  502    0  0.14752863323E+03  0.30194138722E+03 -0.49931527239E+03  0.60187129054E+03  0.10100000352E+00 0. -1.
       -3    1    3    3    0  502 -0.14752863323E+03 -0.30194138722E+03 -0.21870427472E+03  0.40095494625E+03  0.10100000352E+00 0.  1.
</event>
<event>
 5   0  0.7459843E-04  0.6990352E+03  0.7818609E-02  0.9718884E-01
       -1   -1    0    0    0  501  0.00000000000E+00  0.00000000000E+00  0.21356026221E+03  0.21356026227E+03  0.50400001928E-02 0. -1.
        1   -1    0    0  501    0  0.00000000000E+00  0.00000000000E+00 -0.57202849416E+03  0.57202849419E+03  0.50400001928E-02 0.  1.
    10030    2    1    2    0    0  0.00000000000E+00  0.00000000000E+00 -0.35846823195E+03  0.78558875645E+03  0.69903520723E+03 0.  0.
        2    1    3    3  502    0  0.27607905402E+02 -0.44502081210E+02  0.20912598361E+03  0.21558364664E+03  0.25500000920E-02 0. -1.
       -2    1    3    3    0  502 -0.27607905402E+02  0.44502081210E+02 -0.56759421556E+03  0.57000510981E+03  0.25500000920E-02 0.  1.
</event>
<event>
 5   0  0.7459843E-04  0.6998416E+03  0.7818609E-02  0.9717503E-01
        1   -1    0    0  501    0  0.00000000000E+00  0.00000000000E+00  0.16827689623E+03  0.16827689630E+03  0.50400001928E-02 0.  1.
       -1   -1    0    0    0  501  0.00000000000E+00  0.00000000000E+00 -0.72763731509E+03  0.72763731511E+03  0.50400001928E-02 0. -1.
    10030    2    1    2    0    0  0.00000000000E+00  0.00000000000E+00 -0.55936041886E+03  0.89591421141E+03  0.69984155065E+03 0.  0.
        2    1    3    3  502    0 -0.13174829130E+03 -0.18731694041E+03  0.59018508164E+02  0.23649192954E+03  0.25500000920E-02 0.  1.
       -2    1    3    3    0  502  0.13174829130E+03  0.18731694041E+03 -0.61837892703E+03  0.65942228187E+03  0.25500000920E-02 0. -1.
</event>
<event>
 5   0  0.7459843E-04  0.7002781E+03  0.7818609E-02  0.9716757E-01
       -1   -1    0    0    0  501  0.00000000000E+00  0.00000000000E+00  0.14446572054E+03  0.14446572063E+03  0.50400001928E-02 0.  1.
        1   -1    0    0  501    0  0.00000000000E+00  0.00000000000E+00 -0.84862598202E+03  0.84862598204E+03  0.50400001928E-02 0. -1.
    10030    2    1    2    0    0  0.00000000000E+00  0.00000000000E+00 -0.70416026148E+03  0.99309170267E+03  0.70027812765E+03 0.  0.
        2    1    3    3  502    0  0.93843022617E+02  0.26960617392E+02  0.12476891600E+03  0.15843191026E+03  0.25500000920E-02 0.  1.
       -2    1    3    3    0  502 -0.93843022617E+02 -0.26960617392E+02 -0.82892917748E+03  0.83465979241E+03  0.25500000920E-02 0. -1.
</event>
<event>
 5   0  0.1282546E-03  0.7000956E+03  0.7818609E-02  0.9717069E-01
       -2   -1    0    0    0  501  0.00000000000E+00  0.00000000000E+00  0.26876120425E+03  0.26876120426E+03  0.25500000920E-02 0.  1.
        2   -1    0    0  501    0  0.00000000000E+00  0.00000000000E+00 -0.45591947842E+03  0.45591947843E+03  0.25500000920E-02 0. -1.
    10030    2    1    2    0    0  0.00000000000E+00  0.00000000000E+00 -0.18715827418E+03  0.72468068269E+03  0.70009561652E+03 0.  0.
        5    1    3    3  502    0 -0.26292451936E+02 -0.32633222926E+03 -0.22173043887E+03  0.39543709285E+03  0.46999998093E+01 0. -1.
       -5    1    3    3    0  502  0.26292451936E+02  0.32633222926E+03  0.34572164697E+02  0.32924358984E+03  0.46999998093E+01 0.  1.
</event>
<event>
 5   0  0.7013526E-04  0.7003547E+03  0.7818609E-02  0.9716626E-01
        1   -1    0    0  501    0  0.00000000000E+00  0.00000000000E+00  0.14773702291E+04  0.14773702291E+04  0.50400001928E-02 0. -1.
       -1   -1    0    0    0  501  0.00000000000E+00  0.00000000000E+00 -0.83001668291E+02  0.83001668444E+02  0.50400001928E-02 0.  1.
    10030    2    1    2    0    0  0.00000000000E+00  0.00000000000E+00  0.13943685608E+04  0.15603718976E+04  0.70035474961E+03 0.  0.
        1    1    3    3  502    0 -0.14105795991E+03 -0.26312239826E+03  0.28943802690E+03  0.41581860944E+03  0.50400001928E-02 0.  1.
       -1    1    3    3    0  502  0.14105795991E+03  0.26312239826E+03  0.11049305339E+04  0.11445532881E+04  0.50400001928E-02 0. -1.
</event>
<event>
 5   0  0.7570633E-04  0.7005240E+03  0.7818609E-02  0.9716337E-01
       -1   -1    0    0    0  501  0.00000000000E+00  0.00000000000E+00  0.58706547952E+02  0.58706548168E+02  0.50400001928E-02 0. -1.
        1   -1    0    0  501    0  0.00000000000E+00  0.00000000000E+00 -0.20897748404E+04  0.20897748404E+04  0.50400001928E-02 0.  1.
    10030    2    1    2    0    0  0.00000000000E+00  0.00000000000E+00 -0.20310682925E+04  0.21484813886E+04  0.70052399564E+03 0.  0.
        5    1    3    3  502    0  0.19428764217E+03  0.44682244641E+02 -0.18986767941E+04  0.19091201768E+04  0.46999998093E+01 0.  1.
       -5    1    3    3    0  502 -0.19428764217E+03 -0.44682244641E+02 -0.13239149835E+03  0.23936121181E+03  0.46999998093E+01 0. -1.
</event>
<event>
 5   0  0.1224048E-03  0.6999737E+03  0.7818609E-02  0.9717277E-01
       -2   -1    0    0    0  501  0.00000000000E+00  0.00000000000E+00  0.14961033592E+04  0.14961033592E+04  0.25500000920E-02 0. -1.
        2   -1    0    0  501    0  0.00000000000E+00  0.00000000000E+00 -0.81873211360E+02  0.81873211400E+02  0.25500000920E-02 0.  1.
    10030    2    1    2    0    0  0.00000000000E+00  0.00000000000E+00  0.14142301478E+04  0.15779765706E+04  0.69997367544E+03 0.  0.
        3    1    3    3  502    0 -0.17144326041E+03  0.21580711651E+03  0.22086093646E+03  0.35319267621E+03  0.10100000352E+00 0.  1.
       -3    1    3    3    0  502  0.17144326041E+03 -0.21580711651E+03  0.11933692114E+04  0.12247838944E+04  0.10100000352E+00 0. -1.
</event>
<event>
 5   0  0.7572415E-04  0.7000213E+03  0.7818609E-02  0.9717196E-01
        1   -1    0    0  501    0  0.00000000000E+00  0.00000000000E+00  0.17653167478E+03  0.17653167485E+03  0.50400001928E-02 0. -1.
       -1   -1    0    0    0  501  0.00000000000E+00  0.00000000000E+00 -0.69396863798E+03  0.69396863800E+03  0.50400001928E-02 0.  1.
    10030    2    1    2    0    0  0.00000000000E+00  0.00000000000E+00 -0.51743696320E+03  0.87050031285E+03  0.70002127381E+03 0.  0.
        4    1    3    3  502    0  0.81686089059E+02  0.15390644212E+03  0.11876329547E+03  0.21086996781E+03  0.12699999809E+01 0. -1.
       -4    1    3    3    0  502 -0.81686089059E+02 -0.15390644212E+03 -0.63620025867E+03  0.65963034504E+03  0.12699999809E+01 0.  1.
</event>
<event>
 5   0  0.1243087E-03  0.7003334E+03  0.7818609E-02  0.9716662E-01
       -2   -1    0    0    0  501  0.00000000000E+00  0.00000000000E+00  0.56786141075E+03  0.56786141076E+03  0.25500000920E-02 0.  1.
        2   -1    0    0  501    0  0.00000000000E+00  0.00000000000E+00 -0.21592720859E+03  0.21592720861E+03  0.25500000920E-02 0. -1.
    10030    2    1    2    0    0  0.00000000000E+00  0.00000000000E+00  0.35193420216E+03  0.78378861937E+03  0.70033343287E+03 0.  0.
        4    1    3    3  502    0 -0.39565493217E+02 -0.30466090443E+03  0.36401152793E+03  0.47632940315E+03  0.12699999809E+01 0.  1.
       -4    1    3    3    0  502  0.39565493217E+02  0.30466090443E+03 -0.12077325769E+02  0.30745921622E+03  0.12699999809E+01 0. -1.
</event>
<event>
 5   0  0.1265562E-03  0.7006836E+03  0.7818609E-02  0.9716064E-01
        2   -1    0    0  501    0  0.00000000000E+00  0.00000000000E+00  0.72667954135E+03  0.72667954135E+03  0.25500000920E-02 0.  1.
       -2   -1    0    0    0  501  0.00000000000E+00  0.00000000000E+00 -0.16890438728E+03  0.16890438730E+03  0.25500000920E-02 0. -1.
    10030    2    1    2    0    0  0.00000000000E+00  0.00000000000E+00  0.55777515407E+03  0.89558392865E+03  0.70068355964E+03 0.  0.
        1    1    3    3  502    0 -0.11893166694E+03  0.12538520172E+03  0.66840734633E+03  0.69038726152E+03  0.50400001928E-02 0.  1.
       -1    1    3    3    0  502  0.11893166694E+03 -0.12538520172E+03 -0.11063219226E+03  0.20519666713E+03  0.50400001928E-02 0. -1.
</event>
<event>
 5   0  0.7574241E-04  0.7002485E+03  0.7818609E-02  0.9716807E-01
       -1   -1    0    0    0  501  0.00000000000E+00  0.00000000000E+00  0.16761288867E+03  0.16761288874E+03  0.50400001928E-02 0.  1.
        1   -1    0    0  501    0  0.00000000000E+00  0.00000000000E+00 -0.73136972831E+03  0.73136972833E+03  0.50400001928E-02 0. -1.
    10030    2    1    2    0    0  0.00000000000E+00  0.00000000000E+00 -0.56375683965E+03  0.89898261707E+03  0.70024850700E+03 0.  0.
        3    1    3    3  502    0 -0.22934780256E+03  0.26361679094E+03 -0.31037645531E+03  0.46736258003E+03  0.10100000352E+00 0.  1.
       -3    1    3    3    0  502  0.22934780256E+03 -0.26361679094E+03 -0.25338038434E+03  0.43162003704E+03  0.10100000352E+00 0. -1.
</event>
<event>
 5   0  0.1224048E-03  0.7001319E+03  0.7818609E-02  0.9717007E-01
        2   -1    0    0  501    0  0.00000000000E+00  0.00000000000E+00  0.57550924530E+03  0.57550924530E+03  0.25500000920E-02 0.  1.
       -2   -1    0    0    0  501  0.00000000000E+00  0.00000000000E+00 -0.21293517276E+03  0.21293517278E+03  0.25500000920E-02 0. -1.
    10030    2    1    2    0    0  0.00000000000E+00  0.00000000000E+00  0.36257407254E+03  0.78844441808E+03  0.70013187495E+03 0.  0.
        3    1    3    3  502    0  0.33282939097E+03  0.10694994666E+03  0.16075376295E+03  0.38477977739E+03  0.10100000352E+00 0.  1.
       -3    1    3    3    0  502 -0.33282939097E+03 -0.10694994666E+03  0.20182030959E+03  0.40366464069E+03  0.10100000352E+00 0. -1.
</event>
<event>
 5   0  0.7572415E-04  0.6999533E+03  0.7818609E-02  0.9717312E-01
       -1   -1    0    0    0  501  0.00000000000E+00  0.00000000000E+00  0.52089928320E+03  0.52089928322E+03  0.50400001928E-02 0.  1.
        1   -1    0    0  501    0  0.00000000000E+00  0.00000000000E+00 -0.23513885659E+03  0.23513885665E+03  0.50400001928E-02 0. -1.
    10030    2    1    2    0    0  0.00000000000E+00  0.00000000000E+00  0.28576042661E+03  0.75603813987E+03  0.69995331810E+03 0.  0.
        4    1    3    3  502    0 -0.34305047329E+02  0.12991205658E+03  0.49192668685E+03  0.50994848450E+03  0.12699999809E+01 0.  1.
       -4    1    3    3    0  502  0.34305047329E+02 -0.12991205658E+03 -0.20616626024E+03  0.24608965536E+03  0.12699999809E+01 0. -1.
</event>
<event>
 5   0  0.1222679E-03  0.6998138E+03  0.7818609E-02  0.9717551E-01
       -2   -1    0    0    0  501  0.00000000000E+00  0.00000000000E+00  0.12522379513E+03  0.12522379515E+03  0.25500000920E-02 0. -1.
        2   -1    0    0  501    0  0.00000000000E+00  0.00000000000E+00 -0.97772822942E+03  0.97772822943E+03  0.25500000920E-02 0.  1.
    10030    2    1    2    0    0  0.00000000000E+00  0.00000000000E+00 -0.85250443430E+03  0.11029520246E+04  0.69981380240E+03 0.  0.
        2    1    3    3  502    0 -0.12015099438E+03  0.12621956235E+03 -0.90447095224E+03  0.92110550038E+03  0.25500000920E-02 0.  1.
       -2    1    3    3    0  502  0.12015099438E+03 -0.12621956235E+03  0.51966517944E+02  0.18184652420E+03  0.25500000920E-02 0. -1.
</event>
<event>
 5   0  0.7572415E-04  0.7001319E+03  0.7818609E-02  0.9717007E-01
        1   -1    0    0  501    0  0.00000000000E+00  0.00000000000E+00  0.25440699264E+03  0.25440699269E+03  0.50400001928E-02 0.  1.
       -1   -1    0    0    0  501  0.00000000000E+00  0.00000000000E+00 -0.48169345774E+03  0.48169345777E+03  0.50400001928E-02 0. -1.
    10030    2    1    2    0    0  0.00000000000E+00  0.00000000000E+00 -0.22728646510E+03  0.73610045046E+03  0.70013194181E+03 0.  0.
        4    1    3    3  502    0 -0.11791317587E+03  0.10652918570E+03 -0.44158525196E+03  0.46930920735E+03  0.12699999809E+01 0. -1.
       -4    1    3    3    0  502  0.11791317587E+03 -0.10652918570E+03  0.21429878686E+03  0.26679124311E+03  0.12699999809E+01 0.  1.
</event>
<event>
 5   0  0.7572415E-04  0.7014284E+03  0.7818609E-02  0.9714793E-01
        1   -1    0    0  501    0  0.00000000000E+00  0.00000000000E+00  0.89978180533E+03  0.89978180534E+03  0.50400001928E-02 0. -1.
       -1   -1    0    0    0  501  0.00000000000E+00  0.00000000000E+00 -0.13670031020E+03  0.13670031029E+03  0.50400001928E-02 0.  1.
    10030    2    1    2    0    0  0.00000000000E+00  0.00000000000E+00  0.76308149513E+03  0.10364821156E+04  0.70142840535E+03 0.  0.
        4    1    3    3  502    0 -0.19550300334E+03 -0.10779269892E+02  0.81149349664E+03  0.83478196253E+03  0.12699999809E+01 0. -1.
       -4    1    3    3    0  502  0.19550300334E+03  0.10779269892E+02 -0.48412001513E+02  0.20170015311E+03  0.12699999809E+01 0.  1.
</event>
<event>
 5   0  0.7459843E-04  0.6997867E+03  0.7818609E-02  0.9717597E-01
       -1   -1    0    0    0  501  0.00000000000E+00  0.00000000000E+00  0.71673511374E+02  0.71673511551E+02  0.50400001928E-02 0.  1.
        1   -1    0    0  501    0  0.00000000000E+00  0.00000000000E+00 -0.17080976045E+04  0.17080976045E+04  0.50400001928E-02 0. -1.
    10030    2    1    2    0    0  0.00000000000E+00  0.00000000000E+00 -0.16364240931E+04  0.17797711160E+04  0.69978669106E+03 0.  0.
        2    1    3    3  502    0  0.29664738005E+03 -0.18113970343E+03 -0.92039130621E+03  0.98383505568E+03  0.25500000920E-02 0.  1.
       -2    1    3    3    0  502 -0.29664738005E+03  0.18113970343E+03 -0.71603278687E+03  0.79593606033E+03  0.25500000920E-02 0. -1.
</event>
<event>
 5   0  0.1222679E-03  0.7002637E+03  0.7818609E-02  0.9716781E-01
       -2   -1    0    0    0  501  0.00000000000E+00  0.00000000000E+00  0.12473030285E+03  0.12473030288E+03  0.25500000920E-02 0. -1.
        2   -1    0    0  501    0  0.00000000000E+00  0.00000000000E+00 -0.98285898855E+03  0.98285898855E+03  0.25500000920E-02 0.  1.
    10030    2    1    2    0    0  0.00000000000E+00  0.00000000000E+00 -0.85812868570E+03  0.11075892914E+04  0.70026366268E+03 0.  0.
        2    1    3    3  502    0  0.21757630515E+02  0.17685982548E+03  0.47645963506E+02  0.18445305690E+03  0.25500000920E-02 0. -1.
       -2    1    3    3    0  502 -0.21757630515E+02 -0.17685982548E+03 -0.90577464920E+03  0.92313623453E+03  0.25500000920E-02 0.  1.
</event>
<event>
 5   0  0.1265562E-03  0.6998710E+03  0.7818609E-02  0.9717453E-01
       -2   -1    0    0    0  501  0.00000000000E+00  0.00000000000E+00  0.50722080282E+02  0.50722080346E+02  0.25500000920E-02 0.  1.
        2   -1    0    0  501    0  0.00000000000E+00  0.00000000000E+00 -0.24142316259E+04  0.24142316259E+04  0.25500000920E-02 0. -1.
    10030    2    1    2    0    0  0.00000000000E+00  0.00000000000E+00 -0.23635095457E+04  0.24649537063E+04  0.69987098935E+03 0.  0.
        1    1    3    3  502    0  0.21694133081E+03  0.27091290682E+03 -0.13391656923E+04  0.13834095907E+04  0.50400001928E-02 0. -1.
       -1    1    3    3    0  502 -0.21694133081E+03 -0.27091290682E+03 -0.10243438533E+04  0.10815441156E+04  0.50400001928E-02 0.  1.
</event>
<event>
 5   0  0.4936000E-04  0.7000543E+03  0.7818609E-02  0.9717139E-01
        4   -1    0    0  501    0  0.00000000000E+00  0.00000000000E+00  0.23384113859E+03  0.23384458728E+03  0.12699999809E+01 0.  1.
       -4   -1    0    0    0  501  0.00000000000E+00  0.00000000000E+00 -0.52393308609E+03  0.52393462531E+03  0.12699999809E+01 0. -1.
    10030    2    1    2    0    0  0.00000000000E+00  0.00000000000E+00 -0.29009194750E+03  0.75777921259E+03  0.70005428149E+03 0.  0.
        2    1    3    3  502    0 -0.18699069538E+02  0.20773339344E+03  0.15923093123E+03  0.26240675948E+03  0.25500000920E-02 0.  1.
       -2    1    3    3    0  502  0.18699069538E+02 -0.20773339344E+03 -0.44932287872E+03  0.49537245311E+03  0.25500000920E-02 0. -1.
</event>
<event>
 5   0  0.1265562E-03  0.6998339E+03  0.7818609E-02  0.9717516E-01
       -2   -1    0    0    0  501  0.00000000000E+00  0.00000000000E+00  0.80836168994E+02  0.80836169034E+02  0.25500000920E-02 0. -1.
        2   -1    0    0  501    0  0.00000000000E+00  0.00000000000E+00 -0.15146918711E+04  0.15146918711E+04  0.25500000920E-02 0.  1.
    10030    2    1    2    0    0  0.00000000000E+00  0.00000000000E+00 -0.14338557021E+04  0.15955280401E+04  0.69983394629E+03 0.  0.
        1    1    3    3  502    0 -0.15422943028E+03 -0.16944559430E+03 -0.11397592517E+03  0.25590826117E+03  0.50400001928E-02 0. -1.
       -1    1    3    3    0  502  0.15422943028E+03  0.16944559430E+03 -0.13198797769E+04  0.13396197789E+04  0.50400001928E-02 0.  1.
</event>
<event>
 5   0  0.7013526E-04  0.6999907E+03  0.7818609E-02  0.9717248E-01
        1   -1    0    0  501    0  0.00000000000E+00  0.00000000000E+00  0.14240972532E+04  0.14240972532E+04  0.50400001928E-02 0.  1.
       -1   -1    0    0    0  501  0.00000000000E+00  0.00000000000E+00 -0.86017119172E+02  0.86017119319E+02  0.50400001928E-02 0. -1.
    10030    2    1    2    0    0  0.00000000000E+00  0.00000000000E+00  0.13380801340E+04  0.15101143725E+04  0.69999069496E+03 0.  0.
        1    1    3    3  502    0  0.20511510762E+03  0.22844951853E+03  0.30653491142E+03  0.43384910031E+03  0.50400001928E-02 0. -1.
       -1    1    3    3    0  502 -0.20511510762E+03 -0.22844951853E+03  0.10315452226E+04  0.10762652722E+04  0.50400001928E-02 0.  1.
</event>
<event>
 5   0  0.1282546E-03  0.6998306E+03  0.7818609E-02  0.9717522E-01
        2   -1    0    0  501    0  0.00000000000E+00  0.00000000000E+00  0.66384195512E+03  0.66384195513E+03  0.25500000920E-02 0. -1.
       -2   -1    0    0    0  501  0.00000000000E+00  0.00000000000E+00 -0.18444259705E+03  0.18444259706E+03  0.25500000920E-02 0.  1.
    10030    2    1    2    0    0  0.00000000000E+00  0.00000000000E+00  0.47939935807E+03  0.84828455219E+03  0.69983064877E+03 0.  0.
        5    1    3    3  502    0  0.33266920342E+03 -0.10109649993E+03  0.19229719995E+03  0.39735324877E+03  0.46999998093E+01 0.  1.
       -5    1    3    3    0  502 -0.33266920342E+03  0.10109649993E+03  0.28710215812E+03  0.45093130341E+03  0.46999998093E+01 0. -1.
</event>
<event>
 5   0  0.4936000E-04  0.6973652E+03  0.7818609E-02  0.9721749E-01
        3   -1    0    0  501    0  0.00000000000E+00  0.00000000000E+00  0.46560399861E+03  0.46560400956E+03  0.10100000352E+00 0.  1.
       -3   -1    0    0    0  501  0.00000000000E+00  0.00000000000E+00 -0.26112223053E+03  0.26112225006E+03  0.10100000352E+00 0. -1.
    10030    2    1    2    0    0  0.00000000000E+00  0.00000000000E+00  0.20448176807E+03  0.72672625962E+03  0.69736522924E+03 0.  0.
        2    1    3    3  502    0  0.24383549089E+03 -0.23919219750E+03  0.17526925776E+03  0.38391140474E+03  0.25500000920E-02 0.  1.
       -2    1    3    3    0  502 -0.24383549089E+03  0.23919219750E+03  0.29212510310E+02  0.34281485489E+03  0.25500000920E-02 0. -1.
</event>
<event>
 5   0  0.1243087E-03  0.7027866E+03  0.7818609E-02  0.9712479E-01
        2   -1    0    0  501    0  0.00000000000E+00  0.00000000000E+00  0.22981878491E+04  0.22981878491E+04  0.25500000920E-02 0. -1.
       -2   -1    0    0    0  501  0.00000000000E+00  0.00000000000E+00 -0.53728089232E+02  0.53728089293E+02  0.25500000920E-02 0.  1.
    10030    2    1    2    0    0  0.00000000000E+00  0.00000000000E+00  0.22444597599E+04  0.23519159384E+04  0.70278657330E+03 0.  0.
        4    1    3    3  502    0 -0.13094277026E+03  0.16042508112E+03  0.20722834935E+04  0.20826047887E+04  0.12699999809E+01 0. -1.
       -4    1    3    3    0  502  0.13094277026E+03 -0.16042508112E+03  0.17217626640E+03  0.26931114969E+03  0.12699999809E+01 0.  1.
</event>
<event>
 5   0  0.1243087E-03  0.6998919E+03  0.7818609E-02  0.9717417E-01
       -2   -1    0    0    0  501  0.00000000000E+00  0.00000000000E+00  0.12807909289E+03  0.12807909292E+03  0.25500000920E-02 0.  1.
        2   -1    0    0  501    0  0.00000000000E+00  0.00000000000E+00 -0.95614485476E+03  0.95614485477E+03  0.25500000920E-02 0. -1.
    10030    2    1    2    0    0  0.00000000000E+00  0.00000000000E+00 -0.82806576187E+03  0.10842239477E+04  0.69989189362E+03 0.  0.
        4    1    3    3  502    0  0.19322747500E+03 -0.11616833043E+03 -0.82863480009E+03  0.85876025927E+03  0.12699999809E+01 0. -1.
       -4    1    3    3    0  502 -0.19322747500E+03  0.11616833043E+03  0.56903821498E+00  0.22546368842E+03  0.12699999809E+01 0.  1.
</event>
<event>
 5   0  0.4936000E-04  0.6998437E+03  0.7818609E-02  0.9717500E-01
       -4   -1    0    0    0  501  0.00000000000E+00  0.00000000000E+00  0.20669944686E+03  0.20670334838E+03  0.12699999809E+01 0.  1.
        4   -1    0    0  501    0  0.00000000000E+00  0.00000000000E+00 -0.59237313289E+03  0.59237449428E+03  0.12699999809E+01 0. -1.
    10030    2    1    2    0    0  0.00000000000E+00  0.00000000000E+00 -0.38567368603E+03  0.79907784266E+03  0.69984370150E+03 0.  0.
        5    1    3    3  502    0  0.14301517491E+03  0.15846321273E+03  0.12370869085E+03  0.24675870853E+03  0.46999998093E+01 0.  1.
       -5    1    3    3    0  502 -0.14301517491E+03 -0.15846321273E+03 -0.50938237689E+03  0.55231913413E+03  0.46999998093E+01 0. -1.
</event>
<event>
 5   0  0.4936000E-04  0.7000035E+03  0.7818609E-02  0.9717226E-01
        3   -1    0    0  501    0  0.00000000000E+00  0.00000000000E+00  0.85590652832E+02  0.85590712424E+02  0.10100000352E+00 0.  1.
       -3   -1    0    0    0  501  0.00000000000E+00  0.00000000000E+00 -0.14312446247E+04  0.14312446283E+04  0.10100000352E+00 0. -1.
    10030    2    1    2    0    0  0.00000000000E+00  0.00000000000E+00 -0.13456539719E+04  0.15168353407E+04  0.70000345625E+03 0.  0.
        3    1    3    3  502    0 -0.30325084344E+03  0.16380430328E+03 -0.80478150268E+03  0.87548055437E+03  0.10100000352E+00 0. -1.
       -3    1    3    3    0  502  0.30325084344E+03 -0.16380430328E+03 -0.54087246923E+03  0.64135478636E+03  0.10100000352E+00 0.  1.
</event>
<event>
 5   0  0.7013526E-04  0.7010895E+03  0.7818609E-02  0.9715371E-01
       -1   -1    0    0    0  501  0.00000000000E+00  0.00000000000E+00  0.13067615753E+04  0.13067615753E+04  0.50400001928E-02 0. -1.
        1   -1    0    0  501    0  0.00000000000E+00  0.00000000000E+00 -0.94035226913E+02  0.94035227048E+02  0.50400001928E-02 0.  1.
    10030    2    1    2    0    0  0.00000000000E+00  0.00000000000E+00  0.12127263484E+04  0.14007968024E+04  0.70108949887E+03 0.  0.
        1    1    3    3  502    0 -0.11804276643E+03  0.10392342228E+02 -0.52803132223E+02  0.12973151615E+03  0.50400001928E-02 0.  1.
       -1    1    3    3    0  502  0.11804276643E+03 -0.10392342228E+02  0.12655294806E+04  0.12710652862E+04  0.50400001928E-02 0. -1.
</event>
<event>
 5   0  0.7570633E-04  0.6992980E+03  0.7818609E-02  0.9718433E-01
        1   -1    0    0  501    0  0.00000000000E+00  0.00000000000E+00  0.58649062983E+03  0.58649062985E+03  0.50400001928E-02 0. -1.
       -1   -1    0    0    0  501  0.00000000000E+00  0.00000000000E+00 -0.20845078484E+03  0.20845078490E+03  0.50400001928E-02 0.  1.
    10030    2    1    2    0    0  0.00000000000E+00  0.00000000000E+00  0.37803984499E+03  0.79494141475E+03  0.69929802551E+03 0.  0.
        5    1    3    3  502    0  0.17758968877E+03  0.20264114428E+02 -0.15254815866E+03  0.23503566240E+03  0.46999998093E+01 0.  1.
       -5    1    3    3    0  502 -0.17758968877E+03 -0.20264114428E+02  0.53058800366E+03  0.55990575235E+03  0.46999998093E+01 0. -1.
</event>
<event>
 5   0  0.1243087E-03  0.7006194E+03  0.7818609E-02  0.9716174E-01
       -2   -1    0    0    0  501  0.00000000000E+00  0.00000000000E+00  0.23950440048E+03  0.23950440050E+03  0.25500000920E-02 0. -1.
        2   -1    0    0  501    0  0.00000000000E+00  0.00000000000E+00 -0.51237843373E+03  0.51237843374E+03  0.25500000920E-02 0.  1.
    10030    2    1    2    0    0  0.00000000000E+00  0.00000000000E+00 -0.27287403325E+03  0.75188283424E+03  0.70061941052E+03 0.  0.
        4    1    3    3  502    0 -0.82305692727E+02 -0.11669834452E+03  0.20684707156E+03  0.25135642937E+03  0.12699999809E+01 0. -1.
       -4    1    3    3    0  502  0.82305692727E+02  0.11669834452E+03 -0.47972110481E+03  0.50052640487E+03  0.12699999809E+01 0.  1.
</event>
<event>
 5   0  0.1282546E-03  0.6999195E+03  0.7818609E-02  0.9717370E-01
       -2   -1    0    0    0  501  0.00000000000E+00  0.00000000000E+00  0.72168223564E+02  0.72168223609E+02  0.25500000920E-02 0.  1.
        2   -1    0    0  501    0  0.00000000000E+00  0.00000000000E+00 -0.16970325512E+04  0.16970325512E+04  0.25500000920E-02 0. -1.
    10030    2    1    2    0    0  0.00000000000E+00  0.00000000000E+00 -0.16248643277E+04  0.17692007749E+04  0.69991949421E+03 0.  0.
        5    1    3    3  502    0 -0.26107027590E+03 -0.86024885619E+02 -0.13597975365E+04  0.13873101313E+04  0.46999998093E+01 0. -1.
       -5    1    3    3    0  502  0.26107027590E+03  0.86024885619E+02 -0.26506679114E+03  0.38189064360E+03  0.46999998093E+01 0.  1.
</event>
<event>
 5   0  0.1265562E-03  0.6999903E+03  0.7818609E-02  0.9717249E-01
        2   -1    0    0  501    0  0.00000000000E+00  0.00000000000E+00  0.19565416782E+04  0.19565416782E+04  0.25500000920E-02 0. -1.
       -2   -1    0    0    0  501  0.00000000000E+00  0.00000000000E+00 -0.62608734571E+02  0.62608734623E+02  0.25500000920E-02 0.  1.
    10030    2    1    2    0    0  0.00000000000E+00  0.00000000000E+00  0.18939329436E+04  0.20191504128E+04  0.69999028181E+03 0.  0.
        1    1    3    3  502    0 -0.25301165914E+02  0.92706437762E+02 -0.23808809593E+02  0.99002485014E+02  0.50400001928E-02 0.  1.
       -1    1    3    3    0  502  0.25301165914E+02 -0.92706437762E+02  0.19177417532E+04  0.19201479278E+04  0.50400001928E-02 0. -1.
</event>
<event>
 5   0  0.1265562E-03  0.7000048E+03  0.7818609E-02  0.9717224E-01
       -2   -1    0    0    0  501  0.00000000000E+00  0.00000000000E+00  0.21914747045E+03  0.21914747047E+03  0.25500000920E-02 0. -1.
        2   -1    0    0  501    0  0.00000000000E+00  0.00000000000E+00 -0.55899205307E+03  0.55899205308E+03  0.25500000920E-02 0.  1.
    10030    2    1    2    0    0  0.00000000000E+00  0.00000000000E+00 -0.33984458262E+03  0.77813952355E+03  0.70000484125E+03 0.  0.
        1    1    3    3  502    0 -0.24656430375E+03 -0.19442172773E+03  0.19585306178E+01  0.31400254771E+03  0.50400001928E-02 0. -1.
       -1    1    3    3    0  502  0.24656430375E+03  0.19442172773E+03 -0.34180311324E+03  0.46413697584E+03  0.50400001928E-02 0.  1.
</event>
<event>
 5   0  0.7570633E-04  0.7000630E+03  0.7818609E-02  0.9717125E-01
       -1   -1    0    0    0  501  0.00000000000E+00  0.00000000000E+00  0.18496751233E+03  0.18496751240E+03  0.50400001928E-02 0. -1.
        1   -1    0    0  501    0  0.00000000000E+00  0.00000000000E+00 -0.66239760850E+03  0.66239760852E+03  0.50400001928E-02 0.  1.
    10030    2    1    2    0    0  0.00000000000E+00  0.00000000000E+00 -0.47743009616E+03  0.84736512092E+03  0.70006296248E+03 0.  0.
        5    1    3    3  502    0  0.34827756507E+03  0.22736176972E+02 -0.27041196024E+03  0.44154152048E+03  0.46999998093E+01 0.  1.
       -5    1    3    3    0  502 -0.34827756507E+03 -0.22736176972E+02 -0.20701813592E+03  0.40582360044E+03  0.46999998093E+01 0. -1.
</event>
<event>
 5   0  0.7570633E-04  0.6999357E+03  0.7818609E-02  0.9717342E-01
       -1   -1    0    0    0  501  0.00000000000E+00  0.00000000000E+00  0.25313036901E+03  0.25313036906E+03  0.50400001928E-02 0.  1.
        1   -1    0    0  501    0  0.00000000000E+00  0.00000000000E+00 -0.48385140849E+03  0.48385140851E+03  0.50400001928E-02 0. -1.
    10030    2    1    2    0    0  0.00000000000E+00  0.00000000000E+00 -0.23072103948E+03  0.73698177758E+03  0.69993567020E+03 0.  0.
        5    1    3    3  502    0 -0.33941257142E+03  0.33673909604E+02 -0.32985686198E+02  0.34270245304E+03  0.46999998093E+01 0. -1.
       -5    1    3    3    0  502  0.33941257142E+03 -0.33673909604E+02 -0.19773535328E+03  0.39427932454E+03  0.46999998093E+01 0.  1.
</event>
<event>
 5   0  0.1243087E-03  0.7002898E+03  0.7818609E-02  0.9716737E-01
        2   -1    0    0  501    0  0.00000000000E+00  0.00000000000E+00  0.15554311466E+04  0.15554311466E+04  0.25500000920E-02 0.  1.
       -2   -1    0    0    0  501  0.00000000000E+00  0.00000000000E+00 -0.78821514717E+02  0.78821514759E+02  0.25500000920E-02 0. -1.
    10030    2    1    2    0    0  0.00000000000E+00  0.00000000000E+00  0.14766096319E+04  0.16342526614E+04  0.70028976589E+03 0.  0.
        4    1    3    3  502    0  0.33849036791E+03  0.18994115800E+02  0.53401349465E+03  0.63254132748E+03  0.12699999809E+01 0. -1.
       -4    1    3    3    0  502 -0.33849036791E+03 -0.18994115800E+02  0.94259613727E+03  0.10017113339E+04  0.12699999809E+01 0.  1.
</event>
<event>
 5   0  0.7572415E-04  0.6992565E+03  0.7818609E-02  0.9718505E-01
       -1   -1    0    0    0  501  0.00000000000E+00  0.00000000000E+00  0.46148770674E+03  0.46148770677E+03  0.50400001928E-02 0. -1.
        1   -1    0    0  501    0  0.00000000000E+00  0.00000000000E+00 -0.26488226820E+03  0.26488226825E+03  0.50400001928E-02 0.  1.
    10030    2    1    2    0    0  0.00000000000E+00  0.00000000000E+00  0.19660543854E+03  0.72636997502E+03  0.69925649239E+03 0.  0.
        4    1    3    3  502    0 -0.11379577248E+03 -0.29544214359E+03 -0.55782135535E+02  0.32147907800E+03  0.12699999809E+01 0.  1.
       -4    1    3    3    0  502  0.11379577248E+03  0.29544214359E+03  0.25238757408E+03  0.40489089702E+03  0.12699999809E+01 0. -1.
</event>
<event>
 5   0  0.1243087E-03  0.7001746E+03  0.7818609E-02  0.9716934E-01
        2   -1    0    0  501    0  0.00000000000E+00  0.00000000000E+00  0.12653107890E+04  0.12653107890E+04  0.25500000920E-02 0. -1.
       -2   -1    0    0    0  501  0.00000000000E+00  0.00000000000E+00 -0.96862464553E+02  0.96862464587E+02  0.25500000920E-02 0.  1.
    10030    2    1    2    0    0  0.00000000000E+00  0.00000000000E+00  0.11684483244E+04  0.13621732535E+04  0.70017461099E+03 0.  0.
        4    1    3    3  502    0 -0.24893990451E+03  0.24489676639E+03  0.63243141810E+03  0.72243796533E+03  0.12699999809E+01 0.  1.
       -4    1    3    3    0  502  0.24893990451E+03 -0.24489676639E+03  0.53601690630E+03  0.63973528821E+03  0.12699999809E+01 0. -1.
</event>
<event>
 5   0  0.7574241E-04  0.6996958E+03  0.7818609E-02  0.9717753E-01
        1   -1    0    0  501    0  0.00000000000E+00  0.00000000000E+00  0.61393405310E+03  0.61393405313E+03  0.50400001928E-02 0.  1.
       -1   -1    0    0    0  501  0.00000000000E+00  0.00000000000E+00 -0.19935943655E+03  0.19935943661E+03  0.50400001928E-02 0. -1.
    10030    2    1    2    0    0  0.00000000000E+00  0.00000000000E+00  0.41457461656E+03  0.81329348973E+03  0.69969578229E+03 0.  0.
        3    1    3    3  502    0 -0.17811757146E+03  0.22297366099E+03  0.44250348585E+03  0.52654768820E+03  0.10100000352E+00 0.  1.
       -3    1    3    3    0  502  0.17811757146E+03 -0.22297366099E+03 -0.27928869291E+02  0.28674580153E+03  0.10100000352E+00 0. -1.
</event>
<event>
 5   0  0.7572415E-04  0.6999619E+03  0.7818609E-02  0.9717297E-01
       -1   -1    0    0    0  501  0.00000000000E+00  0.00000000000E+00  0.12682883866E+03  0.12682883876E+03  0.50400001928E-02 0. -1.
        1   -1    0    0  501    0  0.00000000000E+00  0.00000000000E+00 -0.96576345697E+03  0.96576345698E+03  0.50400001928E-02 0.  1.
    10030    2    1    2    0    0  0.00000000000E+00  0.00000000000E+00 -0.83893461830E+03  0.10925922957E+04  0.69996187820E+03 0.  0.
        4    1    3    3  502    0 -0.43784810863E+02  0.34700226318E+03 -0.39988620578E+03  0.53126101945E+03  0.12699999809E+01 0.  1.
       -4    1    3    3    0  502  0.43784810863E+02 -0.34700226318E+03 -0.43904841252E+03  0.56133127629E+03  0.12699999809E+01 0. -1.
</event>
<event>
 5   0  0.7459843E-04  0.7020674E+03  0.7818609E-02  0.9713703E-01
       -1   -1    0    0    0  501  0.00000000000E+00  0.00000000000E+00  0.13074653367E+03  0.13074653377E+03  0.50400001928E-02 0.  1.
        1   -1    0    0  501    0  0.00000000000E+00  0.00000000000E+00 -0.94246986228E+03  0.94246986230E+03  0.50400001928E-02 0. -1.
    10030    2    1    2    0    0  0.00000000000E+00  0.00000000000E+00 -0.81172332862E+03  0.10732163961E+04  0.70206742593E+03 0.  0.
        2    1    3    3  502    0  0.18148715116E+02 -0.17564159253E+03 -0.86963880428E+03  0.88738435573E+03  0.25500000920E-02 0. -1.
       -2    1    3    3    0  502 -0.18148715116E+02  0.17564159253E+03  0.57915475663E+02  0.18583204033E+03  0.25500000920E-02 0.  1.
</event>
<event>
 5   0  0.1265562E-03  0.7029526E+03  0.7818609E-02  0.9712196E-01
       -2   -1    0    0    0  501  0.00000000000E+00  0.00000000000E+00  0.66512883997E+02  0.66512884046E+02  0.25500000920E-02 0. -1.
        2   -1    0    0  501    0  0.00000000000E+00  0.00000000000E+00 -0.18573181497E+04  0.18573181497E+04  0.25500000920E-02 0.  1.
    10030    2    1    2    0    0  0.00000000000E+00  0.00000000000E+00 -0.17908052657E+04  0.19238310338E+04  0.70295259210E+03 0.  0.
        1    1    3    3  502    0  0.94181534605E+02 -0.90864628547E+02 -0.26520114947E+01  0.13089528399E+03  0.50400001928E-02 0. -1.
       -1    1    3    3    0  502 -0.94181534605E+02  0.90864628547E+02 -0.17881532542E+04  0.17929357498E+04  0.50400001928E-02 0.  1.
</event>
<event>
 5   0  0.7013526E-04  0.7011189E+03  0.7818609E-02  0.9715321E-01
       -1   -1    0    0    0  501  0.00000000000E+00  0.00000000000E+00  0.18619792723E+03  0.18619792730E+03  0.50400001928E-02 0.  1.
        1   -1    0    0  501    0  0.00000000000E+00  0.00000000000E+00 -0.66000698037E+03  0.66000698039E+03  0.50400001928E-02 0. -1.
    10030    2    1    2    0    0  0.00000000000E+00  0.00000000000E+00 -0.47380905314E+03  0.84620490769E+03  0.70111891071E+03 0.  0.
        1    1    3    3  502    0 -0.26030022285E+03  0.94514652351E+02 -0.49633295545E+03  0.56836223328E+03  0.50400001928E-02 0. -1.
       -1    1    3    3    0  502  0.26030022285E+03 -0.94514652351E+02  0.22523902312E+02  0.27784267441E+03  0.50400001928E-02 0.  1.
</event>
<event>
 5   0  0.1265562E-03  0.6995498E+03  0.7818609E-02  0.9718002E-01
        2   -1    0    0  501    0  0.00000000000E+00  0.00000000000E+00  0.83848310452E+03  0.83848310452E+03  0.25500000920E-02 0. -1.
       -2   -1    0    0    0  501  0.00000000000E+00  0.00000000000E+00 -0.14590928262E+03  0.14590928265E+03  0.25500000920E-02 0.  1.
    10030    2    1    2    0    0  0.00000000000E+00  0.00000000000E+00  0.69257382189E+03  0.98439238717E+03  0.69954976459E+03 0.  0.
        1    1    3    3  502    0  0.30171964055E+03 -0.17242512120E+03  0.40217347138E+03  0.53151544194E+03  0.50400001928E-02 0.  1.
       -1    1    3    3    0  502 -0.30171964055E+03  0.17242512120E+03  0.29040035051E+03  0.45287694523E+03  0.50400001928E-02 0. -1.
</event>
<event>
 5   0  0.1222679E-03  0.7004206E+03  0.7818609E-02  0.9716513E-01
       -2   -1    0    0    0  501  0.00000000000E+00  0.00000000000E+00  0.14417411759E+03  0.14417411761E+03  0.25500000920E-02 0. -1.
        2   -1    0    0  501    0  0.00000000000E+00  0.00000000000E+00 -0.85068847492E+03  0.85068847492E+03  0.25500000920E-02 0.  1.
    10030    2    1    2    0    0  0.00000000000E+00  0.00000000000E+00 -0.70651435733E+03  0.99486259254E+03  0.70042061714E+03 0.  0.
        2    1    3    3  502    0 -0.11318648988E+03 -0.23892064968E+03 -0.67949008804E+03  0.72910975723E+03  0.25500000920E-02 0.  1.
       -2    1    3    3    0  502  0.11318648988E+03  0.23892064968E+03 -0.27024269286E+02  0.26575283531E+03  0.25500000920E-02 0. -1.
</event>
<event>
 5   0  0.1243087E-03  0.7000474E+03  0.7818609E-02  0.9717151E-01
        2   -1    0    0  501    0  0.00000000000E+00  0.00000000000E+00  0.61752956059E+03  0.61752956059E+03  0.25500000920E-02 0. -1.
       -2   -1    0    0    0  501  0.00000000000E+00  0.00000000000E+00 -0.19839792158E+03  0.19839792159E+03  0.25500000920E-02 0.  1.
    10030    2    1    2    0    0  0.00000000000E+00  0.00000000000E+00  0.41913163901E+03  0.81592748219E+03  0.70004737366E+03 0.  0.
        4    1    3    3  502    0 -0.69436792926E+02 -0.17289459332E+03  0.55492719276E+03  0.58537151517E+03  0.12699999809E+01 0. -1.
       -4    1    3    3    0  502  0.69436792926E+02  0.17289459332E+03 -0.13579555375E+03  0.23055596702E+03  0.12699999809E+01 0.  1.
</event>
<event>
 5   0  0.7459843E-04  0.7001078E+03  0.7818609E-02  0.9717048E-01
        1   -1    0    0  501    0  0.00000000000E+00  0.00000000000E+00  0.60196098010E+03  0.60196098013E+03  0.50400001928E-02 0. -1.
       -1   -1    0    0    0  501  0.00000000000E+00  0.00000000000E+00 -0.20356424213E+03  0.20356424219E+03  0.50400001928E-02 0.  1.
    10030    2    1    2    0    0  0.00000000000E+00  0.00000000000E+00  0.39839673798E+03  0.80552522231E+03  0.70010779381E+03 0.  0.
        2    1    3    3  502    0  0.19734237819E+03 -0.27676013774E+03  0.10295141177E+03  0.35516078227E+03  0.25500000920E-02 0.  1.
       -2    1    3    3    0  502 -0.19734237819E+03  0.27676013774E+03  0.29544532621E+03  0.45036444005E+03  0.25500000920E-02 0. -1.
</event>
<event>
 5   0  0.7013526E-04  0.7000644E+03  0.7818609E-02  0.9717122E-01
        1   -1    0    0  501    0  0.00000000000E+00  0.00000000000E+00  0.45649796830E+03  0.45649796833E+03  0.50400001928E-02 0. -1.
       -1   -1    0    0    0  501  0.00000000000E+00  0.00000000000E+00 -0.26839669198E+03  0.26839669202E+03  0.50400001928E-02 0.  1.
    10030    2    1    2    0    0  0.00000000000E+00  0.00000000000E+00  0.18810127632E+03  0.72489466035E+03  0.70006441022E+03 0.  0.
        1    1    3    3  502    0 -0.13901252910E+03  0.30004051810E+03  0.21289855961E+03  0.39328690858E+03  0.50400001928E-02 0. -1.
       -1    1    3    3    0  502  0.13901252910E+03 -0.30004051810E+03 -0.24797283288E+02  0.33160775177E+03  0.50400001928E-02 0.  1.
</event>
<event>
 5   0  0.1243087E-03  0.6995636E+03  0.7818609E-02  0.9717979E-01
        2   -1    0    0  501    0  0.00000000000E+00  0.00000000000E+00  0.40522168899E+03  0.40522168899E+03  0.25500000920E-02 0. -1.
       -2   -1    0    0    0  501  0.00000000000E+00  0.00000000000E+00 -0.30192687044E+03  0.30192687046E+03  0.25500000920E-02 0.  1.
    10030    2    1    2    0    0  0.00000000000E+00  0.00000000000E+00  0.10329481854E+03  0.70714855945E+03  0.69956362512E+03 0.  0.
        4    1    3    3  502    0  0.30612008273E+01  0.34929680784E+03  0.69956568764E+02  0.35624874082E+03  0.12699999809E+01 0.  1.
       -4    1    3    3    0  502 -0.30612008273E+01 -0.34929680784E+03  0.33338249777E+02  0.35089981863E+03  0.12699999809E+01 0. -1.
</event>
<event>
 5   0  0.1282546E-03  0.7008630E+03  0.7818609E-02  0.9715758E-01
        2   -1    0    0  501    0  0.00000000000E+00  0.00000000000E+00  0.10664030131E+04  0.10664030131E+04  0.25500000920E-02 0. -1.
       -2   -1    0    0    0  501  0.00000000000E+00  0.00000000000E+00 -0.11515555157E+03  0.11515555160E+03  0.25500000920E-02 0.  1.
    10030    2    1    2    0    0  0.00000000000E+00  0.00000000000E+00  0.95124746153E+03  0.11815585647E+04  0.70086297430E+03 0.  0.
        5    1    3    3  502    0 -0.26514271424E+03 -0.62724559173E+02  0.10417842792E+03  0.29173663479E+03  0.46999998093E+01 0.  1.
       -5    1    3    3    0  502  0.26514271424E+03  0.62724559173E+02  0.84706903361E+03  0.88982192990E+03  0.46999998093E+01 0. -1.
</event>
<event>
 5   0  0.4936000E-04  0.7001656E+03  0.7818609E-02  0.9716949E-01
        4   -1    0    0  501    0  0.00000000000E+00  0.00000000000E+00  0.22270716842E+03  0.22271078951E+03  0.12699999809E+01 0.  1.
       -4   -1    0    0    0  501  0.00000000000E+00  0.00000000000E+00 -0.55030109575E+03  0.55030256122E+03  0.12699999809E+01 0. -1.
    10030    2    1    2    0    0  0.00000000000E+00  0.00000000000E+00 -0.32759392734E+03  0.77301335073E+03  0.70016559412E+03 0.  0.
        5    1    3    3  502    0 -0.34805563348E+02 -0.13714299762E+03 -0.51729139413E+03  0.53631343958E+03  0.46999998093E+01 0. -1.
       -5    1    3    3    0  502  0.34805563348E+02  0.13714299762E+03  0.18969746679E+03  0.23669991116E+03  0.46999998093E+01 0.  1.
</event>
<event>
 5   0  0.4936000E-04  0.6957381E+03  0.7818609E-02  0.9724548E-01
        3   -1    0    0  501    0  0.00000000000E+00  0.00000000000E+00  0.10251748448E+03  0.10251753423E+03  0.10100000352E+00 0. -1.
       -3   -1    0    0    0  501  0.00000000000E+00  0.00000000000E+00 -0.11804117842E+04  0.11804117885E+04  0.10100000352E+00 0.  1.
    10030    2    1    2    0    0  0.00000000000E+00  0.00000000000E+00 -0.10778942997E+04  0.12829293227E+04  0.69573811581E+03 0.  0.
        4    1    3    3  502    0  0.14601800326E+03 -0.31517317542E+03 -0.57373352636E+03  0.67069155351E+03  0.12699999809E+01 0.  1.
       -4    1    3    3    0  502 -0.14601800326E+03  0.31517317542E+03 -0.50416077335E+03  0.61223776923E+03  0.12699999809E+01 0. -1.
</event>
<event>
 5   0  0.7574241E-04  0.6995326E+03  0.7818609E-02  0.9718032E-01
        1   -1    0    0  501    0  0.00000000000E+00  0.00000000000E+00  0.55539660954E+03  0.55539660957E+03  0.50400001928E-02 0. -1.
       -1   -1    0    0    0  501  0.00000000000E+00  0.00000000000E+00 -0.22026864614E+03  0.22026864620E+03  0.50400001928E-02 0.  1.
    10030    2    1    2    0    0  0.00000000000E+00  0.00000000000E+00  0.33512796341E+03  0.77566525576E+03  0.69953258476E+03 0.  0.
        3    1    3    3  502    0 -0.29809173167E+03  0.14308461393E+03  0.41115315781E+02  0.33320019002E+03  0.10100000352E+00 0.  1.
       -3    1    3    3    0  502  0.29809173167E+03 -0.14308461393E+03  0.29401264762E+03  0.44246506574E+03  0.10100000352E+00 0. -1.
</event>
<event>
 5   0  0.1222679E-03  0.7000031E+03  0.7818609E-02  0.9717227E-01
        2   -1    0    0  501    0  0.00000000000E+00  0.00000000000E+00  0.47082774873E+03  0.47082774873E+03  0.25500000920E-02 0. -1.
       -2   -1    0    0    0  501  0.00000000000E+00  0.00000000000E+00 -0.26018234598E+03  0.26018234599E+03  0.25500000920E-02 0.  1.
    10030    2    1    2    0    0  0.00000000000E+00  0.00000000000E+00  0.21064540275E+03  0.73101009473E+03  0.70000305206E+03 0.  0.
        2    1    3    3  502    0  0.21144674316E+03 -0.25679164533E+03  0.21899941489E+03  0.39826174563E+03  0.25500000920E-02 0.  1.
       -2    1    3    3    0  502 -0.21144674316E+03  0.25679164533E+03 -0.83540121415E+01  0.33274834910E+03  0.25500000920E-02 0. -1.
</event>
<event>
 5   0  0.1243087E-03  0.7005851E+03  0.7818609E-02  0.9716232E-01
       -2   -1    0    0    0  501  0.00000000000E+00  0.00000000000E+00  0.72693285108E+02  0.72693285153E+02  0.25500000920E-02 0. -1.
        2   -1    0    0  501    0  0.00000000000E+00  0.00000000000E+00 -0.16879808400E+04  0.16879808400E+04  0.25500000920E-02 0.  1.
    10030    2    1    2    0    0  0.00000000000E+00  0.00000000000E+00 -0.16152875549E+04  0.17606741252E+04  0.70058510547E+03 0.  0.
        4    1    3    3  502    0 -0.34053313285E+03  0.76028496275E+01 -0.10130871664E+04  0.10688160915E+04  0.12699999809E+01 0. -1.
       -4    1    3    3    0  502  0.34053313285E+03 -0.76028496275E+01 -0.60220038853E+03  0.69185803366E+03  0.12699999809E+01 0.  1.
</event>
<event>
 5   0  0.7013526E-04  0.6997232E+03  0.7818609E-02  0.9717706E-01
        1   -1    0    0  501    0  0.00000000000E+00  0.00000000000E+00  0.10174680086E+04  0.10174680086E+04  0.50400001928E-02 0.  1.
       -1   -1    0    0    0  501  0.00000000000E+00  0.00000000000E+00 -0.12030169723E+03  0.12030169734E+03  0.50400001928E-02 0. -1.
    10030    2    1    2    0    0  0.00000000000E+00  0.00000000000E+00  0.89716631140E+03  0.11377697060E+04  0.69972316921E+03 0.  0.
        1    1    3    3  502    0 -0.80088798550E+02 -0.68774989546E+02 -0.93786668793E+02  0.14120961054E+03  0.50400001928E-02 0. -1.
       -1    1    3    3    0  502  0.80088798550E+02  0.68774989546E+02  0.99095298019E+03  0.99656009544E+03  0.50400001928E-02 0.  1.
</event>
<event>
 5   0  0.7013526E-04  0.7000177E+03  0.7818609E-02  0.9717202E-01
       -1   -1    0    0    0  501  0.00000000000E+00  0.00000000000E+00  0.99269355971E+02  0.99269356098E+02  0.50400001928E-02 0. -1.
        1   -1    0    0  501    0  0.00000000000E+00  0.00000000000E+00 -0.12340785036E+04  0.12340785036E+04  0.50400001928E-02 0.  1.
    10030    2    1    2    0    0  0.00000000000E+00  0.00000000000E+00 -0.11348091476E+04  0.13333478597E+04  0.70001765223E+03 0.  0.
        1    1    3    3  502    0 -0.43308294752E+01 -0.22019151571E+03 -0.49249819253E+02  0.22567366793E+03  0.50400001928E-02 0. -1.
       -1    1    3    3    0  502  0.43308294752E+01  0.22019151571E+03 -0.10855593283E+04  0.11076741917E+04  0.50400001928E-02 0.  1.
</event>
<event>
 5   0  0.1224048E-03  0.6999359E+03  0.7818609E-02  0.9717342E-01
       -2   -1    0    0    0  501  0.00000000000E+00  0.00000000000E+00  0.20691120571E+03  0.20691120573E+03  0.25500000920E-02 0. -1.
        2   -1    0    0  501    0  0.00000000000E+00  0.00000000000E+00 -0.59193294155E+03  0.59193294156E+03  0.25500000920E-02 0.  1.
    10030    2    1    2    0    0  0.00000000000E+00  0.00000000000E+00 -0.38502173584E+03  0.79884414728E+03  0.69993587890E+03 0.  0.
        3    1    3    3  502    0  0.35582664252E+01  0.31481742000E+02  0.20527109566E+03  0.20770169536E+03  0.10100000352E+00 0. -1.
       -3    1    3    3    0  502 -0.35582664252E+01 -0.31481742000E+02 -0.59029283150E+03  0.59114245192E+03  0.10100000352E+00 0.  1.
</event>
<event>
 5   0  0.7572415E-04  0.6999078E+03  0.7818609E-02  0.9717390E-01
        1   -1    0    0  501    0  0.00000000000E+00  0.00000000000E+00  0.52781568808E+03  0.52781568810E+03  0.50400001928E-02 0.  1.
       -1   -1    0    0    0  501  0.00000000000E+00  0.00000000000E+00 -0.23202748203E+03  0.23202748208E+03  0.50400001928E-02 0. -1.
    10030    2    1    2    0    0  0.00000000000E+00  0.00000000000E+00  0.29578820605E+03  0.75984317018E+03  0.69990783710E+03 0.  0.
        4    1    3    3  502    0  0.15648535451E+03 -0.10560807652E+02  0.48752023753E+03  0.51212966302E+03  0.12699999809E+01 0.  1.
       -4    1    3    3    0  502 -0.15648535451E+03  0.10560807652E+02 -0.19173203149E+03  0.24771350717E+03  0.12699999809E+01 0. -1.
</event>
<event>
 5   0  0.7013526E-04  0.7001022E+03  0.7818609E-02  0.9717057E-01
        1   -1    0    0  501    0  0.00000000000E+00  0.00000000000E+00  0.65272561067E+03  0.65272561069E+03  0.50400001928E-02 0. -1.
       -1   -1    0    0    0  501  0.00000000000E+00  0.00000000000E+00 -0.18772938673E+03  0.18772938680E+03  0.50400001928E-02 0.  1.
    10030    2    1    2    0    0  0.00000000000E+00  0.00000000000E+00  0.46499622394E+03  0.84045499748E+03  0.70010221719E+03 0.  0.
        1    1    3    3  502    0  0.15817594428E+02 -0.30173717637E+03  0.20315240838E+02  0.30283366545E+03  0.50400001928E-02 0.  1.
       -1    1    3    3    0  502 -0.15817594428E+02  0.30173717637E+03  0.44468098310E+03  0.53762133203E+03  0.50400001928E-02 0. -1.
</event>
<event>
 5   0  0.4936000E-04  0.6996327E+03  0.7818609E-02  0.9717860E-01
        3   -1    0    0  501    0  0.00000000000E+00  0.00000000000E+00  0.22447732023E+03  0.22447734295E+03  0.10100000352E+00 0.  1.
       -3   -1    0    0    0  501  0.00000000000E+00  0.00000000000E+00 -0.54513960126E+03  0.54513961061E+03  0.10100000352E+00 0. -1.
    10030    2    1    2    0    0  0.00000000000E+00  0.00000000000E+00 -0.32066228103E+03  0.76961695356E+03  0.69963272989E+03 0.  0.
        4    1    3    3  502    0  0.15107925102E+03 -0.13665133246E+03  0.15249414743E+03  0.25446926072E+03  0.12699999809E+01 0.  1.
       -4    1    3    3    0  502 -0.15107925102E+03  0.13665133246E+03 -0.47315642846E+03  0.51514769284E+03  0.12699999809E+01 0. -1.
</event>
<event>
 5   0  0.7013526E-04  0.6986847E+03  0.7818609E-02  0.9719484E-01
       -1   -1    0    0    0  501  0.00000000000E+00  0.00000000000E+00  0.20573387655E+03  0.20573387661E+03  0.50400001928E-02 0.  1.
        1   -1    0    0  501    0  0.00000000000E+00  0.00000000000E+00 -0.59319381031E+03  0.59319381033E+03  0.50400001928E-02 0. -1.
    10030    2    1    2    0    0  0.00000000000E+00  0.00000000000E+00 -0.38745993376E+03  0.79892768694E+03  0.69868465611E+03 0.  0.
        1    1    3    3  502    0 -0.18595438628E+03 -0.19834487303E+02 -0.53113736934E+03  0.56309798952E+03  0.50400001928E-02 0. -1.
       -1    1    3    3    0  502  0.18595438628E+03  0.19834487303E+02  0.14367743558E+03  0.23582969742E+03  0.50400001928E-02 0.  1.
</event>
<event>
 5   0  0.7574241E-04  0.6995976E+03  0.7818609E-02  0.9717921E-01
       -1   -1    0    0    0  501  0.00000000000E+00  0.00000000000E+00  0.28093990587E+03  0.28093990592E+03  0.50400001928E-02 0.  1.
        1   -1    0    0  501    0  0.00000000000E+00  0.00000000000E+00 -0.43553517133E+03  0.43553517136E+03  0.50400001928E-02 0. -1.
    10030    2    1    2    0    0  0.00000000000E+00  0.00000000000E+00 -0.15459526545E+03  0.71647507728E+03  0.69959762740E+03 0.  0.
        3    1    3    3  502    0 -0.24452809108E+03  0.18151172250E+03 -0.25355034495E+03  0.39626794011E+03  0.10100000352E+00 0. -1.
       -3    1    3    3    0  502  0.24452809108E+03 -0.18151172250E+03  0.98955079500E+02  0.32020713717E+03  0.10100000352E+00 0.  1.
</event>
<event>
 5   0  0.1282546E-03  0.6999285E+03  0.7818609E-02  0.9717354E-01
        2   -1    0    0  501    0  0.00000000000E+00  0.00000000000E+00  0.99241033234E+03  0.99241033235E+03  0.25500000920E-02 0.  1.
       -2   -1    0    0    0  501  0.00000000000E+00  0.00000000000E+00 -0.12341164037E+03  0.12341164039E+03  0.25500000920E-02 0. -1.
    10030    2    1    2    0    0  0.00000000000E+00  0.00000000000E+00  0.86899869198E+03  0.11158219727E+04  0.69992853078E+03 0.  0.
        5    1    3    3  502    0  0.82585794325E+02  0.32426101508E+03  0.59775664127E+03  0.68505526164E+03  0.46999998093E+01 0.  1.
       -5    1    3    3    0  502 -0.82585794325E+02 -0.32426101508E+03  0.27124205071E+03  0.43076671110E+03  0.46999998093E+01 0. -1.
</event>
<event>
 5   0  0.7572415E-04  0.7011268E+03  0.7818609E-02  0.9715307E-01
        1   -1    0    0  501    0  0.00000000000E+00  0.00000000000E+00  0.10515896216E+04  0.10515896216E+04  0.50400001928E-02 0.  1.
       -1   -1    0    0    0  501  0.00000000000E+00  0.00000000000E+00 -0.11686563591E+03  0.11686563602E+03  0.50400001928E-02 0. -1.
    10030    2    1    2    0    0  0.00000000000E+00  0.00000000000E+00  0.93472398571E+03  0.11684552576E+04  0.70112677859E+03 0.  0.
        4    1    3    3  502    0  0.18025413547E+03  0.21806034348E+03  0.81234450355E+03  0.86020176244E+03  0.12699999809E+01 0.  1.
       -4    1    3    3    0  502 -0.18025413547E+03 -0.21806034348E+03  0.12237948216E+03  0.30825349521E+03  0.12699999809E+01 0. -1.
</event>
<event>
 5   0  0.7013526E-04  0.6997250E+03  0.7818609E-02  0.9717703E-01
        1   -1    0    0  501    0  0.00000000000E+00  0.00000000000E+00  0.22532240040E+04  0.22532240040E+04  0.50400001928E-02 0. -1.
       -1   -1    0    0    0  501  0.00000000000E+00  0.00000000000E+00 -0.54323829102E+02  0.54323829336E+02  0.50400001928E-02 0.  1.
    10030    2    1    2    0    0  0.00000000000E+00  0.00000000000E+00  0.21989001749E+04  0.23075478333E+04  0.69972496310E+03 0.  0.
        1    1    3    3  502    0  0.86547688573E+02  0.84371063659E+02  0.16715017160E+02  0.12201791100E+03  0.50400001928E-02 0.  1.
       -1    1    3    3    0  502 -0.86547688573E+02 -0.84371063659E+02  0.21821851577E+04  0.21855299223E+04  0.50400001928E-02 0. -1.
</event>
<event>
 5   0  0.7013526E-04  0.6999434E+03  0.7818609E-02  0.9717329E-01
        1   -1    0    0  501    0  0.00000000000E+00  0.00000000000E+00  0.71956911190E+03  0.71956911192E+03  0.50400001928E-02 0.  1.
       -1   -1    0    0    0  501  0.00000000000E+00  0.00000000000E+00 -0.17021326211E+03  0.17021326219E+03  0.50400001928E-02 0. -1.
    10030    2    1    2    0    0  0.00000000000E+00  0.00000000000E+00  0.54935584979E+03  0.88978237411E+03  0.69994344312E+03 0.  0.
        1    1    3    3  502    0  0.13900835356E+03  0.20123688552E+03  0.59289107398E+03  0.64135749164E+03  0.50400001928E-02 0.  1.
       -1    1    3    3    0  502 -0.13900835356E+03 -0.20123688552E+03 -0.43535224192E+02  0.24842488246E+03  0.50400001928E-02 0. -1.
</event>
<event>
 5   0  0.1282546E-03  0.7000631E+03  0.7818609E-02  0.9717124E-01
       -2   -1    0    0    0  501  0.00000000000E+00  0.00000000000E+00  0.23689250911E+03  0.23689250913E+03  0.25500000920E-02 0.  1.
        2   -1    0    0  501    0  0.00000000000E+00  0.00000000000E+00 -0.51720546061E+03  0.51720546061E+03  0.25500000920E-02 0. -1.
    10030    2    1    2    0    0  0.00000000000E+00  0.00000000000E+00 -0.28031295150E+03  0.75409796974E+03  0.70006313800E+03 0.  0.
        5    1    3    3  502    0 -0.17101677781E+03 -0.15157045646E+03 -0.42572176078E+03  0.48319918167E+03  0.46999998093E+01 0. -1.
       -5    1    3    3    0  502  0.17101677781E+03  0.15157045646E+03  0.14540880928E+03  0.27089878807E+03  0.46999998093E+01 0.  1.
</event>
<event>
 5   0  0.1243087E-03  0.6997863E+03  0.7818609E-02  0.9717598E-01
        2   -1    0    0  501    0  0.00000000000E+00  0.00000000000E+00  0.19805235454E+04  0.19805235454E+04  0.25500000920E-02 0. -1.
       -2   -1    0    0    0  501  0.00000000000E+00  0.00000000000E+00 -0.61814573118E+02  0.61814573170E+02  0.25500000920E-02 0.  1.
    10030    2    1    2    0    0  0.00000000000E+00  0.00000000000E+00  0.19187089723E+04  0.20423381186E+04  0.69978630328E+03 0.  0.
        4    1    3    3  502    0 -0.14881656672E+03  0.36455319858E+02  0.41304664702E+02  0.15869167938E+03  0.12699999809E+01 0.  1.
       -4    1    3    3    0  502  0.14881656672E+03 -0.36455319858E+02  0.18774043076E+04  0.18836464392E+04  0.12699999809E+01 0. -1.
</event>
<event>
 5   0  0.7570633E-04  0.7013391E+03  0.7818609E-02  0.9714945E-01
       -1   -1    0    0    0  501  0.00000000000E+00  0.00000000000E+00  0.66405699745E+02  0.66405699936E+02  0.50400001928E-02 0. -1.
        1   -1    0    0  501    0  0.00000000000E+00  0.00000000000E+00 -0.18517857602E+04  0.18517857602E+04  0.50400001928E-02 0.  1.
    10030    2    1    2    0    0  0.00000000000E+00  0.00000000000E+00 -0.17853800605E+04  0.19181914601E+04  0.70133908881E+03 0.  0.
        5    1    3    3  502    0  0.30524021539E+03  0.13125843696E+03 -0.58633275500E+03  0.67394996547E+03  0.46999998093E+01 0. -1.
       -5    1    3    3    0  502 -0.30524021539E+03 -0.13125843696E+03 -0.11990473055E+04  0.12442414947E+04  0.46999998093E+01 0.  1.
</event>
<event>
 5   0  0.1243087E-03  0.7000344E+03  0.7818609E-02  0.9717173E-01
        2   -1    0    0  501    0  0.00000000000E+00  0.00000000000E+00  0.14087785460E+04  0.14087785460E+04  0.25500000920E-02 0.  1.
       -2   -1    0    0    0  501  0.00000000000E+00  0.00000000000E+00 -0.86963304181E+02  0.86963304218E+02  0.25500000920E-02 0. -1.
    10030    2    1    2    0    0  0.00000000000E+00  0.00000000000E+00  0.13218152418E+04  0.14957418502E+04  0.70003439130E+03 0.  0.
        4    1    3    3  502    0 -0.12416464035E+03  0.18658184451E+03  0.12353529323E+04  0.12555190651E+04  0.12699999809E+01 0.  1.
       -4    1    3    3    0  502  0.12416464035E+03 -0.18658184451E+03  0.86462309501E+02  0.24022278509E+03  0.12699999809E+01 0. -1.
</event>
<event>
 5   0  0.7574241E-04  0.7005994E+03  0.7818609E-02  0.9716208E-01
        1   -1    0    0  501    0  0.00000000000E+00  0.00000000000E+00  0.43306593339E+03  0.43306593342E+03  0.50400001928E-02 0. -1.
       -1   -1    0    0    0  501  0.00000000000E+00  0.00000000000E+00 -0.28335149127E+03  0.28335149131E+03  0.50400001928E-02 0.  1.
    10030    2    1    2    0    0  0.00000000000E+00  0.00000000000E+00  0.14971444212E+03  0.71641742473E+03  0.70059939500E+03 0.  0.
        3    1    3    3  502    0 -0.22725586046E+02  0.57575689739E+02  0.42742933484E+03  0.43188801650E+03  0.10100000352E+00 0. -1.
       -3    1    3    3    0  502  0.22725586046E+02 -0.57575689739E+02 -0.27771489272E+03  0.28452940823E+03  0.10100000352E+00 0.  1.
</event>
<event>
 5   0  0.1222679E-03  0.7001158E+03  0.7818609E-02  0.9717034E-01
       -2   -1    0    0    0  501  0.00000000000E+00  0.00000000000E+00  0.29136502203E+03  0.29136502204E+03  0.25500000920E-02 0.  1.
        2   -1    0    0  501    0  0.00000000000E+00  0.00000000000E+00 -0.42057392230E+03  0.42057392231E+03  0.25500000920E-02 0. -1.
    10030    2    1    2    0    0  0.00000000000E+00  0.00000000000E+00 -0.12920890027E+03  0.71193894435E+03  0.70011579083E+03 0.  0.
        2    1    3    3  502    0  0.10116740194E+03  0.24580186611E+03 -0.29623865980E+03  0.39800847248E+03  0.25500000920E-02 0. -1.
       -2    1    3    3    0  502 -0.10116740194E+03 -0.24580186611E+03  0.16702975952E+03  0.31393047187E+03  0.25500000920E-02 0.  1.
</event>
<event>
 5   0  0.1265562E-03  0.7002946E+03  0.7818609E-02  0.9716728E-01
       -2   -1    0    0    0  501  0.00000000000E+00  0.00000000000E+00  0.24636631615E+03  0.24636631616E+03  0.25500000920E-02 0.  1.
        2   -1    0    0  501    0  0.00000000000E+00  0.00000000000E+00 -0.49764570441E+03  0.49764570442E+03  0.25500000920E-02 0. -1.
    10030    2    1    2    0    0  0.00000000000E+00  0.00000000000E+00 -0.25127938826E+03  0.74401202058E+03  0.70029462072E+03 0.  0.
        1    1    3    3  502    0  0.26232672271E+03  0.75315524931E+02  0.10740607214E+03  0.29329814541E+03  0.50400001928E-02 0.  1.
       -1    1    3    3    0  502 -0.26232672271E+03 -0.75315524931E+02 -0.35868546040E+03  0.45071387517E+03  0.50400001928E-02 0. -1.
</event>
<event>
 5   0  0.4936000E-04  0.6999225E+03  0.7818609E-02  0.9717365E-01
       -3   -1    0    0    0  501  0.00000000000E+00  0.00000000000E+00  0.31157165490E+03  0.31157167127E+03  0.10100000352E+00 0. -1.
        3   -1    0    0  501    0  0.00000000000E+00  0.00000000000E+00 -0.39308094828E+03  0.39308096125E+03  0.10100000352E+00 0.  1.
    10030    2    1    2    0    0  0.00000000000E+00  0.00000000000E+00 -0.81509293376E+02  0.70465263252E+03  0.69992254401E+03 0.  0.
        5    1    3    3  502    0 -0.22709585274E+03  0.10122111286E+03  0.20714622624E+03  0.32365087527E+03  0.46999998093E+01 0. -1.
       -5    1    3    3    0  502  0.22709585274E+03 -0.10122111286E+03 -0.28865551962E+03  0.38100175725E+03  0.46999998093E+01 0.  1.
</event>
<event>
 5   0  0.7572415E-04  0.7006714E+03  0.7818609E-02  0.9716085E-01
        1   -1    0    0  501    0  0.00000000000E+00  0.00000000000E+00  0.83781801952E+03  0.83781801953E+03  0.50400001928E-02 0.  1.
       -1   -1    0    0    0  501  0.00000000000E+00  0.00000000000E+00 -0.14649374736E+03  0.14649374745E+03  0.50400001928E-02 0. -1.
    10030    2    1    2    0    0  0.00000000000E+00  0.00000000000E+00  0.69132427216E+03  0.98431176698E+03  0.70067139612E+03 0.  0.
        4    1    3    3  502    0  0.13303933586E+03  0.32006382529E+03  0.41719965778E+03  0.54239974603E+03  0.12699999809E+01 0.  1.
       -4    1    3    3    0  502 -0.13303933586E+03 -0.32006382529E+03  0.27412461438E+03  0.44191202095E+03  0.12699999809E+01 0. -1.
</event>
<event>
 5   0  0.1265562E-03  0.6998570E+03  0.7818609E-02  0.9717477E-01
        2   -1    0    0  501    0  0.00000000000E+00  0.00000000000E+00  0.67281968532E+03  0.67281968533E+03  0.25500000920E-02 0. -1.
       -2   -1    0    0    0  501  0.00000000000E+00  0.00000000000E+00 -0.18199518421E+03  0.18199518423E+03  0.25500000920E-02 0.  1.
    10030    2    1    2    0    0  0.00000000000E+00  0.00000000000E+00  0.49082450111E+03  0.85481486956E+03  0.69985696419E+03 0.  0.
        1    1    3    3  502    0  0.10091343857E+03  0.23530446907E+03 -0.45935820807E+02  0.26011884766E+03  0.50400001928E-02 0.  1.
       -1    1    3    3    0  502 -0.10091343857E+03 -0.23530446907E+03  0.53676032192E+03  0.59469602190E+03  0.50400001928E-02 0. -1.
</event>
<event>
 5   0  0.4936000E-04  0.7007916E+03  0.7818609E-02  0.9715879E-01
       -4   -1    0    0    0  501  0.00000000000E+00  0.00000000000E+00  0.89721204160E+03  0.89721294044E+03  0.12699999809E+01 0.  1.
        4   -1    0    0  501    0  0.00000000000E+00  0.00000000000E+00 -0.13683910139E+03  0.13684499468E+03  0.12699999809E+01 0. -1.
    10030    2    1    2    0    0  0.00000000000E+00  0.00000000000E+00  0.76037294021E+03  0.10340579351E+04  0.70079155600E+03 0.  0.
        3    1    3    3  502    0 -0.78888454706E+02 -0.16223399896E+03  0.82342851863E+03  0.84295776537E+03  0.10100000352E+00 0.  1.
       -3    1    3    3    0  502  0.78888454706E+02  0.16223399896E+03 -0.63055578419E+02  0.19110016974E+03  0.10100000352E+00 0. -1.
</event>
<event>
 5   0  0.1243087E-03  0.6994308E+03  0.7818609E-02  0.9718206E-01
       -2   -1    0    0    0  501  0.00000000000E+00  0.00000000000E+00  0.25628117447E+03  0.25628117448E+03  0.25500000920E-02 0.  1.
        2   -1    0    0  501    0  0.00000000000E+00  0.00000000000E+00 -0.47721365954E+03  0.47721365955E+03  0.25500000920E-02 0. -1.
    10030    2    1    2    0    0  0.00000000000E+00  0.00000000000E+00 -0.22093248507E+03  0.73349483403E+03  0.69943084618E+03 0.  0.
        4    1    3    3  502    0 -0.11480626705E+03 -0.31152597793E+03  0.47496043051E+01  0.33204380060E+03  0.12699999809E+01 0.  1.
       -4    1    3    3    0  502  0.11480626705E+03  0.31152597793E+03 -0.22568208938E+03  0.40145103343E+03  0.12699999809E+01 0. -1.
</event>
<event>
 5   0  0.1224048E-03  0.6999935E+03  0.7818609E-02  0.9717243E-01
       -2   -1    0    0    0  501  0.00000000000E+00  0.00000000000E+00  0.91507621831E+03  0.91507621831E+03  0.25500000920E-02 0.  1.
        2   -1    0    0  501    0  0.00000000000E+00  0.00000000000E+00 -0.13386613506E+03  0.13386613509E+03  0.25500000920E-02 0. -1.
    10030    2    1    2    0    0  0.00000000000E+00  0.00000000000E+00  0.78121008324E+03  0.10489423534E+04  0.69999347611E+03 0.  0.
        3    1    3    3  502    0  0.26228439755E+03 -0.15813731496E+03  0.13675495142E+03  0.33541383770E+03  0.10100000352E+00 0. -1.
       -3    1    3    3    0  502 -0.26228439755E+03  0.15813731496E+03  0.64445513182E+03  0.71352851570E+03  0.10100000352E+00 0.  1.
</event>
<event>
 5   0  0.7459843E-04  0.6995607E+03  0.7818609E-02  0.9717984E-01
        1   -1    0    0  501    0  0.00000000000E+00  0.00000000000E+00  0.62828064767E+03  0.62828064769E+03  0.50400001928E-02 0.  1.
       -1   -1    0    0    0  501  0.00000000000E+00  0.00000000000E+00 -0.19473194020E+03  0.19473194026E+03  0.50400001928E-02 0. -1.
    10030    2    1    2    0    0  0.00000000000E+00  0.00000000000E+00  0.43354870747E+03  0.82301258795E+03  0.69956074659E+03 0.  0.
        2    1    3    3  502    0 -0.71229006917E+02 -0.29852980589E+03  0.41417156744E+03  0.51549171062E+03  0.25500000920E-02 0.  1.
       -2    1    3    3    0  502  0.71229006917E+02  0.29852980589E+03  0.19377140028E+02  0.30752087733E+03  0.25500000920E-02 0. -1.
</event>
<event>
 5   0  0.7572415E-04  0.6999020E+03  0.7818609E-02  0.9717400E-01
       -1   -1    0    0    0  501  0.00000000000E+00  0.00000000000E+00  0.32651406750E+03  0.32651406754E+03  0.50400001928E-02 0. -1.
        1   -1    0    0  501    0  0.00000000000E+00  0.00000000000E+00 -0.37507021473E+03  0.37507021476E+03  0.50400001928E-02 0.  1.
    10030    2    1    2    0    0  0.00000000000E+00  0.00000000000E+00 -0.48556147231E+02  0.70158428230E+03  0.69990199724E+03 0.  0.
        4    1    3    3  502    0  0.75409089469E+02  0.13658448856E+03  0.28971953069E+03  0.32906059116E+03  0.12699999809E+01 0. -1.
       -4    1    3    3    0  502 -0.75409089469E+02 -0.13658448856E+03 -0.33827567792E+03  0.37252369114E+03  0.12699999809E+01 0.  1.
</event>
<event>
 5   0  0.7574241E-04  0.7000625E+03  0.7818609E-02  0.9717125E-01
       -1   -1    0    0    0  501  0.00000000000E+00  0.00000000000E+00  0.55771404005E+03  0.55771404007E+03  0.50400001928E-02 0. -1.
        1   -1    0    0  501    0  0.00000000000E+00  0.00000000000E+00 -0.21968586839E+03  0.21968586844E+03  0.50400001928E-02 0.  1.
    10030    2    1    2    0    0  0.00000000000E+00  0.00000000000E+00  0.33802817167E+03  0.77739990852E+03  0.70006254929E+03 0.  0.
        3    1    3    3  502    0 -0.30019673682E+03 -0.67293431871E+02  0.35441768681E+03  0.46931694376E+03  0.10100000352E+00 0. -1.
       -3    1    3    3    0  502  0.30019673682E+03  0.67293431871E+02 -0.16389515148E+02  0.30808296476E+03  0.10100000352E+00 0.  1.
</event>
<event>
 5   0  0.7574241E-04  0.6998423E+03  0.7818609E-02  0.9717502E-01
        1   -1    0    0  501    0  0.00000000000E+00  0.00000000000E+00  0.10320453210E+04  0.10320453210E+04  0.50400001928E-02 0. -1.
       -1   -1    0    0    0  501  0.00000000000E+00  0.00000000000E+00 -0.11864286226E+03  0.11864286237E+03  0.50400001928E-02 0.  1.
    10030    2    1    2    0    0  0.00000000000E+00  0.00000000000E+00  0.91340245876E+03  0.11506881834E+04  0.69984229919E+03 0.  0.
        3    1    3    3  502    0 -0.51812363761E+02 -0.28942160645E+03  0.76864839796E+03  0.82296400723E+03  0.10100000352E+00 0. -1.
       -3    1    3    3    0  502  0.51812363761E+02  0.28942160645E+03  0.14475406081E+03  0.32772417616E+03  0.10100000352E+00 0.  1.
</event>
<event>
 5   0  0.1224048E-03  0.7002817E+03  0.7818609E-02  0.9716751E-01
       -2   -1    0    0    0  501  0.00000000000E+00  0.00000000000E+00  0.12769713804E+03  0.12769713807E+03  0.25500000920E-02 0.  1.
        2   -1    0    0  501    0  0.00000000000E+00  0.00000000000E+00 -0.96007320841E+03  0.96007320842E+03  0.25500000920E-02 0. -1.
    10030    2    1    2    0    0  0.00000000000E+00  0.00000000000E+00 -0.83237607037E+03  0.10877703465E+04  0.70028166059E+03 0.  0.
        3    1    3    3  502    0 -0.15687191104E+03 -0.27165066304E+03 -0.17456759986E+03  0.35899406168E+03  0.10100000352E+00 0.  1.
       -3    1    3    3    0  502  0.15687191104E+03  0.27165066304E+03 -0.65780847051E+03  0.72877628480E+03  0.10100000352E+00 0. -1.
</event>
<event>
 5   0  0.1282546E-03  0.7006241E+03  0.7818609E-02  0.9716166E-01
        2   -1    0    0  501    0  0.00000000000E+00  0.00000000000E+00  0.29464120554E+03  0.29464120555E+03  0.25500000920E-02 0. -1.
       -2   -1    0    0    0  501  0.00000000000E+00  0.00000000000E+00 -0.41650155463E+03  0.41650155464E+03  0.25500000920E-02 0.  1.
    10030    2    1    2    0    0  0.00000000000E+00  0.00000000000E+00 -0.12186034910E+03  0.71114276019E+03  0.70062406516E+03 0.  0.
        5    1    3    3  502    0 -0.17293637114E+03  0.23067999192E+03  0.14099417639E+03  0.32096992836E+03  0.46999998093E+01 0. -1.
       -5    1    3    3    0  502  0.17293637114E+03 -0.23067999192E+03 -0.26285452548E+03  0.39017283183E+03  0.46999998093E+01 0.  1.
</event>
<event>
 5   0  0.1222679E-03  0.6999656E+03  0.7818609E-02  0.9717291E-01
        2   -1    0    0  501    0  0.00000000000E+00  0.00000000000E+00  0.24074361650E+03  0.24074361651E+03  0.25500000920E-02 0. -1.
       -2   -1    0    0    0  501  0.00000000000E+00  0.00000000000E+00 -0.50879007182E+03  0.50879007182E+03  0.25500000920E-02 0.  1.
    10030    2    1    2    0    0  0.00000000000E+00  0.00000000000E+00 -0.26804645532E+03  0.74953368834E+03  0.69996560468E+03 0.  0.
        2    1    3    3  502    0 -0.71011780062E+02 -0.34269247962E+03 -0.13688721843E+03  0.37579105774E+03  0.25500000920E-02 0.  1.
       -2    1    3    3    0  502  0.71011780062E+02  0.34269247962E+03 -0.13115923689E+03  0.37374263060E+03  0.25500000920E-02 0. -1.
</event>
<event>
 5   0  0.7013526E-04  0.6998105E+03  0.7818609E-02  0.9717556E-01
       -1   -1    0    0    0  501  0.00000000000E+00  0.00000000000E+00  0.35118021517E+03  0.35118021520E+03  0.50400001928E-02 0. -1.
        1   -1    0    0  501    0  0.00000000000E+00  0.00000000000E+00 -0.34863489348E+03  0.34863489352E+03  0.50400001928E-02 0.  1.
    10030    2    1    2    0    0  0.00000000000E+00  0.00000000000E+00  0.25453216868E+01  0.69981510872E+03  0.69981047987E+03 0.  0.
        1    1    3    3  502    0 -0.24310318651E+03 -0.21508258847E+03  0.13194103354E+03  0.35038281281E+03  0.50400001928E-02 0. -1.
       -1    1    3    3    0  502  0.24310318651E+03  0.21508258847E+03 -0.12939571185E+03  0.34943229591E+03  0.50400001928E-02 0.  1.
</event>
<event>
 5   0  0.1222679E-03  0.7001272E+03  0.7818609E-02  0.9717015E-01
        2   -1    0    0  501    0  0.00000000000E+00  0.00000000000E+00  0.30674699177E+03  0.30674699178E+03  0.25500000920E-02 0. -1.
       -2   -1    0    0    0  501  0.00000000000E+00  0.00000000000E+00 -0.39949709571E+03  0.39949709571E+03  0.25500000920E-02 0.  1.
    10030    2    1    2    0    0  0.00000000000E+00  0.00000000000E+00 -0.92750103933E+02  0.70624408750E+03  0.70012722369E+03 0.  0.
        2    1    3    3  502    0  0.30925094891E+03 -0.97522653895E+02  0.86677731649E+02  0.33564839728E+03  0.25500000920E-02 0. -1.
       -2    1    3    3    0  502 -0.30925094891E+03  0.97522653895E+02 -0.17942783558E+03  0.37059569022E+03  0.25500000920E-02 0.  1.
</event>
<event>
 5   0  0.7013526E-04  0.6998904E+03  0.7818609E-02  0.9717420E-01
       -1   -1    0    0    0  501  0.00000000000E+00  0.00000000000E+00  0.11739606615E+03  0.11739606626E+03  0.50400001928E-02 0. -1.
        1   -1    0    0  501    0  0.00000000000E+00  0.00000000000E+00 -0.10431495491E+04  0.10431495491E+04  0.50400001928E-02 0.  1.
    10030    2    1    2    0    0  0.00000000000E+00  0.00000000000E+00 -0.92575348290E+03  0.11605456153E+04  0.69989043010E+03 0.  0.
        1    1    3    3  502    0 -0.11783972319E+03  0.15417379886E+03 -0.94576336522E+03  0.96546574441E+03  0.50400001928E-02 0.  1.
       -1    1    3    3    0  502  0.11783972319E+03 -0.15417379886E+03  0.20009882322E+02  0.19507987091E+03  0.50400001928E-02 0. -1.
</event>
<event>
 5   0  0.7570633E-04  0.6998143E+03  0.7818609E-02  0.9717550E-01
       -1   -1    0    0    0  501  0.00000000000E+00  0.00000000000E+00  0.17434502431E+04  0.17434502431E+04  0.50400001928E-02 0. -1.
        1   -1    0    0  501    0  0.00000000000E+00  0.00000000000E+00 -0.70225692815E+02  0.70225692995E+02  0.50400001928E-02 0.  1.
    10030    2    1    2    0    0  0.00000000000E+00  0.00000000000E+00  0.16732245503E+04  0.18136759361E+04  0.69981426501E+03 0.  0.
        5    1    3    3  502    0 -0.16155364655E+03 -0.64626793515E+02  0.49941084155E+02  0.18108673347E+03  0.46999998093E+01 0.  1.
       -5    1    3    3    0  502  0.16155364655E+03  0.64626793515E+02  0.16232834661E+04  0.16325892026E+04  0.46999998093E+01 0. -1.
</event>
<event>
 5   0  0.1243087E-03  0.6997165E+03  0.7818609E-02  0.9717717E-01
       -2   -1    0    0    0  501  0.00000000000E+00  0.00000000000E+00  0.13096617965E+03  0.13096617968E+03  0.25500000920E-02 0.  1.
        2   -1    0    0  501    0  0.00000000000E+00  0.00000000000E+00 -0.93459844877E+03  0.93459844877E+03  0.25500000920E-02 0. -1.
    10030    2    1    2    0    0  0.00000000000E+00  0.00000000000E+00 -0.80363226912E+03  0.10655646284E+04  0.69971648075E+03 0.  0.
        4    1    3    3  502    0  0.11903360466E+03  0.31773271147E+03 -0.27191676708E+03  0.43481423171E+03  0.12699999809E+01 0. -1.
       -4    1    3    3    0  502 -0.11903360466E+03 -0.31773271147E+03 -0.53171550204E+03  0.63075039674E+03  0.12699999809E+01 0.  1.
</event>
<event>
 5   0  0.7013526E-04  0.6996804E+03  0.7818609E-02  0.9717779E-01
        1   -1    0    0  501    0  0.00000000000E+00  0.00000000000E+00  0.68589583059E+03  0.68589583061E+03  0.50400001928E-02 0. -1.
       -1   -1    0    0    0  501  0.00000000000E+00  0.00000000000E+00 -0.17843551826E+03  0.17843551833E+03  0.50400001928E-02 0.  1.
    10030    2    1    2    0    0  0.00000000000E+00  0.00000000000E+00  0.50746031233E+03  0.86433134894E+03  0.69968043575E+03 0.  0.
        1    1    3    3  502    0  0.39417438599E+02 -0.14637047039E+03 -0.13575943241E+03  0.20349121008E+03  0.50400001928E-02 0.  1.
       -1    1    3    3    0  502 -0.39417438599E+02  0.14637047039E+03  0.64321974474E+03  0.66084013885E+03  0.50400001928E-02 0. -1.
</event>
<event>
 5   0  0.7570633E-04  0.6999027E+03  0.7818609E-02  0.9717399E-01
       -1   -1    0    0    0  501  0.00000000000E+00  0.00000000000E+00  0.21674102853E+03  0.21674102858E+03  0.50400001928E-02 0. -1.
        1   -1    0    0  501    0  0.00000000000E+00  0.00000000000E+00 -0.56503351375E+03  0.56503351377E+03  0.50400001928E-02 0.  1.
    10030    2    1    2    0    0  0.00000000000E+00  0.00000000000E+00 -0.34829248522E+03  0.78177454236E+03  0.69990269310E+03 0.  0.
        5    1    3    3  502    0  0.17507537866E+02  0.28122875583E+03 -0.40589583379E+03  0.49413524958E+03  0.46999998093E+01 0.  1.
       -5    1    3    3    0  502 -0.17507537866E+02 -0.28122875583E+03  0.57603348565E+02  0.28763929278E+03  0.46999998093E+01 0. -1.
</event>
<event>
 5   0  0.7013526E-04  0.6993188E+03  0.7818609E-02  0.9718398E-01
        1   -1    0    0  501    0  0.00000000000E+00  0.00000000000E+00  0.17485659425E+04  0.17485659425E+04  0.50400001928E-02 0. -1.
       -1   -1    0    0    0  501  0.00000000000E+00  0.00000000000E+00 -0.69921130168E+02  0.69921130350E+02  0.50400001928E-02 0.  1.
    10030    2    1    2    0    0  0.00000000000E+00  0.00000000000E+00  0.16786448123E+04  0.18184870729E+04  0.69931883157E+03 0.  0.
        1    1    3    3  502    0  0.18948342500E+02 -0.29008345445E+02  0.17440908646E+04  0.17444349995E+04  0.50400001928E-02 0. -1.
       -1    1    3    3    0  502 -0.18948342500E+02  0.29008345445E+02 -0.65446052208E+02  0.74052073327E+02  0.50400001928E-02 0.  1.
</event>
<event>
 5   0  0.7459843E-04  0.7000653E+03  0.7818609E-02  0.9717120E-01
        1   -1    0    0  501    0  0.00000000000E+00  0.00000000000E+00  0.84265084257E+03  0.84265084259E+03  0.50400001928E-02 0.  1.
       -1   -1    0    0    0  501  0.00000000000E+00  0.00000000000E+00 -0.14540170124E+03  0.14540170133E+03  0.50400001928E-02 0. -1.
    10030    2    1    2    0    0  0.00000000000E+00  0.00000000000E+00  0.69724914134E+03  0.98805254391E+03  0.70006532869E+03 0.  0.
        2    1    3    3  502    0 -0.25145221181E+03  0.42159471179E+02  0.68711037024E+03  0.73288900710E+03  0.25500000920E-02 0.  1.
       -2    1    3    3    0  502  0.25145221181E+03 -0.42159471179E+02  0.10138771099E+02  0.25516353681E+03  0.25500000920E-02 0. -1.
</event>
<event>
 5   0  0.7459843E-04  0.6995448E+03  0.7818609E-02  0.9718011E-01
        1   -1    0    0  501    0  0.00000000000E+00  0.00000000000E+00  0.75711122875E+03  0.75711122877E+03  0.50400001928E-02 0. -1.
       -1   -1    0    0    0  501  0.00000000000E+00  0.00000000000E+00 -0.16158885137E+03  0.16158885145E+03  0.50400001928E-02 0.  1.
    10030    2    1    2    0    0  0.00000000000E+00  0.00000000000E+00  0.59552237738E+03  0.91870008022E+03  0.69954480588E+03 0.  0.
        2    1    3    3  502    0  0.23530586438E+03 -0.82074242975E+02  0.62007967029E+03  0.66828424243E+03  0.25500000920E-02 0. -1.
       -2    1    3    3    0  502 -0.23530586438E+03  0.82074242975E+02 -0.24557292908E+02  0.25041583778E+03  0.25500000920E-02 0.  1.
</event>
<event>
 5   0  0.4936000E-04  0.7000917E+03  0.7818609E-02  0.9717075E-01
       -3   -1    0    0    0  501  0.00000000000E+00  0.00000000000E+00  0.57156830106E+03  0.57156830998E+03  0.10100000352E+00 0. -1.
        3   -1    0    0  501    0  0.00000000000E+00  0.00000000000E+00 -0.21437872631E+03  0.21437875010E+03  0.10100000352E+00 0.  1.
    10030    2    1    2    0    0  0.00000000000E+00  0.00000000000E+00  0.35718957475E+03  0.78594706008E+03  0.70009170038E+03 0.  0.
        5    1    3    3  502    0  0.53212735814E+02 -0.78289895595E+02  0.55688945614E+03  0.56489721133E+03  0.46999998093E+01 0. -1.
       -5    1    3    3    0  502 -0.53212735814E+02  0.78289895595E+02 -0.19969988140E+03  0.22104984875E+03  0.46999998093E+01 0.  1.
</event>
<event>
 5   0  0.7570633E-04  0.7007455E+03  0.7818609E-02  0.9715958E-01
       -1   -1    0    0    0  501  0.00000000000E+00  0.00000000000E+00  0.10924091646E+04  0.10924091646E+04  0.50400001928E-02 0. -1.
        1   -1    0    0  501    0  0.00000000000E+00  0.00000000000E+00 -0.11237646515E+03  0.11237646526E+03  0.50400001928E-02 0.  1.
    10030    2    1    2    0    0  0.00000000000E+00  0.00000000000E+00  0.98003269943E+03  0.12047856299E+04  0.70074554723E+03 0.  0.
        5    1    3    3  502    0  0.12244171253E+03  0.93205204465E+02 -0.51109363988E+02  0.16221418000E+03  0.46999998093E+01 0.  1.
       -5    1    3    3    0  502 -0.12244171253E+03 -0.93205204465E+02  0.10311420634E+04  0.10425714499E+04  0.46999998093E+01 0. -1.
</event>
<event>
 5   0  0.1265562E-03  0.6988203E+03  0.7818609E-02  0.9719252E-01
        2   -1    0    0  501    0  0.00000000000E+00  0.00000000000E+00  0.12301648266E+03  0.12301648269E+03  0.25500000920E-02 0. -1.
       -2   -1    0    0    0  501  0.00000000000E+00  0.00000000000E+00 -0.99244781563E+03  0.99244781563E+03  0.25500000920E-02 0.  1.
    10030    2    1    2    0    0  0.00000000000E+00  0.00000000000E+00 -0.86943133297E+03  0.11154642983E+04  0.69882026164E+03 0.  0.
        1    1    3    3  502    0 -0.11267337984E+03 -0.18603479620E+02 -0.96181828608E+03  0.96857410426E+03  0.50400001928E-02 0.  1.
       -1    1    3    3    0  502  0.11267337984E+03  0.18603479620E+02  0.92386953117E+02  0.14689019406E+03  0.50400001928E-02 0. -1.
</event>
<event>
 5   0  0.7459843E-04  0.6999724E+03  0.7818609E-02  0.9717279E-01
        1   -1    0    0  501    0  0.00000000000E+00  0.00000000000E+00  0.15363640178E+04  0.15363640178E+04  0.50400001928E-02 0.  1.
       -1   -1    0    0    0  501  0.00000000000E+00  0.00000000000E+00 -0.79727424931E+02  0.79727425091E+02  0.50400001928E-02 0. -1.
    10030    2    1    2    0    0  0.00000000000E+00  0.00000000000E+00  0.14566365929E+04  0.16160914429E+04  0.69997241955E+03 0.  0.
        2    1    3    3  502    0  0.19732774306E+01  0.23242632913E+02 -0.77930719393E+02  0.81346855133E+02  0.25500000920E-02 0. -1.
       -2    1    3    3    0  502 -0.19732774306E+01 -0.23242632913E+02  0.15345673123E+04  0.15347445878E+04  0.25500000920E-02 0.  1.
</event>
<event>
 5   0  0.1224048E-03  0.6998775E+03  0.7818609E-02  0.9717442E-01
       -2   -1    0    0    0  501  0.00000000000E+00  0.00000000000E+00  0.39809532457E+03  0.39809532458E+03  0.25500000920E-02 0. -1.
        2   -1    0    0  501    0  0.00000000000E+00  0.00000000000E+00 -0.30760756202E+03  0.30760756203E+03  0.25500000920E-02 0.  1.
    10030    2    1    2    0    0  0.00000000000E+00  0.00000000000E+00  0.90487762552E+02  0.70570288661E+03  0.69987751000E+03 0.  0.
        3    1    3    3  502    0 -0.79199477202E+02 -0.33011191440E+02  0.38732393866E+03  0.39671417873E+03  0.10100000352E+00 0. -1.
       -3    1    3    3    0  502  0.79199477202E+02  0.33011191440E+02 -0.29683617611E+03  0.30898870788E+03  0.10100000352E+00 0.  1.
</event>
<event>
 5   0  0.7572415E-04  0.7004479E+03  0.7818609E-02  0.9716467E-01
        1   -1    0    0  501    0  0.00000000000E+00  0.00000000000E+00  0.50957953426E+03  0.50957953428E+03  0.50400001928E-02 0. -1.
       -1   -1    0    0    0  501  0.00000000000E+00  0.00000000000E+00 -0.24070197652E+03  0.24070197658E+03  0.50400001928E-02 0.  1.
    10030    2    1    2    0    0  0.00000000000E+00  0.00000000000E+00  0.26887755774E+03  0.75028151086E+03  0.70044785993E+03 0.  0.
        4    1    3    3  502    0  0.11796480094E+03 -0.32039764836E+03  0.50883663223E+02  0.34519720077E+03  0.12699999809E+01 0. -1.
       -4    1    3    3    0  502 -0.11796480094E+03  0.32039764836E+03  0.21799389451E+03  0.40508431009E+03  0.12699999809E+01 0.  1.
</event>
<event>
 5   0  0.1265562E-03  0.7002685E+03  0.7818609E-02  0.9716773E-01
        2   -1    0    0  501    0  0.00000000000E+00  0.00000000000E+00  0.10666677967E+04  0.10666677967E+04  0.25500000920E-02 0. -1.
       -2   -1    0    0    0  501  0.00000000000E+00  0.00000000000E+00 -0.11493173135E+03  0.11493173138E+03  0.25500000920E-02 0.  1.
    10030    2    1    2    0    0  0.00000000000E+00  0.00000000000E+00  0.95173606538E+03  0.11815995281E+04  0.70026845330E+03 0.  0.
        1    1    3    3  502    0  0.24128855441E+03  0.13706644990E+03  0.83613491450E+03  0.88098182357E+03  0.50400001928E-02 0. -1.
       -1    1    3    3    0  502 -0.24128855441E+03 -0.13706644990E+03  0.11560115088E+03  0.30061770455E+03  0.50400001928E-02 0.  1.
</event>
<event>
 5   0  0.7013526E-04  0.7001093E+03  0.7818609E-02  0.9717045E-01
        1   -1    0    0  501    0  0.00000000000E+00  0.00000000000E+00  0.45442457386E+03  0.45442457389E+03  0.50400001928E-02 0. -1.
       -1   -1    0    0    0  501  0.00000000000E+00  0.00000000000E+00 -0.26965587328E+03  0.26965587333E+03  0.50400001928E-02 0.  1.
    10030    2    1    2    0    0  0.00000000000E+00  0.00000000000E+00  0.18476870059E+03  0.72408044722E+03  0.70010929242E+03 0.  0.
        1    1    3    3  502    0 -0.29535044703E+03  0.31919058779E+02  0.28389333646E+03  0.41090891860E+03  0.50400001928E-02 0.  1.
       -1    1    3    3    0  502  0.29535044703E+03 -0.31919058779E+02 -0.99124635870E+02  0.31317152862E+03  0.50400001928E-02 0. -1.
</event>
<event>
 5   0  0.1243087E-03  0.6998227E+03  0.7818609E-02  0.9717535E-01
        2   -1    0    0  501    0  0.00000000000E+00  0.00000000000E+00  0.61360975099E+03  0.61360975100E+03  0.25500000920E-02 0. -1.
       -2   -1    0    0    0  501  0.00000000000E+00  0.00000000000E+00 -0.19953719084E+03  0.19953719085E+03  0.25500000920E-02 0.  1.
    10030    2    1    2    0    0  0.00000000000E+00  0.00000000000E+00  0.41407256016E+03  0.81314694185E+03  0.69982273753E+03 0.  0.
        4    1    3    3  502    0  0.25829014477E+03 -0.49564492327E+01  0.48125729707E+03  0.54621292932E+03  0.12699999809E+01 0. -1.
       -4    1    3    3    0  502 -0.25829014477E+03  0.49564492327E+01 -0.67184736907E+02  0.26693401254E+03  0.12699999809E+01 0.  1.
</event>
<event>
 5   0  0.4936000E-04  0.7008918E+03  0.7818609E-02  0.9715708E-01
       -3   -1    0    0    0  501  0.00000000000E+00  0.00000000000E+00  0.13013689284E+03  0.13013693203E+03  0.10100000352E+00 0.  1.
        3   -1    0    0  501    0  0.00000000000E+00  0.00000000000E+00 -0.94371617453E+03  0.94371617994E+03  0.10100000352E+00 0. -1.
    10030    2    1    2    0    0  0.00000000000E+00  0.00000000000E+00 -0.81357928169E+03  0.10738531120E+04  0.70089175947E+03 0.  0.
        2    1    3    3  502    0 -0.14881184736E+03  0.54090016830E+02 -0.88578762957E+03  0.89982799498E+03  0.25500000920E-02 0. -1.
       -2    1    3    3    0  502  0.14881184736E+03 -0.54090016830E+02  0.72208347879E+02  0.17402511700E+03  0.25500000920E-02 0.  1.
</event>
<event>
 5   0  0.1243087E-03  0.7000572E+03  0.7818609E-02  0.9717134E-01
        2   -1    0    0  501    0  0.00000000000E+00  0.00000000000E+00  0.64286173571E+03  0.64286173572E+03  0.25500000920E-02 0. -1.
       -2   -1    0    0    0  501  0.00000000000E+00  0.00000000000E+00 -0.19058531849E+03  0.19058531851E+03  0.25500000920E-02 0.  1.
    10030    2    1    2    0    0  0.00000000000E+00  0.00000000000E+00  0.45227641722E+03  0.83344705423E+03  0.70005716526E+03 0.  0.
        4    1    3    3  502    0 -0.28329270590E+03 -0.19449230532E+03  0.30543561156E+03  0.45975486920E+03  0.12699999809E+01 0. -1.
       -4    1    3    3    0  502  0.28329270590E+03  0.19449230532E+03  0.14684080566E+03  0.37369218503E+03  0.12699999809E+01 0.  1.
</event>
<event>
 5   0  0.1282546E-03  0.6998086E+03  0.7818609E-02  0.9717560E-01
       -2   -1    0    0    0  501  0.00000000000E+00  0.00000000000E+00  0.12779976133E+03  0.12779976136E+03  0.25500000920E-02 0.  1.
        2   -1    0    0  501    0  0.00000000000E+00  0.00000000000E+00 -0.95800666123E+03  0.95800666123E+03  0.25500000920E-02 0. -1.
    10030    2    1    2    0    0  0.00000000000E+00  0.00000000000E+00 -0.83020689990E+03  0.10858064226E+04  0.69980861005E+03 0.  0.
        5    1    3    3  502    0  0.31370072073E+03  0.13704465218E+03 -0.30298605373E+03  0.45717832148E+03  0.46999998093E+01 0.  1.
       -5    1    3    3    0  502 -0.31370072073E+03 -0.13704465218E+03 -0.52722084617E+03  0.62862810111E+03  0.46999998093E+01 0. -1.
</event>
<event>
 5   0  0.1222679E-03  0.6999985E+03  0.7818609E-02  0.9717235E-01
       -2   -1    0    0    0  501  0.00000000000E+00  0.00000000000E+00  0.14051041836E+03  0.14051041838E+03  0.25500000920E-02 0.  1.
        2   -1    0    0  501    0  0.00000000000E+00  0.00000000000E+00 -0.87181780474E+03  0.87181780474E+03  0.25500000920E-02 0. -1.
    10030    2    1    2    0    0  0.00000000000E+00  0.00000000000E+00 -0.73130738638E+03  0.10123282231E+04  0.69999852710E+03 0.  0.
        2    1    3    3  502    0  0.44745172459E+02  0.16074933092E+03 -0.81059282387E+03  0.82758878918E+03  0.25500000920E-02 0. -1.
       -2    1    3    3    0  502 -0.44745172459E+02 -0.16074933092E+03  0.79285437492E+02  0.18473943394E+03  0.25500000920E-02 0.  1.
</event>
<event>
 5   0  0.1224048E-03  0.6998199E+03  0.7818609E-02  0.9717540E-01
        2   -1    0    0  501    0  0.00000000000E+00  0.00000000000E+00  0.65958414573E+03  0.65958414574E+03  0.25500000920E-02 0. -1.
       -2   -1    0    0    0  501  0.00000000000E+00  0.00000000000E+00 -0.18562754121E+03  0.18562754122E+03  0.25500000920E-02 0.  1.
    10030    2    1    2    0    0  0.00000000000E+00  0.00000000000E+00  0.47395660453E+03  0.84521168696E+03  0.69981992884E+03 0.  0.
        3    1    3    3  502    0 -0.29773818538E+03  0.17976277461E+03  0.28335189784E+03  0.44861006495E+03  0.10100000352E+00 0. -1.
       -3    1    3    3    0  502  0.29773818538E+03 -0.17976277461E+03  0.19060470669E+03  0.39660162201E+03  0.10100000352E+00 0.  1.
</event>
<event>
 5   0  0.1224048E-03  0.7001140E+03  0.7818609E-02  0.9717037E-01
        2   -1    0    0  501    0  0.00000000000E+00  0.00000000000E+00  0.10741582533E+04  0.10741582533E+04  0.25500000920E-02 0.  1.
       -2   -1    0    0    0  501  0.00000000000E+00  0.00000000000E+00 -0.11407992910E+03  0.11407992912E+03  0.25500000920E-02 0. -1.
    10030    2    1    2    0    0  0.00000000000E+00  0.00000000000E+00  0.96007832422E+03  0.11882381824E+04  0.70011398327E+03 0.  0.
        3    1    3    3  502    0  0.31305018630E+03 -0.14416011396E+03  0.37600537741E+03  0.51006138027E+03  0.10100000352E+00 0. -1.
       -3    1    3    3    0  502 -0.31305018630E+03  0.14416011396E+03  0.58407294681E+03  0.67817680217E+03  0.10100000352E+00 0.  1.
</event>
<event>
 5   0  0.1222679E-03  0.6998836E+03  0.7818609E-02  0.9717431E-01
       -2   -1    0    0    0  501  0.00000000000E+00  0.00000000000E+00  0.34801527835E+03  0.34801527836E+03  0.25500000920E-02 0. -1.
        2   -1    0    0  501    0  0.00000000000E+00  0.00000000000E+00 -0.35187896044E+03  0.35187896045E+03  0.25500000920E-02 0.  1.
    10030    2    1    2    0    0  0.00000000000E+00  0.00000000000E+00 -0.38636820874E+01  0.69989423881E+03  0.69988357423E+03 0.  0.
        2    1    3    3  502    0 -0.24579914012E+03  0.38881090149E+02 -0.24796464902E+03  0.35130531397E+03  0.25500000920E-02 0.  1.
       -2    1    3    3    0  502  0.24579914012E+03 -0.38881090149E+02  0.24410096693E+03  0.34858892484E+03  0.25500000920E-02 0. -1.
</event>
<event>
 5   0  0.7570633E-04  0.7007874E+03  0.7818609E-02  0.9715887E-01
       -1   -1    0    0    0  501  0.00000000000E+00  0.00000000000E+00  0.99635987882E+02  0.99635988009E+02  0.50400001928E-02 0. -1.
        1   -1    0    0  501    0  0.00000000000E+00  0.00000000000E+00 -0.12322430312E+04  0.12322430312E+04  0.50400001928E-02 0.  1.
    10030    2    1    2    0    0  0.00000000000E+00  0.00000000000E+00 -0.11326070433E+04  0.13318790192E+04  0.70078741945E+03 0.  0.
        5    1    3    3  502    0  0.20266354238E+03  0.37343261973E+02 -0.11048213659E+04  0.11238858354E+04  0.46999998093E+01 0.  1.
       -5    1    3    3    0  502 -0.20266354238E+03 -0.37343261973E+02 -0.27785677440E+02  0.20799318377E+03  0.46999998093E+01 0. -1.
</event>
<event>
 5   0  0.4936000E-04  0.7003939E+03  0.7818609E-02  0.9716559E-01
       -4   -1    0    0    0  501  0.00000000000E+00  0.00000000000E+00  0.15600884951E+03  0.15601401868E+03  0.12699999809E+01 0. -1.
        4   -1    0    0  501    0  0.00000000000E+00  0.00000000000E+00 -0.78607707180E+03  0.78607809771E+03  0.12699999809E+01 0.  1.
    10030    2    1    2    0    0  0.00000000000E+00  0.00000000000E+00 -0.63006822228E+03  0.94209211640E+03  0.70039388279E+03 0.  0.
        2    1    3    3  502    0  0.28764396616E+03 -0.38734568320E+01 -0.58366102535E+03  0.65070288724E+03  0.25500000920E-02 0.  1.
       -2    1    3    3    0  502 -0.28764396616E+03  0.38734568320E+01 -0.46407196935E+02  0.29138922916E+03  0.25500000920E-02 0. -1.
</event>
<event>
 5   0  0.1224048E-03  0.7000174E+03  0.7818609E-02  0.9717203E-01
        2   -1    0    0  501    0  0.00000000000E+00  0.00000000000E+00  0.84922477418E+03  0.84922477418E+03  0.25500000920E-02 0.  1.
       -2   -1    0    0    0  501  0.00000000000E+00  0.00000000000E+00 -0.14425635789E+03  0.14425635791E+03  0.25500000920E-02 0. -1.
    10030    2    1    2    0    0  0.00000000000E+00  0.00000000000E+00  0.70496841629E+03  0.99348113209E+03  0.70001735112E+03 0.  0.
        3    1    3    3  502    0  0.14036210300E+03  0.13406474640E+03  0.76584434234E+03  0.79005850611E+03  0.10100000352E+00 0.  1.
       -3    1    3    3    0  502 -0.14036210300E+03 -0.13406474640E+03 -0.60875926052E+02  0.20342262598E+03  0.10100000352E+00 0. -1.
</event>
<event>
 5   0  0.7572415E-04  0.7003048E+03  0.7818609E-02  0.9716711E-01
        1   -1    0    0  501    0  0.00000000000E+00  0.00000000000E+00  0.16055787729E+04  0.16055787729E+04  0.50400001928E-02 0.  1.
       -1   -1    0    0    0  501  0.00000000000E+00  0.00000000000E+00 -0.76362942174E+02  0.76362942340E+02  0.50400001928E-02 0. -1.
    10030    2    1    2    0    0  0.00000000000E+00  0.00000000000E+00  0.15292158307E+04  0.16819417152E+04  0.70030484544E+03 0.  0.
        4    1    3    3  502    0  0.11463225365E+03  0.42278649133E+02 -0.23499515580E+02  0.12442619452E+03  0.12699999809E+01 0. -1.
       -4    1    3    3    0  502 -0.11463225365E+03 -0.42278649133E+02  0.15527153463E+04  0.15575155207E+04  0.12699999809E+01 0.  1.
</event>
<event>
 5   0  0.1265562E-03  0.6999838E+03  0.7818609E-02  0.9717260E-01
        2   -1    0    0  501    0  0.00000000000E+00  0.00000000000E+00  0.89673913080E+03  0.89673913080E+03  0.25500000920E-02 0.  1.
       -2   -1    0    0    0  501  0.00000000000E+00  0.00000000000E+00 -0.13659973204E+03  0.13659973207E+03  0.25500000920E-02 0. -1.
    10030    2    1    2    0    0  0.00000000000E+00  0.00000000000E+00  0.76013939876E+03  0.10333388629E+04  0.69998378551E+03 0.  0.
        1    1    3    3  502    0 -0.10802335408E+03 -0.69185395921E+01  0.87140774482E+03  0.87810498745E+03  0.50400001928E-02 0.  1.
       -1    1    3    3    0  502  0.10802335408E+03  0.69185395921E+01 -0.11126834607E+03  0.15523387542E+03  0.50400001928E-02 0. -1.
</event>
<event>
 5   0  0.1222679E-03  0.6999365E+03  0.7818609E-02  0.9717341E-01
       -2   -1    0    0    0  501  0.00000000000E+00  0.00000000000E+00  0.14838502205E+03  0.14838502207E+03  0.25500000920E-02 0.  1.
        2   -1    0    0  501    0  0.00000000000E+00  0.00000000000E+00 -0.82540527274E+03  0.82540527275E+03  0.25500000920E-02 0. -1.
    10030    2    1    2    0    0  0.00000000000E+00  0.00000000000E+00 -0.67702025069E+03  0.97379029482E+03  0.69993651028E+03 0.  0.
        2    1    3    3  502    0 -0.32938927139E+03  0.82087946461E+02 -0.22011392918E+03  0.40458109803E+03  0.25500000920E-02 0.  1.
       -2    1    3    3    0  502  0.32938927139E+03 -0.82087946461E+02 -0.45690632152E+03  0.56920919679E+03  0.25500000920E-02 0. -1.
</event>
<event>
 5   0  0.7459843E-04  0.7000263E+03  0.7818609E-02  0.9717187E-01
       -1   -1    0    0    0  501  0.00000000000E+00  0.00000000000E+00  0.10226599831E+03  0.10226599844E+03  0.50400001928E-02 0.  1.
        1   -1    0    0  501    0  0.00000000000E+00  0.00000000000E+00 -0.11979464780E+04  0.11979464780E+04  0.50400001928E-02 0. -1.
    10030    2    1    2    0    0  0.00000000000E+00  0.00000000000E+00 -0.10956804797E+04  0.13002124764E+04  0.70002626403E+03 0.  0.
        2    1    3    3  502    0 -0.19898710583E+02  0.33890978413E+03 -0.70602716068E+03  0.78340931325E+03  0.25500000920E-02 0.  1.
       -2    1    3    3    0  502  0.19898710583E+02 -0.33890978413E+03 -0.38965331900E+03  0.51680316319E+03  0.25500000920E-02 0. -1.
</event>
<event>
 5   0  0.1282546E-03  0.7001397E+03  0.7818609E-02  0.9716993E-01
        2   -1    0    0  501    0  0.00000000000E+00  0.00000000000E+00  0.69717992340E+02  0.69717992387E+02  0.25500000920E-02 0. -1.
       -2   -1    0    0    0  501  0.00000000000E+00  0.00000000000E+00 -0.17577801598E+04  0.17577801598E+04  0.25500000920E-02 0.  1.
    10030    2    1    2    0    0  0.00000000000E+00  0.00000000000E+00 -0.16880621674E+04  0.18274981522E+04  0.70013971109E+03 0.  0.
        5    1    3    3  502    0  0.67823160516E+02 -0.14987628529E+03 -0.37554254784E+02  0.16880549175E+03  0.46999998093E+01 0. -1.
       -5    1    3    3    0  502 -0.67823160516E+02  0.14987628529E+03 -0.16505079127E+04  0.16586926604E+04  0.46999998093E+01 0.  1.
</event>
<event>
 5   0  0.7574241E-04  0.6999112E+03  0.7818609E-02  0.9717384E-01
        1   -1    0    0  501    0  0.00000000000E+00  0.00000000000E+00  0.90058153384E+03  0.90058153385E+03  0.50400001928E-02 0.  1.
       -1   -1    0    0    0  501  0.00000000000E+00  0.00000000000E+00 -0.13598869565E+03  0.13598869574E+03  0.50400001928E-02 0. -1.
    10030    2    1    2    0    0  0.00000000000E+00  0.00000000000E+00  0.76459283819E+03  0.10365702296E+04  0.69991116056E+03 0.  0.
        3    1    3    3  502    0 -0.14438824345E+03 -0.31242219797E+03  0.47611887704E+03  0.58749024664E+03  0.10100000352E+00 0.  1.
       -3    1    3    3    0  502  0.14438824345E+03  0.31242219797E+03  0.28847396115E+03  0.44907998296E+03  0.10100000352E+00 0. -1.
</event>
<event>
 5   0  0.7574241E-04  0.7000548E+03  0.7818609E-02  0.9717138E-01
        1   -1    0    0  501    0  0.00000000000E+00  0.00000000000E+00  0.24019056065E+03  0.24019056070E+03  0.50400001928E-02 0. -1.
       -1   -1    0    0    0  501  0.00000000000E+00  0.00000000000E+00 -0.51009162705E+03  0.51009162708E+03  0.50400001928E-02 0.  1.
    10030    2    1    2    0    0  0.00000000000E+00  0.00000000000E+00 -0.26990106641E+03  0.75028218778E+03  0.70005483760E+03 0.  0.
        3    1    3    3  502    0  0.54414188066E+02 -0.21253756872E+03  0.15735588960E+03  0.26998890379E+03  0.10100000352E+00 0. -1.
       -3    1    3    3    0  502 -0.54414188066E+02  0.21253756872E+03 -0.42725695601E+03  0.48029328398E+03  0.10100000352E+00 0.  1.
</event>
<event>
 5   0  0.7572415E-04  0.7005359E+03  0.7818609E-02  0.9716316E-01
       -1   -1    0    0    0  501  0.00000000000E+00  0.00000000000E+00  0.11512289151E+03  0.11512289162E+03  0.50400001928E-02 0.  1.
        1   -1    0    0  501    0  0.00000000000E+00  0.00000000000E+00 -0.10657101773E+04  0.10657101773E+04  0.50400001928E-02 0. -1.
    10030    2    1    2    0    0  0.00000000000E+00  0.00000000000E+00 -0.95058728578E+03  0.11808330689E+04  0.70053590114E+03 0.  0.
        4    1    3    3  502    0  0.14158733869E+03  0.20371652853E+03 -0.58504932600E+02  0.25489574047E+03  0.12699999809E+01 0.  1.
       -4    1    3    3    0  502 -0.14158733869E+03 -0.20371652853E+03 -0.89208235318E+03  0.92593732846E+03  0.12699999809E+01 0. -1.
</event>
<event>
 5   0  0.1243087E-03  0.7002767E+03  0.7818609E-02  0.9716759E-01
       -2   -1    0    0    0  501  0.00000000000E+00  0.00000000000E+00  0.78514420131E+02  0.78514420172E+02  0.25500000920E-02 0.  1.
        2   -1    0    0  501    0  0.00000000000E+00  0.00000000000E+00 -0.15614568013E+04  0.15614568013E+04  0.25500000920E-02 0. -1.
    10030    2    1    2    0    0  0.00000000000E+00  0.00000000000E+00 -0.14829423812E+04  0.16399712215E+04  0.70027673201E+03 0.  0.
        4    1    3    3  502    0 -0.16375010794E+03 -0.29693672454E+03 -0.53717906957E+03  0.63525465910E+03  0.12699999809E+01 0. -1.
       -4    1    3    3    0  502  0.16375010794E+03  0.29693672454E+03 -0.94576331159E+03  0.10047165624E+04  0.12699999809E+01 0.  1.
</event>
<event>
 5   0  0.1222679E-03  0.6998825E+03  0.7818609E-02  0.9717433E-01
       -2   -1    0    0    0  501  0.00000000000E+00  0.00000000000E+00  0.15271074494E+03  0.15271074496E+03  0.25500000920E-02 0. -1.
        2   -1    0    0  501    0  0.00000000000E+00  0.00000000000E+00 -0.80190092220E+03  0.80190092221E+03  0.25500000920E-02 0.  1.
    10030    2    1    2    0    0  0.00000000000E+00  0.00000000000E+00 -0.64919017726E+03  0.95461166717E+03  0.69988252503E+03 0.  0.
        2    1    3    3  502    0 -0.13289628116E+03 -0.32104810051E+03 -0.38125416512E+03  0.51583722512E+03  0.25500000920E-02 0.  1.
       -2    1    3    3    0  502  0.13289628116E+03  0.32104810051E+03 -0.26793601214E+03  0.43877444205E+03  0.25500000920E-02 0. -1.
</event>
<event>
 5   0  0.1243087E-03  0.6999435E+03  0.7818609E-02  0.9717329E-01
       -2   -1    0    0    0  501  0.00000000000E+00  0.00000000000E+00  0.92350228518E+02  0.92350228553E+02  0.25500000920E-02 0.  1.
        2   -1    0    0  501    0  0.00000000000E+00  0.00000000000E+00 -0.13262580416E+04  0.13262580416E+04  0.25500000920E-02 0. -1.
    10030    2    1    2    0    0  0.00000000000E+00  0.00000000000E+00 -0.12339078130E+04  0.14186082701E+04  0.69994352126E+03 0.  0.
        4    1    3    3  502    0 -0.30399417652E+03  0.16155854995E+03 -0.74457452993E+03  0.82030876378E+03  0.12699999809E+01 0.  1.
       -4    1    3    3    0  502  0.30399417652E+03 -0.16155854995E+03 -0.48933328311E+03  0.59829950633E+03  0.12699999809E+01 0. -1.
</event>
<event>
 5   0  0.1265562E-03  0.6989105E+03  0.7818609E-02  0.9719097E-01
        2   -1    0    0  501    0  0.00000000000E+00  0.00000000000E+00  0.71763084558E+03  0.71763084559E+03  0.25500000920E-02 0.  1.
       -2   -1    0    0    0  501  0.00000000000E+00  0.00000000000E+00 -0.17016961296E+03  0.17016961298E+03  0.25500000920E-02 0. -1.
    10030    2    1    2    0    0  0.00000000000E+00  0.00000000000E+00  0.54746123262E+03  0.88780045857E+03  0.69891047567E+03 0.  0.
        1    1    3    3  502    0 -0.21654134422E+03  0.20215455307E+03  0.50920041863E+03  0.58910243883E+03  0.50400001928E-02 0.  1.
       -1    1    3    3    0  502  0.21654134422E+03 -0.20215455307E+03  0.38260813995E+02  0.29869801973E+03  0.50400001928E-02 0. -1.
</event>
<event>
 5   0  0.1224048E-03  0.7003332E+03  0.7818609E-02  0.9716663E-01
        2   -1    0    0  501    0  0.00000000000E+00  0.00000000000E+00  0.46127538780E+03  0.46127538781E+03  0.25500000920E-02 0.  1.
       -2   -1    0    0    0  501  0.00000000000E+00  0.00000000000E+00 -0.26582094036E+03  0.26582094037E+03  0.25500000920E-02 0. -1.
    10030    2    1    2    0    0  0.00000000000E+00  0.00000000000E+00  0.19545444744E+03  0.72709632818E+03  0.70033322742E+03 0.  0.
        3    1    3    3  502    0 -0.11424076200E+03 -0.69811885328E+02 -0.23819904004E+03  0.27324612333E+03  0.10100000352E+00 0. -1.
       -3    1    3    3    0  502  0.11424076200E+03  0.69811885328E+02  0.43365348748E+03  0.45385020485E+03  0.10100000352E+00 0.  1.
</event>
<event>
 5   0  0.7013526E-04  0.6986581E+03  0.7818609E-02  0.9719530E-01
       -1   -1    0    0    0  501  0.00000000000E+00  0.00000000000E+00  0.58393860971E+03  0.58393860973E+03  0.50400001928E-02 0. -1.
        1   -1    0    0  501    0  0.00000000000E+00  0.00000000000E+00 -0.20897876796E+03  0.20897876802E+03  0.50400001928E-02 0.  1.
    10030    2    1    2    0    0  0.00000000000E+00  0.00000000000E+00  0.37495984175E+03  0.79291737775E+03  0.69865806015E+03 0.  0.
        1    1    3    3  502    0 -0.24791960547E+03 -0.61936147581E+02  0.45779593496E+03  0.52428745478E+03  0.50400001928E-02 0. -1.
       -1    1    3    3    0  502  0.24791960547E+03  0.61936147581E+02 -0.82836093206E+02  0.26862992297E+03  0.50400001928E-02 0.  1.
</event>
<event>
 5   0  0.1222679E-03  0.6997828E+03  0.7818609E-02  0.9717604E-01
        2   -1    0    0  501    0  0.00000000000E+00  0.00000000000E+00  0.26642000242E+03  0.26642000244E+03  0.25500000920E-02 0. -1.
       -2   -1    0    0    0  501  0.00000000000E+00  0.00000000000E+00 -0.45951499306E+03  0.45951499307E+03  0.25500000920E-02 0.  1.
    10030    2    1    2    0    0  0.00000000000E+00  0.00000000000E+00 -0.19309499064E+03  0.72593499550E+03  0.69978278222E+03 0.  0.
        2    1    3    3  502    0  0.50931608624E+02  0.84434204062E+02 -0.44480302604E+03  0.45560168519E+03  0.25500000920E-02 0.  1.
       -2    1    3    3    0  502 -0.50931608624E+02 -0.84434204062E+02  0.25170803540E+03  0.27033331031E+03  0.25500000920E-02 0. -1.
</event>
<event>
 5   0  0.7459843E-04  0.6997274E+03  0.7818609E-02  0.9717699E-01
       -1   -1    0    0    0  501  0.00000000000E+00  0.00000000000E+00  0.20714209873E+03  0.20714209879E+03  0.50400001928E-02 0. -1.
        1   -1    0    0  501    0  0.00000000000E+00  0.00000000000E+00 -0.59092090145E+03  0.59092090147E+03  0.50400001928E-02 0.  1.
    10030    2    1    2    0    0  0.00000000000E+00  0.00000000000E+00 -0.38377880272E+03  0.79806300026E+03  0.69972736331E+03 0.  0.
        2    1    3    3  502    0  0.32445383351E+02 -0.79559862552E+02  0.19492176703E+03  0.21301870786E+03  0.25500000920E-02 0. -1.
       -2    1    3    3    0  502 -0.32445383351E+02  0.79559862552E+02 -0.57870056976E+03  0.58504429240E+03  0.25500000920E-02 0.  1.
</event>
<event>
 5   0  0.1222679E-03  0.7002124E+03  0.7818609E-02  0.9716869E-01
        2   -1    0    0  501    0  0.00000000000E+00  0.00000000000E+00  0.11561173420E+04  0.11561173421E+04  0.25500000920E-02 0.  1.
       -2   -1    0    0    0  501  0.00000000000E+00  0.00000000000E+00 -0.10602241960E+03  0.10602241963E+03  0.25500000920E-02 0. -1.
    10030    2    1    2    0    0  0.00000000000E+00  0.00000000000E+00  0.10500949224E+04  0.12621397617E+04  0.70021241911E+03 0.  0.
        2    1    3    3  502    0  0.34054774922E+03 -0.59972123879E+02  0.42623879818E+03  0.54886149275E+03  0.25500000920E-02 0. -1.
       -2    1    3    3    0  502 -0.34054774922E+03  0.59972123879E+02  0.62385612426E+03  0.71327826893E+03  0.25500000920E-02 0.  1.
</event>
<event>
 5   0  0.1243087E-03  0.6999170E+03  0.7818609E-02  0.9717374E-01
       -2   -1    0    0    0  501  0.00000000000E+00  0.00000000000E+00  0.36940909429E+03  0.36940909430E+03  0.25500000920E-02 0.  1.
        2   -1    0    0  501    0  0.00000000000E+00  0.00000000000E+00 -0.33153202993E+03  0.33153202994E+03  0.25500000920E-02 0. -1.
    10030    2    1    2    0    0  0.00000000000E+00  0.00000000000E+00  0.37877064357E+02  0.70094112424E+03  0.69991698625E+03 0.  0.
        4    1    3    3  502    0 -0.32880554589E+03 -0.10919807097E+03 -0.30449226697E+02  0.34780177403E+03  0.12699999809E+01 0.  1.
       -4    1    3    3    0  502  0.32880554589E+03  0.10919807097E+03  0.68326291055E+02  0.35313935021E+03  0.12699999809E+01 0. -1.
</event>
<event>
 5   0  0.7572415E-04  0.6995183E+03  0.7818609E-02  0.9718056E-01
        1   -1    0    0  501    0  0.00000000000E+00  0.00000000000E+00  0.28471438522E+03  0.28471438526E+03  0.50400001928E-02 0. -1.
       -1   -1    0    0    0  501  0.00000000000E+00  0.00000000000E+00 -0.42966384329E+03  0.42966384332E+03  0.50400001928E-02 0.  1.
    10030    2    1    2    0    0  0.00000000000E+00  0.00000000000E+00 -0.14494945807E+03  0.71437822858E+03  0.69951834006E+03 0.  0.
        4    1    3    3  502    0 -0.29133448038E+03  0.10931984671E+03 -0.23556457345E+03  0.39028052668E+03  0.12699999809E+01 0. -1.
       -4    1    3    3    0  502  0.29133448038E+03 -0.10931984671E+03  0.90615115376E+02  0.32409770190E+03  0.12699999809E+01 0.  1.
</event>
<event>
 5   0  0.7574241E-04  0.7000420E+03  0.7818609E-02  0.9717160E-01
        1   -1    0    0  501    0  0.00000000000E+00  0.00000000000E+00  0.14007232922E+03  0.14007232931E+03  0.50400001928E-02 0.  1.
       -1   -1    0    0    0  501  0.00000000000E+00  0.00000000000E+00 -0.87465316876E+03  0.87465316878E+03  0.50400001928E-02 0. -1.
    10030    2    1    2    0    0  0.00000000000E+00  0.00000000000E+00 -0.73458083954E+03  0.10147254981E+04  0.70004201778E+03 0.  0.
        3    1    3    3  502    0  0.16818998486E+03  0.38892011175E+02  0.74074365589E+02  0.18784962438E+03  0.10100000352E+00 0.  1.
       -3    1    3    3    0  502 -0.16818998486E+03 -0.38892011175E+02 -0.80865520513E+03  0.82687587371E+03  0.10100000352E+00 0. -1.
</event>
<event>
 5   0  0.1224048E-03  0.6999731E+03  0.7818609E-02  0.9717278E-01
        2   -1    0    0  501    0  0.00000000000E+00  0.00000000000E+00  0.45167287388E+03  0.45167287389E+03  0.25500000920E-02 0. -1.
       -2   -1    0    0    0  501  0.00000000000E+00  0.00000000000E+00 -0.27119315338E+03  0.27119315339E+03  0.25500000920E-02 0.  1.
    10030    2    1    2    0    0  0.00000000000E+00  0.00000000000E+00  0.18047972051E+03  0.72286602728E+03  0.69997311654E+03 0.  0.
        3    1    3    3  502    0  0.29538686107E+03  0.99086305755E+02 -0.74408127920E+02  0.32032494967E+03  0.10100000352E+00 0.  1.
       -3    1    3    3    0  502 -0.29538686107E+03 -0.99086305755E+02  0.25488784843E+03  0.40254107760E+03  0.10100000352E+00 0. -1.
</event>
<event>
 5   0  0.7570633E-04  0.7001732E+03  0.7818609E-02  0.9716936E-01
        1   -1    0    0  501    0  0.00000000000E+00  0.00000000000E+00  0.40010236534E+03  0.40010236537E+03  0.50400001928E-02 0.  1.
       -1   -1    0    0    0  501  0.00000000000E+00  0.00000000000E+00 -0.30632318428E+03  0.30632318432E+03  0.50400001928E-02 0. -1.
    10030    2    1    2    0    0  0.00000000000E+00  0.00000000000E+00  0.93779181056E+02  0.70642554969E+03  0.70017320890E+03 0.  0.
        5    1    3    3  502    0 -0.10674215877E+03 -0.82708991040E+01  0.38314672122E+03  0.39785147507E+03  0.46999998093E+01 0.  1.
       -5    1    3    3    0  502  0.10674215877E+03  0.82708991040E+01 -0.28936754017E+03  0.30857407463E+03  0.46999998093E+01 0. -1.
</event>
<event>
 5   0  0.7572415E-04  0.7026760E+03  0.7818609E-02  0.9712667E-01
        1   -1    0    0  501    0  0.00000000000E+00  0.00000000000E+00  0.19729666660E+03  0.19729666667E+03  0.50400001928E-02 0. -1.
       -1   -1    0    0    0  501  0.00000000000E+00  0.00000000000E+00 -0.62564865992E+03  0.62564865994E+03  0.50400001928E-02 0.  1.
    10030    2    1    2    0    0  0.00000000000E+00  0.00000000000E+00 -0.42835199332E+03  0.82294532661E+03  0.70267601383E+03 0.  0.
        4    1    3    3  502    0 -0.20253524265E+03 -0.54886473981E+02 -0.54419299783E+03  0.58325010187E+03  0.12699999809E+01 0.  1.
       -4    1    3    3    0  502  0.20253524265E+03  0.54886473981E+02  0.11584100451E+03  0.23969522475E+03  0.12699999809E+01 0. -1.
</event>
<event>
 5   0  0.1243087E-03  0.7000812E+03  0.7818609E-02  0.9717093E-01
       -2   -1    0    0    0  501  0.00000000000E+00  0.00000000000E+00  0.15029458693E+03  0.15029458696E+03  0.25500000920E-02 0.  1.
        2   -1    0    0  501    0  0.00000000000E+00  0.00000000000E+00 -0.81525510373E+03  0.81525510373E+03  0.25500000920E-02 0. -1.
    10030    2    1    2    0    0  0.00000000000E+00  0.00000000000E+00 -0.66496051679E+03  0.96554969069E+03  0.70008122121E+03 0.  0.
        4    1    3    3  502    0  0.24609587646E+03 -0.18279372155E+03 -0.99440538276E+02  0.32228366170E+03  0.12699999809E+01 0.  1.
       -4    1    3    3    0  502 -0.24609587646E+03  0.18279372155E+03 -0.56551997852E+03  0.64326602899E+03  0.12699999809E+01 0. -1.
</event>
<event>
 5   0  0.1265562E-03  0.7000216E+03  0.7818609E-02  0.9717195E-01
       -2   -1    0    0    0  501  0.00000000000E+00  0.00000000000E+00  0.56383709296E+03  0.56383709297E+03  0.25500000920E-02 0. -1.
        2   -1    0    0  501    0  0.00000000000E+00  0.00000000000E+00 -0.21727477280E+03  0.21727477281E+03  0.25500000920E-02 0.  1.
    10030    2    1    2    0    0  0.00000000000E+00  0.00000000000E+00  0.34656232016E+03  0.78111186578E+03  0.70002164617E+03 0.  0.
        1    1    3    3  502    0  0.11421264607E+02 -0.33425829816E+03  0.28842651244E+03  0.44164341756E+03  0.50400001928E-02 0. -1.
       -1    1    3    3    0  502 -0.11421264607E+02  0.33425829816E+03  0.58135807721E+02  0.33946844822E+03  0.50400001928E-02 0.  1.
</event>
<event>
 5   0  0.7459843E-04  0.6999459E+03  0.7818609E-02  0.9717325E-01
        1   -1    0    0  501    0  0.00000000000E+00  0.00000000000E+00  0.87861941229E+03  0.87861941230E+03  0.50400001928E-02 0. -1.
       -1   -1    0    0    0  501  0.00000000000E+00  0.00000000000E+00 -0.13940172237E+03  0.13940172246E+03  0.50400001928E-02 0.  1.
    10030    2    1    2    0    0  0.00000000000E+00  0.00000000000E+00  0.73921768992E+03  0.10180211348E+04  0.69994588201E+03 0.  0.
        2    1    3    3  502    0  0.30033514476E+03 -0.14560028856E+03  0.21651054480E+03  0.39784099741E+03  0.25500000920E-02 0.  1.
       -2    1    3    3    0  502 -0.30033514476E+03  0.14560028856E+03  0.52270714512E+03  0.62018013735E+03  0.25500000920E-02 0. -1.
</event>
<event>
 5   0  0.1222679E-03  0.7004669E+03  0.7818609E-02  0.9716434E-01
       -2   -1    0    0    0  501  0.00000000000E+00  0.00000000000E+00  0.51368962741E+02  0.51368962805E+02  0.25500000920E-02 0.  1.
        2   -1    0    0  501    0  0.00000000000E+00  0.00000000000E+00 -0.23878907665E+04  0.23878907665E+04  0.25500000920E-02 0. -1.
    10030    2    1    2    0    0  0.00000000000E+00  0.00000000000E+00 -0.23365218037E+04  0.24392597293E+04  0.70046690683E+03 0.  0.
        2    1    3    3  502    0  0.28419773909E+03  0.15570894549E+03 -0.16308983948E+04  0.16627817670E+04  0.25500000920E-02 0. -1.
       -2    1    3    3    0  502 -0.28419773909E+03 -0.15570894549E+03 -0.70562340891E+03  0.77647796222E+03  0.25500000920E-02 0.  1.
</event>
<event>
 5   0  0.4936000E-04  0.7001581E+03  0.7818609E-02  0.9716962E-01
       -3   -1    0    0    0  501  0.00000000000E+00  0.00000000000E+00  0.79801836395E+03  0.79801837034E+03  0.10100000352E+00 0. -1.
        3   -1    0    0  501    0  0.00000000000E+00  0.00000000000E+00 -0.15357456263E+03  0.15357459584E+03  0.10100000352E+00 0.  1.
    10030    2    1    2    0    0  0.00000000000E+00  0.00000000000E+00  0.64444380132E+03  0.95159296618E+03  0.70015809659E+03 0.  0.
        1    1    3    3  502    0  0.51350210398E+02  0.40636996830E+02  0.78962021048E+03  0.79233091978E+03  0.50400001928E-02 0. -1.
       -1    1    3    3    0  502 -0.51350210398E+02 -0.40636996830E+02 -0.14517640916E+03  0.15926204639E+03  0.50400001928E-02 0.  1.
</event>
<event>
 5   0  0.1265562E-03  0.7005320E+03  0.7818609E-02  0.9716323E-01
       -2   -1    0    0    0  501  0.00000000000E+00  0.00000000000E+00  0.10124234790E+03  0.10124234793E+03  0.25500000920E-02 0. -1.
        2   -1    0    0  501    0  0.00000000000E+00  0.00000000000E+00 -0.12118079250E+04  0.12118079250E+04  0.25500000920E-02 0.  1.
    10030    2    1    2    0    0  0.00000000000E+00  0.00000000000E+00 -0.11105655771E+04  0.13130502729E+04  0.70053202511E+03 0.  0.
        1    1    3    3  502    0  0.41596309071E+02 -0.30235060849E+03 -0.87743387959E+03  0.92899750078E+03  0.50400001928E-02 0.  1.
       -1    1    3    3    0  502 -0.41596309071E+02  0.30235060849E+03 -0.23313169752E+03  0.38405277215E+03  0.50400001928E-02 0. -1.
</event>
<event>
 5   0  0.1224048E-03  0.7000558E+03  0.7818609E-02  0.9717137E-01
       -2   -1    0    0    0  501  0.00000000000E+00  0.00000000000E+00  0.25738139665E+03  0.25738139666E+03  0.25500000920E-02 0.  1.
        2   -1    0    0  501    0  0.00000000000E+00  0.00000000000E+00 -0.47602332242E+03  0.47602332242E+03  0.25500000920E-02 0. -1.
    10030    2    1    2    0    0  0.00000000000E+00  0.00000000000E+00 -0.21864192577E+03  0.73340471908E+03  0.70005584796E+03 0.  0.
        3    1    3    3  502    0 -0.30212695376E+03 -0.10828665393E+03  0.37021807912E+02  0.32307479021E+03  0.10100000352E+00 0.  1.
       -3    1    3    3    0  502  0.30212695376E+03  0.10828665393E+03 -0.25566373368E+03  0.41032992887E+03  0.10100000352E+00 0. -1.
</event>
<event>
 5   0  0.1222679E-03  0.6999513E+03  0.7818609E-02  0.9717315E-01
       -2   -1    0    0    0  501  0.00000000000E+00  0.00000000000E+00  0.14191127687E+03  0.14191127690E+03  0.25500000920E-02 0. -1.
        2   -1    0    0  501    0  0.00000000000E+00  0.00000000000E+00 -0.86309536153E+03  0.86309536153E+03  0.25500000920E-02 0.  1.
    10030    2    1    2    0    0  0.00000000000E+00  0.00000000000E+00 -0.72118408466E+03  0.10050066384E+04  0.69995132639E+03 0.  0.
        2    1    3    3  502    0 -0.26900852377E+03 -0.19158679554E+03 -0.19430978993E+03  0.38318061088E+03  0.25500000920E-02 0.  1.
       -2    1    3    3    0  502  0.26900852377E+03  0.19158679554E+03 -0.52687429473E+03  0.62182602755E+03  0.25500000920E-02 0. -1.
</event>
<event>
 5   0  0.7570633E-04  0.7003210E+03  0.7818609E-02  0.9716683E-01
       -1   -1    0    0    0  501  0.00000000000E+00  0.00000000000E+00  0.51250343370E+02  0.51250343618E+02  0.50400001928E-02 0.  1.
        1   -1    0    0  501    0  0.00000000000E+00  0.00000000000E+00 -0.23924203892E+04  0.23924203892E+04  0.50400001928E-02 0. -1.
    10030    2    1    2    0    0  0.00000000000E+00  0.00000000000E+00 -0.23411700458E+04  0.24436707328E+04  0.70032097424E+03 0.  0.
        5    1    3    3  502    0  0.14904013651E+03  0.27191699309E+01 -0.65114048171E+02  0.16273378704E+03  0.46999998093E+01 0.  1.
       -5    1    3    3    0  502 -0.14904013651E+03 -0.27191699309E+01 -0.22760559976E+04  0.22809369458E+04  0.46999998093E+01 0. -1.
</event>
<event>
 5   0  0.1243087E-03  0.6998162E+03  0.7818609E-02  0.9717547E-01
        2   -1    0    0  501    0  0.00000000000E+00  0.00000000000E+00  0.23415058735E+03  0.23415058736E+03  0.25500000920E-02 0.  1.
       -2   -1    0    0    0  501  0.00000000000E+00  0.00000000000E+00 -0.52289282105E+03  0.52289282106E+03  0.25500000920E-02 0. -1.
    10030    2    1    2    0    0  0.00000000000E+00  0.00000000000E+00 -0.28874223371E+03  0.75704340842E+03  0.69981615065E+03 0.  0.
        4    1    3    3  502    0 -0.16778517199E+02  0.28664822252E+03  0.71944135622E+02  0.29601738743E+03  0.12699999809E+01 0.  1.
       -4    1    3    3    0  502  0.16778517199E+02 -0.28664822252E+03 -0.36068636933E+03  0.46102602099E+03  0.12699999809E+01 0. -1.
</event>
<event>
 5   0  0.7574241E-04  0.7001952E+03  0.7818609E-02  0.9716898E-01
       -1   -1    0    0    0  501  0.00000000000E+00  0.00000000000E+00  0.16292107952E+03  0.16292107960E+03  0.50400001928E-02 0.  1.
        1   -1    0    0  501    0  0.00000000000E+00  0.00000000000E+00 -0.75231712317E+03  0.75231712318E+03  0.50400001928E-02 0. -1.
    10030    2    1    2    0    0  0.00000000000E+00  0.00000000000E+00 -0.58939604365E+03  0.91523820278E+03  0.70019516677E+03 0.  0.
        3    1    3    3  502    0 -0.29117285046E+03 -0.19194647609E+03 -0.33484229882E+03  0.48347125437E+03  0.10100000352E+00 0.  1.
       -3    1    3    3    0  502  0.29117285046E+03  0.19194647609E+03 -0.25455374483E+03  0.43176694841E+03  0.10100000352E+00 0. -1.
</event>
<event>
 5   0  0.7013526E-04  0.7000195E+03  0.7818609E-02  0.9717199E-01
       -1   -1    0    0    0  501  0.00000000000E+00  0.00000000000E+00  0.25996360725E+03  0.25996360729E+03  0.50400001928E-02 0. -1.
        1   -1    0    0  501    0  0.00000000000E+00  0.00000000000E+00 -0.47124606897E+03  0.47124606899E+03  0.50400001928E-02 0.  1.
    10030    2    1    2    0    0  0.00000000000E+00  0.00000000000E+00 -0.21128246172E+03  0.73120967629E+03  0.70001950835E+03 0.  0.
        1    1    3    3  502    0 -0.50685512566E+02  0.25511839961E+03  0.13899999228E+03  0.29491594884E+03  0.50400001928E-02 0. -1.
       -1    1    3    3    0  502  0.50685512566E+02 -0.25511839961E+03 -0.35028245400E+03  0.43629372745E+03  0.50400001928E-02 0.  1.
</event>
<event>
 5   0  0.1224048E-03  0.7000703E+03  0.7818609E-02  0.9717112E-01
       -2   -1    0    0    0  501  0.00000000000E+00  0.00000000000E+00  0.31159697994E+03  0.31159697995E+03  0.25500000920E-02 0. -1.
        2   -1    0    0  501    0  0.00000000000E+00  0.00000000000E+00 -0.39321495496E+03  0.39321495497E+03  0.25500000920E-02 0.  1.
    10030    2    1    2    0    0  0.00000000000E+00  0.00000000000E+00 -0.81617975022E+02  0.70481193492E+03  0.70007026059E+03 0.  0.
        3    1    3    3  502    0 -0.20371701292E+03  0.84600885679E+02 -0.31443401949E+03  0.38409203848E+03  0.10100000352E+00 0.  1.
       -3    1    3    3    0  502  0.20371701292E+03 -0.84600885679E+02  0.23281604447E+03  0.32071989644E+03  0.10100000352E+00 0. -1.
</event>
<event>
 5   0  0.7570633E-04  0.7002301E+03  0.7818609E-02  0.9716839E-01
       -1   -1    0    0    0  501  0.00000000000E+00  0.00000000000E+00  0.16602524216E+03  0.16602524224E+03  0.50400001928E-02 0. -1.
        1   -1    0    0  501    0  0.00000000000E+00  0.00000000000E+00 -0.73832466893E+03  0.73832466895E+03  0.50400001928E-02 0.  1.
    10030    2    1    2    0    0  0.00000000000E+00  0.00000000000E+00 -0.57229942677E+03  0.90434991118E+03  0.70023005361E+03 0.  0.
        5    1    3    3  502    0 -0.61510883298E+01 -0.12097416171E+03  0.13805746586E+03  0.18372407999E+03  0.46999998093E+01 0. -1.
       -5    1    3    3    0  502  0.61510883298E+01  0.12097416171E+03 -0.71035689263E+03  0.72062583120E+03  0.46999998093E+01 0.  1.
</event>
<event>
 5   0  0.7574241E-04  0.7002173E+03  0.7818609E-02  0.9716861E-01
       -1   -1    0    0    0  501  0.00000000000E+00  0.00000000000E+00  0.15667438980E+03  0.15667438988E+03  0.50400001928E-02 0.  1.
        1   -1    0    0  501    0  0.00000000000E+00  0.00000000000E+00 -0.78236195172E+03  0.78236195174E+03  0.50400001928E-02 0. -1.
    10030    2    1    2    0    0  0.00000000000E+00  0.00000000000E+00 -0.62568756192E+03  0.93903634161E+03  0.70021734178E+03 0.  0.
        3    1    3    3  502    0 -0.84781708489E+02  0.68529527642E+02 -0.75902094137E+03  0.76680964645E+03  0.10100000352E+00 0. -1.
       -3    1    3    3    0  502  0.84781708489E+02 -0.68529527642E+02  0.13333337944E+03  0.17222669517E+03  0.10100000352E+00 0.  1.
</event>
<event>
 5   0  0.7572415E-04  0.6998698E+03  0.7818609E-02  0.9717455E-01
       -1   -1    0    0    0  501  0.00000000000E+00  0.00000000000E+00  0.30527244123E+03  0.30527244127E+03  0.50400001928E-02 0. -1.
        1   -1    0    0  501    0  0.00000000000E+00  0.00000000000E+00 -0.40113158794E+03  0.40113158797E+03  0.50400001928E-02 0.  1.
    10030    2    1    2    0    0  0.00000000000E+00  0.00000000000E+00 -0.95859146706E+02  0.70640402924E+03  0.69986975683E+03 0.  0.
        4    1    3    3  502    0  0.21017242935E+03 -0.17846770922E+03  0.16955755847E+03  0.32368897391E+03  0.12699999809E+01 0. -1.
       -4    1    3    3    0  502 -0.21017242935E+03  0.17846770922E+03 -0.26541670518E+03  0.38271505534E+03  0.12699999809E+01 0.  1.
</event>
<event>
 5   0  0.7570633E-04  0.6997779E+03  0.7818609E-02  0.9717612E-01
        1   -1    0    0  501    0  0.00000000000E+00  0.00000000000E+00  0.19056011249E+03  0.19056011256E+03  0.50400001928E-02 0.  1.
       -1   -1    0    0    0  501  0.00000000000E+00  0.00000000000E+00 -0.64243389072E+03  0.64243389074E+03  0.50400001928E-02 0. -1.
    10030    2    1    2    0    0  0.00000000000E+00  0.00000000000E+00 -0.45187377822E+03  0.83299400330E+03  0.69977789197E+03 0.  0.
        5    1    3    3  502    0  0.25384109719E+03 -0.22869960974E+03 -0.13637104104E+03  0.36791026752E+03  0.46999998093E+01 0.  1.
       -5    1    3    3    0  502 -0.25384109719E+03  0.22869960974E+03 -0.31550273718E+03  0.46508373578E+03  0.46999998093E+01 0. -1.
</event>
<event>
 5   0  0.7572415E-04  0.6998267E+03  0.7818609E-02  0.9717529E-01
       -1   -1    0    0    0  501  0.00000000000E+00  0.00000000000E+00  0.10111705571E+04  0.10111705571E+04  0.50400001928E-02 0. -1.
        1   -1    0    0  501    0  0.00000000000E+00  0.00000000000E+00 -0.12108675829E+03  0.12108675839E+03  0.50400001928E-02 0.  1.
    10030    2    1    2    0    0  0.00000000000E+00  0.00000000000E+00  0.89008379884E+03  0.11322573155E+04  0.69982673542E+03 0.  0.
        4    1    3    3  502    0 -0.32368556138E+03 -0.11214006800E+03  0.56047068210E+03  0.65686888790E+03  0.12699999809E+01 0. -1.
       -4    1    3    3    0  502  0.32368556138E+03  0.11214006800E+03  0.32961311674E+03  0.47538842763E+03  0.12699999809E+01 0.  1.
</event>
<event>
 5   0  0.1224048E-03  0.6999015E+03  0.7818609E-02  0.9717401E-01
        2   -1    0    0  501    0  0.00000000000E+00  0.00000000000E+00  0.21548249017E+03  0.21548249018E+03  0.25500000920E-02 0. -1.
       -2   -1    0    0    0  501  0.00000000000E+00  0.00000000000E+00 -0.56833169585E+03  0.56833169585E+03  0.25500000920E-02 0.  1.
    10030    2    1    2    0    0  0.00000000000E+00  0.00000000000E+00 -0.35284920568E+03  0.78381418604E+03  0.69990150470E+03 0.  0.
        3    1    3    3  502    0 -0.20563836931E+03  0.27121623887E+03 -0.85305484880E+02  0.35088804926E+03  0.10100000352E+00 0.  1.
       -3    1    3    3    0  502  0.20563836931E+03 -0.27121623887E+03 -0.26754372080E+03  0.43292613678E+03  0.10100000352E+00 0. -1.
</event>
<event>
 5   0  0.7572415E-04  0.7000169E+03  0.7818609E-02  0.9717203E-01
       -1   -1    0    0    0  501  0.00000000000E+00  0.00000000000E+00  0.50686032239E+03  0.50686032241E+03  0.50400001928E-02 0.  1.
        1   -1    0    0  501    0  0.00000000000E+00  0.00000000000E+00 -0.24169558875E+03  0.24169558881E+03  0.50400001928E-02 0. -1.
    10030    2    1    2    0    0  0.00000000000E+00  0.00000000000E+00  0.26516473363E+03  0.74855591122E+03  0.70001686855E+03 0.  0.
        4    1    3    3  502    0  0.33330140402E+03 -0.10163096079E+03  0.97349071279E+02  0.36179708773E+03  0.12699999809E+01 0. -1.
       -4    1    3    3    0  502 -0.33330140402E+03  0.10163096079E+03  0.16781566235E+03  0.38675882348E+03  0.12699999809E+01 0.  1.
</event>
<event>
 5   0  0.1224048E-03  0.6996194E+03  0.7818609E-02  0.9717883E-01
        2   -1    0    0  501    0  0.00000000000E+00  0.00000000000E+00  0.35810922560E+03  0.35810922561E+03  0.25500000920E-02 0.  1.
       -2   -1    0    0    0  501  0.00000000000E+00  0.00000000000E+00 -0.34170255060E+03  0.34170255061E+03  0.25500000920E-02 0. -1.
    10030    2    1    2    0    0  0.00000000000E+00  0.00000000000E+00  0.16406674998E+02  0.69981177622E+03  0.69961942737E+03 0.  0.
        3    1    3    3  502    0  0.18515715351E+03 -0.27783394037E+03  0.11259656342E+03  0.35235332582E+03  0.10100000352E+00 0.  1.
       -3    1    3    3    0  502 -0.18515715351E+03  0.27783394037E+03 -0.96189888419E+02  0.34745845040E+03  0.10100000352E+00 0. -1.
</event>
<event>
 5   0  0.1243087E-03  0.7004200E+03  0.7818609E-02  0.9716514E-01
        2   -1    0    0  501    0  0.00000000000E+00  0.00000000000E+00  0.15441842949E+03  0.15441842951E+03  0.25500000920E-02 0. -1.
       -2   -1    0    0    0  501  0.00000000000E+00  0.00000000000E+00 -0.79425124390E+03  0.79425124391E+03  0.25500000920E-02 0.  1.
    10030    2    1    2    0    0  0.00000000000E+00  0.00000000000E+00 -0.63983281441E+03  0.94866967342E+03  0.70041995893E+03 0.  0.
        4    1    3    3  502    0 -0.71226465820E+02 -0.44378770110E+01  0.14446247584E+03  0.16113324925E+03  0.12699999809E+01 0. -1.
       -4    1    3    3    0  502  0.71226465820E+02  0.44378770110E+01 -0.78429529025E+03  0.78753642417E+03  0.12699999809E+01 0.  1.
</event>
<event>
 5   0  0.7572415E-04  0.7002414E+03  0.7818609E-02  0.9716819E-01
       -1   -1    0    0    0  501  0.00000000000E+00  0.00000000000E+00  0.21750933741E+03  0.21750933746E+03  0.50400001928E-02 0.  1.
        1   -1    0    0  501    0  0.00000000000E+00  0.00000000000E+00 -0.56358270994E+03  0.56358270996E+03  0.50400001928E-02 0. -1.
    10030    2    1    2    0    0  0.00000000000E+00  0.00000000000E+00 -0.34607337253E+03  0.78109204743E+03  0.70024139222E+03 0.  0.
        4    1    3    3  502    0 -0.48805572300E+02 -0.16747718007E+03 -0.51165272503E+03  0.54057442935E+03  0.12699999809E+01 0. -1.
       -4    1    3    3    0  502  0.48805572300E+02  0.16747718007E+03  0.16557935250E+03  0.24051761808E+03  0.12699999809E+01 0.  1.
</event>
<event>
 5   0  0.7013526E-04  0.7000945E+03  0.7818609E-02  0.9717071E-01
        1   -1    0    0  501    0  0.00000000000E+00  0.00000000000E+00  0.14736468860E+04  0.14736468860E+04  0.50400001928E-02 0. -1.
       -1   -1    0    0    0  501  0.00000000000E+00  0.00000000000E+00 -0.83149551353E+02  0.83149551506E+02  0.50400001928E-02 0.  1.
    10030    2    1    2    0    0  0.00000000000E+00  0.00000000000E+00  0.13904973347E+04  0.15567964375E+04  0.70009450091E+03 0.  0.
        1    1    3    3  502    0 -0.19369922768E+03 -0.44788426317E+02  0.13359185520E+04  0.13506308791E+04  0.50400001928E-02 0. -1.
       -1    1    3    3    0  502  0.19369922768E+03  0.44788426317E+02  0.54578782626E+02  0.20616555841E+03  0.50400001928E-02 0.  1.
</event>
<event>
 5   0  0.1222679E-03  0.7000046E+03  0.7818609E-02  0.9717224E-01
        2   -1    0    0  501    0  0.00000000000E+00  0.00000000000E+00  0.68611233220E+03  0.68611233221E+03  0.25500000920E-02 0. -1.
       -2   -1    0    0    0  501  0.00000000000E+00  0.00000000000E+00 -0.17854453002E+03  0.17854453004E+03  0.25500000920E-02 0.  1.
    10030    2    1    2    0    0  0.00000000000E+00  0.00000000000E+00  0.50756780218E+03  0.86465686224E+03  0.70000458257E+03 0.  0.
        2    1    3    3  502    0 -0.34218445871E+03 -0.30071111996E+02  0.33671031242E+03  0.48100759875E+03  0.25500000920E-02 0.  1.
       -2    1    3    3    0  502  0.34218445871E+03  0.30071111996E+02  0.17085748977E+03  0.38364926349E+03  0.25500000920E-02 0. -1.
</event>
<event>
 5   0  0.1224048E-03  0.6995111E+03  0.7818609E-02  0.9718069E-01
        2   -1    0    0  501    0  0.00000000000E+00  0.00000000000E+00  0.16945387418E+04  0.16945387418E+04  0.25500000920E-02 0.  1.
       -2   -1    0    0    0  501  0.00000000000E+00  0.00000000000E+00 -0.72190111057E+02  0.72190111102E+02  0.25500000920E-02 0. -1.
    10030    2    1    2    0    0  0.00000000000E+00  0.00000000000E+00  0.16223486308E+04  0.17667288529E+04  0.69951108642E+03 0.  0.
        3    1    3    3  502    0 -0.18601426295E+03 -0.23414659233E+03  0.35303978216E+03  0.46266946162E+03  0.10100000352E+00 0. -1.
       -3    1    3    3    0  502  0.18601426295E+03  0.23414659233E+03  0.12693088486E+04  0.13040593913E+04  0.10100000352E+00 0.  1.
</event>
<event>
 5   0  0.7572415E-04  0.6999678E+03  0.7818609E-02  0.9717287E-01
        1   -1    0    0  501    0  0.00000000000E+00  0.00000000000E+00  0.27087762474E+03  0.27087762479E+03  0.50400001928E-02 0.  1.
       -1   -1    0    0    0  501  0.00000000000E+00  0.00000000000E+00 -0.45219215358E+03  0.45219215361E+03  0.50400001928E-02 0. -1.
    10030    2    1    2    0    0  0.00000000000E+00  0.00000000000E+00 -0.18131452884E+03  0.72306977840E+03  0.69996781788E+03 0.  0.
        4    1    3    3  502    0 -0.20638065181E+03 -0.14605092884E+02 -0.38225160637E+03  0.43465409885E+03  0.12699999809E+01 0. -1.
       -4    1    3    3    0  502  0.20638065181E+03  0.14605092884E+02  0.20093707753E+03  0.28841567954E+03  0.12699999809E+01 0.  1.
</event>
<event>
 5   0  0.7459843E-04  0.7001764E+03  0.7818609E-02  0.9716931E-01
        1   -1    0    0  501    0  0.00000000000E+00  0.00000000000E+00  0.45539340870E+03  0.45539340873E+03  0.50400001928E-02 0.  1.
       -1   -1    0    0    0  501  0.00000000000E+00  0.00000000000E+00 -0.26913374803E+03  0.26913374808E+03  0.50400001928E-02 0. -1.
    10030    2    1    2    0    0  0.00000000000E+00  0.00000000000E+00  0.18625966067E+03  0.72452715681E+03  0.70017636333E+03 0.  0.
        2    1    3    3  502    0 -0.41448346053E+02 -0.87807674793E+01  0.45273072549E+03  0.45470889267E+03  0.25500000920E-02 0.  1.
       -2    1    3    3    0  502  0.41448346053E+02  0.87807674793E+01 -0.26647106482E+03  0.26981826413E+03  0.25500000920E-02 0. -1.
</event>
<event>
 5   0  0.7013526E-04  0.6999398E+03  0.7818609E-02  0.9717335E-01
        1   -1    0    0  501    0  0.00000000000E+00  0.00000000000E+00  0.26688873718E+03  0.26688873723E+03  0.50400001928E-02 0.  1.
       -1   -1    0    0    0  501  0.00000000000E+00  0.00000000000E+00 -0.45891383221E+03  0.45891383224E+03  0.50400001928E-02 0. -1.
    10030    2    1    2    0    0  0.00000000000E+00  0.00000000000E+00 -0.19202509503E+03  0.72580256947E+03  0.69993980651E+03 0.  0.
        1    1    3    3  502    0 -0.90927527481E+02  0.23486171165E+03  0.15597076647E+03  0.29623422974E+03  0.50400001928E-02 0.  1.
       -1    1    3    3    0  502  0.90927527481E+02 -0.23486171165E+03 -0.34799586150E+03  0.42956833973E+03  0.50400001928E-02 0. -1.
</event>
<event>
 5   0  0.1222679E-03  0.7000488E+03  0.7818609E-02  0.9717149E-01
       -2   -1    0    0    0  501  0.00000000000E+00  0.00000000000E+00  0.53144341360E+03  0.53144341361E+03  0.25500000920E-02 0.  1.
        2   -1    0    0  501    0  0.00000000000E+00  0.00000000000E+00 -0.23053644143E+03  0.23053644144E+03  0.25500000920E-02 0. -1.
    10030    2    1    2    0    0  0.00000000000E+00  0.00000000000E+00  0.30090697218E+03  0.76197985505E+03  0.70004877944E+03 0.  0.
        2    1    3    3  502    0  0.30890196033E+03  0.33222884573E+02 -0.25032520098E+02  0.31169024403E+03  0.25500000920E-02 0. -1.
       -2    1    3    3    0  502 -0.30890196033E+03 -0.33222884573E+02  0.32593949227E+03  0.45028961101E+03  0.25500000920E-02 0.  1.
</event>
<event>
 5   0  0.4936000E-04  0.7001767E+03  0.7818609E-02  0.9716930E-01
        3   -1    0    0  501    0  0.00000000000E+00  0.00000000000E+00  0.20981049194E+03  0.20981051625E+03  0.10100000352E+00 0.  1.
       -3   -1    0    0    0  501  0.00000000000E+00  0.00000000000E+00 -0.58415498890E+03  0.58415499763E+03  0.10100000352E+00 0. -1.
    10030    2    1    2    0    0  0.00000000000E+00  0.00000000000E+00 -0.37434449696E+03  0.79396551389E+03  0.70017671687E+03 0.  0.
        3    1    3    3  502    0  0.34204831197E+03  0.63333745713E+02 -0.14247623252E+03  0.37590916204E+03  0.10100000352E+00 0.  1.
       -3    1    3    3    0  502 -0.34204831197E+03 -0.63333745713E+02 -0.23186826444E+03  0.41805635185E+03  0.10100000352E+00 0. -1.
</event>
<event>
 5   0  0.7574241E-04  0.7017623E+03  0.7818609E-02  0.9714223E-01
       -1   -1    0    0    0  501  0.00000000000E+00  0.00000000000E+00  0.13490552024E+03  0.13490552033E+03  0.50400001928E-02 0.  1.
        1   -1    0    0  501    0  0.00000000000E+00  0.00000000000E+00 -0.91262089654E+03  0.91262089655E+03  0.50400001928E-02 0. -1.
    10030    2    1    2    0    0  0.00000000000E+00  0.00000000000E+00 -0.77771537630E+03  0.10475264169E+04  0.70176234405E+03 0.  0.
        3    1    3    3  502    0  0.33506878135E+03  0.81587869351E+02 -0.29223531809E+03  0.45202783100E+03  0.10100000352E+00 0.  1.
       -3    1    3    3    0  502 -0.33506878135E+03 -0.81587869351E+02 -0.48548005821E+03  0.59549858588E+03  0.10100000352E+00 0. -1.
</event>
<event>
 5   0  0.7574241E-04  0.6997172E+03  0.7818609E-02  0.9717716E-01
        1   -1    0    0  501    0  0.00000000000E+00  0.00000000000E+00  0.15117299228E+04  0.15117299228E+04  0.50400001928E-02 0. -1.
       -1   -1    0    0    0  501  0.00000000000E+00  0.00000000000E+00 -0.80967519962E+02  0.80967520119E+02  0.50400001928E-02 0.  1.
    10030    2    1    2    0    0  0.00000000000E+00  0.00000000000E+00  0.14307624028E+04  0.15926974429E+04  0.69971715094E+03 0.  0.
        3    1    3    3  502    0  0.17364175027E+03  0.15956602651E+02  0.24993988923E+02  0.17615555708E+03  0.10100000352E+00 0.  1.
       -3    1    3    3    0  502 -0.17364175027E+03 -0.15956602651E+02  0.14057684139E+04  0.14165418858E+04  0.10100000352E+00 0. -1.
</event>
<event>
 5   0  0.1224048E-03  0.6999132E+03  0.7818609E-02  0.9717381E-01
       -2   -1    0    0    0  501  0.00000000000E+00  0.00000000000E+00  0.16486196342E+03  0.16486196344E+03  0.25500000920E-02 0. -1.
        2   -1    0    0  501    0  0.00000000000E+00  0.00000000000E+00 -0.74286161974E+03  0.74286161975E+03  0.25500000920E-02 0.  1.
    10030    2    1    2    0    0  0.00000000000E+00  0.00000000000E+00 -0.57799965632E+03  0.90772358319E+03  0.69991320945E+03 0.  0.
        3    1    3    3  502    0 -0.25657099758E+03  0.16846163447E+03 -0.50702564569E+03  0.59269133170E+03  0.10100000352E+00 0.  1.
       -3    1    3    3    0  502  0.25657099758E+03 -0.16846163447E+03 -0.70974010634E+02  0.31503225148E+03  0.10100000352E+00 0. -1.
</event>
<event>
 5   0  0.1224048E-03  0.7001269E+03  0.7818609E-02  0.9717015E-01
        2   -1    0    0  501    0  0.00000000000E+00  0.00000000000E+00  0.11532478570E+04  0.11532478570E+04  0.25500000920E-02 0. -1.
       -2   -1    0    0    0  501  0.00000000000E+00  0.00000000000E+00 -0.10626025371E+03  0.10626025375E+03  0.25500000920E-02 0.  1.
    10030    2    1    2    0    0  0.00000000000E+00  0.00000000000E+00  0.10469876033E+04  0.12595081107E+04  0.70012687393E+03 0.  0.
        3    1    3    3  502    0  0.42495654662E+02  0.55152075052E+01 -0.10152406210E+03  0.11019729382E+03  0.10100000352E+00 0.  1.
       -3    1    3    3    0  502 -0.42495654662E+02 -0.55152075052E+01  0.11485116654E+04  0.11493108169E+04  0.10100000352E+00 0. -1.
</event>
<event>
 5   0  0.7013526E-04  0.6998990E+03  0.7818609E-02  0.9717405E-01
        1   -1    0    0  501    0  0.00000000000E+00  0.00000000000E+00  0.14429141411E+04  0.14429141411E+04  0.50400001928E-02 0. -1.
       -1   -1    0    0    0  501  0.00000000000E+00  0.00000000000E+00 -0.84873144120E+02  0.84873144269E+02  0.50400001928E-02 0.  1.
    10030    2    1    2    0    0  0.00000000000E+00  0.00000000000E+00  0.13580409969E+04  0.15277872853E+04  0.69989902120E+03 0.  0.
        1    1    3    3  502    0  0.53588598445E+02  0.19140014910E+02  0.14327474621E+04  0.14338770409E+04  0.50400001928E-02 0. -1.
       -1    1    3    3    0  502 -0.53588598445E+02 -0.19140014910E+02 -0.74706465179E+02  0.93910244484E+02  0.50400001928E-02 0.  1.
</event>
<event>
 5   0  0.1265562E-03  0.6992239E+03  0.7818609E-02  0.9718560E-01
       -2   -1    0    0    0  501  0.00000000000E+00  0.00000000000E+00  0.16652618510E+03  0.16652618512E+03  0.25500000920E-02 0.  1.
        2   -1    0    0  501    0  0.00000000000E+00  0.00000000000E+00 -0.73398986119E+03  0.73398986120E+03  0.25500000920E-02 0. -1.
    10030    2    1    2    0    0  0.00000000000E+00  0.00000000000E+00 -0.56746367610E+03  0.90051604631E+03  0.69922394551E+03 0.  0.
        1    1    3    3  502    0  0.76370608306E+01 -0.26198923906E+03 -0.58170782763E+03  0.63802874765E+03  0.50400001928E-02 0. -1.
       -1    1    3    3    0  502 -0.76370608306E+01  0.26198923906E+03  0.14244151535E+02  0.26248729866E+03  0.50400001928E-02 0.  1.
</event>
<event>
 5   0  0.7459843E-04  0.7013401E+03  0.7818609E-02  0.9714943E-01
       -1   -1    0    0    0  501  0.00000000000E+00  0.00000000000E+00  0.21017496398E+03  0.21017496404E+03  0.50400001928E-02 0. -1.
        1   -1    0    0  501    0  0.00000000000E+00  0.00000000000E+00 -0.58508157578E+03  0.58508157580E+03  0.50400001928E-02 0.  1.
    10030    2    1    2    0    0  0.00000000000E+00  0.00000000000E+00 -0.37490661180E+03  0.79525653984E+03  0.70134014329E+03 0.  0.
        2    1    3    3  502    0 -0.63369727968E+02 -0.19613053437E+03  0.13423873500E+03  0.24597346791E+03  0.25500000920E-02 0. -1.
       -2    1    3    3    0  502  0.63369727968E+02  0.19613053437E+03 -0.50914534680E+03  0.54928307193E+03  0.25500000920E-02 0.  1.
</event>
<event>
 5   0  0.7013526E-04  0.7001156E+03  0.7818609E-02  0.9717035E-01
        1   -1    0    0  501    0  0.00000000000E+00  0.00000000000E+00  0.79241786369E+03  0.79241786370E+03  0.50400001928E-02 0. -1.
       -1   -1    0    0    0  501  0.00000000000E+00  0.00000000000E+00 -0.15464121970E+03  0.15464121979E+03  0.50400001928E-02 0.  1.
    10030    2    1    2    0    0  0.00000000000E+00  0.00000000000E+00  0.63777664398E+03  0.94705908349E+03  0.70011560475E+03 0.  0.
        1    1    3    3  502    0 -0.13499977947E+03  0.15219267564E+03 -0.66465238161E+02  0.21402144492E+03  0.50400001928E-02 0.  1.
       -1    1    3    3    0  502  0.13499977947E+03 -0.15219267564E+03  0.70424188214E+03  0.73303763857E+03  0.50400001928E-02 0. -1.
</event>
<event>
 5   0  0.4936000E-04  0.7001152E+03  0.7818609E-02  0.9717035E-01
        4   -1    0    0  501    0  0.00000000000E+00  0.00000000000E+00  0.14822872599E+03  0.14823416647E+03  0.12699999809E+01 0.  1.
       -4   -1    0    0    0  501  0.00000000000E+00  0.00000000000E+00 -0.82667653788E+03  0.82667751341E+03  0.12699999809E+01 0. -1.
    10030    2    1    2    0    0  0.00000000000E+00  0.00000000000E+00 -0.67844781189E+03  0.97491167988E+03  0.70011524060E+03 0.  0.
        4    1    3    3  502    0  0.25193507009E+03  0.12283023000E+03 -0.63125173599E+03  0.69068003593E+03  0.12699999809E+01 0. -1.
       -4    1    3    3    0  502 -0.25193507009E+03 -0.12283023000E+03 -0.47196075899E+02  0.28423164395E+03  0.12699999809E+01 0.  1.
</event>
<event>
 5   0  0.1265562E-03  0.7000567E+03  0.7818609E-02  0.9717135E-01
       -2   -1    0    0    0  501  0.00000000000E+00  0.00000000000E+00  0.18210373699E+03  0.18210373700E+03  0.25500000920E-02 0. -1.
        2   -1    0    0  501    0  0.00000000000E+00  0.00000000000E+00 -0.67280246141E+03  0.67280246142E+03  0.25500000920E-02 0.  1.
    10030    2    1    2    0    0  0.00000000000E+00  0.00000000000E+00 -0.49069872443E+03  0.85490619842E+03  0.70005669052E+03 0.  0.
        1    1    3    3  502    0  0.12792276004E+03 -0.20434253936E+03  0.64554722591E+02  0.24957447418E+03  0.50400001928E-02 0. -1.
       -1    1    3    3    0  502 -0.12792276004E+03  0.20434253936E+03 -0.55525344702E+03  0.60533172424E+03  0.50400001928E-02 0.  1.
</event>
<event>
 5   0  0.7459843E-04  0.7003588E+03  0.7818609E-02  0.9716619E-01
        1   -1    0    0  501    0  0.00000000000E+00  0.00000000000E+00  0.45194768404E+03  0.45194768407E+03  0.50400001928E-02 0.  1.
       -1   -1    0    0    0  501  0.00000000000E+00  0.00000000000E+00 -0.27132702538E+03  0.27132702543E+03  0.50400001928E-02 0. -1.
    10030    2    1    2    0    0  0.00000000000E+00  0.00000000000E+00  0.18062065866E+03  0.72327470949E+03  0.70035882450E+03 0.  0.
        2    1    3    3  502    0  0.21970324872E+03  0.20953064373E+02 -0.19046248366E+03  0.29152102170E+03  0.25500000920E-02 0. -1.
       -2    1    3    3    0  502 -0.21970324872E+03 -0.20953064373E+02  0.37108314232E+03  0.43175368779E+03  0.25500000920E-02 0.  1.
</event>
<event>
 5   0  0.7459843E-04  0.7013506E+03  0.7818609E-02  0.9714925E-01
        1   -1    0    0  501    0  0.00000000000E+00  0.00000000000E+00  0.13021803638E+04  0.13021803638E+04  0.50400001928E-02 0. -1.
       -1   -1    0    0    0  501  0.00000000000E+00  0.00000000000E+00 -0.94436361056E+02  0.94436361190E+02  0.50400001928E-02 0.  1.
    10030    2    1    2    0    0  0.00000000000E+00  0.00000000000E+00  0.12077440027E+04  0.13966167250E+04  0.70135062585E+03 0.  0.
        2    1    3    3  502    0  0.18323539142E+02  0.17235105107E+03 -0.31800753088E+01  0.17335152084E+03  0.25500000920E-02 0.  1.
       -2    1    3    3    0  502 -0.18323539142E+02 -0.17235105107E+03  0.12109240780E+04  0.12232652041E+04  0.25500000920E-02 0. -1.
</event>
<event>
 5   0  0.1222679E-03  0.6999286E+03  0.7818609E-02  0.9717354E-01
       -2   -1    0    0    0  501  0.00000000000E+00  0.00000000000E+00  0.19044434934E+03  0.19044434936E+03  0.25500000920E-02 0. -1.
        2   -1    0    0  501    0  0.00000000000E+00  0.00000000000E+00 -0.64310138552E+03  0.64310138552E+03  0.25500000920E-02 0.  1.
    10030    2    1    2    0    0  0.00000000000E+00  0.00000000000E+00 -0.45265703618E+03  0.83354573488E+03  0.69992863904E+03 0.  0.
        2    1    3    3  502    0  0.87119490651E+02 -0.19195039349E+03 -0.55901491185E+03  0.59743822349E+03  0.25500000920E-02 0.  1.
       -2    1    3    3    0  502 -0.87119490651E+02  0.19195039349E+03  0.10635787568E+03  0.23610751139E+03  0.25500000920E-02 0. -1.
</event>
<event>
 5   0  0.4936000E-04  0.6995423E+03  0.7818609E-02  0.9718015E-01
        3   -1    0    0  501    0  0.00000000000E+00  0.00000000000E+00  0.40506383181E+03  0.40506384440E+03  0.10100000352E+00 0.  1.
       -3   -1    0    0    0  501  0.00000000000E+00  0.00000000000E+00 -0.30202607394E+03  0.30202609083E+03  0.10100000352E+00 0. -1.
    10030    2    1    2    0    0  0.00000000000E+00  0.00000000000E+00  0.10303775786E+03  0.70708993523E+03  0.69954227675E+03 0.  0.
        4    1    3    3  502    0 -0.86413134376E+02  0.17272395966E+03 -0.24323924177E+03  0.31059255894E+03  0.12699999809E+01 0. -1.
       -4    1    3    3    0  502  0.86413134376E+02 -0.17272395966E+03  0.34627699963E+03  0.39649737629E+03  0.12699999809E+01 0.  1.
</event>
<event>
 5   0  0.7574241E-04  0.6998452E+03  0.7818609E-02  0.9717497E-01
       -1   -1    0    0    0  501  0.00000000000E+00  0.00000000000E+00  0.29849340298E+03  0.29849340302E+03  0.50400001928E-02 0.  1.
        1   -1    0    0  501    0  0.00000000000E+00  0.00000000000E+00 -0.41021285467E+03  0.41021285470E+03  0.50400001928E-02 0. -1.
    10030    2    1    2    0    0  0.00000000000E+00  0.00000000000E+00 -0.11171945169E+03  0.70870625772E+03  0.69984521420E+03 0.  0.
        3    1    3    3  502    0 -0.14367312790E+03 -0.52129935275E+02  0.26290563831E+03  0.30410340789E+03  0.10100000352E+00 0.  1.
       -3    1    3    3    0  502  0.14367312790E+03  0.52129935275E+02 -0.37462509000E+03  0.40460284983E+03  0.10100000352E+00 0. -1.
</event>
<event>
 5   0  0.1282546E-03  0.7000285E+03  0.7818609E-02  0.9717183E-01
       -2   -1    0    0    0  501  0.00000000000E+00  0.00000000000E+00  0.51515071497E+03  0.51515071497E+03  0.25500000920E-02 0.  1.
        2   -1    0    0  501    0  0.00000000000E+00  0.00000000000E+00 -0.23781388222E+03  0.23781388223E+03  0.25500000920E-02 0. -1.
    10030    2    1    2    0    0  0.00000000000E+00  0.00000000000E+00  0.27733683275E+03  0.75296459720E+03  0.70002854645E+03 0.  0.
        5    1    3    3  502    0 -0.20166589472E+03 -0.26451641804E+03  0.21579733471E+02  0.33335543103E+03  0.46999998093E+01 0. -1.
       -5    1    3    3    0  502  0.20166589472E+03  0.26451641804E+03  0.25575709928E+03  0.41960916617E+03  0.46999998093E+01 0.  1.
</event>
<event>
 5   0  0.7574241E-04  0.6999329E+03  0.7818609E-02  0.9717347E-01
        1   -1    0    0  501    0  0.00000000000E+00  0.00000000000E+00  0.24498153348E+03  0.24498153354E+03  0.50400001928E-02 0.  1.
       -1   -1    0    0    0  501  0.00000000000E+00  0.00000000000E+00 -0.49994181502E+03  0.49994181505E+03  0.50400001928E-02 0. -1.
    10030    2    1    2    0    0  0.00000000000E+00  0.00000000000E+00 -0.25496028154E+03  0.74492334859E+03  0.69993288971E+03 0.  0.
        3    1    3    3  502    0  0.18425993347E+03 -0.18188421932E+03 -0.37807848307E+03  0.45823241034E+03  0.10100000352E+00 0. -1.
       -3    1    3    3    0  502 -0.18425993347E+03  0.18188421932E+03  0.12311820153E+03  0.28669093825E+03  0.10100000352E+00 0.  1.
</event>
<event>
 5   0  0.1222679E-03  0.7000532E+03  0.7818609E-02  0.9717141E-01
       -2   -1    0    0    0  501  0.00000000000E+00  0.00000000000E+00  0.20963885337E+03  0.20963885338E+03  0.25500000920E-02 0.  1.
        2   -1    0    0  501    0  0.00000000000E+00  0.00000000000E+00 -0.58442713390E+03  0.58442713391E+03  0.25500000920E-02 0. -1.
    10030    2    1    2    0    0  0.00000000000E+00  0.00000000000E+00 -0.37478828053E+03  0.79406598729E+03  0.70005323865E+03 0.  0.
        2    1    3    3  502    0 -0.16731820129E+03  0.53071596347E+01  0.16128835187E+03  0.23245962850E+03  0.25500000920E-02 0.  1.
       -2    1    3    3    0  502  0.16731820129E+03 -0.53071596347E+01 -0.53607663240E+03  0.56160635880E+03  0.25500000920E-02 0. -1.
</event>
<event>
 5   0  0.1222679E-03  0.6999724E+03  0.7818609E-02  0.9717279E-01
       -2   -1    0    0    0  501  0.00000000000E+00  0.00000000000E+00  0.63754837132E+02  0.63754837183E+02  0.25500000920E-02 0.  1.
        2   -1    0    0  501    0  0.00000000000E+00  0.00000000000E+00 -0.19212714868E+04  0.19212714868E+04  0.25500000920E-02 0. -1.
    10030    2    1    2    0    0  0.00000000000E+00  0.00000000000E+00 -0.18575166497E+04  0.19850263240E+04  0.69997243026E+03 0.  0.
        2    1    3    3  502    0 -0.52441271205E+02  0.12673511642E+03 -0.18418820649E+04  0.18469817047E+04  0.25500000920E-02 0. -1.
       -2    1    3    3    0  502  0.52441271205E+02 -0.12673511642E+03 -0.15634584797E+02  0.13804461927E+03  0.25500000920E-02 0.  1.
</event>
<event>
 5   0  0.7013526E-04  0.6998413E+03  0.7818609E-02  0.9717504E-01
        1   -1    0    0  501    0  0.00000000000E+00  0.00000000000E+00  0.41911963815E+03  0.41911963818E+03  0.50400001928E-02 0. -1.
       -1   -1    0    0    0  501  0.00000000000E+00  0.00000000000E+00 -0.29214681719E+03  0.29214681724E+03  0.50400001928E-02 0.  1.
    10030    2    1    2    0    0  0.00000000000E+00  0.00000000000E+00  0.12697282095E+03  0.71126645542E+03  0.69984132011E+03 0.  0.
        1    1    3    3  502    0  0.23928503391E+03 -0.24863904706E+03  0.12244874223E+03  0.36615897869E+03  0.50400001928E-02 0.  1.
       -1    1    3    3    0  502 -0.23928503391E+03  0.24863904706E+03  0.45240787221E+01  0.34510747672E+03  0.50400001928E-02 0. -1.
</event>
<event>
 5   0  0.1224048E-03  0.7002318E+03  0.7818609E-02  0.9716836E-01
       -2   -1    0    0    0  501  0.00000000000E+00  0.00000000000E+00  0.14049117270E+03  0.14049117273E+03  0.25500000920E-02 0.  1.
        2   -1    0    0  501    0  0.00000000000E+00  0.00000000000E+00 -0.87251839842E+03  0.87251839843E+03  0.25500000920E-02 0. -1.
    10030    2    1    2    0    0  0.00000000000E+00  0.00000000000E+00 -0.73202722572E+03  0.10130095712E+04  0.70023177024E+03 0.  0.
        3    1    3    3  502    0  0.10625251819E+03 -0.89044397210E+02 -0.83112127391E+03  0.84260375293E+03  0.10100000352E+00 0. -1.
       -3    1    3    3    0  502 -0.10625251819E+03  0.89044397210E+02  0.99094048196E+02  0.17040581822E+03  0.10100000352E+00 0.  1.
</event>
<event>
 5   0  0.1222679E-03  0.6998223E+03  0.7818609E-02  0.9717536E-01
        2   -1    0    0  501    0  0.00000000000E+00  0.00000000000E+00  0.14610412363E+04  0.14610412363E+04  0.25500000920E-02 0.  1.
       -2   -1    0    0    0  501  0.00000000000E+00  0.00000000000E+00 -0.83801762241E+02  0.83801762280E+02  0.25500000920E-02 0. -1.
    10030    2    1    2    0    0  0.00000000000E+00  0.00000000000E+00  0.13772394741E+04  0.15448429986E+04  0.69982234986E+03 0.  0.
        2    1    3    3  502    0 -0.15611093645E+03 -0.26602736630E+03  0.10533326889E+04  0.10975659149E+04  0.25500000920E-02 0.  1.
       -2    1    3    3    0  502  0.15611093645E+03  0.26602736630E+03  0.32390678523E+03  0.44727708372E+03  0.25500000920E-02 0. -1.
</event>
<event>
 5   0  0.7574241E-04  0.6999266E+03  0.7818609E-02  0.9717358E-01
       -1   -1    0    0    0  501  0.00000000000E+00  0.00000000000E+00  0.61538051593E+03  0.61538051595E+03  0.50400001928E-02 0.  1.
        1   -1    0    0  501    0  0.00000000000E+00  0.00000000000E+00 -0.19902210451E+03  0.19902210457E+03  0.50400001928E-02 0. -1.
    10030    2    1    2    0    0  0.00000000000E+00  0.00000000000E+00  0.41635841142E+03  0.81440262052E+03  0.69992664012E+03 0.  0.
        3    1    3    3  502    0 -0.15795426626E+03  0.99811597979E+02  0.55248591973E+03  0.58322603425E+03  0.10100000352E+00 0.  1.
       -3    1    3    3    0  502  0.15795426626E+03 -0.99811597979E+02 -0.13612750831E+03  0.23117658627E+03  0.10100000352E+00 0. -1.
</event>
<event>
 5   0  0.7574241E-04  0.7000886E+03  0.7818609E-02  0.9717081E-01
       -1   -1    0    0    0  501  0.00000000000E+00  0.00000000000E+00  0.12694549558E+03  0.12694549568E+03  0.50400001928E-02 0.  1.
        1   -1    0    0  501    0  0.00000000000E+00  0.00000000000E+00 -0.96522542739E+03  0.96522542741E+03  0.50400001928E-02 0. -1.
    10030    2    1    2    0    0  0.00000000000E+00  0.00000000000E+00 -0.83827993181E+03  0.10921709231E+04  0.70008862378E+03 0.  0.
        3    1    3    3  502    0  0.16863672469E+03  0.21801245715E+03 -0.75577487952E+03  0.80446470097E+03  0.10100000352E+00 0. -1.
       -3    1    3    3    0  502 -0.16863672469E+03 -0.21801245715E+03 -0.82505052290E+02  0.28770622211E+03  0.10100000352E+00 0.  1.
</event>
<event>
 5   0  0.7572415E-04  0.6996902E+03  0.7818609E-02  0.9717762E-01
        1   -1    0    0  501    0  0.00000000000E+00  0.00000000000E+00  0.42006574311E+03  0.42006574314E+03  0.50400001928E-02 0.  1.
       -1   -1    0    0    0  501  0.00000000000E+00  0.00000000000E+00 -0.29136292624E+03  0.29136292629E+03  0.50400001928E-02 0. -1.
    10030    2    1    2    0    0  0.00000000000E+00  0.00000000000E+00  0.12870281687E+03  0.71142866943E+03  0.69969017187E+03 0.  0.
        4    1    3    3  502    0  0.21069066285E+03  0.17357706878E+03  0.28681512804E+03  0.39595970097E+03  0.12699999809E+01 0.  1.
       -4    1    3    3    0  502 -0.21069066285E+03 -0.17357706878E+03 -0.15811231117E+03  0.31546896846E+03  0.12699999809E+01 0. -1.
</event>
<event>
 5   0  0.1224048E-03  0.6993626E+03  0.7818609E-02  0.9718323E-01
       -2   -1    0    0    0  501  0.00000000000E+00  0.00000000000E+00  0.16996592984E+03  0.16996592986E+03  0.25500000920E-02 0. -1.
        2   -1    0    0  501    0  0.00000000000E+00  0.00000000000E+00 -0.71942062611E+03  0.71942062611E+03  0.25500000920E-02 0.  1.
    10030    2    1    2    0    0  0.00000000000E+00  0.00000000000E+00 -0.54945469627E+03  0.88938655598E+03  0.69936255454E+03 0.  0.
        3    1    3    3  502    0  0.28782038875E+03 -0.10169488771E+03 -0.57810105598E+02  0.31068383427E+03  0.10100000352E+00 0. -1.
       -3    1    3    3    0  502 -0.28782038875E+03  0.10169488771E+03 -0.49164459067E+03  0.57870272170E+03  0.10100000352E+00 0.  1.
</event>
<event>
 5   0  0.1222679E-03  0.7008878E+03  0.7818609E-02  0.9715715E-01
       -2   -1    0    0    0  501  0.00000000000E+00  0.00000000000E+00  0.19019479540E+03  0.19019479541E+03  0.25500000920E-02 0. -1.
        2   -1    0    0  501    0  0.00000000000E+00  0.00000000000E+00 -0.64571136017E+03  0.64571136018E+03  0.25500000920E-02 0.  1.
    10030    2    1    2    0    0  0.00000000000E+00  0.00000000000E+00 -0.45551656477E+03  0.83590615559E+03  0.70088783708E+03 0.  0.
        2    1    3    3  502    0  0.31621687669E+03  0.77136524547E+02 -0.72863064777E+02  0.33354487365E+03  0.25500000920E-02 0. -1.
       -2    1    3    3    0  502 -0.31621687669E+03 -0.77136524547E+02 -0.38265350000E+03  0.50236128194E+03  0.25500000920E-02 0.  1.
</event>
<event>
 5   0  0.1243087E-03  0.7004549E+03  0.7818609E-02  0.9716455E-01
        2   -1    0    0  501    0  0.00000000000E+00  0.00000000000E+00  0.45087278544E+03  0.45087278544E+03  0.25500000920E-02 0.  1.
       -2   -1    0    0    0  501  0.00000000000E+00  0.00000000000E+00 -0.27204850577E+03  0.27204850579E+03  0.25500000920E-02 0. -1.
    10030    2    1    2    0    0  0.00000000000E+00  0.00000000000E+00  0.17882427966E+03  0.72292129123E+03  0.70045490241E+03 0.  0.
        4    1    3    3  502    0 -0.29432910532E+03 -0.14342515845E+03  0.21772702552E+03  0.39320105398E+03  0.12699999809E+01 0.  1.
       -4    1    3    3    0  502  0.29432910532E+03  0.14342515845E+03 -0.38902745855E+02  0.32972023725E+03  0.12699999809E+01 0. -1.
</event>
<event>
 5   0  0.7459843E-04  0.7000162E+03  0.7818609E-02  0.9717204E-01
        1   -1    0    0  501    0  0.00000000000E+00  0.00000000000E+00  0.80750223959E+03  0.80750223961E+03  0.50400001928E-02 0.  1.
       -1   -1    0    0    0  501  0.00000000000E+00  0.00000000000E+00 -0.15170940846E+03  0.15170940854E+03  0.50400001928E-02 0. -1.
    10030    2    1    2    0    0  0.00000000000E+00  0.00000000000E+00  0.65579283113E+03  0.95921164815E+03  0.70001624880E+03 0.  0.
        2    1    3    3  502    0  0.11349812796E+03 -0.14332713647E+03  0.73687384207E+03  0.75921508957E+03  0.25500000920E-02 0.  1.
       -2    1    3    3    0  502 -0.11349812796E+03  0.14332713647E+03 -0.81081010942E+02  0.19999655858E+03  0.25500000920E-02 0. -1.
</event>
<event>
 5   0  0.7570633E-04  0.6996906E+03  0.7818609E-02  0.9717761E-01
       -1   -1    0    0    0  501  0.00000000000E+00  0.00000000000E+00  0.73330267876E+03  0.73330267877E+03  0.50400001928E-02 0.  1.
        1   -1    0    0  501    0  0.00000000000E+00  0.00000000000E+00 -0.16690481189E+03  0.16690481196E+03  0.50400001928E-02 0. -1.
    10030    2    1    2    0    0  0.00000000000E+00  0.00000000000E+00  0.56639786687E+03  0.90020749074E+03  0.69969063362E+03 0.  0.
        5    1    3    3  502    0  0.27118165614E+03 -0.18989465905E+03  0.42858913267E+03  0.54158120980E+03  0.46999998093E+01 0. -1.
       -5    1    3    3    0  502 -0.27118165614E+03  0.18989465905E+03  0.13780873420E+03  0.35862628094E+03  0.46999998093E+01 0.  1.
</event>
<event>
 5   0  0.1224048E-03  0.7000225E+03  0.7818609E-02  0.9717194E-01
       -2   -1    0    0    0  501  0.00000000000E+00  0.00000000000E+00  0.15671197549E+03  0.15671197551E+03  0.25500000920E-02 0. -1.
        2   -1    0    0  501    0  0.00000000000E+00  0.00000000000E+00 -0.78173899466E+03  0.78173899466E+03  0.25500000920E-02 0.  1.
    10030    2    1    2    0    0  0.00000000000E+00  0.00000000000E+00 -0.62502701917E+03  0.93845097018E+03  0.70002246302E+03 0.  0.
        3    1    3    3  502    0  0.26303437623E+03 -0.74829796242E+02 -0.19656508990E+02  0.27417689551E+03  0.10100000352E+00 0. -1.
       -3    1    3    3    0  502 -0.26303437623E+03  0.74829796242E+02 -0.60537051018E+03  0.66427407467E+03  0.10100000352E+00 0.  1.
</event>
<event>
 5   0  0.1222679E-03  0.7002121E+03  0.7818609E-02  0.9716870E-01
        2   -1    0    0  501    0  0.00000000000E+00  0.00000000000E+00  0.28613803455E+03  0.28613803456E+03  0.25500000920E-02 0. -1.
       -2   -1    0    0    0  501  0.00000000000E+00  0.00000000000E+00 -0.42837453527E+03  0.42837453527E+03  0.25500000920E-02 0.  1.
    10030    2    1    2    0    0  0.00000000000E+00  0.00000000000E+00 -0.14223650072E+03  0.71451256983E+03  0.70021210380E+03 0.  0.
        2    1    3    3  502    0 -0.13828465995E+03 -0.18039804732E+03 -0.34284245206E+03  0.41134784501E+03  0.25500000920E-02 0.  1.
       -2    1    3    3    0  502  0.13828465995E+03  0.18039804732E+03  0.20060595134E+03  0.30316472482E+03  0.25500000920E-02 0. -1.
</event>
<event>
 5   0  0.7013526E-04  0.6998723E+03  0.7818609E-02  0.9717451E-01
        1   -1    0    0  501    0  0.00000000000E+00  0.00000000000E+00  0.81222243487E+03  0.81222243488E+03  0.50400001928E-02 0. -1.
       -1   -1    0    0    0  501  0.00000000000E+00  0.00000000000E+00 -0.15076573454E+03  0.15076573462E+03  0.50400001928E-02 0.  1.
    10030    2    1    2    0    0  0.00000000000E+00  0.00000000000E+00  0.66145670033E+03  0.96298816950E+03  0.69987230849E+03 0.  0.
        1    1    3    3  502    0 -0.23120319582E+03  0.71116477957E+01 -0.30572268983E+02  0.23332414566E+03  0.50400001928E-02 0.  1.
       -1    1    3    3    0  502  0.23120319582E+03 -0.71116477957E+01  0.69202896931E+03  0.72966402384E+03  0.50400001928E-02 0. -1.
</event>
<event>
 5   0  0.7574241E-04  0.7041718E+03  0.7818609E-02  0.9710124E-01
       -1   -1    0    0    0  501  0.00000000000E+00  0.00000000000E+00  0.78274866496E+02  0.78274866658E+02  0.50400001928E-02 0. -1.
        1   -1    0    0  501    0  0.00000000000E+00  0.00000000000E+00 -0.15837073703E+04  0.15837073703E+04  0.50400001928E-02 0.  1.
    10030    2    1    2    0    0  0.00000000000E+00  0.00000000000E+00 -0.15054325038E+04  0.16619822370E+04  0.70417180608E+03 0.  0.
        3    1    3    3  502    0 -0.17332936549E+03  0.27697862801E+03 -0.10622910061E+04  0.11114056061E+04  0.10100000352E+00 0.  1.
       -3    1    3    3    0  502  0.17332936549E+03 -0.27697862801E+03 -0.44314149765E+03  0.55057663087E+03  0.10100000352E+00 0. -1.
</event>
<event>
 5   0  0.7572415E-04  0.7002442E+03  0.7818609E-02  0.9716815E-01
        1   -1    0    0  501    0  0.00000000000E+00  0.00000000000E+00  0.56569396705E+03  0.56569396707E+03  0.50400001928E-02 0.  1.
       -1   -1    0    0    0  501  0.00000000000E+00  0.00000000000E+00 -0.21669932627E+03  0.21669932633E+03  0.50400001928E-02 0. -1.
    10030    2    1    2    0    0  0.00000000000E+00  0.00000000000E+00  0.34899464078E+03  0.78239329340E+03  0.70024424757E+03 0.  0.
        4    1    3    3  502    0  0.34700696861E+03  0.26364808849E+02  0.13158676768E+03  0.37205594974E+03  0.12699999809E+01 0.  1.
       -4    1    3    3    0  502 -0.34700696861E+03 -0.26364808849E+02  0.21740787310E+03  0.41033734365E+03  0.12699999809E+01 0. -1.
</event>
<event>
 5   0  0.4936000E-04  0.7000131E+03  0.7818609E-02  0.9717210E-01
        3   -1    0    0  501    0  0.00000000000E+00  0.00000000000E+00  0.13393185045E+04  0.13393185083E+04  0.10100000352E+00 0.  1.
       -3   -1    0    0    0  501  0.00000000000E+00  0.00000000000E+00 -0.91467826795E+02  0.91467882558E+02  0.10100000352E+00 0. -1.
    10030    2    1    2    0    0  0.00000000000E+00  0.00000000000E+00  0.12478506777E+04  0.14307863909E+04  0.70001313019E+03 0.  0.
        4    1    3    3  502    0  0.88087033108E+02 -0.33762307882E+03  0.56778892246E+03  0.66643419939E+03  0.12699999809E+01 0. -1.
       -4    1    3    3    0  502 -0.88087033108E+02  0.33762307882E+03  0.68006175524E+03  0.76435219147E+03  0.12699999809E+01 0.  1.
</event>
<event>
 5   0  0.7013526E-04  0.7000407E+03  0.7818609E-02  0.9717163E-01
       -1   -1    0    0    0  501  0.00000000000E+00  0.00000000000E+00  0.11020327888E+03  0.11020327900E+03  0.50400001928E-02 0. -1.
        1   -1    0    0  501    0  0.00000000000E+00  0.00000000000E+00 -0.11117113360E+04  0.11117113360E+04  0.50400001928E-02 0.  1.
    10030    2    1    2    0    0  0.00000000000E+00  0.00000000000E+00 -0.10015080571E+04  0.12219146150E+04  0.70004066877E+03 0.  0.
        1    1    3    3  502    0 -0.12490028100E+03 -0.15401321358E+03 -0.10042126836E+04  0.10236030794E+04  0.50400001928E-02 0.  1.
       -1    1    3    3    0  502  0.12490028100E+03  0.15401321358E+03  0.27046264622E+01  0.19831153567E+03  0.50400001928E-02 0. -1.
</event>
<event>
 5   0  0.1224048E-03  0.6999785E+03  0.7818609E-02  0.9717269E-01
       -2   -1    0    0    0  501  0.00000000000E+00  0.00000000000E+00  0.12882254261E+03  0.12882254263E+03  0.25500000920E-02 0. -1.
        2   -1    0    0  501    0  0.00000000000E+00  0.00000000000E+00 -0.95086199575E+03  0.95086199575E+03  0.25500000920E-02 0.  1.
    10030    2    1    2    0    0  0.00000000000E+00  0.00000000000E+00 -0.82203945314E+03  0.10796845384E+04  0.69997845675E+03 0.  0.
        3    1    3    3  502    0 -0.10150712355E+03  0.27663742088E+03 -0.11974294481E+03  0.31807285612E+03  0.10100000352E+00 0. -1.
       -3    1    3    3    0  502  0.10150712355E+03 -0.27663742088E+03 -0.70229650832E+03  0.76161168227E+03  0.10100000352E+00 0.  1.
</event>
<event>
 5   0  0.7459843E-04  0.6996172E+03  0.7818609E-02  0.9717887E-01
       -1   -1    0    0    0  501  0.00000000000E+00  0.00000000000E+00  0.72836473003E+03  0.72836473004E+03  0.50400001928E-02 0.  1.
        1   -1    0    0  501    0  0.00000000000E+00  0.00000000000E+00 -0.16800106836E+03  0.16800106844E+03  0.50400001928E-02 0. -1.
    10030    2    1    2    0    0  0.00000000000E+00  0.00000000000E+00  0.56036366166E+03  0.89636579848E+03  0.69961718917E+03 0.  0.
        2    1    3    3  502    0 -0.10656473223E+03  0.20276210898E+03  0.61891345539E+03  0.65994119455E+03  0.25500000920E-02 0.  1.
       -2    1    3    3    0  502  0.10656473223E+03 -0.20276210898E+03 -0.58549793732E+02  0.23642460393E+03  0.25500000920E-02 0. -1.
</event>
<event>
 5   0  0.1265562E-03  0.6995822E+03  0.7818609E-02  0.9717947E-01
       -2   -1    0    0    0  501  0.00000000000E+00  0.00000000000E+00  0.10254245898E+03  0.10254245902E+03  0.25500000920E-02 0.  1.
        2   -1    0    0  501    0  0.00000000000E+00  0.00000000000E+00 -0.11932015515E+04  0.11932015515E+04  0.25500000920E-02 0. -1.
    10030    2    1    2    0    0  0.00000000000E+00  0.00000000000E+00 -0.10906590925E+04  0.12957440105E+04  0.69958222155E+03 0.  0.
        1    1    3    3  502    0  0.10102706607E+03  0.33238385486E+03 -0.62098163404E+03  0.71155019844E+03  0.50400001928E-02 0. -1.
       -1    1    3    3    0  502 -0.10102706607E+03 -0.33238385486E+03 -0.46967745848E+03  0.58419381209E+03  0.50400001928E-02 0.  1.
</event>
<event>
 5   0  0.7459843E-04  0.6999735E+03  0.7818609E-02  0.9717278E-01
       -1   -1    0    0    0  501  0.00000000000E+00  0.00000000000E+00  0.12144032104E+03  0.12144032115E+03  0.50400001928E-02 0. -1.
        1   -1    0    0  501    0  0.00000000000E+00  0.00000000000E+00 -0.10086495205E+04  0.10086495205E+04  0.50400001928E-02 0.  1.
    10030    2    1    2    0    0  0.00000000000E+00  0.00000000000E+00 -0.88720919941E+03  0.11300898416E+04  0.69997348993E+03 0.  0.
        2    1    3    3  502    0 -0.18618730421E+03 -0.22195977121E+03 -0.12657959024E+03  0.31615541266E+03  0.25500000920E-02 0.  1.
       -2    1    3    3    0  502  0.18618730421E+03  0.22195977121E+03 -0.76062960918E+03  0.81393442896E+03  0.25500000920E-02 0. -1.
</event>
<event>
 5   0  0.7574241E-04  0.6996954E+03  0.7818609E-02  0.9717753E-01
       -1   -1    0    0    0  501  0.00000000000E+00  0.00000000000E+00  0.16879275735E+03  0.16879275743E+03  0.50400001928E-02 0.  1.
        1   -1    0    0  501    0  0.00000000000E+00  0.00000000000E+00 -0.72511050663E+03  0.72511050665E+03  0.50400001928E-02 0. -1.
    10030    2    1    2    0    0  0.00000000000E+00  0.00000000000E+00 -0.55631774928E+03  0.89390326408E+03  0.69969536754E+03 0.  0.
        3    1    3    3  502    0 -0.13471005916E+03 -0.21922119834E+03  0.24675976440E+02  0.25848336089E+03  0.10100000352E+00 0.  1.
       -3    1    3    3    0  502  0.13471005916E+03  0.21922119834E+03 -0.58099372572E+03  0.63541990319E+03  0.10100000352E+00 0. -1.
</event>
<event>
 5   0  0.1243087E-03  0.7028082E+03  0.7818609E-02  0.9712442E-01
       -2   -1    0    0    0  501  0.00000000000E+00  0.00000000000E+00  0.10009872676E+03  0.10009872679E+03  0.25500000920E-02 0. -1.
        2   -1    0    0  501    0  0.00000000000E+00  0.00000000000E+00 -0.12336305642E+04  0.12336305642E+04  0.25500000920E-02 0.  1.
    10030    2    1    2    0    0  0.00000000000E+00  0.00000000000E+00 -0.11335318374E+04  0.13337292910E+04  0.70280822075E+03 0.  0.
        4    1    3    3  502    0 -0.10189680760E+03  0.92434545980E+02  0.46862703668E+02  0.14534383573E+03  0.12699999809E+01 0. -1.
       -4    1    3    3    0  502  0.10189680760E+03 -0.92434545980E+02 -0.11803945411E+04  0.11883854553E+04  0.12699999809E+01 0.  1.
</event>
<event>
 5   0  0.7572415E-04  0.6990508E+03  0.7818609E-02  0.9718857E-01
       -1   -1    0    0    0  501  0.00000000000E+00  0.00000000000E+00  0.10827362006E+03  0.10827362018E+03  0.50400001928E-02 0.  1.
        1   -1    0    0  501    0  0.00000000000E+00  0.00000000000E+00 -0.11283265123E+04  0.11283265123E+04  0.50400001928E-02 0. -1.
    10030    2    1    2    0    0  0.00000000000E+00  0.00000000000E+00 -0.10200528922E+04  0.12366001325E+04  0.69905077405E+03 0.  0.
        4    1    3    3  502    0 -0.14137893249E+02  0.33144171752E+03 -0.70471681806E+03  0.77889723243E+03  0.12699999809E+01 0.  1.
       -4    1    3    3    0  502  0.14137893249E+02 -0.33144171752E+03 -0.31533607414E+03  0.45770290002E+03  0.12699999809E+01 0. -1.
</event>
<event>
 5   0  0.1222679E-03  0.6992835E+03  0.7818609E-02  0.9718458E-01
        2   -1    0    0  501    0  0.00000000000E+00  0.00000000000E+00  0.89486593173E+03  0.89486593173E+03  0.25500000920E-02 0. -1.
       -2   -1    0    0    0  501  0.00000000000E+00  0.00000000000E+00 -0.13661193168E+03  0.13661193171E+03  0.25500000920E-02 0.  1.
    10030    2    1    2    0    0  0.00000000000E+00  0.00000000000E+00  0.75825400004E+03  0.10314778634E+04  0.69928352917E+03 0.  0.
        2    1    3    3  502    0  0.20752155760E+03  0.25603254143E+03  0.20690901369E+03  0.38913904854E+03  0.25500000920E-02 0.  1.
       -2    1    3    3    0  502 -0.20752155760E+03 -0.25603254143E+03  0.55134498635E+03  0.64233881490E+03  0.25500000920E-02 0. -1.
</event>
<event>
 5   0  0.7574241E-04  0.7000506E+03  0.7818609E-02  0.9717146E-01
        1   -1    0    0  501    0  0.00000000000E+00  0.00000000000E+00  0.22556426690E+03  0.22556426696E+03  0.50400001928E-02 0. -1.
       -1   -1    0    0    0  501  0.00000000000E+00  0.00000000000E+00 -0.54316097587E+03  0.54316097590E+03  0.50400001928E-02 0.  1.
    10030    2    1    2    0    0  0.00000000000E+00  0.00000000000E+00 -0.31759670897E+03  0.76872524285E+03  0.70005059063E+03 0.  0.
        3    1    3    3  502    0 -0.25512302387E+03 -0.23909663932E+03 -0.17659762744E+03  0.39171634184E+03  0.10100000352E+00 0. -1.
       -3    1    3    3    0  502  0.25512302387E+03  0.23909663932E+03 -0.14099908153E+03  0.37700890101E+03  0.10100000352E+00 0.  1.
</event>
<event>
 5   0  0.1224048E-03  0.7029223E+03  0.7818609E-02  0.9712248E-01
        2   -1    0    0  501    0  0.00000000000E+00  0.00000000000E+00  0.85860386882E+03  0.85860386883E+03  0.25500000920E-02 0.  1.
       -2   -1    0    0    0  501  0.00000000000E+00  0.00000000000E+00 -0.14386721328E+03  0.14386721330E+03  0.25500000920E-02 0. -1.
    10030    2    1    2    0    0  0.00000000000E+00  0.00000000000E+00  0.71473665554E+03  0.10024710821E+04  0.70292231700E+03 0.  0.
        3    1    3    3  502    0  0.31079567625E+03 -0.69693382376E+02  0.56925479929E+03  0.65230526338E+03  0.10100000352E+00 0.  1.
       -3    1    3    3    0  502 -0.31079567625E+03  0.69693382376E+02  0.14548185625E+03  0.35016581875E+03  0.10100000352E+00 0. -1.
</event>
<event>
 5   0  0.7459843E-04  0.7000544E+03  0.7818609E-02  0.9717139E-01
       -1   -1    0    0    0  501  0.00000000000E+00  0.00000000000E+00  0.89401336375E+02  0.89401336517E+02  0.50400001928E-02 0.  1.
        1   -1    0    0  501    0  0.00000000000E+00  0.00000000000E+00 -0.13704384253E+04  0.13704384253E+04  0.50400001928E-02 0. -1.
    10030    2    1    2    0    0  0.00000000000E+00  0.00000000000E+00 -0.12810370889E+04  0.14598397618E+04  0.70005436004E+03 0.  0.
        2    1    3    3  502    0 -0.15045250864E+03 -0.35242281563E+02  0.14422591950E+02  0.15519660734E+03  0.25500000920E-02 0.  1.
       -2    1    3    3    0  502  0.15045250864E+03  0.35242281563E+02 -0.12954596809E+04  0.13046431545E+04  0.25500000920E-02 0. -1.
</event>
<event>
 5   0  0.1222679E-03  0.6998003E+03  0.7818609E-02  0.9717574E-01
       -2   -1    0    0    0  501  0.00000000000E+00  0.00000000000E+00  0.23852343294E+03  0.23852343295E+03  0.25500000920E-02 0. -1.
        2   -1    0    0  501    0  0.00000000000E+00  0.00000000000E+00 -0.51328331552E+03  0.51328331552E+03  0.25500000920E-02 0.  1.
    10030    2    1    2    0    0  0.00000000000E+00  0.00000000000E+00 -0.27475988258E+03  0.75180674848E+03  0.69980025292E+03 0.  0.
        2    1    3    3  502    0 -0.24363765553E+02 -0.29124685636E+03 -0.34406166550E+03  0.45143853855E+03  0.25500000920E-02 0.  1.
       -2    1    3    3    0  502  0.24363765553E+02  0.29124685636E+03  0.69301782923E+02  0.30036820993E+03  0.25500000920E-02 0. -1.
</event>
<event>
 5   0  0.1265562E-03  0.7004620E+03  0.7818609E-02  0.9716442E-01
       -2   -1    0    0    0  501  0.00000000000E+00  0.00000000000E+00  0.42738156833E+03  0.42738156834E+03  0.25500000920E-02 0.  1.
        2   -1    0    0  501    0  0.00000000000E+00  0.00000000000E+00 -0.28700762402E+03  0.28700762403E+03  0.25500000920E-02 0. -1.
    10030    2    1    2    0    0  0.00000000000E+00  0.00000000000E+00  0.14037394431E+03  0.71438919237E+03  0.70046204318E+03 0.  0.
        1    1    3    3  502    0 -0.28068780517E+03 -0.13898398071E+02 -0.14297331357E+03  0.31530965392E+03  0.50400001928E-02 0. -1.
       -1    1    3    3    0  502  0.28068780517E+03  0.13898398071E+02  0.28334725788E+03  0.39907953845E+03  0.50400001928E-02 0.  1.
</event>
<event>
 5   0  0.7013526E-04  0.6999191E+03  0.7818609E-02  0.9717371E-01
       -1   -1    0    0    0  501  0.00000000000E+00  0.00000000000E+00  0.40632240090E+03  0.40632240094E+03  0.50400001928E-02 0. -1.
        1   -1    0    0  501    0  0.00000000000E+00  0.00000000000E+00 -0.30141501172E+03  0.30141501177E+03  0.50400001928E-02 0.  1.
    10030    2    1    2    0    0  0.00000000000E+00  0.00000000000E+00  0.10490738918E+03  0.70773741270E+03  0.69991905606E+03 0.  0.
        1    1    3    3  502    0  0.31002352742E+03  0.64021043035E+02 -0.98405299444E+02  0.33150699011E+03  0.50400001928E-02 0.  1.
       -1    1    3    3    0  502 -0.31002352742E+03 -0.64021043035E+02  0.20331268863E+03  0.37623042260E+03  0.50400001928E-02 0. -1.
</event>
<event>
 5   0  0.7459843E-04  0.6999984E+03  0.7818609E-02  0.9717235E-01
        1   -1    0    0  501    0  0.00000000000E+00  0.00000000000E+00  0.76462654877E+03  0.76462654878E+03  0.50400001928E-02 0. -1.
       -1   -1    0    0    0  501  0.00000000000E+00  0.00000000000E+00 -0.16020818301E+03  0.16020818309E+03  0.50400001928E-02 0.  1.
    10030    2    1    2    0    0  0.00000000000E+00  0.00000000000E+00  0.60441836576E+03  0.92483473187E+03  0.69999837172E+03 0.  0.
        2    1    3    3  502    0  0.18820051590E+03  0.12350937442E+03  0.65629311523E+03  0.69382609698E+03  0.25500000920E-02 0. -1.
       -2    1    3    3    0  502 -0.18820051590E+03 -0.12350937442E+03 -0.51874749469E+02  0.23100863489E+03  0.25500000920E-02 0.  1.
</event>
<event>
 5   0  0.1222679E-03  0.7001094E+03  0.7818609E-02  0.9717045E-01
       -2   -1    0    0    0  501  0.00000000000E+00  0.00000000000E+00  0.13887422488E+03  0.13887422491E+03  0.25500000920E-02 0. -1.
        2   -1    0    0  501    0  0.00000000000E+00  0.00000000000E+00 -0.88236893819E+03  0.88236893820E+03  0.25500000920E-02 0.  1.
    10030    2    1    2    0    0  0.00000000000E+00  0.00000000000E+00 -0.74349471331E+03  0.10212431631E+04  0.70010942678E+03 0.  0.
        2    1    3    3  502    0 -0.90339036513E+02  0.33515779948E+03 -0.30576017317E+03  0.46258099353E+03  0.25500000920E-02 0. -1.
       -2    1    3    3    0  502  0.90339036513E+02 -0.33515779948E+03 -0.43773454014E+03  0.55866216957E+03  0.25500000920E-02 0.  1.
</event>
<event>
 5   0  0.1243087E-03  0.7003037E+03  0.7818609E-02  0.9716713E-01
        2   -1    0    0  501    0  0.00000000000E+00  0.00000000000E+00  0.55312968233E+03  0.55312968233E+03  0.25500000920E-02 0. -1.
       -2   -1    0    0    0  501  0.00000000000E+00  0.00000000000E+00 -0.22165924701E+03  0.22165924702E+03  0.25500000920E-02 0.  1.
    10030    2    1    2    0    0  0.00000000000E+00  0.00000000000E+00  0.33147043532E+03  0.77478892935E+03  0.70030367381E+03 0.  0.
        4    1    3    3  502    0  0.78930664850E+02 -0.10271726887E+03 -0.19417045866E+03  0.23341950881E+03  0.12699999809E+01 0.  1.
       -4    1    3    3    0  502 -0.78930664850E+02  0.10271726887E+03  0.52564089398E+03  0.54136942054E+03  0.12699999809E+01 0. -1.
</event>
<event>
 5   0  0.1224048E-03  0.6994579E+03  0.7818609E-02  0.9718160E-01
       -2   -1    0    0    0  501  0.00000000000E+00  0.00000000000E+00  0.29273499029E+03  0.29273499030E+03  0.25500000920E-02 0.  1.
        2   -1    0    0  501    0  0.00000000000E+00  0.00000000000E+00 -0.41781932804E+03  0.41781932804E+03  0.25500000920E-02 0. -1.
    10030    2    1    2    0    0  0.00000000000E+00  0.00000000000E+00 -0.12508433775E+03  0.71055431834E+03  0.69945789564E+03 0.  0.
        3    1    3    3  502    0 -0.40782996544E+02  0.34270507524E+03 -0.12001087431E+03  0.36539381708E+03  0.10100000352E+00 0.  1.
       -3    1    3    3    0  502  0.40782996544E+02 -0.34270507524E+03 -0.50734634389E+01  0.34516050127E+03  0.10100000352E+00 0. -1.
</event>
<event>
 5   0  0.1282546E-03  0.7001661E+03  0.7818609E-02  0.9716948E-01
       -2   -1    0    0    0  501  0.00000000000E+00  0.00000000000E+00  0.46049167027E+03  0.46049167027E+03  0.25500000920E-02 0. -1.
        2   -1    0    0  501    0  0.00000000000E+00  0.00000000000E+00 -0.26614629419E+03  0.26614629420E+03  0.25500000920E-02 0.  1.
    10030    2    1    2    0    0  0.00000000000E+00  0.00000000000E+00  0.19434537608E+03  0.72663796448E+03  0.70016612759E+03 0.  0.
        5    1    3    3  502    0 -0.20241436272E+03  0.24405934405E+03  0.25110281549E+03  0.40448887697E+03  0.46999998093E+01 0. -1.
       -5    1    3    3    0  502  0.20241436272E+03 -0.24405934405E+03 -0.56757439410E+02  0.32214908750E+03  0.46999998093E+01 0.  1.
</event>
<event>
 5   0  0.7572415E-04  0.6999677E+03  0.7818609E-02  0.9717287E-01
        1   -1    0    0  501    0  0.00000000000E+00  0.00000000000E+00  0.36445526074E+03  0.36445526077E+03  0.50400001928E-02 0. -1.
       -1   -1    0    0    0  501  0.00000000000E+00  0.00000000000E+00 -0.33608702272E+03  0.33608702276E+03  0.50400001928E-02 0.  1.
    10030    2    1    2    0    0  0.00000000000E+00  0.00000000000E+00  0.28368238016E+02  0.70054228353E+03  0.69996766646E+03 0.  0.
        4    1    3    3  502    0 -0.19390516194E+03  0.25955581026E+03  0.14665077423E+03  0.35563533704E+03  0.12699999809E+01 0. -1.
       -4    1    3    3    0  502  0.19390516194E+03 -0.25955581026E+03 -0.11828253622E+03  0.34490694650E+03  0.12699999809E+01 0.  1.
</event>
<event>
 5   0  0.7574241E-04  0.6989348E+03  0.7818609E-02  0.9719055E-01
       -1   -1    0    0    0  501  0.00000000000E+00  0.00000000000E+00  0.20505891780E+03  0.20505891786E+03  0.50400001928E-02 0. -1.
        1   -1    0    0  501    0  0.00000000000E+00  0.00000000000E+00 -0.59557263985E+03  0.59557263987E+03  0.50400001928E-02 0.  1.
    10030    2    1    2    0    0  0.00000000000E+00  0.00000000000E+00 -0.39051372205E+03  0.80063155774E+03  0.69893484971E+03 0.  0.
        3    1    3    3  502    0 -0.62602296424E+02 -0.32717253059E+03 -0.31630432147E+03  0.45935753643E+03  0.10100000352E+00 0.  1.
       -3    1    3    3    0  502  0.62602296424E+02  0.32717253059E+03 -0.74209400578E+02  0.34127402131E+03  0.10100000352E+00 0. -1.
</event>
<event>
 5   0  0.7013526E-04  0.7001590E+03  0.7818609E-02  0.9716960E-01
       -1   -1    0    0    0  501  0.00000000000E+00  0.00000000000E+00  0.70274901847E+03  0.70274901849E+03  0.50400001928E-02 0. -1.
        1   -1    0    0  501    0  0.00000000000E+00  0.00000000000E+00 -0.17439464022E+03  0.17439464029E+03  0.50400001928E-02 0.  1.
    10030    2    1    2    0    0  0.00000000000E+00  0.00000000000E+00  0.52835437825E+03  0.87714365878E+03  0.70015901702E+03 0.  0.
        1    1    3    3  502    0 -0.15955731575E+03  0.29469619226E+03  0.13733518965E+03  0.36216755388E+03  0.50400001928E-02 0.  1.
       -1    1    3    3    0  502  0.15955731575E+03 -0.29469619226E+03  0.39101918860E+03  0.51497610490E+03  0.50400001928E-02 0. -1.
</event>
<event>
 5   0  0.1243087E-03  0.7000904E+03  0.7818609E-02  0.9717078E-01
       -2   -1    0    0    0  501  0.00000000000E+00  0.00000000000E+00  0.36829773957E+03  0.36829773958E+03  0.25500000920E-02 0. -1.
        2   -1    0    0  501    0  0.00000000000E+00  0.00000000000E+00 -0.33269722640E+03  0.33269722641E+03  0.25500000920E-02 0.  1.
    10030    2    1    2    0    0  0.00000000000E+00  0.00000000000E+00  0.35600513171E+02  0.70099496599E+03  0.70009038403E+03 0.  0.
        4    1    3    3  502    0 -0.30758386078E+03 -0.14037682080E+03 -0.72961999418E+02  0.34588805918E+03  0.12699999809E+01 0.  1.
       -4    1    3    3    0  502  0.30758386078E+03  0.14037682080E+03  0.10856251259E+03  0.35510690681E+03  0.12699999809E+01 0. -1.
</event>
<event>
 5   0  0.1243087E-03  0.6999978E+03  0.7818609E-02  0.9717236E-01
       -2   -1    0    0    0  501  0.00000000000E+00  0.00000000000E+00  0.22135157120E+03  0.22135157121E+03  0.25500000920E-02 0.  1.
        2   -1    0    0  501    0  0.00000000000E+00  0.00000000000E+00 -0.55341483208E+03  0.55341483209E+03  0.25500000920E-02 0. -1.
    10030    2    1    2    0    0  0.00000000000E+00  0.00000000000E+00 -0.33206326089E+03  0.77476640330E+03  0.69999783603E+03 0.  0.
        4    1    3    3  502    0  0.23368003119E+03  0.23081130161E+03 -0.29984804294E+03  0.44473663632E+03  0.12699999809E+01 0. -1.
       -4    1    3    3    0  502 -0.23368003119E+03 -0.23081130161E+03 -0.32215217947E+02  0.33002976698E+03  0.12699999809E+01 0.  1.
</event>
<event>
 5   0  0.7570633E-04  0.6999906E+03  0.7818609E-02  0.9717248E-01
        1   -1    0    0  501    0  0.00000000000E+00  0.00000000000E+00  0.86311975464E+03  0.86311975466E+03  0.50400001928E-02 0. -1.
       -1   -1    0    0    0  501  0.00000000000E+00  0.00000000000E+00 -0.14192318360E+03  0.14192318369E+03  0.50400001928E-02 0.  1.
    10030    2    1    2    0    0  0.00000000000E+00  0.00000000000E+00  0.72119657105E+03  0.10050429383E+04  0.69999058124E+03 0.  0.
        5    1    3    3  502    0 -0.24029148175E+03 -0.24880283910E+03  0.28419342497E+03  0.44769503207E+03  0.46999998093E+01 0.  1.
       -5    1    3    3    0  502  0.24029148175E+03  0.24880283910E+03  0.43700314607E+03  0.55734790627E+03  0.46999998093E+01 0. -1.
</event>
<event>
 5   0  0.1222679E-03  0.6999678E+03  0.7818609E-02  0.9717287E-01
       -2   -1    0    0    0  501  0.00000000000E+00  0.00000000000E+00  0.18820154102E+03  0.18820154103E+03  0.25500000920E-02 0. -1.
        2   -1    0    0  501    0  0.00000000000E+00  0.00000000000E+00 -0.65083799757E+03  0.65083799757E+03  0.25500000920E-02 0.  1.
    10030    2    1    2    0    0  0.00000000000E+00  0.00000000000E+00 -0.46263645655E+03  0.83903953861E+03  0.69996775384E+03 0.  0.
        2    1    3    3  502    0  0.26404704570E+03  0.92401518462E+02 -0.48341195245E+03  0.55852126078E+03  0.25500000920E-02 0.  1.
       -2    1    3    3    0  502 -0.26404704570E+03 -0.92401518462E+02  0.20775495900E+02  0.28051827783E+03  0.25500000920E-02 0. -1.
</event>
<event>
 5   0  0.7459843E-04  0.6999686E+03  0.7818609E-02  0.9717286E-01
       -1   -1    0    0    0  501  0.00000000000E+00  0.00000000000E+00  0.15921972178E+03  0.15921972186E+03  0.50400001928E-02 0. -1.
        1   -1    0    0  501    0  0.00000000000E+00  0.00000000000E+00 -0.76930812057E+03  0.76930812058E+03  0.50400001928E-02 0.  1.
    10030    2    1    2    0    0  0.00000000000E+00  0.00000000000E+00 -0.61008839879E+03  0.92852784244E+03  0.69996864205E+03 0.  0.
        2    1    3    3  502    0  0.22628043856E+01  0.12448708990E+03 -0.73893614228E+03  0.74935223907E+03  0.25500000920E-02 0.  1.
       -2    1    3    3    0  502 -0.22628043856E+01 -0.12448708990E+03  0.12884774349E+03  0.17917560337E+03  0.25500000920E-02 0. -1.
</event>
<event>
 5   0  0.7574241E-04  0.7001425E+03  0.7818609E-02  0.9716989E-01
       -1   -1    0    0    0  501  0.00000000000E+00  0.00000000000E+00  0.15497958003E+03  0.15497958011E+03  0.50400001928E-02 0. -1.
        1   -1    0    0  501    0  0.00000000000E+00  0.00000000000E+00 -0.79074856391E+03  0.79074856393E+03  0.50400001928E-02 0.  1.
    10030    2    1    2    0    0  0.00000000000E+00  0.00000000000E+00 -0.63576898388E+03  0.94572814404E+03  0.70014250090E+03 0.  0.
        3    1    3    3  502    0  0.17610360264E+03  0.30255115751E+03 -0.31729816467E+03  0.47246991150E+03  0.10100000352E+00 0. -1.
       -3    1    3    3    0  502 -0.17610360264E+03 -0.30255115751E+03 -0.31847081921E+03  0.47325823254E+03  0.10100000352E+00 0.  1.
</event>
<event>
 5   0  0.1282546E-03  0.7001157E+03  0.7818609E-02  0.9717034E-01
       -2   -1    0    0    0  501  0.00000000000E+00  0.00000000000E+00  0.23382720375E+03  0.23382720377E+03  0.25500000920E-02 0. -1.
        2   -1    0    0  501    0  0.00000000000E+00  0.00000000000E+00 -0.52406436563E+03  0.52406436563E+03  0.25500000920E-02 0.  1.
    10030    2    1    2    0    0  0.00000000000E+00  0.00000000000E+00 -0.29023716187E+03  0.75789156940E+03  0.70011571960E+03 0.  0.
        5    1    3    3  502    0 -0.34348314408E+03  0.71197381458E+01 -0.72605241120E+02  0.35117655385E+03  0.46999998093E+01 0. -1.
       -5    1    3    3    0  502  0.34348314408E+03 -0.71197381458E+01 -0.21763192075E+03  0.40671501554E+03  0.46999998093E+01 0.  1.
</event>
<event>
 5   0  0.1265562E-03  0.7012044E+03  0.7818609E-02  0.9715175E-01
        2   -1    0    0  501    0  0.00000000000E+00  0.00000000000E+00  0.11651687546E+04  0.11651687546E+04  0.25500000920E-02 0. -1.
       -2   -1    0    0    0  501  0.00000000000E+00  0.00000000000E+00 -0.10549707429E+03  0.10549707432E+03  0.25500000920E-02 0.  1.
    10030    2    1    2    0    0  0.00000000000E+00  0.00000000000E+00  0.10596716803E+04  0.12706658289E+04  0.70120437730E+03 0.  0.
        1    1    3    3  502    0 -0.55039290086E+02 -0.12096138275E+03  0.11177586406E+04  0.11256310933E+04  0.50400001928E-02 0. -1.
       -1    1    3    3    0  502  0.55039290086E+02  0.12096138275E+03 -0.58086960246E+02  0.14503473565E+03  0.50400001928E-02 0.  1.
</event>
<event>
 5   0  0.7572415E-04  0.6997360E+03  0.7818609E-02  0.9717684E-01
       -1   -1    0    0    0  501  0.00000000000E+00  0.00000000000E+00  0.21612018897E+03  0.21612018903E+03  0.50400001928E-02 0.  1.
        1   -1    0    0  501    0  0.00000000000E+00  0.00000000000E+00 -0.56638669991E+03  0.56638669993E+03  0.50400001928E-02 0. -1.
    10030    2    1    2    0    0  0.00000000000E+00  0.00000000000E+00 -0.35026651094E+03  0.78250688896E+03  0.69973595205E+03 0.  0.
        4    1    3    3  502    0  0.14950993061E+03  0.15398724357E+03 -0.48411444609E+03  0.52955991196E+03  0.12699999809E+01 0. -1.
       -4    1    3    3    0  502 -0.14950993061E+03 -0.15398724357E+03  0.13384793515E+03  0.25294697701E+03  0.12699999809E+01 0.  1.
</event>
<event>
 5   0  0.7572415E-04  0.6997422E+03  0.7818609E-02  0.9717673E-01
       -1   -1    0    0    0  501  0.00000000000E+00  0.00000000000E+00  0.88377694774E+02  0.88377694918E+02  0.50400001928E-02 0.  1.
        1   -1    0    0  501    0  0.00000000000E+00  0.00000000000E+00 -0.13850757232E+04  0.13850757232E+04  0.50400001928E-02 0. -1.
    10030    2    1    2    0    0  0.00000000000E+00  0.00000000000E+00 -0.12966980284E+04  0.14734534181E+04  0.69974223715E+03 0.  0.
        4    1    3    3  502    0 -0.18493990543E+03  0.28082543420E+03 -0.44481840809E+03  0.55761162307E+03  0.12699999809E+01 0.  1.
       -4    1    3    3    0  502  0.18493990543E+03 -0.28082543420E+03 -0.85187962029E+03  0.91584179500E+03  0.12699999809E+01 0. -1.
</event>
<event>
 5   0  0.7574241E-04  0.7005441E+03  0.7818609E-02  0.9716302E-01
       -1   -1    0    0    0  501  0.00000000000E+00  0.00000000000E+00  0.92818129506E+02  0.92818129643E+02  0.50400001928E-02 0.  1.
        1   -1    0    0  501    0  0.00000000000E+00  0.00000000000E+00 -0.13218376384E+04  0.13218376384E+04  0.50400001928E-02 0. -1.
    10030    2    1    2    0    0  0.00000000000E+00  0.00000000000E+00 -0.12290195089E+04  0.14146557680E+04  0.70054406630E+03 0.  0.
        3    1    3    3  502    0  0.30320265718E+03 -0.16620491880E+03 -0.72756836782E+03  0.80555053622E+03  0.10100000352E+00 0.  1.
       -3    1    3    3    0  502 -0.30320265718E+03  0.16620491880E+03 -0.50145114104E+03  0.60910523180E+03  0.10100000352E+00 0. -1.
</event>
<event>
 5   0  0.1243087E-03  0.7001344E+03  0.7818609E-02  0.9717002E-01
       -2   -1    0    0    0  501  0.00000000000E+00  0.00000000000E+00  0.45121750199E+03  0.45121750200E+03  0.25500000920E-02 0.  1.
        2   -1    0    0  501    0  0.00000000000E+00  0.00000000000E+00 -0.27159194693E+03  0.27159194694E+03  0.25500000920E-02 0. -1.
    10030    2    1    2    0    0  0.00000000000E+00  0.00000000000E+00  0.17962555506E+03  0.72280944894E+03  0.70013438670E+03 0.  0.
        4    1    3    3  502    0 -0.91539870843E+02 -0.13684879740E+02  0.43835394207E+03  0.44802077554E+03  0.12699999809E+01 0.  1.
       -4    1    3    3    0  502  0.91539870843E+02  0.13684879740E+02 -0.25872838701E+03  0.27478867340E+03  0.12699999809E+01 0. -1.
</event>
<event>
 5   0  0.7570633E-04  0.7000294E+03  0.7818609E-02  0.9717182E-01
       -1   -1    0    0    0  501  0.00000000000E+00  0.00000000000E+00  0.76929598464E+03  0.76929598466E+03  0.50400001928E-02 0. -1.
        1   -1    0    0  501    0  0.00000000000E+00  0.00000000000E+00 -0.15924985463E+03  0.15924985471E+03  0.50400001928E-02 0.  1.
    10030    2    1    2    0    0  0.00000000000E+00  0.00000000000E+00  0.61004613001E+03  0.92854583937E+03  0.70002935301E+03 0.  0.
        5    1    3    3  502    0  0.21708227883E+03 -0.24248907088E+03  0.13431647559E+03  0.35212025061E+03  0.46999998093E+01 0.  1.
       -5    1    3    3    0  502 -0.21708227883E+03  0.24248907088E+03  0.47572965442E+03  0.57642558876E+03  0.46999998093E+01 0. -1.
</event>
<event>
 5   0  0.1224048E-03  0.6999925E+03  0.7818609E-02  0.9717245E-01
       -2   -1    0    0    0  501  0.00000000000E+00  0.00000000000E+00  0.64515916924E+02  0.64515916974E+02  0.25500000920E-02 0.  1.
        2   -1    0    0  501    0  0.00000000000E+00  0.00000000000E+00 -0.18987157081E+04  0.18987157081E+04  0.25500000920E-02 0. -1.
    10030    2    1    2    0    0  0.00000000000E+00  0.00000000000E+00 -0.18341997912E+04  0.19632316251E+04  0.69999252835E+03 0.  0.
        3    1    3    3  502    0  0.25408881436E+03 -0.23796758173E+03 -0.81567869561E+03  0.88686044010E+03  0.10100000352E+00 0.  1.
       -3    1    3    3    0  502 -0.25408881436E+03  0.23796758173E+03 -0.10185210955E+04  0.10763711850E+04  0.10100000352E+00 0. -1.
</event>
<event>
 5   0  0.1224048E-03  0.6999849E+03  0.7818609E-02  0.9717258E-01
        2   -1    0    0  501    0  0.00000000000E+00  0.00000000000E+00  0.17783678765E+04  0.17783678765E+04  0.25500000920E-02 0.  1.
       -2   -1    0    0    0  501  0.00000000000E+00  0.00000000000E+00 -0.68880413691E+02  0.68880413738E+02  0.25500000920E-02 0. -1.
    10030    2    1    2    0    0  0.00000000000E+00  0.00000000000E+00  0.17094874628E+04  0.18472482903E+04  0.69998490005E+03 0.  0.
        3    1    3    3  502    0 -0.21996427565E+03 -0.13964857651E+03  0.14714345893E+04  0.14943245190E+04  0.10100000352E+00 0.  1.
       -3    1    3    3    0  502  0.21996427565E+03  0.13964857651E+03  0.23805287356E+03  0.35292377123E+03  0.10100000352E+00 0. -1.
</event>
<event>
 5   0  0.7570633E-04  0.7002803E+03  0.7818609E-02  0.9716753E-01
       -1   -1    0    0    0  501  0.00000000000E+00  0.00000000000E+00  0.22411305356E+03  0.22411305361E+03  0.50400001928E-02 0. -1.
        1   -1    0    0  501    0  0.00000000000E+00  0.00000000000E+00 -0.54703700058E+03  0.54703700060E+03  0.50400001928E-02 0.  1.
    10030    2    1    2    0    0  0.00000000000E+00  0.00000000000E+00 -0.32292394702E+03  0.77115005422E+03  0.70028032284E+03 0.  0.
        5    1    3    3  502    0 -0.13294654885E+03  0.14271045632E+03  0.15871139570E+03  0.25150041017E+03  0.46999998093E+01 0. -1.
       -5    1    3    3    0  502  0.13294654885E+03 -0.14271045632E+03 -0.48163534272E+03  0.51964964404E+03  0.46999998093E+01 0.  1.
</event>
<event>
 5   0  0.4936000E-04  0.7000454E+03  0.7818609E-02  0.9717155E-01
        3   -1    0    0  501    0  0.00000000000E+00  0.00000000000E+00  0.14543359671E+03  0.14543363178E+03  0.10100000352E+00 0. -1.
       -3   -1    0    0    0  501  0.00000000000E+00  0.00000000000E+00 -0.84241796155E+03  0.84241796760E+03  0.10100000352E+00 0.  1.
    10030    2    1    2    0    0  0.00000000000E+00  0.00000000000E+00 -0.69698436484E+03  0.98785159938E+03  0.70004541108E+03 0.  0.
        3    1    3    3  502    0  0.24681311975E+03 -0.19928382717E+03 -0.55724868077E+03  0.64121514508E+03  0.10100000352E+00 0.  1.
       -3    1    3    3    0  502 -0.24681311975E+03  0.19928382717E+03 -0.13973568406E+03  0.34663645430E+03  0.10100000352E+00 0. -1.
</event>
<event>
 5   0  0.4936000E-04  0.6995155E+03  0.7818609E-02  0.9718061E-01
       -3   -1    0    0    0  501  0.00000000000E+00  0.00000000000E+00  0.16707954430E+04  0.16707954460E+04  0.10100000352E+00 0.  1.
        3   -1    0    0  501    0  0.00000000000E+00  0.00000000000E+00 -0.73216880047E+02  0.73216949709E+02  0.10100000352E+00 0. -1.
    10030    2    1    2    0    0  0.00000000000E+00  0.00000000000E+00  0.15975785629E+04  0.17440123957E+04  0.69951552645E+03 0.  0.
        1    1    3    3  502    0 -0.32291618437E+03 -0.40858060888E+02  0.47964138050E+03  0.57965515367E+03  0.50400001928E-02 0. -1.
       -1    1    3    3    0  502  0.32291618437E+03  0.40858060888E+02  0.11179371824E+04  0.11643572420E+04  0.50400001928E-02 0.  1.
</event>
<event>
 5   0  0.7570633E-04  0.7001732E+03  0.7818609E-02  0.9716936E-01
       -1   -1    0    0    0  501  0.00000000000E+00  0.00000000000E+00  0.31950824101E+03  0.31950824105E+03  0.50400001928E-02 0.  1.
        1   -1    0    0  501    0  0.00000000000E+00  0.00000000000E+00 -0.38359148540E+03  0.38359148544E+03  0.50400001928E-02 0. -1.
    10030    2    1    2    0    0  0.00000000000E+00  0.00000000000E+00 -0.64083244392E+02  0.70309972649E+03  0.70017323797E+03 0.  0.
        5    1    3    3  502    0 -0.22914038878E+03 -0.99700758539E+02  0.21412169460E+03  0.32911358088E+03  0.46999998093E+01 0.  1.
       -5    1    3    3    0  502  0.22914038878E+03  0.99700758539E+02 -0.27820493899E+03  0.37398614560E+03  0.46999998093E+01 0. -1.
</event>
<event>
 5   0  0.1224048E-03  0.7000940E+03  0.7818609E-02  0.9717071E-01
        2   -1    0    0  501    0  0.00000000000E+00  0.00000000000E+00  0.38148215786E+03  0.38148215787E+03  0.25500000920E-02 0.  1.
       -2   -1    0    0    0  501  0.00000000000E+00  0.00000000000E+00 -0.32120221844E+03  0.32120221845E+03  0.25500000920E-02 0. -1.
    10030    2    1    2    0    0  0.00000000000E+00  0.00000000000E+00  0.60279939423E+02  0.70268437631E+03  0.70009403770E+03 0.  0.
        3    1    3    3  502    0 -0.20799818858E+03  0.26855288151E+03  0.11500462034E+03  0.35862232156E+03  0.10100000352E+00 0.  1.
       -3    1    3    3    0  502  0.20799818858E+03 -0.26855288151E+03 -0.54724680921E+02  0.34406205475E+03  0.10100000352E+00 0. -1.
</event>
<event>
 5   0  0.4936000E-04  0.6999643E+03  0.7818609E-02  0.9717293E-01
        3   -1    0    0  501    0  0.00000000000E+00  0.00000000000E+00  0.20491377648E+03  0.20491380137E+03  0.10100000352E+00 0. -1.
       -3   -1    0    0    0  501  0.00000000000E+00  0.00000000000E+00 -0.59775141241E+03  0.59775142095E+03  0.10100000352E+00 0.  1.
    10030    2    1    2    0    0  0.00000000000E+00  0.00000000000E+00 -0.39283763594E+03  0.80266522232E+03  0.69996432117E+03 0.  0.
        2    1    3    3  502    0  0.31378769262E+03 -0.79765453704E+02 -0.34881770352E+03  0.47591914643E+03  0.25500000920E-02 0.  1.
       -2    1    3    3    0  502 -0.31378769262E+03  0.79765453704E+02 -0.44019932416E+02  0.32674607588E+03  0.25500000920E-02 0. -1.
</event>
<event>
 5   0  0.1222679E-03  0.6994784E+03  0.7818609E-02  0.9718125E-01
       -2   -1    0    0    0  501  0.00000000000E+00  0.00000000000E+00  0.22497440170E+03  0.22497440171E+03  0.25500000920E-02 0.  1.
        2   -1    0    0  501    0  0.00000000000E+00  0.00000000000E+00 -0.54369519936E+03  0.54369519937E+03  0.25500000920E-02 0. -1.
    10030    2    1    2    0    0  0.00000000000E+00  0.00000000000E+00 -0.31872079767E+03  0.76866960108E+03  0.69947838334E+03 0.  0.
        2    1    3    3  502    0 -0.31789864982E+03  0.13725556383E+03 -0.10531349136E+03  0.36192481654E+03  0.25500000920E-02 0.  1.
       -2    1    3    3    0  502  0.31789864982E+03 -0.13725556383E+03 -0.21340730630E+03  0.40674478454E+03  0.25500000920E-02 0. -1.
</event>
<event>
 5   0  0.1265562E-03  0.6999570E+03  0.7818609E-02  0.9717306E-01
        2   -1    0    0  501    0  0.00000000000E+00  0.00000000000E+00  0.18770390222E+04  0.18770390222E+04  0.25500000920E-02 0.  1.
       -2   -1    0    0    0  501  0.00000000000E+00  0.00000000000E+00 -0.65254349693E+02  0.65254349743E+02  0.25500000920E-02 0. -1.
    10030    2    1    2    0    0  0.00000000000E+00  0.00000000000E+00  0.18117846725E+04  0.19422933720E+04  0.69995702952E+03 0.  0.
        1    1    3    3  502    0 -0.18280809023E+03 -0.12845994237E+03  0.15840356540E+03  0.27388399771E+03  0.50400001928E-02 0. -1.
       -1    1    3    3    0  502  0.18280809023E+03  0.12845994237E+03  0.16533811071E+04  0.16684093743E+04  0.50400001928E-02 0.  1.
</event>
<event>
 5   0  0.7013526E-04  0.6997584E+03  0.7818609E-02  0.9717645E-01
       -1   -1    0    0    0  501  0.00000000000E+00  0.00000000000E+00  0.84756527475E+03  0.84756527477E+03  0.50400001928E-02 0. -1.
        1   -1    0    0  501    0  0.00000000000E+00  0.00000000000E+00 -0.14443190465E+03  0.14443190473E+03  0.50400001928E-02 0.  1.
    10030    2    1    2    0    0  0.00000000000E+00  0.00000000000E+00  0.70313337010E+03  0.99199717950E+03  0.69975843545E+03 0.  0.
        1    1    3    3  502    0  0.23706453671E+03  0.24590882647E+03  0.24411906919E+03  0.41983909473E+03  0.50400001928E-02 0.  1.
       -1    1    3    3    0  502 -0.23706453671E+03 -0.24590882647E+03  0.45901430091E+03  0.57215808477E+03  0.50400001928E-02 0. -1.
</event>
<event>
 5   0  0.1243087E-03  0.7000692E+03  0.7818609E-02  0.9717114E-01
       -2   -1    0    0    0  501  0.00000000000E+00  0.00000000000E+00  0.44149347920E+03  0.44149347921E+03  0.25500000920E-02 0.  1.
        2   -1    0    0  501    0  0.00000000000E+00  0.00000000000E+00 -0.27752213117E+03  0.27752213118E+03  0.25500000920E-02 0. -1.
    10030    2    1    2    0    0  0.00000000000E+00  0.00000000000E+00  0.16397134804E+03  0.71901561039E+03  0.70006917159E+03 0.  0.
        4    1    3    3  502    0  0.27495239353E+03 -0.21643137391E+03  0.91242932678E+02  0.36161892095E+03  0.12699999809E+01 0. -1.
       -4    1    3    3    0  502 -0.27495239353E+03  0.21643137391E+03  0.72728415359E+02  0.35739668944E+03  0.12699999809E+01 0.  1.
</event>
<event>
 5   0  0.1243087E-03  0.6996473E+03  0.7818609E-02  0.9717836E-01
        2   -1    0    0  501    0  0.00000000000E+00  0.00000000000E+00  0.83985176131E+03  0.83985176131E+03  0.25500000920E-02 0.  1.
       -2   -1    0    0    0  501  0.00000000000E+00  0.00000000000E+00 -0.14571212372E+03  0.14571212374E+03  0.25500000920E-02 0. -1.
    10030    2    1    2    0    0  0.00000000000E+00  0.00000000000E+00  0.69413963759E+03  0.98556388505E+03  0.69964729331E+03 0.  0.
        4    1    3    3  502    0  0.85430610122E+02  0.21985590911E+03 -0.16844041359E+02  0.23647482856E+03  0.12699999809E+01 0. -1.
       -4    1    3    3    0  502 -0.85430610122E+02 -0.21985590911E+03  0.71098367895E+03  0.74908905649E+03  0.12699999809E+01 0.  1.
</event>
<event>
 5   0  0.1282546E-03  0.6999661E+03  0.7818609E-02  0.9717290E-01
        2   -1    0    0  501    0  0.00000000000E+00  0.00000000000E+00  0.26637352690E+03  0.26637352691E+03  0.25500000920E-02 0.  1.
       -2   -1    0    0    0  501  0.00000000000E+00  0.00000000000E+00 -0.45983593892E+03  0.45983593893E+03  0.25500000920E-02 0. -1.
    10030    2    1    2    0    0  0.00000000000E+00  0.00000000000E+00 -0.19346241202E+03  0.72620946584E+03  0.69996605876E+03 0.  0.
        5    1    3    3  502    0  0.18213510310E+03  0.20918052979E+03  0.12466184702E+03  0.30412555948E+03  0.46999998093E+01 0.  1.
       -5    1    3    3    0  502 -0.18213510310E+03 -0.20918052979E+03 -0.31812425904E+03  0.42208390637E+03  0.46999998093E+01 0. -1.
</event>
<event>
 5   0  0.4936000E-04  0.7001215E+03  0.7818609E-02  0.9717024E-01
        3   -1    0    0  501    0  0.00000000000E+00  0.00000000000E+00  0.51546767063E+03  0.51546768052E+03  0.10100000352E+00 0. -1.
       -3   -1    0    0    0  501  0.00000000000E+00  0.00000000000E+00 -0.23773074303E+03  0.23773076449E+03  0.10100000352E+00 0.  1.
    10030    2    1    2    0    0  0.00000000000E+00  0.00000000000E+00  0.27773692760E+03  0.75319844501E+03  0.70012148704E+03 0.  0.
        5    1    3    3  502    0  0.33580190640E+02  0.31018317901E+03  0.30957768281E+03  0.43954711401E+03  0.46999998093E+01 0. -1.
       -5    1    3    3    0  502 -0.33580190640E+02 -0.31018317901E+03 -0.31840755212E+02  0.31365133100E+03  0.46999998093E+01 0.  1.
</event>
<event>
 5   0  0.7572415E-04  0.6998522E+03  0.7818609E-02  0.9717485E-01
        1   -1    0    0  501    0  0.00000000000E+00  0.00000000000E+00  0.56931392150E+03  0.56931392153E+03  0.50400001928E-02 0.  1.
       -1   -1    0    0    0  501  0.00000000000E+00  0.00000000000E+00 -0.21508041744E+03  0.21508041750E+03  0.50400001928E-02 0. -1.
    10030    2    1    2    0    0  0.00000000000E+00  0.00000000000E+00  0.35423350406E+03  0.78439433902E+03  0.69985220132E+03 0.  0.
        4    1    3    3  502    0 -0.10604799930E+03 -0.29126471810E+03 -0.48721390832E+01  0.31001074950E+03  0.12699999809E+01 0. -1.
       -4    1    3    3    0  502  0.10604799930E+03  0.29126471810E+03  0.35910564315E+03  0.47438358952E+03  0.12699999809E+01 0.  1.
</event>
<event>
 5   0  0.7459843E-04  0.7001517E+03  0.7818609E-02  0.9716973E-01
       -1   -1    0    0    0  501  0.00000000000E+00  0.00000000000E+00  0.15561681656E+03  0.15561681664E+03  0.50400001928E-02 0.  1.
        1   -1    0    0  501    0  0.00000000000E+00  0.00000000000E+00 -0.78753131042E+03  0.78753131044E+03  0.50400001928E-02 0. -1.
    10030    2    1    2    0    0  0.00000000000E+00  0.00000000000E+00 -0.63191449386E+03  0.94314812708E+03  0.70015174217E+03 0.  0.
        2    1    3    3  502    0 -0.42320771345E+02 -0.15731970555E+03  0.10144213196E+03  0.19191415681E+03  0.25500000920E-02 0.  1.
       -2    1    3    3    0  502  0.42320771345E+02  0.15731970555E+03 -0.73335662582E+03  0.75123397027E+03  0.25500000920E-02 0. -1.
</event>
<event>
 5   0  0.1224048E-03  0.6999933E+03  0.7818609E-02  0.9717244E-01
        2   -1    0    0  501    0  0.00000000000E+00  0.00000000000E+00  0.12030765427E+04  0.12030765427E+04  0.25500000920E-02 0.  1.
       -2   -1    0    0    0  501  0.00000000000E+00  0.00000000000E+00 -0.10182034557E+03  0.10182034561E+03  0.25500000920E-02 0. -1.
    10030    2    1    2    0    0  0.00000000000E+00  0.00000000000E+00  0.11012561971E+04  0.13048968883E+04  0.69999334098E+03 0.  0.
        3    1    3    3  502    0  0.22150438178E+03  0.25296005078E+03  0.36946241905E+03  0.49955526995E+03  0.10100000352E+00 0. -1.
       -3    1    3    3    0  502 -0.22150438178E+03 -0.25296005078E+03  0.73179377808E+03  0.80534161837E+03  0.10100000352E+00 0.  1.
</event>
<event>
 5   0  0.1243087E-03  0.7012519E+03  0.7818609E-02  0.9715094E-01
        2   -1    0    0  501    0  0.00000000000E+00  0.00000000000E+00  0.74051693063E+03  0.74051693064E+03  0.25500000920E-02 0.  1.
       -2   -1    0    0    0  501  0.00000000000E+00  0.00000000000E+00 -0.16601723208E+03  0.16601723210E+03  0.25500000920E-02 0. -1.
    10030    2    1    2    0    0  0.00000000000E+00  0.00000000000E+00  0.57449969855E+03  0.90653416274E+03  0.70125194087E+03 0.  0.
        4    1    3    3  502    0 -0.44620667256E+01  0.13471925312E+03  0.70568094436E+03  0.71844025175E+03  0.12699999809E+01 0.  1.
       -4    1    3    3    0  502  0.44620667256E+01 -0.13471925312E+03 -0.13118124580E+03  0.18809391099E+03  0.12699999809E+01 0. -1.
</event>
<event>
 5   0  0.1243087E-03  0.6999555E+03  0.7818609E-02  0.9717308E-01
        2   -1    0    0  501    0  0.00000000000E+00  0.00000000000E+00  0.40982095541E+03  0.40982095542E+03  0.25500000920E-02 0. -1.
       -2   -1    0    0    0  501  0.00000000000E+00  0.00000000000E+00 -0.29887298453E+03  0.29887298454E+03  0.25500000920E-02 0.  1.
    10030    2    1    2    0    0  0.00000000000E+00  0.00000000000E+00  0.11094797088E+03  0.70869393996E+03  0.69995546165E+03 0.  0.
        4    1    3    3  502    0  0.98163637004E+02  0.12867563770E+03 -0.25870510764E+03  0.30516137532E+03  0.12699999809E+01 0.  1.
       -4    1    3    3    0  502 -0.98163637004E+02 -0.12867563770E+03  0.36965307852E+03  0.40353256464E+03  0.12699999809E+01 0. -1.
</event>
<event>
 5   0  0.7574241E-04  0.6997603E+03  0.7818609E-02  0.9717642E-01
       -1   -1    0    0    0  501  0.00000000000E+00  0.00000000000E+00  0.67406603440E+02  0.67406603628E+02  0.50400001928E-02 0. -1.
        1   -1    0    0  501    0  0.00000000000E+00  0.00000000000E+00 -0.18160849172E+04  0.18160849172E+04  0.50400001928E-02 0.  1.
    10030    2    1    2    0    0  0.00000000000E+00  0.00000000000E+00 -0.17486783138E+04  0.18834915209E+04  0.69976029042E+03 0.  0.
        3    1    3    3  502    0 -0.33849147134E+03 -0.58159840649E+02 -0.10540352941E+04  0.11085799270E+04  0.10100000352E+00 0. -1.
       -3    1    3    3    0  502  0.33849147134E+03  0.58159840649E+02 -0.69464301973E+03  0.77491159386E+03  0.10100000352E+00 0.  1.
</event>
<event>
 5   0  0.7013526E-04  0.6998017E+03  0.7818609E-02  0.9717571E-01
       -1   -1    0    0    0  501  0.00000000000E+00  0.00000000000E+00  0.18912174313E+03  0.18912174320E+03  0.50400001928E-02 0.  1.
        1   -1    0    0  501    0  0.00000000000E+00  0.00000000000E+00 -0.64736401965E+03  0.64736401967E+03  0.50400001928E-02 0. -1.
    10030    2    1    2    0    0  0.00000000000E+00  0.00000000000E+00 -0.45824227652E+03  0.83648576287E+03  0.69980172012E+03 0.  0.
        1    1    3    3  502    0 -0.10508421365E+03 -0.33297529677E+03 -0.20198526502E+03  0.40337735128E+03  0.50400001928E-02 0.  1.
       -1    1    3    3    0  502  0.10508421365E+03  0.33297529677E+03 -0.25625701150E+03  0.43310841159E+03  0.50400001928E-02 0. -1.
</event>
<event>
 5   0  0.7459843E-04  0.6998288E+03  0.7818609E-02  0.9717525E-01
       -1   -1    0    0    0  501  0.00000000000E+00  0.00000000000E+00  0.33563805611E+03  0.33563805615E+03  0.50400001928E-02 0. -1.
        1   -1    0    0  501    0  0.00000000000E+00  0.00000000000E+00 -0.36479801290E+03  0.36479801294E+03  0.50400001928E-02 0.  1.
    10030    2    1    2    0    0  0.00000000000E+00  0.00000000000E+00 -0.29159956792E+02  0.70043606909E+03  0.69982882464E+03 0.  0.
        2    1    3    3  502    0  0.17502521616E+03  0.12475115785E+03  0.26178172146E+03  0.33871278006E+03  0.25500000920E-02 0. -1.
       -2    1    3    3    0  502 -0.17502521616E+03 -0.12475115785E+03 -0.29094167825E+03  0.36172328903E+03  0.25500000920E-02 0.  1.
</event>
<event>
 5   0  0.1265562E-03  0.6999711E+03  0.7818609E-02  0.9717282E-01
       -2   -1    0    0    0  501  0.00000000000E+00  0.00000000000E+00  0.79669918405E+02  0.79669918446E+02  0.25500000920E-02 0. -1.
        2   -1    0    0  501    0  0.00000000000E+00  0.00000000000E+00 -0.15374672826E+04  0.15374672826E+04  0.25500000920E-02 0.  1.
    10030    2    1    2    0    0  0.00000000000E+00  0.00000000000E+00 -0.14577973642E+04  0.16171372011E+04  0.69997112224E+03 0.  0.
        1    1    3    3  502    0 -0.16919452054E+03  0.25035083925E+03 -0.11368961568E+04  0.11763652493E+04  0.50400001928E-02 0.  1.
       -1    1    3    3    0  502  0.16919452054E+03 -0.25035083925E+03 -0.32090120747E+03  0.44077195178E+03  0.50400001928E-02 0. -1.
</event>
<event>
 5   0  0.1243087E-03  0.6999594E+03  0.7818609E-02  0.9717302E-01
       -2   -1    0    0    0  501  0.00000000000E+00  0.00000000000E+00  0.44714789199E+02  0.44714789271E+02  0.25500000920E-02 0.  1.
        2   -1    0    0  501    0  0.00000000000E+00  0.00000000000E+00 -0.27392682091E+04  0.27392682091E+04  0.25500000920E-02 0. -1.
    10030    2    1    2    0    0  0.00000000000E+00  0.00000000000E+00 -0.26945534199E+04  0.27839829984E+04  0.69995942920E+03 0.  0.
        4    1    3    3  502    0 -0.22938455445E+03 -0.34563041948E+02 -0.30499638723E+03  0.38319223219E+03  0.12699999809E+01 0.  1.
       -4    1    3    3    0  502  0.22938455445E+03  0.34563041948E+02 -0.23895570327E+04  0.24007907662E+04  0.12699999809E+01 0. -1.
</event>
<event>
 5   0  0.7570633E-04  0.7000888E+03  0.7818609E-02  0.9717080E-01
       -1   -1    0    0    0  501  0.00000000000E+00  0.00000000000E+00  0.11115507039E+03  0.11115507050E+03  0.50400001928E-02 0. -1.
        1   -1    0    0  501    0  0.00000000000E+00  0.00000000000E+00 -0.11023435873E+04  0.11023435873E+04  0.50400001928E-02 0.  1.
    10030    2    1    2    0    0  0.00000000000E+00  0.00000000000E+00 -0.99118851695E+03  0.12134986578E+04  0.70008879185E+03 0.  0.
        5    1    3    3  502    0  0.78973713208E+02  0.31758622138E+03 -0.28041348210E+03  0.43098917194E+03  0.46999998093E+01 0. -1.
       -5    1    3    3    0  502 -0.78973713208E+02 -0.31758622138E+03 -0.71077503484E+03  0.78250948591E+03  0.46999998093E+01 0.  1.
</event>
<event>
 5   0  0.1265562E-03  0.7030439E+03  0.7818609E-02  0.9712041E-01
       -2   -1    0    0    0  501  0.00000000000E+00  0.00000000000E+00  0.18822360015E+03  0.18822360016E+03  0.25500000920E-02 0.  1.
        2   -1    0    0  501    0  0.00000000000E+00  0.00000000000E+00 -0.65649418353E+03  0.65649418354E+03  0.25500000920E-02 0. -1.
    10030    2    1    2    0    0  0.00000000000E+00  0.00000000000E+00 -0.46827058339E+03  0.84471778370E+03  0.70304394944E+03 0.  0.
        1    1    3    3  502    0  0.34276129064E+03  0.26139086463E+02 -0.14584933303E+03  0.37341743689E+03  0.50400001928E-02 0.  1.
       -1    1    3    3    0  502 -0.34276129064E+03 -0.26139086463E+02 -0.32242125036E+03  0.47130034682E+03  0.50400001928E-02 0. -1.
</event>
<event>
 5   0  0.7013526E-04  0.7001121E+03  0.7818609E-02  0.9717041E-01
        1   -1    0    0  501    0  0.00000000000E+00  0.00000000000E+00  0.21148740208E+04  0.21148740208E+04  0.50400001928E-02 0.  1.
       -1   -1    0    0    0  501  0.00000000000E+00  0.00000000000E+00 -0.57941618659E+02  0.57941618878E+02  0.50400001928E-02 0. -1.
    10030    2    1    2    0    0  0.00000000000E+00  0.00000000000E+00  0.20569324021E+04  0.21728156396E+04  0.70011206036E+03 0.  0.
        1    1    3    3  502    0 -0.10383397226E+03 -0.26464693996E+02 -0.57920006893E+01  0.10730993021E+03  0.50400001928E-02 0. -1.
       -1    1    3    3    0  502  0.10383397226E+03  0.26464693996E+02  0.20627244028E+04  0.20655057094E+04  0.50400001928E-02 0.  1.
</event>
<event>
 5   0  0.7570633E-04  0.7000180E+03  0.7818609E-02  0.9717201E-01
        1   -1    0    0  501    0  0.00000000000E+00  0.00000000000E+00  0.85324941871E+03  0.85324941873E+03  0.50400001928E-02 0. -1.
       -1   -1    0    0    0  501  0.00000000000E+00  0.00000000000E+00 -0.14357620168E+03  0.14357620177E+03  0.50400001928E-02 0.  1.
    10030    2    1    2    0    0  0.00000000000E+00  0.00000000000E+00  0.70967321703E+03  0.99682562049E+03  0.70001803027E+03 0.  0.
        5    1    3    3  502    0  0.26555151294E+03 -0.93910209434E+02  0.59043725829E+02  0.28782804766E+03  0.46999998093E+01 0.  1.
       -5    1    3    3    0  502 -0.26555151294E+03  0.93910209434E+02  0.65062949120E+03  0.70899757283E+03  0.46999998093E+01 0. -1.
</event>
<event>
 5   0  0.7570633E-04  0.6999479E+03  0.7818609E-02  0.9717321E-01
        1   -1    0    0  501    0  0.00000000000E+00  0.00000000000E+00  0.83152765941E+03  0.83152765943E+03  0.50400001928E-02 0. -1.
       -1   -1    0    0    0  501  0.00000000000E+00  0.00000000000E+00 -0.14729730405E+03  0.14729730414E+03  0.50400001928E-02 0.  1.
    10030    2    1    2    0    0  0.00000000000E+00  0.00000000000E+00  0.68423035536E+03  0.97882496356E+03  0.69994794814E+03 0.  0.
        5    1    3    3  502    0  0.16759518885E+03  0.25778887416E+03  0.10846327515E+03  0.32608223352E+03  0.46999998093E+01 0.  1.
       -5    1    3    3    0  502 -0.16759518885E+03 -0.25778887416E+03  0.57576708022E+03  0.65274273004E+03  0.46999998093E+01 0. -1.
</event>
<event>
 5   0  0.4936000E-04  0.7002045E+03  0.7818609E-02  0.9716883E-01
       -4   -1    0    0    0  501  0.00000000000E+00  0.00000000000E+00  0.10801746809E+03  0.10802493375E+03  0.12699999809E+01 0. -1.
        4   -1    0    0  501    0  0.00000000000E+00  0.00000000000E+00 -0.11346914395E+04  0.11346921502E+04  0.12699999809E+01 0.  1.
    10030    2    1    2    0    0  0.00000000000E+00  0.00000000000E+00 -0.10266739714E+04  0.12427170839E+04  0.70020447528E+03 0.  0.
        2    1    3    3  502    0 -0.15840653388E+03  0.29241158483E+03 -0.70754828000E+03  0.78180671106E+03  0.25500000920E-02 0.  1.
       -2    1    3    3    0  502  0.15840653388E+03 -0.29241158483E+03 -0.31912569138E+03  0.46091037288E+03  0.25500000920E-02 0. -1.
</event>
<event>
 5   0  0.1282546E-03  0.7000789E+03  0.7818609E-02  0.9717097E-01
       -2   -1    0    0    0  501  0.00000000000E+00  0.00000000000E+00  0.36357916217E+03  0.36357916218E+03  0.25500000920E-02 0.  1.
        2   -1    0    0  501    0  0.00000000000E+00  0.00000000000E+00 -0.33700393764E+03  0.33700393765E+03  0.25500000920E-02 0. -1.
    10030    2    1    2    0    0  0.00000000000E+00  0.00000000000E+00  0.26575224527E+02  0.70058309983E+03  0.70007887927E+03 0.  0.
        5    1    3    3  502    0 -0.22411245202E+03  0.21890538512E+02  0.28143569675E+03  0.36046321342E+03  0.46999998093E+01 0.  1.
       -5    1    3    3    0  502  0.22411245202E+03 -0.21890538512E+02 -0.25486047222E+03  0.34011988641E+03  0.46999998093E+01 0. -1.
</event>
<event>
 5   0  0.1243087E-03  0.6999668E+03  0.7818609E-02  0.9717289E-01
       -2   -1    0    0    0  501  0.00000000000E+00  0.00000000000E+00  0.62929822360E+02  0.62929822412E+02  0.25500000920E-02 0. -1.
        2   -1    0    0  501    0  0.00000000000E+00  0.00000000000E+00 -0.19464280978E+04  0.19464280978E+04  0.25500000920E-02 0.  1.
    10030    2    1    2    0    0  0.00000000000E+00  0.00000000000E+00 -0.18834982754E+04  0.20093579202E+04  0.69996678346E+03 0.  0.
        4    1    3    3  502    0  0.15772825187E+03  0.17101647800E+03 -0.16923118960E+04  0.17082289084E+04  0.12699999809E+01 0.  1.
       -4    1    3    3    0  502 -0.15772825187E+03 -0.17101647800E+03 -0.19118637945E+03  0.30112901184E+03  0.12699999809E+01 0. -1.
</event>
<event>
 5   0  0.7013526E-04  0.7003650E+03  0.7818609E-02  0.9716608E-01
       -1   -1    0    0    0  501  0.00000000000E+00  0.00000000000E+00  0.66141726619E+02  0.66141726811E+02  0.50400001928E-02 0.  1.
        1   -1    0    0  501    0  0.00000000000E+00  0.00000000000E+00 -0.18540156989E+04  0.18540156989E+04  0.50400001928E-02 0. -1.
    10030    2    1    2    0    0  0.00000000000E+00  0.00000000000E+00 -0.17878739723E+04  0.19201574257E+04  0.70036504681E+03 0.  0.
        1    1    3    3  502    0  0.10224019777E+03  0.64815934555E+01 -0.18120128533E+04  0.18149065127E+04  0.50400001928E-02 0. -1.
       -1    1    3    3    0  502 -0.10224019777E+03 -0.64815934555E+01  0.24138881044E+02  0.10525091305E+03  0.50400001928E-02 0.  1.
</event>
<event>
 5   0  0.1282546E-03  0.7000190E+03  0.7818609E-02  0.9717200E-01
       -2   -1    0    0    0  501  0.00000000000E+00  0.00000000000E+00  0.27993626547E+03  0.27993626548E+03  0.25500000920E-02 0. -1.
        2   -1    0    0  501    0  0.00000000000E+00  0.00000000000E+00 -0.43762337238E+03  0.43762337239E+03  0.25500000920E-02 0.  1.
    10030    2    1    2    0    0  0.00000000000E+00  0.00000000000E+00 -0.15768710691E+03  0.71755963787E+03  0.70001900704E+03 0.  0.
        5    1    3    3  502    0  0.33274902491E+03 -0.78431769122E+01 -0.18972583102E+03  0.38314672119E+03  0.46999998093E+01 0.  1.
       -5    1    3    3    0  502 -0.33274902491E+03  0.78431769122E+01  0.32038724112E+02  0.33441291668E+03  0.46999998093E+01 0. -1.
</event>
<event>
 5   0  0.7574241E-04  0.6993778E+03  0.7818609E-02  0.9718297E-01
       -1   -1    0    0    0  501  0.00000000000E+00  0.00000000000E+00  0.12503940466E+03  0.12503940476E+03  0.50400001928E-02 0.  1.
        1   -1    0    0  501    0  0.00000000000E+00  0.00000000000E+00 -0.97795020833E+03  0.97795020835E+03  0.50400001928E-02 0. -1.
    10030    2    1    2    0    0  0.00000000000E+00  0.00000000000E+00 -0.85291080367E+03  0.11029896131E+04  0.69937775744E+03 0.  0.
        3    1    3    3  502    0  0.29271631126E+03 -0.31104377352E+02 -0.72415591805E+03  0.78169823143E+03  0.10100000352E+00 0. -1.
       -3    1    3    3    0  502 -0.29271631126E+03  0.31104377352E+02 -0.12875488562E+03  0.32129138168E+03  0.10100000352E+00 0.  1.
</event>
<event>
 5   0  0.1224048E-03  0.6997497E+03  0.7818609E-02  0.9717660E-01
       -2   -1    0    0    0  501  0.00000000000E+00  0.00000000000E+00  0.20153722848E+03  0.20153722849E+03  0.25500000920E-02 0.  1.
        2   -1    0    0  501    0  0.00000000000E+00  0.00000000000E+00 -0.60739362512E+03  0.60739362512E+03  0.25500000920E-02 0. -1.
    10030    2    1    2    0    0  0.00000000000E+00  0.00000000000E+00 -0.40585639664E+03  0.80893085362E+03  0.69974974901E+03 0.  0.
        3    1    3    3  502    0 -0.94518498686E+02 -0.10432348793E+03 -0.57320997706E+03  0.59024302175E+03  0.10100000352E+00 0. -1.
       -3    1    3    3    0  502  0.94518498686E+02  0.10432348793E+03  0.16735358042E+03  0.21868783187E+03  0.10100000352E+00 0.  1.
</event>
<event>
 5   0  0.1282546E-03  0.7006035E+03  0.7818609E-02  0.9716201E-01
       -2   -1    0    0    0  501  0.00000000000E+00  0.00000000000E+00  0.11983044574E+03  0.11983044576E+03  0.25500000920E-02 0. -1.
        2   -1    0    0  501    0  0.00000000000E+00  0.00000000000E+00 -0.10240411186E+04  0.10240411186E+04  0.25500000920E-02 0.  1.
    10030    2    1    2    0    0  0.00000000000E+00  0.00000000000E+00 -0.90421067287E+03  0.11438715644E+04  0.70060346477E+03 0.  0.
        5    1    3    3  502    0  0.11458708846E+03 -0.32853912614E+03 -0.38636923858E+03  0.51997253463E+03  0.46999998093E+01 0. -1.
       -5    1    3    3    0  502 -0.11458708846E+03  0.32853912614E+03 -0.51784143429E+03  0.62389902974E+03  0.46999998093E+01 0.  1.
</event>
<event>
 5   0  0.7572415E-04  0.6998769E+03  0.7818609E-02  0.9717443E-01
       -1   -1    0    0    0  501  0.00000000000E+00  0.00000000000E+00  0.25363466727E+03  0.25363466732E+03  0.50400001928E-02 0.  1.
        1   -1    0    0  501    0  0.00000000000E+00  0.00000000000E+00 -0.48280834179E+03  0.48280834182E+03  0.50400001928E-02 0. -1.
    10030    2    1    2    0    0  0.00000000000E+00  0.00000000000E+00 -0.22917367452E+03  0.73644300914E+03  0.69987694105E+03 0.  0.
        4    1    3    3  502    0 -0.12854110064E+03  0.29562198558E+03  0.28689361063E+02  0.32363538937E+03  0.12699999809E+01 0.  1.
       -4    1    3    3    0  502  0.12854110064E+03 -0.29562198558E+03 -0.25786303559E+03  0.41280761977E+03  0.12699999809E+01 0. -1.
</event>
<event>
 5   0  0.1224048E-03  0.6997114E+03  0.7818609E-02  0.9717726E-01
       -2   -1    0    0    0  501  0.00000000000E+00  0.00000000000E+00  0.82780749528E+02  0.82780749567E+02  0.25500000920E-02 0. -1.
        2   -1    0    0  501    0  0.00000000000E+00  0.00000000000E+00 -0.14785926213E+04  0.14785926213E+04  0.25500000920E-02 0.  1.
    10030    2    1    2    0    0  0.00000000000E+00  0.00000000000E+00 -0.13958118717E+04  0.15613733708E+04  0.69971138470E+03 0.  0.
        3    1    3    3  502    0  0.17273694873E+03 -0.34706755306E+02 -0.13723676100E+04  0.13836312657E+04  0.10100000352E+00 0.  1.
       -3    1    3    3    0  502 -0.17273694873E+03  0.34706755306E+02 -0.23444261741E+02  0.17774210511E+03  0.10100000352E+00 0. -1.
</event>
<event>
 5   0  0.1222679E-03  0.6997401E+03  0.7818609E-02  0.9717677E-01
       -2   -1    0    0    0  501  0.00000000000E+00  0.00000000000E+00  0.14096601056E+03  0.14096601058E+03  0.25500000920E-02 0. -1.
        2   -1    0    0  501    0  0.00000000000E+00  0.00000000000E+00 -0.86835853293E+03  0.86835853293E+03  0.25500000920E-02 0.  1.
    10030    2    1    2    0    0  0.00000000000E+00  0.00000000000E+00 -0.72739252237E+03  0.10093245435E+04  0.69974006069E+03 0.  0.
        2    1    3    3  502    0 -0.30742327187E+03 -0.30384044232E+02 -0.60060940179E+03  0.67539907592E+03  0.25500000920E-02 0.  1.
       -2    1    3    3    0  502  0.30742327187E+03  0.30384044232E+02 -0.12678312059E+03  0.33392546759E+03  0.25500000920E-02 0. -1.
</event>
<event>
 5   0  0.1243087E-03  0.6999006E+03  0.7818609E-02  0.9717402E-01
       -2   -1    0    0    0  501  0.00000000000E+00  0.00000000000E+00  0.10597528126E+03  0.10597528129E+03  0.25500000920E-02 0.  1.
        2   -1    0    0  501    0  0.00000000000E+00  0.00000000000E+00 -0.11556016746E+04  0.11556016746E+04  0.25500000920E-02 0. -1.
    10030    2    1    2    0    0  0.00000000000E+00  0.00000000000E+00 -0.10496263933E+04  0.12615769558E+04  0.69990060010E+03 0.  0.
        4    1    3    3  502    0  0.29680900815E+02 -0.31415394608E+03 -0.79752235733E+03  0.85768128174E+03  0.12699999809E+01 0.  1.
       -4    1    3    3    0  502 -0.29680900815E+02  0.31415394608E+03 -0.25210403597E+03  0.40389567411E+03  0.12699999809E+01 0. -1.
</event>
<event>
 5   0  0.1282546E-03  0.7004338E+03  0.7818609E-02  0.9716491E-01
       -2   -1    0    0    0  501  0.00000000000E+00  0.00000000000E+00  0.32079675556E+03  0.32079675557E+03  0.25500000920E-02 0. -1.
        2   -1    0    0  501    0  0.00000000000E+00  0.00000000000E+00 -0.38233513417E+03  0.38233513418E+03  0.25500000920E-02 0.  1.
    10030    2    1    2    0    0  0.00000000000E+00  0.00000000000E+00 -0.61538378615E+02  0.70313188975E+03  0.70043378155E+03 0.  0.
        5    1    3    3  502    0  0.24742021493E+03 -0.23050352065E+03  0.60582146190E+02  0.34357084018E+03  0.46999998093E+01 0. -1.
       -5    1    3    3    0  502 -0.24742021493E+03  0.23050352065E+03 -0.12212052480E+03  0.35956104957E+03  0.46999998093E+01 0.  1.
</event>
<event>
 5   0  0.1265562E-03  0.6996293E+03  0.7818609E-02  0.9717866E-01
       -2   -1    0    0    0  501  0.00000000000E+00  0.00000000000E+00  0.14162562359E+03  0.14162562361E+03  0.25500000920E-02 0.  1.
        2   -1    0    0  501    0  0.00000000000E+00  0.00000000000E+00 -0.86404059225E+03  0.86404059226E+03  0.25500000920E-02 0. -1.
    10030    2    1    2    0    0  0.00000000000E+00  0.00000000000E+00 -0.72241496867E+03  0.10056662159E+04  0.69962929526E+03 0.  0.
        1    1    3    3  502    0  0.22238665751E+03 -0.23332731689E+03 -0.55657508261E+03  0.64317438137E+03  0.50400001928E-02 0. -1.
       -1    1    3    3    0  502 -0.22238665751E+03  0.23332731689E+03 -0.16583988606E+03  0.36249183450E+03  0.50400001928E-02 0.  1.
</event>
<event>
 5   0  0.1265562E-03  0.7000185E+03  0.7818609E-02  0.9717201E-01
        2   -1    0    0  501    0  0.00000000000E+00  0.00000000000E+00  0.32825122533E+03  0.32825122534E+03  0.25500000920E-02 0. -1.
       -2   -1    0    0    0  501  0.00000000000E+00  0.00000000000E+00 -0.37320946972E+03  0.37320946973E+03  0.25500000920E-02 0.  1.
    10030    2    1    2    0    0  0.00000000000E+00  0.00000000000E+00 -0.44958244394E+02  0.70146069507E+03  0.70001847332E+03 0.  0.
        1    1    3    3  502    0  0.65762389479E+02 -0.16816359071E+02 -0.36655075726E+03  0.37278269739E+03  0.50400001928E-02 0.  1.
       -1    1    3    3    0  502 -0.65762389479E+02  0.16816359071E+02  0.32159251286E+03  0.32867799768E+03  0.50400001928E-02 0. -1.
</event>
<event>
 5   0  0.7013526E-04  0.6997504E+03  0.7818609E-02  0.9717659E-01
        1   -1    0    0  501    0  0.00000000000E+00  0.00000000000E+00  0.73444384523E+03  0.73444384524E+03  0.50400001928E-02 0.  1.
       -1   -1    0    0    0  501  0.00000000000E+00  0.00000000000E+00 -0.16667393637E+03  0.16667393644E+03  0.50400001928E-02 0. -1.
    10030    2    1    2    0    0  0.00000000000E+00  0.00000000000E+00  0.56776990886E+03  0.90111778169E+03  0.69975037482E+03 0.  0.
        1    1    3    3  502    0  0.58083532792E+02  0.24361700869E+03 -0.30736351227E+02  0.25232452718E+03  0.50400001928E-02 0. -1.
       -1    1    3    3    0  502 -0.58083532792E+02 -0.24361700869E+03  0.59850626009E+03  0.64879325451E+03  0.50400001928E-02 0.  1.
</event>
<event>
 5   0  0.7459843E-04  0.6997991E+03  0.7818609E-02  0.9717576E-01
       -1   -1    0    0    0  501  0.00000000000E+00  0.00000000000E+00  0.10820837538E+03  0.10820837550E+03  0.50400001928E-02 0.  1.
        1   -1    0    0  501    0  0.00000000000E+00  0.00000000000E+00 -0.11314253286E+04  0.11314253286E+04  0.50400001928E-02 0. -1.
    10030    2    1    2    0    0  0.00000000000E+00  0.00000000000E+00 -0.10232169532E+04  0.12396337041E+04  0.69979910474E+03 0.  0.
        2    1    3    3  502    0 -0.31587922866E+02  0.25321048869E+03 -0.93569966565E+03  0.96986968854E+03  0.25500000920E-02 0. -1.
       -2    1    3    3    0  502  0.31587922866E+02 -0.25321048869E+03 -0.87517287544E+02  0.26976401554E+03  0.25500000920E-02 0.  1.
</event>
<event>
 5   0  0.1265562E-03  0.7000734E+03  0.7818609E-02  0.9717107E-01
       -2   -1    0    0    0  501  0.00000000000E+00  0.00000000000E+00  0.16218621704E+03  0.16218621706E+03  0.25500000920E-02 0. -1.
        2   -1    0    0  501    0  0.00000000000E+00  0.00000000000E+00 -0.75546307344E+03  0.75546307344E+03  0.25500000920E-02 0.  1.
    10030    2    1    2    0    0  0.00000000000E+00  0.00000000000E+00 -0.59327685640E+03  0.91764929050E+03  0.70007341901E+03 0.  0.
        1    1    3    3  502    0  0.73322760426E+02  0.11519461446E+03  0.12583405637E+03  0.18568854613E+03  0.50400001928E-02 0. -1.
       -1    1    3    3    0  502 -0.73322760426E+02 -0.11519461446E+03 -0.71911091277E+03  0.73196074437E+03  0.50400001928E-02 0.  1.
</event>
<event>
 5   0  0.7574241E-04  0.7002064E+03  0.7818609E-02  0.9716879E-01
       -1   -1    0    0    0  501  0.00000000000E+00  0.00000000000E+00  0.11899296824E+03  0.11899296834E+03  0.50400001928E-02 0.  1.
        1   -1    0    0  501    0  0.00000000000E+00  0.00000000000E+00 -0.10300796363E+04  0.10300796363E+04  0.50400001928E-02 0. -1.
    10030    2    1    2    0    0  0.00000000000E+00  0.00000000000E+00 -0.91108666810E+03  0.11490726047E+04  0.70020635106E+03 0.  0.
        3    1    3    3  502    0 -0.13828757848E+03 -0.17115537413E+03 -0.86637712867E+01  0.22021055285E+03  0.10100000352E+00 0.  1.
       -3    1    3    3    0  502  0.13828757848E+03  0.17115537413E+03 -0.90242289681E+03  0.92886205184E+03  0.10100000352E+00 0. -1.
</event>
<event>
 5   0  0.1282546E-03  0.7000205E+03  0.7818609E-02  0.9717197E-01
        2   -1    0    0  501    0  0.00000000000E+00  0.00000000000E+00  0.11871672289E+04  0.11871672289E+04  0.25500000920E-02 0.  1.
       -2   -1    0    0    0  501  0.00000000000E+00  0.00000000000E+00 -0.10319285986E+03  0.10319285989E+03  0.25500000920E-02 0. -1.
    10030    2    1    2    0    0  0.00000000000E+00  0.00000000000E+00  0.10839743690E+04  0.12903600888E+04  0.70002051827E+03 0.  0.
        5    1    3    3  502    0 -0.80639186697E+02 -0.46676040050E+02  0.11638269031E+04  0.11675600548E+04  0.46999998093E+01 0.  1.
       -5    1    3    3    0  502  0.80639186697E+02  0.46676040050E+02 -0.79852534093E+02  0.12280003398E+03  0.46999998093E+01 0. -1.
</event>
<event>
 5   0  0.7574241E-04  0.6997960E+03  0.7818609E-02  0.9717581E-01
       -1   -1    0    0    0  501  0.00000000000E+00  0.00000000000E+00  0.33292646769E+03  0.33292646773E+03  0.50400001928E-02 0. -1.
        1   -1    0    0  501    0  0.00000000000E+00  0.00000000000E+00 -0.36773463797E+03  0.36773463800E+03  0.50400001928E-02 0.  1.
    10030    2    1    2    0    0  0.00000000000E+00  0.00000000000E+00 -0.34808170277E+02  0.70066110573E+03  0.69979595338E+03 0.  0.
        3    1    3    3  502    0 -0.16226301586E+03  0.47164380124E+02  0.28936468076E+03  0.33509057543E+03  0.10100000352E+00 0. -1.
       -3    1    3    3    0  502  0.16226301586E+03 -0.47164380124E+02 -0.32417285104E+03  0.36557053030E+03  0.10100000352E+00 0.  1.
</event>
<event>
 5   0  0.1222679E-03  0.6999309E+03  0.7818609E-02  0.9717350E-01
       -2   -1    0    0    0  501  0.00000000000E+00  0.00000000000E+00  0.12526557426E+03  0.12526557428E+03  0.25500000920E-02 0.  1.
        2   -1    0    0  501    0  0.00000000000E+00  0.00000000000E+00 -0.97772914709E+03  0.97772914710E+03  0.25500000920E-02 0. -1.
    10030    2    1    2    0    0  0.00000000000E+00  0.00000000000E+00 -0.85246357284E+03  0.11029947214E+04  0.69993086257E+03 0.  0.
        2    1    3    3  502    0  0.70713616549E+02 -0.24510376332E+03 -0.48683530034E+02  0.25970436358E+03  0.25500000920E-02 0.  1.
       -2    1    3    3    0  502 -0.70713616549E+02  0.24510376332E+03 -0.80378004280E+03  0.84329035781E+03  0.25500000920E-02 0. -1.
</event>
<event>
 5   0  0.7572415E-04  0.6986703E+03  0.7818609E-02  0.9719509E-01
       -1   -1    0    0    0  501  0.00000000000E+00  0.00000000000E+00  0.12451126796E+03  0.12451126806E+03  0.50400001928E-02 0.  1.
        1   -1    0    0  501    0  0.00000000000E+00  0.00000000000E+00 -0.98011243027E+03  0.98011243029E+03  0.50400001928E-02 0. -1.
    10030    2    1    2    0    0  0.00000000000E+00  0.00000000000E+00 -0.85560116231E+03  0.11046236983E+04  0.69867028418E+03 0.  0.
        4    1    3    3  502    0  0.15255846994E+03 -0.29756602421E+03 -0.26801564835E+03  0.42854827753E+03  0.12699999809E+01 0.  1.
       -4    1    3    3    0  502 -0.15255846994E+03  0.29756602421E+03 -0.58758551397E+03  0.67607542082E+03  0.12699999809E+01 0. -1.
</event>
<event>
 5   0  0.7570633E-04  0.7004740E+03  0.7818609E-02  0.9716422E-01
       -1   -1    0    0    0  501  0.00000000000E+00  0.00000000000E+00  0.18914757319E+03  0.18914757325E+03  0.50400001928E-02 0.  1.
        1   -1    0    0  501    0  0.00000000000E+00  0.00000000000E+00 -0.64851980072E+03  0.64851980073E+03  0.50400001928E-02 0. -1.
    10030    2    1    2    0    0  0.00000000000E+00  0.00000000000E+00 -0.45937222753E+03  0.83766737399E+03  0.70047397241E+03 0.  0.
        5    1    3    3  502    0  0.17575441616E+03 -0.28204445558E+03 -0.36180090931E+03  0.49128472162E+03  0.46999998093E+01 0.  1.
       -5    1    3    3    0  502 -0.17575441616E+03  0.28204445558E+03 -0.97571318215E+02  0.34638265236E+03  0.46999998093E+01 0. -1.
</event>
<event>
 5   0  0.7013526E-04  0.6998151E+03  0.7818609E-02  0.9717548E-01
        1   -1    0    0  501    0  0.00000000000E+00  0.00000000000E+00  0.45779445775E+03  0.45779445778E+03  0.50400001928E-02 0.  1.
       -1   -1    0    0    0  501  0.00000000000E+00  0.00000000000E+00 -0.26744601090E+03  0.26744601095E+03  0.50400001928E-02 0. -1.
    10030    2    1    2    0    0  0.00000000000E+00  0.00000000000E+00  0.19034844685E+03  0.72524046873E+03  0.69981512292E+03 0.  0.
        1    1    3    3  502    0  0.11775855084E+02 -0.24974271122E+03  0.34886430331E+03  0.42920437407E+03  0.50400001928E-02 0.  1.
       -1    1    3    3    0  502 -0.11775855084E+02  0.24974271122E+03 -0.15851585645E+03  0.29603609467E+03  0.50400001928E-02 0. -1.
</event>
<event>
 5   0  0.7459843E-04  0.6999918E+03  0.7818609E-02  0.9717246E-01
        1   -1    0    0  501    0  0.00000000000E+00  0.00000000000E+00  0.51055968834E+03  0.51055968837E+03  0.50400001928E-02 0.  1.
       -1   -1    0    0    0  501  0.00000000000E+00  0.00000000000E+00 -0.23992716666E+03  0.23992716671E+03  0.50400001928E-02 0. -1.
    10030    2    1    2    0    0  0.00000000000E+00  0.00000000000E+00  0.27063252169E+03  0.75048685508E+03  0.69999182699E+03 0.  0.
        2    1    3    3  502    0 -0.25054043186E+02 -0.29969235155E+03 -0.56634905149E+02  0.30602405649E+03  0.25500000920E-02 0. -1.
       -2    1    3    3    0  502  0.25054043186E+02  0.29969235155E+03  0.32726742684E+03  0.44446279859E+03  0.25500000920E-02 0.  1.
</event>
<event>
 5   0  0.1224048E-03  0.6994461E+03  0.7818609E-02  0.9718180E-01
        2   -1    0    0  501    0  0.00000000000E+00  0.00000000000E+00  0.16175274401E+03  0.16175274403E+03  0.25500000920E-02 0. -1.
       -2   -1    0    0    0  501  0.00000000000E+00  0.00000000000E+00 -0.75613063018E+03  0.75613063019E+03  0.25500000920E-02 0.  1.
    10030    2    1    2    0    0  0.00000000000E+00  0.00000000000E+00 -0.59437788618E+03  0.91788337421E+03  0.69944607875E+03 0.  0.
        3    1    3    3  502    0 -0.12008408872E+03  0.24137088401E+03 -0.48488735768E+01  0.26963607657E+03  0.10100000352E+00 0. -1.
       -3    1    3    3    0  502  0.12008408872E+03 -0.24137088401E+03 -0.58952901260E+03  0.64824729765E+03  0.10100000352E+00 0.  1.
</event>
<event>
 5   0  0.1265562E-03  0.7000341E+03  0.7818609E-02  0.9717174E-01
        2   -1    0    0  501    0  0.00000000000E+00  0.00000000000E+00  0.10735365423E+04  0.10735365423E+04  0.25500000920E-02 0.  1.
       -2   -1    0    0    0  501  0.00000000000E+00  0.00000000000E+00 -0.11411993702E+03  0.11411993705E+03  0.25500000920E-02 0. -1.
    10030    2    1    2    0    0  0.00000000000E+00  0.00000000000E+00  0.95941660530E+03  0.11876564794E+04  0.70003406380E+03 0.  0.
        1    1    3    3  502    0 -0.83012121253E+02  0.33612544871E+03  0.39252719012E+03  0.52340130355E+03  0.50400001928E-02 0. -1.
       -1    1    3    3    0  502  0.83012121253E+02 -0.33612544871E+03  0.56688941518E+03  0.66425517583E+03  0.50400001928E-02 0.  1.
</event>
<event>
 5   0  0.7459843E-04  0.7002120E+03  0.7818609E-02  0.9716870E-01
        1   -1    0    0  501    0  0.00000000000E+00  0.00000000000E+00  0.40262049098E+03  0.40262049101E+03  0.50400001928E-02 0. -1.
       -1   -1    0    0    0  501  0.00000000000E+00  0.00000000000E+00 -0.30444107192E+03  0.30444107196E+03  0.50400001928E-02 0.  1.
    10030    2    1    2    0    0  0.00000000000E+00  0.00000000000E+00  0.98179419065E+02  0.70706156297E+03  0.70021200754E+03 0.  0.
        2    1    3    3  502    0  0.75141276930E+02 -0.29178157219E+03  0.22913563495E+03  0.37853115669E+03  0.25500000920E-02 0. -1.
       -2    1    3    3    0  502 -0.75141276930E+02  0.29178157219E+03 -0.13095621588E+03  0.32853040629E+03  0.25500000920E-02 0.  1.
</event>
<event>
 5   0  0.7459843E-04  0.7001280E+03  0.7818609E-02  0.9717013E-01
        1   -1    0    0  501    0  0.00000000000E+00  0.00000000000E+00  0.34392262493E+03  0.34392262497E+03  0.50400001928E-02 0.  1.
       -1   -1    0    0    0  501  0.00000000000E+00  0.00000000000E+00 -0.35631500305E+03  0.35631500308E+03  0.50400001928E-02 0. -1.
    10030    2    1    2    0    0  0.00000000000E+00  0.00000000000E+00 -0.12392378119E+02  0.70023762805E+03  0.70012796309E+03 0.  0.
        2    1    3    3  502    0 -0.65062526924E+02 -0.32891325851E+03  0.94456183544E+02  0.34833752977E+03  0.25500000920E-02 0. -1.
       -2    1    3    3    0  502  0.65062526924E+02  0.32891325851E+03 -0.10684856166E+03  0.35190009828E+03  0.25500000920E-02 0.  1.
</event>
<event>
 5   0  0.7574241E-04  0.6976556E+03  0.7818609E-02  0.9721250E-01
       -1   -1    0    0    0  501  0.00000000000E+00  0.00000000000E+00  0.11764741948E+03  0.11764741959E+03  0.50400001928E-02 0. -1.
        1   -1    0    0  501    0  0.00000000000E+00  0.00000000000E+00 -0.10342840177E+04  0.10342840177E+04  0.50400001928E-02 0.  1.
    10030    2    1    2    0    0  0.00000000000E+00  0.00000000000E+00 -0.91663659818E+03  0.11519314373E+04  0.69765563356E+03 0.  0.
        3    1    3    3  502    0  0.77758001260E+02  0.29667135848E+03 -0.73272982300E+03  0.79432562934E+03  0.10100000352E+00 0. -1.
       -3    1    3    3    0  502 -0.77758001260E+02 -0.29667135848E+03 -0.18390677517E+03  0.35760580792E+03  0.10100000352E+00 0.  1.
</event>
<event>
 5   0  0.7572415E-04  0.6999086E+03  0.7818609E-02  0.9717388E-01
        1   -1    0    0  501    0  0.00000000000E+00  0.00000000000E+00  0.15089228171E+03  0.15089228180E+03  0.50400001928E-02 0. -1.
       -1   -1    0    0    0  501  0.00000000000E+00  0.00000000000E+00 -0.81162550768E+03  0.81162550770E+03  0.50400001928E-02 0.  1.
    10030    2    1    2    0    0  0.00000000000E+00  0.00000000000E+00 -0.66073322597E+03  0.96251778950E+03  0.69990863632E+03 0.  0.
        4    1    3    3  502    0  0.30658589258E+03  0.13906401818E+03 -0.19894492608E+03  0.39104271786E+03  0.12699999809E+01 0. -1.
       -4    1    3    3    0  502 -0.30658589258E+03 -0.13906401818E+03 -0.46178829989E+03  0.57147507164E+03  0.12699999809E+01 0.  1.
</event>
<event>
 5   0  0.1222679E-03  0.7000074E+03  0.7818609E-02  0.9717220E-01
        2   -1    0    0  501    0  0.00000000000E+00  0.00000000000E+00  0.11514804853E+03  0.11514804856E+03  0.25500000920E-02 0. -1.
       -2   -1    0    0    0  501  0.00000000000E+00  0.00000000000E+00 -0.10638703531E+04  0.10638703531E+04  0.25500000920E-02 0.  1.
    10030    2    1    2    0    0  0.00000000000E+00  0.00000000000E+00 -0.94872230456E+03  0.11790184017E+04  0.70000741444E+03 0.  0.
        2    1    3    3  502    0 -0.30152806046E+02 -0.22631978226E+03 -0.92116842547E+03  0.94904220330E+03  0.25500000920E-02 0.  1.
       -2    1    3    3    0  502  0.30152806046E+02  0.22631978226E+03 -0.27553879091E+02  0.22997619836E+03  0.25500000920E-02 0. -1.
</event>
<event>
 5   0  0.1265562E-03  0.7005765E+03  0.7818609E-02  0.9716247E-01
        2   -1    0    0  501    0  0.00000000000E+00  0.00000000000E+00  0.33848352674E+03  0.33848352675E+03  0.25500000920E-02 0. -1.
       -2   -1    0    0    0  501  0.00000000000E+00  0.00000000000E+00 -0.36250462544E+03  0.36250462545E+03  0.25500000920E-02 0.  1.
    10030    2    1    2    0    0  0.00000000000E+00  0.00000000000E+00 -0.24021098705E+02  0.70098815220E+03  0.70057646002E+03 0.  0.
        1    1    3    3  502    0  0.15595513929E+02  0.34368346077E+03  0.53909139920E+02  0.34823517435E+03  0.50400001928E-02 0. -1.
       -1    1    3    3    0  502 -0.15595513929E+02 -0.34368346077E+03 -0.77930238625E+02  0.35275297785E+03  0.50400001928E-02 0.  1.
</event>
<event>
 5   0  0.4936000E-04  0.7000466E+03  0.7818609E-02  0.9717153E-01
        3   -1    0    0  501    0  0.00000000000E+00  0.00000000000E+00  0.31606877775E+03  0.31606879389E+03  0.10100000352E+00 0.  1.
       -3   -1    0    0    0  501  0.00000000000E+00  0.00000000000E+00 -0.38762539586E+03  0.38762540901E+03  0.10100000352E+00 0. -1.
    10030    2    1    2    0    0  0.00000000000E+00  0.00000000000E+00 -0.71556618104E+02  0.70369420290E+03  0.70004655674E+03 0.  0.
        4    1    3    3  502    0  0.12920281910E+03 -0.42089801332E+02  0.28846990779E+03  0.31887524275E+03  0.12699999809E+01 0.  1.
       -4    1    3    3    0  502 -0.12920281910E+03  0.42089801332E+02 -0.36002652590E+03  0.38481896015E+03  0.12699999809E+01 0. -1.
</event>
<event>
 5   0  0.7013526E-04  0.7002394E+03  0.7818609E-02  0.9716823E-01
        1   -1    0    0  501    0  0.00000000000E+00  0.00000000000E+00  0.43834099916E+03  0.43834099919E+03  0.50400001928E-02 0.  1.
       -1   -1    0    0    0  501  0.00000000000E+00  0.00000000000E+00 -0.27965395636E+03  0.27965395641E+03  0.50400001928E-02 0. -1.
    10030    2    1    2    0    0  0.00000000000E+00  0.00000000000E+00  0.15868704280E+03  0.71799495560E+03  0.70023937244E+03 0.  0.
        1    1    3    3  502    0 -0.49562241335E+02 -0.14352287029E+02  0.43442105536E+03  0.43747463615E+03  0.50400001928E-02 0.  1.
       -1    1    3    3    0  502  0.49562241335E+02  0.14352287029E+02 -0.27573401257E+03  0.28052031944E+03  0.50400001928E-02 0. -1.
</event>
<event>
 5   0  0.1222679E-03  0.7003238E+03  0.7818609E-02  0.9716679E-01
       -2   -1    0    0    0  501  0.00000000000E+00  0.00000000000E+00  0.15547833426E+03  0.15547833428E+03  0.25500000920E-02 0. -1.
        2   -1    0    0  501    0  0.00000000000E+00  0.00000000000E+00 -0.78862028614E+03  0.78862028615E+03  0.25500000920E-02 0.  1.
    10030    2    1    2    0    0  0.00000000000E+00  0.00000000000E+00 -0.63314195188E+03  0.94409862042E+03  0.70032383499E+03 0.  0.
        2    1    3    3  502    0  0.50446776099E+02  0.12896204130E+03  0.11699681133E+03  0.18128524259E+03  0.25500000920E-02 0. -1.
       -2    1    3    3    0  502 -0.50446776099E+02 -0.12896204130E+03 -0.75013876321E+03  0.76281337783E+03  0.25500000920E-02 0.  1.
</event>
<event>
 5   0  0.7013526E-04  0.6999890E+03  0.7818609E-02  0.9717251E-01
       -1   -1    0    0    0  501  0.00000000000E+00  0.00000000000E+00  0.11156934784E+03  0.11156934796E+03  0.50400001928E-02 0. -1.
        1   -1    0    0  501    0  0.00000000000E+00  0.00000000000E+00 -0.10979374635E+04  0.10979374635E+04  0.50400001928E-02 0.  1.
    10030    2    1    2    0    0  0.00000000000E+00  0.00000000000E+00 -0.98636811567E+03  0.12095068115E+04  0.69998904807E+03 0.  0.
        1    1    3    3  502    0 -0.40795636046E+02 -0.19277451078E+03 -0.99299023897E+03  0.10123516734E+04  0.50400001928E-02 0.  1.
       -1    1    3    3    0  502  0.40795636046E+02  0.19277451078E+03  0.66221233040E+01  0.19715513808E+03  0.50400001928E-02 0. -1.
</event>
<event>
 5   0  0.1265562E-03  0.7003402E+03  0.7818609E-02  0.9716651E-01
       -2   -1    0    0    0  501  0.00000000000E+00  0.00000000000E+00  0.11422099031E+03  0.11422099034E+03  0.25500000920E-02 0.  1.
        2   -1    0    0  501    0  0.00000000000E+00  0.00000000000E+00 -0.10735250049E+04  0.10735250049E+04  0.25500000920E-02 0. -1.
    10030    2    1    2    0    0  0.00000000000E+00  0.00000000000E+00 -0.95930401457E+03  0.11877459952E+04  0.70034017219E+03 0.  0.
        1    1    3    3  502    0  0.29667940490E+03 -0.10550367773E+03 -0.21983625824E+03  0.38402822263E+03  0.50400001928E-02 0.  1.
       -1    1    3    3    0  502 -0.29667940490E+03  0.10550367773E+03 -0.73946775633E+03  0.80371777259E+03  0.50400001928E-02 0. -1.
</event>
<event>
 5   0  0.7574241E-04  0.6992391E+03  0.7818609E-02  0.9718534E-01
        1   -1    0    0  501    0  0.00000000000E+00  0.00000000000E+00  0.10071429892E+03  0.10071429905E+03  0.50400001928E-02 0. -1.
       -1   -1    0    0    0  501  0.00000000000E+00  0.00000000000E+00 -0.12136692440E+04  0.12136692440E+04  0.50400001928E-02 0.  1.
    10030    2    1    2    0    0  0.00000000000E+00  0.00000000000E+00 -0.11129549450E+04  0.13143835430E+04  0.69923914969E+03 0.  0.
        3    1    3    3  502    0 -0.98385269896E+02 -0.28433121063E+03 -0.22174790616E+03  0.37375933802E+03  0.10100000352E+00 0. -1.
       -3    1    3    3    0  502  0.98385269896E+02  0.28433121063E+03 -0.89120703887E+03  0.94062420499E+03  0.10100000352E+00 0.  1.
</event>
<event>
 5   0  0.1282546E-03  0.6999025E+03  0.7818609E-02  0.9717399E-01
       -2   -1    0    0    0  501  0.00000000000E+00  0.00000000000E+00  0.96804236750E+02  0.96804236783E+02  0.25500000920E-02 0. -1.
        2   -1    0    0  501    0  0.00000000000E+00  0.00000000000E+00 -0.12650879559E+04  0.12650879559E+04  0.25500000920E-02 0.  1.
    10030    2    1    2    0    0  0.00000000000E+00  0.00000000000E+00 -0.11682837191E+04  0.13618921926E+04  0.69990249039E+03 0.  0.
        5    1    3    3  502    0 -0.26512383565E+01 -0.16635193420E+03 -0.11831412767E+04  0.11947909297E+04  0.46999998093E+01 0.  1.
       -5    1    3    3    0  502  0.26512383565E+01  0.16635193420E+03  0.14857557545E+02  0.16710126299E+03  0.46999998093E+01 0. -1.
</event>
<event>
 5   0  0.1265562E-03  0.7004462E+03  0.7818609E-02  0.9716469E-01
        2   -1    0    0  501    0  0.00000000000E+00  0.00000000000E+00  0.73689686309E+03  0.73689686310E+03  0.25500000920E-02 0.  1.
       -2   -1    0    0    0  501  0.00000000000E+00  0.00000000000E+00 -0.16644966141E+03  0.16644966143E+03  0.25500000920E-02 0. -1.
    10030    2    1    2    0    0  0.00000000000E+00  0.00000000000E+00  0.57044720168E+03  0.90334652452E+03  0.70044623881E+03 0.  0.
        1    1    3    3  502    0  0.29746437023E+03  0.14419493458E+03  0.43439701852E+03  0.54587361215E+03  0.50400001928E-02 0.  1.
       -1    1    3    3    0  502 -0.29746437023E+03 -0.14419493458E+03  0.13605018316E+03  0.35747291237E+03  0.50400001928E-02 0. -1.
</event>
<event>
 5   0  0.7459843E-04  0.6998307E+03  0.7818609E-02  0.9717522E-01
        1   -1    0    0  501    0  0.00000000000E+00  0.00000000000E+00  0.52100842687E+03  0.52100842690E+03  0.50400001928E-02 0.  1.
       -1   -1    0    0    0  501  0.00000000000E+00  0.00000000000E+00 -0.23500726088E+03  0.23500726094E+03  0.50400001928E-02 0. -1.
    10030    2    1    2    0    0  0.00000000000E+00  0.00000000000E+00  0.28600116599E+03  0.75601568783E+03  0.69983073190E+03 0.  0.
        2    1    3    3  502    0  0.13006971331E+03 -0.19716274464E+03  0.42189267308E+03  0.48351288069E+03  0.25500000920E-02 0.  1.
       -2    1    3    3    0  502 -0.13006971331E+03  0.19716274464E+03 -0.13589150709E+03  0.27250280714E+03  0.25500000920E-02 0. -1.
</event>
<event>
 5   0  0.1222679E-03  0.6999508E+03  0.7818609E-02  0.9717316E-01
        2   -1    0    0  501    0  0.00000000000E+00  0.00000000000E+00  0.71587432801E+03  0.71587432802E+03  0.25500000920E-02 0.  1.
       -2   -1    0    0    0  501  0.00000000000E+00  0.00000000000E+00 -0.17109535236E+03  0.17109535237E+03  0.25500000920E-02 0. -1.
    10030    2    1    2    0    0  0.00000000000E+00  0.00000000000E+00  0.54477897566E+03  0.88696968039E+03  0.69995077085E+03 0.  0.
        2    1    3    3  502    0 -0.77334382540E+02  0.26463094535E+03  0.54556381816E+03  0.61126919083E+03  0.25500000920E-02 0.  1.
       -2    1    3    3    0  502  0.77334382540E+02 -0.26463094535E+03 -0.78484250819E+00  0.27570048956E+03  0.25500000920E-02 0. -1.
</event>
<event>
 5   0  0.1265562E-03  0.7001173E+03  0.7818609E-02  0.9717032E-01
       -2   -1    0    0    0  501  0.00000000000E+00  0.00000000000E+00  0.32703928200E+03  0.32703928201E+03  0.25500000920E-02 0.  1.
        2   -1    0    0  501    0  0.00000000000E+00  0.00000000000E+00 -0.37469825406E+03  0.37469825407E+03  0.25500000920E-02 0. -1.
    10030    2    1    2    0    0  0.00000000000E+00  0.00000000000E+00 -0.47658972062E+02  0.70173753609E+03  0.70011727013E+03 0.  0.
        1    1    3    3  502    0 -0.18584250114E+03 -0.63551987241E+01  0.27344284365E+03  0.33067931981E+03  0.50400001928E-02 0.  1.
       -1    1    3    3    0  502  0.18584250114E+03  0.63551987241E+01 -0.32110181572E+03  0.37105821627E+03  0.50400001928E-02 0. -1.
</event>
<event>
 5   0  0.7459843E-04  0.6994906E+03  0.7818609E-02  0.9718104E-01
       -1   -1    0    0    0  501  0.00000000000E+00  0.00000000000E+00  0.30868107317E+03  0.30868107322E+03  0.50400001928E-02 0.  1.
        1   -1    0    0  501    0  0.00000000000E+00  0.00000000000E+00 -0.39627234935E+03  0.39627234938E+03  0.50400001928E-02 0. -1.
    10030    2    1    2    0    0  0.00000000000E+00  0.00000000000E+00 -0.87591276173E+02  0.70495342259E+03  0.69949059777E+03 0.  0.
        2    1    3    3  502    0  0.91901393992E+02  0.22974265195E+03  0.20530716270E+03  0.32152540087E+03  0.25500000920E-02 0.  1.
       -2    1    3    3    0  502 -0.91901393992E+02 -0.22974265195E+03 -0.29289843887E+03  0.38342802172E+03  0.25500000920E-02 0. -1.
</event>
<event>
 5   0  0.7572415E-04  0.6999804E+03  0.7818609E-02  0.9717266E-01
        1   -1    0    0  501    0  0.00000000000E+00  0.00000000000E+00  0.66515906369E+03  0.66515906371E+03  0.50400001928E-02 0.  1.
       -1   -1    0    0    0  501  0.00000000000E+00  0.00000000000E+00 -0.18415615445E+03  0.18415615452E+03  0.50400001928E-02 0. -1.
    10030    2    1    2    0    0  0.00000000000E+00  0.00000000000E+00  0.48100290924E+03  0.84931521823E+03  0.69998038631E+03 0.  0.
        4    1    3    3  502    0 -0.32244100801E+03 -0.44758839418E+02  0.39645225103E+03  0.51297910055E+03  0.12699999809E+01 0.  1.
       -4    1    3    3    0  502  0.32244100801E+03  0.44758839418E+02  0.84550658210E+02  0.33633611768E+03  0.12699999809E+01 0. -1.
</event>
<event>
 5   0  0.1282546E-03  0.7000565E+03  0.7818609E-02  0.9717136E-01
        2   -1    0    0  501    0  0.00000000000E+00  0.00000000000E+00  0.38689597295E+03  0.38689597296E+03  0.25500000920E-02 0. -1.
       -2   -1    0    0    0  501  0.00000000000E+00  0.00000000000E+00 -0.31667365244E+03  0.31667365245E+03  0.25500000920E-02 0.  1.
    10030    2    1    2    0    0  0.00000000000E+00  0.00000000000E+00  0.70222320510E+02  0.70356962541E+03  0.70005645736E+03 0.  0.
        5    1    3    3  502    0  0.99292384664E+02  0.77542054056E+02 -0.29306378225E+03  0.31903012125E+03  0.46999998093E+01 0.  1.
       -5    1    3    3    0  502 -0.99292384664E+02 -0.77542054056E+02  0.36328610276E+03  0.38453950416E+03  0.46999998093E+01 0. -1.
</event>
<event>
 5   0  0.7574241E-04  0.6986085E+03  0.7818609E-02  0.9719615E-01
       -1   -1    0    0    0  501  0.00000000000E+00  0.00000000000E+00  0.32707748027E+03  0.32707748030E+03  0.50400001928E-02 0.  1.
        1   -1    0    0  501    0  0.00000000000E+00  0.00000000000E+00 -0.37304144703E+03  0.37304144706E+03  0.50400001928E-02 0. -1.
    10030    2    1    2    0    0  0.00000000000E+00  0.00000000000E+00 -0.45963966760E+02  0.70011892737E+03  0.69860849280E+03 0.  0.
        3    1    3    3  502    0 -0.18783337994E+02 -0.34512983415E+03 -0.73549279118E+02  0.35337929037E+03  0.10100000352E+00 0.  1.
       -3    1    3    3    0  502  0.18783337994E+02  0.34512983415E+03  0.27585312357E+02  0.34673963699E+03  0.10100000352E+00 0. -1.
</event>
<event>
 5   0  0.7013526E-04  0.7003564E+03  0.7818609E-02  0.9716623E-01
       -1   -1    0    0    0  501  0.00000000000E+00  0.00000000000E+00  0.26988526724E+03  0.26988526729E+03  0.50400001928E-02 0.  1.
        1   -1    0    0  501    0  0.00000000000E+00  0.00000000000E+00 -0.45435888850E+03  0.45435888852E+03  0.50400001928E-02 0. -1.
    10030    2    1    2    0    0  0.00000000000E+00  0.00000000000E+00 -0.18447362126E+03  0.72424415581E+03  0.70035639519E+03 0.  0.
        1    1    3    3  502    0 -0.26972854162E+03  0.18182814950E+03 -0.22631164723E+03  0.39627253729E+03  0.50400001928E-02 0. -1.
       -1    1    3    3    0  502  0.26972854162E+03 -0.18182814950E+03  0.41838025972E+02  0.32797161852E+03  0.50400001928E-02 0.  1.
</event>
<event>
 5   0  0.1224048E-03  0.6995622E+03  0.7818609E-02  0.9717981E-01
        2   -1    0    0  501    0  0.00000000000E+00  0.00000000000E+00  0.86174867367E+03  0.86174867367E+03  0.25500000920E-02 0.  1.
       -2   -1    0    0    0  501  0.00000000000E+00  0.00000000000E+00 -0.14197503952E+03  0.14197503954E+03  0.25500000920E-02 0. -1.
    10030    2    1    2    0    0  0.00000000000E+00  0.00000000000E+00  0.71977363415E+03  0.10037237132E+04  0.69956215453E+03 0.  0.
        3    1    3    3  502    0 -0.41595971108E+02  0.19221452414E+03 -0.55137109915E+02  0.20424680950E+03  0.10100000352E+00 0. -1.
       -3    1    3    3    0  502  0.41595971108E+02 -0.19221452414E+03  0.77491074406E+03  0.79947690371E+03  0.10100000352E+00 0.  1.
</event>
<event>
 5   0  0.1282546E-03  0.6998806E+03  0.7818609E-02  0.9717436E-01
        2   -1    0    0  501    0  0.00000000000E+00  0.00000000000E+00  0.13140702677E+04  0.13140702677E+04  0.25500000920E-02 0.  1.
       -2   -1    0    0    0  501  0.00000000000E+00  0.00000000000E+00 -0.93190016208E+02  0.93190016242E+02  0.25500000920E-02 0. -1.
    10030    2    1    2    0    0  0.00000000000E+00  0.00000000000E+00  0.12208802515E+04  0.14072602839E+04  0.69988064574E+03 0.  0.
        5    1    3    3  502    0 -0.37882668798E+02 -0.63838396781E+02  0.12979919526E+04  0.13001213930E+04  0.46999998093E+01 0.  1.
       -5    1    3    3    0  502  0.37882668798E+02  0.63838396781E+02 -0.77111701135E+02  0.10713889093E+03  0.46999998093E+01 0. -1.
</event>
<event>
 5   0  0.7570633E-04  0.6999162E+03  0.7818609E-02  0.9717375E-01
        1   -1    0    0  501    0  0.00000000000E+00  0.00000000000E+00  0.65848280317E+03  0.65848280319E+03  0.50400001928E-02 0.  1.
       -1   -1    0    0    0  501  0.00000000000E+00  0.00000000000E+00 -0.18598918188E+03  0.18598918195E+03  0.50400001928E-02 0. -1.
    10030    2    1    2    0    0  0.00000000000E+00  0.00000000000E+00  0.47249362129E+03  0.84447198514E+03  0.69991621751E+03 0.  0.
        5    1    3    3  502    0  0.29338373164E+03 -0.92150850927E+02  0.34778224048E+02  0.30951156390E+03  0.46999998093E+01 0. -1.
       -5    1    3    3    0  502 -0.29338373164E+03  0.92150850927E+02  0.43771539724E+03  0.53496042125E+03  0.46999998093E+01 0.  1.
</event>
<event>
 5   0  0.7459843E-04  0.6999639E+03  0.7818609E-02  0.9717294E-01
        1   -1    0    0  501    0  0.00000000000E+00  0.00000000000E+00  0.82425683691E+03  0.82425683692E+03  0.50400001928E-02 0.  1.
       -1   -1    0    0    0  501  0.00000000000E+00  0.00000000000E+00 -0.14860339804E+03  0.14860339813E+03  0.50400001928E-02 0. -1.
    10030    2    1    2    0    0  0.00000000000E+00  0.00000000000E+00  0.67565343887E+03  0.97286023505E+03  0.69996390442E+03 0.  0.
        2    1    3    3  502    0  0.49289575305E+02  0.29199137156E+03  0.78553394470E+02  0.30636425883E+03  0.25500000920E-02 0. -1.
       -2    1    3    3    0  502 -0.49289575305E+02 -0.29199137156E+03  0.59710004440E+03  0.66649597622E+03  0.25500000920E-02 0.  1.
</event>
<event>
 5   0  0.1243087E-03  0.6996848E+03  0.7818609E-02  0.9717771E-01
        2   -1    0    0  501    0  0.00000000000E+00  0.00000000000E+00  0.66478385097E+03  0.66478385098E+03  0.25500000920E-02 0. -1.
       -2   -1    0    0    0  501  0.00000000000E+00  0.00000000000E+00 -0.18410451888E+03  0.18410451890E+03  0.25500000920E-02 0.  1.
    10030    2    1    2    0    0  0.00000000000E+00  0.00000000000E+00  0.48067933209E+03  0.84888836988E+03  0.69968481776E+03 0.  0.
        4    1    3    3  502    0  0.25294528341E+03  0.18092694025E+03  0.45946998081E+02  0.31437018567E+03  0.12699999809E+01 0.  1.
       -4    1    3    3    0  502 -0.25294528341E+03 -0.18092694025E+03  0.43473233401E+03  0.53451818420E+03  0.12699999809E+01 0. -1.
</event>
<event>
 5   0  0.1282546E-03  0.7005800E+03  0.7818609E-02  0.9716241E-01
       -2   -1    0    0    0  501  0.00000000000E+00  0.00000000000E+00  0.96638006884E+02  0.96638006918E+02  0.25500000920E-02 0.  1.
        2   -1    0    0  501    0  0.00000000000E+00  0.00000000000E+00 -0.12697186230E+04  0.12697186230E+04  0.25500000920E-02 0. -1.
    10030    2    1    2    0    0  0.00000000000E+00  0.00000000000E+00 -0.11730806162E+04  0.13663566300E+04  0.70057997990E+03 0.  0.
        5    1    3    3  502    0 -0.28011934857E+03 -0.62061506299E+02 -0.97836825885E+03  0.10195808060E+04  0.46999998093E+01 0. -1.
       -5    1    3    3    0  502  0.28011934857E+03  0.62061506299E+02 -0.19471235730E+03  0.34677582397E+03  0.46999998093E+01 0.  1.
</event>
<event>
 5   0  0.7013526E-04  0.6996445E+03  0.7818609E-02  0.9717840E-01
       -1   -1    0    0    0  501  0.00000000000E+00  0.00000000000E+00  0.18561991727E+03  0.18561991734E+03  0.50400001928E-02 0.  1.
        1   -1    0    0  501    0  0.00000000000E+00  0.00000000000E+00 -0.65928057208E+03  0.65928057210E+03  0.50400001928E-02 0. -1.
    10030    2    1    2    0    0  0.00000000000E+00  0.00000000000E+00 -0.47366065481E+03  0.84490048944E+03  0.69964449625E+03 0.  0.
        1    1    3    3  502    0  0.14417316301E+03 -0.31862889311E+03 -0.22706933952E+03  0.41697812585E+03  0.50400001928E-02 0. -1.
       -1    1    3    3    0  502 -0.14417316301E+03  0.31862889311E+03 -0.24659131529E+03  0.42792236359E+03  0.50400001928E-02 0.  1.
</event>
<event>
 5   0  0.1222679E-03  0.7000508E+03  0.7818609E-02  0.9717145E-01
        2   -1    0    0  501    0  0.00000000000E+00  0.00000000000E+00  0.17668402727E+04  0.17668402727E+04  0.25500000920E-02 0. -1.
       -2   -1    0    0    0  501  0.00000000000E+00  0.00000000000E+00 -0.69342876428E+02  0.69342876475E+02  0.25500000920E-02 0.  1.
    10030    2    1    2    0    0  0.00000000000E+00  0.00000000000E+00  0.16974973962E+04  0.18361831491E+04  0.70005081741E+03 0.  0.
        2    1    3    3  502    0 -0.10041870508E+03 -0.31993937993E+03  0.58550462929E+03  0.67473016390E+03  0.25500000920E-02 0. -1.
       -2    1    3    3    0  502  0.10041870508E+03  0.31993937993E+03  0.11119927669E+04  0.11614529852E+04  0.25500000920E-02 0.  1.
</event>
<event>
 5   0  0.4936000E-04  0.6986193E+03  0.7818609E-02  0.9719596E-01
        3   -1    0    0  501    0  0.00000000000E+00  0.00000000000E+00  0.16375729231E+03  0.16375732346E+03  0.10100000352E+00 0. -1.
       -3   -1    0    0    0  501  0.00000000000E+00  0.00000000000E+00 -0.74511001369E+03  0.74511002054E+03  0.10100000352E+00 0.  1.
    10030    2    1    2    0    0  0.00000000000E+00  0.00000000000E+00 -0.58135272138E+03  0.90886734399E+03  0.69861925418E+03 0.  0.
        3    1    3    3  502    0  0.16105730682E+03 -0.54607232834E+02  0.10626375445E+03  0.20053279450E+03  0.10100000352E+00 0. -1.
       -3    1    3    3    0  502 -0.16105730682E+03  0.54607232834E+02 -0.68761647584E+03  0.70833454949E+03  0.10100000352E+00 0.  1.
</event>
<event>
 5   0  0.7459843E-04  0.7000090E+03  0.7818609E-02  0.9717217E-01
       -1   -1    0    0    0  501  0.00000000000E+00  0.00000000000E+00  0.15054072705E+03  0.15054072713E+03  0.50400001928E-02 0. -1.
        1   -1    0    0  501    0  0.00000000000E+00  0.00000000000E+00 -0.81375426539E+03  0.81375426541E+03  0.50400001928E-02 0.  1.
    10030    2    1    2    0    0  0.00000000000E+00  0.00000000000E+00 -0.66321353834E+03  0.96429499254E+03  0.70000902508E+03 0.  0.
        2    1    3    3  502    0 -0.16708047409E+02  0.22343953328E+03  0.38793881877E+02  0.22739689787E+03  0.25500000920E-02 0. -1.
       -2    1    3    3    0  502  0.16708047409E+02 -0.22343953328E+03 -0.70200742022E+03  0.73689809467E+03  0.25500000920E-02 0.  1.
</event>
<event>
 5   0  0.1265562E-03  0.6999288E+03  0.7818609E-02  0.9717354E-01
       -2   -1    0    0    0  501  0.00000000000E+00  0.00000000000E+00  0.11295882931E+03  0.11295882934E+03  0.25500000920E-02 0.  1.
        2   -1    0    0  501    0  0.00000000000E+00  0.00000000000E+00 -0.10842452301E+04  0.10842452301E+04  0.25500000920E-02 0. -1.
    10030    2    1    2    0    0  0.00000000000E+00  0.00000000000E+00 -0.97128640077E+03  0.11972040594E+04  0.69992877321E+03 0.  0.
        1    1    3    3  502    0 -0.23038865660E+03  0.15331093504E+03 -0.85206586940E+03  0.89587913343E+03  0.50400001928E-02 0. -1.
       -1    1    3    3    0  502  0.23038865660E+03 -0.15331093504E+03 -0.11922053136E+03  0.30132492598E+03  0.50400001928E-02 0.  1.
</event>
<event>
 5   0  0.7013526E-04  0.7003572E+03  0.7818609E-02  0.9716621E-01
        1   -1    0    0  501    0  0.00000000000E+00  0.00000000000E+00  0.10994625057E+04  0.10994625057E+04  0.50400001928E-02 0. -1.
       -1   -1    0    0    0  501  0.00000000000E+00  0.00000000000E+00 -0.11153182374E+03  0.11153182386E+03  0.50400001928E-02 0.  1.
    10030    2    1    2    0    0  0.00000000000E+00  0.00000000000E+00  0.98793068198E+03  0.12109943296E+04  0.70035721878E+03 0.  0.
        1    1    3    3  502    0  0.17489097381E+03 -0.10194094552E+03 -0.10708836009E+00  0.20243226172E+03  0.50400001928E-02 0.  1.
       -1    1    3    3    0  502 -0.17489097381E+03  0.10194094552E+03  0.98803777034E+03  0.10085620679E+04  0.50400001928E-02 0. -1.
</event>
<event>
 5   0  0.7574241E-04  0.6998374E+03  0.7818609E-02  0.9717510E-01
        1   -1    0    0  501    0  0.00000000000E+00  0.00000000000E+00  0.15314598257E+03  0.15314598266E+03  0.50400001928E-02 0.  1.
       -1   -1    0    0    0  501  0.00000000000E+00  0.00000000000E+00 -0.79951872420E+03  0.79951872422E+03  0.50400001928E-02 0. -1.
    10030    2    1    2    0    0  0.00000000000E+00  0.00000000000E+00 -0.64637274163E+03  0.95266470687E+03  0.69983735439E+03 0.  0.
        3    1    3    3  502    0 -0.95298076159E+02 -0.20476742244E+03 -0.68700781817E+03  0.72318128643E+03  0.10100000352E+00 0. -1.
       -3    1    3    3    0  502  0.95298076159E+02  0.20476742244E+03  0.40635076547E+02  0.22948342044E+03  0.10100000352E+00 0.  1.
</event>
<event>
 5   0  0.1243087E-03  0.7003550E+03  0.7818609E-02  0.9716625E-01
        2   -1    0    0  501    0  0.00000000000E+00  0.00000000000E+00  0.80995915039E+03  0.80995915039E+03  0.25500000920E-02 0. -1.
       -2   -1    0    0    0  501  0.00000000000E+00  0.00000000000E+00 -0.15139562394E+03  0.15139562396E+03  0.25500000920E-02 0.  1.
    10030    2    1    2    0    0  0.00000000000E+00  0.00000000000E+00  0.65856352645E+03  0.96135477436E+03  0.70035496986E+03 0.  0.
        4    1    3    3  502    0  0.70623490273E+02 -0.11849376807E+03 -0.11252586392E+03  0.17802284517E+03  0.12699999809E+01 0.  1.
       -4    1    3    3    0  502 -0.70623490273E+02  0.11849376807E+03  0.77108939037E+03  0.78333192919E+03  0.12699999809E+01 0. -1.
</event>
<event>
 5   0  0.1265562E-03  0.6999759E+03  0.7818609E-02  0.9717273E-01
        2   -1    0    0  501    0  0.00000000000E+00  0.00000000000E+00  0.17872678422E+04  0.17872678422E+04  0.25500000920E-02 0.  1.
       -2   -1    0    0    0  501  0.00000000000E+00  0.00000000000E+00 -0.68535647583E+02  0.68535647630E+02  0.25500000920E-02 0. -1.
    10030    2    1    2    0    0  0.00000000000E+00  0.00000000000E+00  0.17187321946E+04  0.18558034899E+04  0.69997588249E+03 0.  0.
        1    1    3    3  502    0  0.95085736368E+02 -0.20276467013E+03  0.14630226746E+03  0.26750544332E+03  0.50400001928E-02 0. -1.
       -1    1    3    3    0  502 -0.95085736368E+02  0.20276467013E+03  0.15724299272E+04  0.15882980465E+04  0.50400001928E-02 0.  1.
</event>
<event>
 5   0  0.4936000E-04  0.6999325E+03  0.7818609E-02  0.9717348E-01
        4   -1    0    0  501    0  0.00000000000E+00  0.00000000000E+00  0.17992868152E+03  0.17993316352E+03  0.12699999809E+01 0.  1.
       -4   -1    0    0    0  501  0.00000000000E+00  0.00000000000E+00 -0.68068042509E+03  0.68068160986E+03  0.12699999809E+01 0. -1.
    10030    2    1    2    0    0  0.00000000000E+00  0.00000000000E+00 -0.50075174357E+03  0.86061477338E+03  0.69993248209E+03 0.  0.
        4    1    3    3  502    0 -0.27423461985E+03 -0.60311689486E+02  0.64615761516E+01  0.28086561106E+03  0.12699999809E+01 0.  1.
       -4    1    3    3    0  502  0.27423461985E+03  0.60311689486E+02 -0.50721331972E+03  0.57974916232E+03  0.12699999809E+01 0. -1.
</event>
<event>
 5   0  0.7572415E-04  0.7011613E+03  0.7818609E-02  0.9715248E-01
       -1   -1    0    0    0  501  0.00000000000E+00  0.00000000000E+00  0.98497331651E+03  0.98497331652E+03  0.50400001928E-02 0. -1.
        1   -1    0    0  501    0  0.00000000000E+00  0.00000000000E+00 -0.12478185209E+03  0.12478185220E+03  0.50400001928E-02 0.  1.
    10030    2    1    2    0    0  0.00000000000E+00  0.00000000000E+00  0.86019146442E+03  0.11097551687E+04  0.70116130744E+03 0.  0.
        4    1    3    3  502    0  0.17058647513E+03 -0.29491964051E+03  0.29931283141E+03  0.45350537351E+03  0.12699999809E+01 0.  1.
       -4    1    3    3    0  502 -0.17058647513E+03  0.29491964051E+03  0.56087863301E+03  0.65624979521E+03  0.12699999809E+01 0. -1.
</event>
<event>
 5   0  0.7570633E-04  0.6999839E+03  0.7818609E-02  0.9717260E-01
       -1   -1    0    0    0  501  0.00000000000E+00  0.00000000000E+00  0.62057392007E+02  0.62057392212E+02  0.50400001928E-02 0.  1.
        1   -1    0    0  501    0  0.00000000000E+00  0.00000000000E+00 -0.19738885968E+04  0.19738885968E+04  0.50400001928E-02 0. -1.
    10030    2    1    2    0    0  0.00000000000E+00  0.00000000000E+00 -0.19118312048E+04  0.20359459890E+04  0.69998393880E+03 0.  0.
        5    1    3    3  502    0 -0.14648632203E+03  0.45242722392E+02 -0.18709210762E+04  0.18771981541E+04  0.46999998093E+01 0. -1.
       -5    1    3    3    0  502  0.14648632203E+03 -0.45242722392E+02 -0.40910128620E+02  0.15874783492E+03  0.46999998093E+01 0.  1.
</event>
<event>
 5   0  0.1222679E-03  0.7024501E+03  0.7818609E-02  0.9713051E-01
        2   -1    0    0  501    0  0.00000000000E+00  0.00000000000E+00  0.38539669084E+03  0.38539669085E+03  0.25500000920E-02 0.  1.
       -2   -1    0    0    0  501  0.00000000000E+00  0.00000000000E+00 -0.32008329682E+03  0.32008329683E+03  0.25500000920E-02 0. -1.
    10030    2    1    2    0    0  0.00000000000E+00  0.00000000000E+00  0.65313394024E+02  0.70547998768E+03  0.70245012177E+03 0.  0.
        2    1    3    3  502    0  0.30106395252E+03 -0.13784727768E+03  0.15028432761E+03  0.36362996935E+03  0.25500000920E-02 0.  1.
       -2    1    3    3    0  502 -0.30106395252E+03  0.13784727768E+03 -0.84970933587E+02  0.34185001834E+03  0.25500000920E-02 0. -1.
</event>
<event>
 5   0  0.7572415E-04  0.6998963E+03  0.7818609E-02  0.9717410E-01
       -1   -1    0    0    0  501  0.00000000000E+00  0.00000000000E+00  0.84057042536E+02  0.84057042688E+02  0.50400001928E-02 0. -1.
        1   -1    0    0  501    0  0.00000000000E+00  0.00000000000E+00 -0.14569120329E+04  0.14569120329E+04  0.50400001928E-02 0.  1.
    10030    2    1    2    0    0  0.00000000000E+00  0.00000000000E+00 -0.13728549903E+04  0.15409690756E+04  0.69989632616E+03 0.  0.
        4    1    3    3  502    0 -0.19260208396E+03  0.28695235551E+03 -0.80751930704E+03  0.87836567625E+03  0.12699999809E+01 0. -1.
       -4    1    3    3    0  502  0.19260208396E+03 -0.28695235551E+03 -0.56533568331E+03  0.66260339932E+03  0.12699999809E+01 0.  1.
</event>
<event>
 5   0  0.1282546E-03  0.6992122E+03  0.7818609E-02  0.9718580E-01
       -2   -1    0    0    0  501  0.00000000000E+00  0.00000000000E+00  0.81653560574E+03  0.81653560574E+03  0.25500000920E-02 0.  1.
        2   -1    0    0  501    0  0.00000000000E+00  0.00000000000E+00 -0.14968660140E+03  0.14968660142E+03  0.25500000920E-02 0. -1.
    10030    2    1    2    0    0  0.00000000000E+00  0.00000000000E+00  0.66684900433E+03  0.96622220717E+03  0.69921224177E+03 0.  0.
        5    1    3    3  502    0  0.11665198350E+03 -0.28594753422E+03  0.55976776962E+03  0.63932442741E+03  0.46999998093E+01 0.  1.
       -5    1    3    3    0  502 -0.11665198350E+03  0.28594753422E+03  0.10708123472E+03  0.32689777976E+03  0.46999998093E+01 0. -1.
</event>
<event>
 5   0  0.7570633E-04  0.6999451E+03  0.7818609E-02  0.9717326E-01
        1   -1    0    0  501    0  0.00000000000E+00  0.00000000000E+00  0.22381883982E+04  0.22381883982E+04  0.50400001928E-02 0.  1.
       -1   -1    0    0    0  501  0.00000000000E+00  0.00000000000E+00 -0.54723186377E+02  0.54723186609E+02  0.50400001928E-02 0. -1.
    10030    2    1    2    0    0  0.00000000000E+00  0.00000000000E+00  0.21834652118E+04  0.22929115848E+04  0.69994514394E+03 0.  0.
        5    1    3    3  502    0 -0.28284798718E+03  0.20599447119E+03  0.11070994685E+04  0.11610891564E+04  0.46999998093E+01 0.  1.
       -5    1    3    3    0  502  0.28284798718E+03 -0.20599447119E+03  0.10763657433E+04  0.11318224284E+04  0.46999998093E+01 0. -1.
</event>
<event>
 5   0  0.7013526E-04  0.7002390E+03  0.7818609E-02  0.9716824E-01
        1   -1    0    0  501    0  0.00000000000E+00  0.00000000000E+00  0.41693157252E+03  0.41693157255E+03  0.50400001928E-02 0.  1.
       -1   -1    0    0    0  501  0.00000000000E+00  0.00000000000E+00 -0.29401383243E+03  0.29401383247E+03  0.50400001928E-02 0. -1.
    10030    2    1    2    0    0  0.00000000000E+00  0.00000000000E+00  0.12291774009E+03  0.71094540502E+03  0.70023895785E+03 0.  0.
        1    1    3    3  502    0 -0.52399797394E+01 -0.31658098004E+03 -0.90267251778E+02  0.32924026346E+03  0.50400001928E-02 0. -1.
       -1    1    3    3    0  502  0.52399797394E+01  0.31658098004E+03  0.21318499186E+03  0.38170514156E+03  0.50400001928E-02 0.  1.
</event>
<event>
 5   0  0.1222679E-03  0.7000428E+03  0.7818609E-02  0.9717159E-01
        2   -1    0    0  501    0  0.00000000000E+00  0.00000000000E+00  0.17953060171E+04  0.17953060171E+04  0.25500000920E-02 0. -1.
       -2   -1    0    0    0  501  0.00000000000E+00  0.00000000000E+00 -0.68241828355E+02  0.68241828402E+02  0.25500000920E-02 0.  1.
    10030    2    1    2    0    0  0.00000000000E+00  0.00000000000E+00  0.17270641888E+04  0.18635478456E+04  0.70004275616E+03 0.  0.
        2    1    3    3  502    0  0.14150609741E+03 -0.77567273821E+02  0.16903727383E+04  0.16980579059E+04  0.25500000920E-02 0. -1.
       -2    1    3    3    0  502 -0.14150609741E+03  0.77567273821E+02  0.36691450528E+02  0.16548993963E+03  0.25500000920E-02 0.  1.
</event>
<event>
 5   0  0.7570633E-04  0.6999622E+03  0.7818609E-02  0.9717297E-01
       -1   -1    0    0    0  501  0.00000000000E+00  0.00000000000E+00  0.20122132422E+03  0.20122132428E+03  0.50400001928E-02 0.  1.
        1   -1    0    0  501    0  0.00000000000E+00  0.00000000000E+00 -0.60871662954E+03  0.60871662956E+03  0.50400001928E-02 0. -1.
    10030    2    1    2    0    0  0.00000000000E+00  0.00000000000E+00 -0.40749530532E+03  0.80993795384E+03  0.69996218841E+03 0.  0.
        5    1    3    3  502    0  0.25873576017E+03  0.20381335090E+03 -0.66930645413E+02  0.33613371876E+03  0.46999998093E+01 0. -1.
       -5    1    3    3    0  502 -0.25873576017E+03 -0.20381335090E+03 -0.34056465991E+03  0.47380423507E+03  0.46999998093E+01 0.  1.
</event>
<event>
 5   0  0.1265562E-03  0.6998690E+03  0.7818609E-02  0.9717456E-01
       -2   -1    0    0    0  501  0.00000000000E+00  0.00000000000E+00  0.11303446367E+03  0.11303446370E+03  0.25500000920E-02 0. -1.
        2   -1    0    0  501    0  0.00000000000E+00  0.00000000000E+00 -0.10833347675E+04  0.10833347675E+04  0.25500000920E-02 0.  1.
    10030    2    1    2    0    0  0.00000000000E+00  0.00000000000E+00 -0.97030030379E+03  0.11963692312E+04  0.69986902899E+03 0.  0.
        1    1    3    3  502    0 -0.12795657171E+03  0.29749946227E+03 -0.71177130889E+03  0.78198287096E+03  0.50400001928E-02 0.  1.
       -1    1    3    3    0  502  0.12795657171E+03 -0.29749946227E+03 -0.25852899491E+03  0.41438636021E+03  0.50400001928E-02 0. -1.
</event>
<event>
 5   0  0.7013526E-04  0.6996250E+03  0.7818609E-02  0.9717874E-01
        1   -1    0    0  501    0  0.00000000000E+00  0.00000000000E+00  0.34274104678E+03  0.34274104681E+03  0.50400001928E-02 0. -1.
       -1   -1    0    0    0  501  0.00000000000E+00  0.00000000000E+00 -0.35702980619E+03  0.35702980623E+03  0.50400001928E-02 0.  1.
    10030    2    1    2    0    0  0.00000000000E+00  0.00000000000E+00 -0.14288759417E+02  0.69977085304E+03  0.69962495533E+03 0.  0.
        1    1    3    3  502    0  0.30578676202E+03 -0.16740822325E+03  0.21804918855E+02  0.34929430507E+03  0.50400001928E-02 0.  1.
       -1    1    3    3    0  502 -0.30578676202E+03  0.16740822325E+03 -0.36093678273E+02  0.35047654797E+03  0.50400001928E-02 0. -1.
</event>
<event>
 5   0  0.7459843E-04  0.7001845E+03  0.7818609E-02  0.9716917E-01
        1   -1    0    0  501    0  0.00000000000E+00  0.00000000000E+00  0.11737076674E+04  0.11737076674E+04  0.50400001928E-02 0. -1.
       -1   -1    0    0    0  501  0.00000000000E+00  0.00000000000E+00 -0.10442515130E+03  0.10442515142E+03  0.50400001928E-02 0.  1.
    10030    2    1    2    0    0  0.00000000000E+00  0.00000000000E+00  0.10692825161E+04  0.12781328188E+04  0.70018454947E+03 0.  0.
        2    1    3    3  502    0 -0.18830961614E+03 -0.98360739605E+02  0.26697063181E+02  0.21412164724E+03  0.25500000920E-02 0.  1.
       -2    1    3    3    0  502  0.18830961614E+03  0.98360739605E+02  0.10425854529E+04  0.10640111716E+04  0.25500000920E-02 0. -1.
</event>
<event>
 5   0  0.1243087E-03  0.7001782E+03  0.7818609E-02  0.9716928E-01
       -2   -1    0    0    0  501  0.00000000000E+00  0.00000000000E+00  0.26997333316E+03  0.26997333318E+03  0.25500000920E-02 0.  1.
        2   -1    0    0  501    0  0.00000000000E+00  0.00000000000E+00 -0.45397951109E+03  0.45397951110E+03  0.25500000920E-02 0. -1.
    10030    2    1    2    0    0  0.00000000000E+00  0.00000000000E+00 -0.18400617793E+03  0.72395284427E+03  0.70017815391E+03 0.  0.
        4    1    3    3  502    0 -0.23367136979E+03  0.23422992848E+03 -0.21032109254E+03  0.39204915932E+03  0.12699999809E+01 0. -1.
       -4    1    3    3    0  502  0.23367136979E+03 -0.23422992848E+03  0.26314914612E+02  0.33190368495E+03  0.12699999809E+01 0.  1.
</event>
<event>
 5   0  0.1222679E-03  0.6999303E+03  0.7818609E-02  0.9717351E-01
       -2   -1    0    0    0  501  0.00000000000E+00  0.00000000000E+00  0.29627153220E+03  0.29627153221E+03  0.25500000920E-02 0. -1.
        2   -1    0    0  501    0  0.00000000000E+00  0.00000000000E+00 -0.41338967059E+03  0.41338967060E+03  0.25500000920E-02 0.  1.
    10030    2    1    2    0    0  0.00000000000E+00  0.00000000000E+00 -0.11711813839E+03  0.70966120281E+03  0.69993025683E+03 0.  0.
        2    1    3    3  502    0  0.12147927251E+03 -0.32820316299E+03 -0.57514576292E+02  0.35465822469E+03  0.25500000920E-02 0. -1.
       -2    1    3    3    0  502 -0.12147927251E+03  0.32820316299E+03 -0.59603562103E+02  0.35500297812E+03  0.25500000920E-02 0.  1.
</event>
<event>
 5   0  0.1243087E-03  0.7000946E+03  0.7818609E-02  0.9717070E-01
        2   -1    0    0  501    0  0.00000000000E+00  0.00000000000E+00  0.66958032862E+03  0.66958032863E+03  0.25500000920E-02 0. -1.
       -2   -1    0    0    0  501  0.00000000000E+00  0.00000000000E+00 -0.18299986971E+03  0.18299986973E+03  0.25500000920E-02 0.  1.
    10030    2    1    2    0    0  0.00000000000E+00  0.00000000000E+00  0.48658045891E+03  0.85258019836E+03  0.70009460192E+03 0.  0.
        4    1    3    3  502    0  0.28653192619E+02 -0.27392824219E+03  0.50638677883E+03  0.57644329295E+03  0.12699999809E+01 0. -1.
       -4    1    3    3    0  502 -0.28653192619E+02  0.27392824219E+03 -0.19806319920E+02  0.27613690540E+03  0.12699999809E+01 0.  1.
</event>
<event>
 5   0  0.7459843E-04  0.7004426E+03  0.7818609E-02  0.9716476E-01
        1   -1    0    0  501    0  0.00000000000E+00  0.00000000000E+00  0.47867596750E+03  0.47867596753E+03  0.50400001928E-02 0. -1.
       -1   -1    0    0    0  501  0.00000000000E+00  0.00000000000E+00 -0.25623799449E+03  0.25623799454E+03  0.50400001928E-02 0.  1.
    10030    2    1    2    0    0  0.00000000000E+00  0.00000000000E+00  0.22243797301E+03  0.73491396207E+03  0.70044263135E+03 0.  0.
        2    1    3    3  502    0 -0.13838793473E+03 -0.26525631793E+03  0.30223015287E+03  0.42527073729E+03  0.25500000920E-02 0.  1.
       -2    1    3    3    0  502  0.13838793473E+03  0.26525631793E+03 -0.79792179865E+02  0.30964322479E+03  0.25500000920E-02 0. -1.
</event>
<event>
 5   0  0.1265562E-03  0.7000140E+03  0.7818609E-02  0.9717208E-01
       -2   -1    0    0    0  501  0.00000000000E+00  0.00000000000E+00  0.30297236637E+03  0.30297236638E+03  0.25500000920E-02 0. -1.
        2   -1    0    0  501    0  0.00000000000E+00  0.00000000000E+00 -0.40434351987E+03  0.40434351988E+03  0.25500000920E-02 0.  1.
    10030    2    1    2    0    0  0.00000000000E+00  0.00000000000E+00 -0.10137115351E+03  0.70731588626E+03  0.70001403714E+03 0.  0.
        1    1    3    3  502    0 -0.15806282097E+03 -0.52913283229E+02  0.26029291706E+03  0.30908910303E+03  0.50400001928E-02 0. -1.
       -1    1    3    3    0  502  0.15806282097E+03  0.52913283229E+02 -0.36166407057E+03  0.39822678323E+03  0.50400001928E-02 0.  1.
</event>
<event>
 5   0  0.7572415E-04  0.6996524E+03  0.7818609E-02  0.9717827E-01
        1   -1    0    0  501    0  0.00000000000E+00  0.00000000000E+00  0.17704005792E+04  0.17704005792E+04  0.50400001928E-02 0. -1.
       -1   -1    0    0    0  501  0.00000000000E+00  0.00000000000E+00 -0.69124682287E+02  0.69124682471E+02  0.50400001928E-02 0.  1.
    10030    2    1    2    0    0  0.00000000000E+00  0.00000000000E+00  0.17012758969E+04  0.18395252617E+04  0.69965242152E+03 0.  0.
        4    1    3    3  502    0 -0.25194872980E+03 -0.63821681413E+02  0.14662601885E+04  0.14891178337E+04  0.12699999809E+01 0. -1.
       -4    1    3    3    0  502  0.25194872980E+03  0.63821681413E+02  0.23501570846E+03  0.35040742799E+03  0.12699999809E+01 0.  1.
</event>
<event>
 5   0  0.7459843E-04  0.7005488E+03  0.7818609E-02  0.9716294E-01
        1   -1    0    0  501    0  0.00000000000E+00  0.00000000000E+00  0.12813369706E+04  0.12813369706E+04  0.50400001928E-02 0.  1.
       -1   -1    0    0    0  501  0.00000000000E+00  0.00000000000E+00 -0.95753231908E+02  0.95753232041E+02  0.50400001928E-02 0. -1.
    10030    2    1    2    0    0  0.00000000000E+00  0.00000000000E+00  0.11855837387E+04  0.13770902026E+04  0.70054880257E+03 0.  0.
        2    1    3    3  502    0 -0.13419035344E+03 -0.68390374313E+02  0.12144348938E+04  0.12237386998E+04  0.25500000920E-02 0.  1.
       -2    1    3    3    0  502  0.13419035344E+03  0.68390374313E+02 -0.28851155091E+02  0.15335150281E+03  0.25500000920E-02 0. -1.
</event>
<event>
 5   0  0.7013526E-04  0.7001408E+03  0.7818609E-02  0.9716992E-01
        1   -1    0    0  501    0  0.00000000000E+00  0.00000000000E+00  0.39532890313E+03  0.39532890316E+03  0.50400001928E-02 0. -1.
       -1   -1    0    0    0  501  0.00000000000E+00  0.00000000000E+00 -0.30999319062E+03  0.30999319066E+03  0.50400001928E-02 0.  1.
    10030    2    1    2    0    0  0.00000000000E+00  0.00000000000E+00  0.85335712504E+02  0.70532209382E+03  0.70014075171E+03 0.  0.
        1    1    3    3  502    0  0.12570948232E+03 -0.10894592471E+03  0.35296874146E+03  0.39020381973E+03  0.50400001928E-02 0. -1.
       -1    1    3    3    0  502 -0.12570948232E+03  0.10894592471E+03 -0.26763302896E+03  0.31511827410E+03  0.50400001928E-02 0.  1.
</event>
<event>
 5   0  0.1265562E-03  0.6988467E+03  0.7818609E-02  0.9719206E-01
       -2   -1    0    0    0  501  0.00000000000E+00  0.00000000000E+00  0.96776799385E+02  0.96776799419E+02  0.25500000920E-02 0. -1.
        2   -1    0    0  501    0  0.00000000000E+00  0.00000000000E+00 -0.12616317880E+04  0.12616317880E+04  0.25500000920E-02 0.  1.
    10030    2    1    2    0    0  0.00000000000E+00  0.00000000000E+00 -0.11648549887E+04  0.13584085875E+04  0.69884672561E+03 0.  0.
        1    1    3    3  502    0  0.68114161516E+02  0.25181854378E+03 -0.10343089410E+04  0.10666991625E+04  0.50400001928E-02 0.  1.
       -1    1    3    3    0  502 -0.68114161516E+02 -0.25181854378E+03 -0.13054604769E+03  0.29170942492E+03  0.50400001928E-02 0. -1.
</event>
<event>
 5   0  0.7013526E-04  0.6999249E+03  0.7818609E-02  0.9717361E-01
       -1   -1    0    0    0  501  0.00000000000E+00  0.00000000000E+00  0.22079528084E+03  0.22079528090E+03  0.50400001928E-02 0.  1.
        1   -1    0    0  501    0  0.00000000000E+00  0.00000000000E+00 -0.55469360000E+03  0.55469360002E+03  0.50400001928E-02 0. -1.
    10030    2    1    2    0    0  0.00000000000E+00  0.00000000000E+00 -0.33389831916E+03  0.77548888092E+03  0.69992493661E+03 0.  0.
        1    1    3    3  502    0 -0.43645159907E+02  0.95869408488E+02  0.20281396098E+03  0.22853740670E+03  0.50400001928E-02 0.  1.
       -1    1    3    3    0  502  0.43645159907E+02 -0.95869408488E+02 -0.53671228015E+03  0.54695147422E+03  0.50400001928E-02 0. -1.
</event>
<event>
 5   0  0.7570633E-04  0.6979713E+03  0.7818609E-02  0.9720708E-01
       -1   -1    0    0    0  501  0.00000000000E+00  0.00000000000E+00  0.25519337135E+03  0.25519337140E+03  0.50400001928E-02 0.  1.
        1   -1    0    0  501    0  0.00000000000E+00  0.00000000000E+00 -0.47724980068E+03  0.47724980071E+03  0.50400001928E-02 0. -1.
    10030    2    1    2    0    0  0.00000000000E+00  0.00000000000E+00 -0.22205642933E+03  0.73244317211E+03  0.69797130497E+03 0.  0.
        5    1    3    3  502    0  0.32926556433E+03  0.96562437523E+02 -0.17763571154E+03  0.38641512937E+03  0.46999998093E+01 0. -1.
       -5    1    3    3    0  502 -0.32926556433E+03 -0.96562437523E+02 -0.44420717794E+02  0.34602804274E+03  0.46999998093E+01 0.  1.
</event>
<event>
 5   0  0.7574241E-04  0.7000118E+03  0.7818609E-02  0.9717212E-01
       -1   -1    0    0    0  501  0.00000000000E+00  0.00000000000E+00  0.11299868717E+03  0.11299868728E+03  0.50400001928E-02 0. -1.
        1   -1    0    0  501    0  0.00000000000E+00  0.00000000000E+00 -0.10841198235E+04  0.10841198235E+04  0.50400001928E-02 0.  1.
    10030    2    1    2    0    0  0.00000000000E+00  0.00000000000E+00 -0.97112113631E+03  0.11971185108E+04  0.70001176236E+03 0.  0.
        3    1    3    3  502    0 -0.96843729530E+02  0.23315501167E+03 -0.90012114339E+03  0.93485723530E+03  0.10100000352E+00 0.  1.
       -3    1    3    3    0  502  0.96843729530E+02 -0.23315501167E+03 -0.70999992925E+02  0.26226127547E+03  0.10100000352E+00 0. -1.
</event>
<event>
 5   0  0.1222679E-03  0.6970470E+03  0.7818609E-02  0.9722296E-01
        2   -1    0    0  501    0  0.00000000000E+00  0.00000000000E+00  0.11470962472E+04  0.11470962472E+04  0.25500000920E-02 0.  1.
       -2   -1    0    0    0  501  0.00000000000E+00  0.00000000000E+00 -0.10589227768E+03  0.10589227771E+03  0.25500000920E-02 0. -1.
    10030    2    1    2    0    0  0.00000000000E+00  0.00000000000E+00  0.10412039695E+04  0.12529885249E+04  0.69704701235E+03 0.  0.
        2    1    3    3  502    0  0.30972300497E+03  0.14864555870E+03  0.41509856131E+03  0.53882340106E+03  0.25500000920E-02 0. -1.
       -2    1    3    3    0  502 -0.30972300497E+03 -0.14864555870E+03  0.62610540818E+03  0.71416512383E+03  0.25500000920E-02 0.  1.
</event>
<event>
 5   0  0.1222679E-03  0.6997213E+03  0.7818609E-02  0.9717709E-01
       -2   -1    0    0    0  501  0.00000000000E+00  0.00000000000E+00  0.25406941484E+03  0.25406941486E+03  0.25500000920E-02 0. -1.
        2   -1    0    0  501    0  0.00000000000E+00  0.00000000000E+00 -0.48176778106E+03  0.48176778107E+03  0.25500000920E-02 0.  1.
    10030    2    1    2    0    0  0.00000000000E+00  0.00000000000E+00 -0.22769836622E+03  0.73583719593E+03  0.69972125374E+03 0.  0.
        2    1    3    3  502    0  0.21370283378E+03 -0.94867121019E+02 -0.38753944717E+03  0.45260964963E+03  0.25500000920E-02 0.  1.
       -2    1    3    3    0  502 -0.21370283378E+03  0.94867121019E+02  0.15984108096E+03  0.28322754630E+03  0.25500000920E-02 0. -1.
</event>
<event>
 5   0  0.4936000E-04  0.7000051E+03  0.7818609E-02  0.9717224E-01
        3   -1    0    0  501    0  0.00000000000E+00  0.00000000000E+00  0.15674304451E+03  0.15674307705E+03  0.10100000352E+00 0.  1.
       -3   -1    0    0    0  501  0.00000000000E+00  0.00000000000E+00 -0.78154510398E+03  0.78154511051E+03  0.10100000352E+00 0. -1.
    10030    2    1    2    0    0  0.00000000000E+00  0.00000000000E+00 -0.62480205947E+03  0.93828818755E+03  0.70000507811E+03 0.  0.
        3    1    3    3  502    0  0.25531050551E+03  0.48379154612E+02 -0.62668962338E+03  0.67842751350E+03  0.10100000352E+00 0. -1.
       -3    1    3    3    0  502 -0.25531050551E+03 -0.48379154612E+02  0.18875639049E+01  0.25986067406E+03  0.10100000352E+00 0.  1.
</event>
<event>
 5   0  0.1243087E-03  0.6991913E+03  0.7818609E-02  0.9718616E-01
       -2   -1    0    0    0  501  0.00000000000E+00  0.00000000000E+00  0.41279191266E+03  0.41279191267E+03  0.25500000920E-02 0.  1.
        2   -1    0    0  501    0  0.00000000000E+00  0.00000000000E+00 -0.29607436885E+03  0.29607436886E+03  0.25500000920E-02 0. -1.
    10030    2    1    2    0    0  0.00000000000E+00  0.00000000000E+00  0.11671754381E+03  0.70886628153E+03  0.69919126142E+03 0.  0.
        4    1    3    3  502    0 -0.47529868610E+02  0.47712245472E+02  0.40615074630E+03  0.41169841923E+03  0.12699999809E+01 0.  1.
       -4    1    3    3    0  502  0.47529868610E+02 -0.47712245472E+02 -0.28943320249E+03  0.29716786230E+03  0.12699999809E+01 0. -1.
</event>
<event>
 5   0  0.4936000E-04  0.6990748E+03  0.7818609E-02  0.9718816E-01
        3   -1    0    0  501    0  0.00000000000E+00  0.00000000000E+00  0.95223958174E+02  0.95224011737E+02  0.10100000352E+00 0.  1.
       -3   -1    0    0    0  501  0.00000000000E+00  0.00000000000E+00 -0.12830419920E+04  0.12830419960E+04  0.10100000352E+00 0. -1.
    10030    2    1    2    0    0  0.00000000000E+00  0.00000000000E+00 -0.11878180338E+04  0.13782660077E+04  0.69907475032E+03 0.  0.
        3    1    3    3  502    0 -0.29771250321E+03  0.18154072663E+03 -0.64165965054E+03  0.73028548344E+03  0.10100000352E+00 0. -1.
       -3    1    3    3    0  502  0.29771250321E+03 -0.18154072663E+03 -0.54615838328E+03  0.64798052426E+03  0.10100000352E+00 0.  1.
</event>
<event>
 5   0  0.7570633E-04  0.7004982E+03  0.7818609E-02  0.9716381E-01
       -1   -1    0    0    0  501  0.00000000000E+00  0.00000000000E+00  0.69059196436E+02  0.69059196620E+02  0.50400001928E-02 0.  1.
        1   -1    0    0  501    0  0.00000000000E+00  0.00000000000E+00 -0.17763663868E+04  0.17763663868E+04  0.50400001928E-02 0. -1.
    10030    2    1    2    0    0  0.00000000000E+00  0.00000000000E+00 -0.17073071904E+04  0.18454255835E+04  0.70049820964E+03 0.  0.
        5    1    3    3  502    0 -0.10998767386E+03 -0.13744204040E+03 -0.16512637396E+04  0.16606268788E+04  0.46999998093E+01 0. -1.
       -5    1    3    3    0  502  0.10998767386E+03  0.13744204040E+03 -0.56043450796E+02  0.18479870466E+03  0.46999998093E+01 0.  1.
</event>
<event>
 5   0  0.7013526E-04  0.7012026E+03  0.7818609E-02  0.9715178E-01
       -1   -1    0    0    0  501  0.00000000000E+00  0.00000000000E+00  0.20248256391E+03  0.20248256398E+03  0.50400001928E-02 0.  1.
        1   -1    0    0  501    0  0.00000000000E+00  0.00000000000E+00 -0.60707087676E+03  0.60707087678E+03  0.50400001928E-02 0. -1.
    10030    2    1    2    0    0  0.00000000000E+00  0.00000000000E+00 -0.40458831284E+03  0.80955344075E+03  0.70120258880E+03 0.  0.
        1    1    3    3  502    0  0.26395511118E+03 -0.14623549709E+03 -0.40838237050E+03  0.50777286446E+03  0.50400001928E-02 0. -1.
       -1    1    3    3    0  502 -0.26395511118E+03  0.14623549709E+03  0.37940576552E+01  0.30178057629E+03  0.50400001928E-02 0.  1.
</event>
<event>
 5   0  0.7459843E-04  0.6998952E+03  0.7818609E-02  0.9717411E-01
        1   -1    0    0  501    0  0.00000000000E+00  0.00000000000E+00  0.51773821890E+03  0.51773821892E+03  0.50400001928E-02 0.  1.
       -1   -1    0    0    0  501  0.00000000000E+00  0.00000000000E+00 -0.23653525173E+03  0.23653525179E+03  0.50400001928E-02 0. -1.
    10030    2    1    2    0    0  0.00000000000E+00  0.00000000000E+00  0.28120296716E+03  0.75427347071E+03  0.69989524922E+03 0.  0.
        2    1    3    3  502    0 -0.17137362986E+03 -0.12306385241E+03 -0.16028524431E+03  0.26496224699E+03  0.25500000920E-02 0. -1.
       -2    1    3    3    0  502  0.17137362986E+03  0.12306385241E+03  0.44148821147E+03  0.48931122372E+03  0.25500000920E-02 0.  1.
</event>
<event>
 5   0  0.1282546E-03  0.7002093E+03  0.7818609E-02  0.9716874E-01
       -2   -1    0    0    0  501  0.00000000000E+00  0.00000000000E+00  0.85191989289E+03  0.85191989289E+03  0.25500000920E-02 0. -1.
        2   -1    0    0  501    0  0.00000000000E+00  0.00000000000E+00 -0.14387885826E+03  0.14387885828E+03  0.25500000920E-02 0.  1.
    10030    2    1    2    0    0  0.00000000000E+00  0.00000000000E+00  0.70804103463E+03  0.99579875117E+03  0.70020928737E+03 0.  0.
        5    1    3    3  502    0  0.71629376425E+02 -0.34254620217E+03  0.36693804762E+03  0.50708410444E+03  0.46999998093E+01 0. -1.
       -5    1    3    3    0  502 -0.71629376425E+02  0.34254620217E+03  0.34110298701E+03  0.48871464673E+03  0.46999998093E+01 0.  1.
</event>
<event>
 5   0  0.7574241E-04  0.6999186E+03  0.7818609E-02  0.9717371E-01
       -1   -1    0    0    0  501  0.00000000000E+00  0.00000000000E+00  0.40199386072E+03  0.40199386075E+03  0.50400001928E-02 0. -1.
        1   -1    0    0  501    0  0.00000000000E+00  0.00000000000E+00 -0.30466016582E+03  0.30466016586E+03  0.50400001928E-02 0.  1.
    10030    2    1    2    0    0  0.00000000000E+00  0.00000000000E+00  0.97333694895E+02  0.70665402661E+03  0.69991861324E+03 0.  0.
        3    1    3    3  502    0 -0.25514165772E+03 -0.27998864436E+02 -0.19150954047E+03  0.32024539998E+03  0.10100000352E+00 0.  1.
       -3    1    3    3    0  502  0.25514165772E+03  0.27998864436E+02  0.28884323537E+03  0.38640862663E+03  0.10100000352E+00 0. -1.
</event>
<event>
 5   0  0.7459843E-04  0.6999446E+03  0.7818609E-02  0.9717327E-01
       -1   -1    0    0    0  501  0.00000000000E+00  0.00000000000E+00  0.62822749285E+03  0.62822749287E+03  0.50400001928E-02 0. -1.
        1   -1    0    0  501    0  0.00000000000E+00  0.00000000000E+00 -0.19496217840E+03  0.19496217846E+03  0.50400001928E-02 0.  1.
    10030    2    1    2    0    0  0.00000000000E+00  0.00000000000E+00  0.43326531445E+03  0.82318967133E+03  0.69994457086E+03 0.  0.
        2    1    3    3  502    0  0.13420699770E+03 -0.16306211223E+03  0.54484035327E+03  0.58433875555E+03  0.25500000920E-02 0. -1.
       -2    1    3    3    0  502 -0.13420699770E+03  0.16306211223E+03 -0.11157503883E+03  0.23885091578E+03  0.25500000920E-02 0.  1.
</event>
<event>
 5   0  0.1224048E-03  0.7000697E+03  0.7818609E-02  0.9717113E-01
        2   -1    0    0  501    0  0.00000000000E+00  0.00000000000E+00  0.68556180271E+03  0.68556180271E+03  0.25500000920E-02 0.  1.
       -2   -1    0    0    0  501  0.00000000000E+00  0.00000000000E+00 -0.17872113836E+03  0.17872113838E+03  0.25500000920E-02 0. -1.
    10030    2    1    2    0    0  0.00000000000E+00  0.00000000000E+00  0.50684066435E+03  0.86428294109E+03  0.70006967026E+03 0.  0.
        3    1    3    3  502    0  0.11621813671E+03 -0.20192436695E+03 -0.69093076763E+02  0.24301022350E+03  0.10100000352E+00 0. -1.
       -3    1    3    3    0  502 -0.11621813671E+03  0.20192436695E+03  0.57593374111E+03  0.62127271759E+03  0.10100000352E+00 0.  1.
</event>
<event>
 5   0  0.7574241E-04  0.6999014E+03  0.7818609E-02  0.9717401E-01
        1   -1    0    0  501    0  0.00000000000E+00  0.00000000000E+00  0.94059931442E+03  0.94059931444E+03  0.50400001928E-02 0. -1.
       -1   -1    0    0    0  501  0.00000000000E+00  0.00000000000E+00 -0.13019942593E+03  0.13019942602E+03  0.50400001928E-02 0.  1.
    10030    2    1    2    0    0  0.00000000000E+00  0.00000000000E+00  0.81039988850E+03  0.10707987405E+04  0.69990139541E+03 0.  0.
        3    1    3    3  502    0 -0.15055376655E+03 -0.31031808031E+03  0.49573411100E+03  0.60391726801E+03  0.10100000352E+00 0. -1.
       -3    1    3    3    0  502  0.15055376655E+03  0.31031808031E+03  0.31466577749E+03  0.46688147245E+03  0.10100000352E+00 0.  1.
</event>
<event>
 5   0  0.7574241E-04  0.7005662E+03  0.7818609E-02  0.9716264E-01
       -1   -1    0    0    0  501  0.00000000000E+00  0.00000000000E+00  0.11416205821E+03  0.11416205832E+03  0.50400001928E-02 0. -1.
        1   -1    0    0  501    0  0.00000000000E+00  0.00000000000E+00 -0.10747724552E+04  0.10747724552E+04  0.50400001928E-02 0.  1.
    10030    2    1    2    0    0  0.00000000000E+00  0.00000000000E+00 -0.96061039697E+03  0.11889345135E+04  0.70056615865E+03 0.  0.
        3    1    3    3  502    0 -0.33454330686E+02 -0.34852254733E+03 -0.49819072485E+03  0.60891802960E+03  0.10100000352E+00 0.  1.
       -3    1    3    3    0  502  0.33454330686E+02  0.34852254733E+03 -0.46241967212E+03  0.58001648391E+03  0.10100000352E+00 0. -1.
</event>
<event>
 5   0  0.7013526E-04  0.7001663E+03  0.7818609E-02  0.9716948E-01
        1   -1    0    0  501    0  0.00000000000E+00  0.00000000000E+00  0.98699373045E+03  0.98699373046E+03  0.50400001928E-02 0. -1.
       -1   -1    0    0    0  501  0.00000000000E+00  0.00000000000E+00 -0.12417323156E+03  0.12417323166E+03  0.50400001928E-02 0.  1.
    10030    2    1    2    0    0  0.00000000000E+00  0.00000000000E+00  0.86282049889E+03  0.11111669621E+04  0.70016626911E+03 0.  0.
        1    1    3    3  502    0 -0.11657352266E+03 -0.23431705398E+03  0.62404136463E+02  0.26905044926E+03  0.50400001928E-02 0.  1.
       -1    1    3    3    0  502  0.11657352266E+03  0.23431705398E+03  0.80041636243E+03  0.84211651286E+03  0.50400001928E-02 0. -1.
</event>
<event>
 5   0  0.4936000E-04  0.7001218E+03  0.7818609E-02  0.9717024E-01
       -4   -1    0    0    0  501  0.00000000000E+00  0.00000000000E+00  0.21378636778E+03  0.21379013997E+03  0.12699999809E+01 0. -1.
        4   -1    0    0  501    0  0.00000000000E+00  0.00000000000E+00 -0.57319173151E+03  0.57319313846E+03  0.12699999809E+01 0.  1.
    10030    2    1    2    0    0  0.00000000000E+00  0.00000000000E+00 -0.35940536373E+03  0.78698327843E+03  0.70012175016E+03 0.  0.
        4    1    3    3  502    0 -0.29304947400E+03  0.17949262814E+03 -0.25464853898E+03  0.42771846941E+03  0.12699999809E+01 0.  1.
       -4    1    3    3    0  502  0.29304947400E+03 -0.17949262814E+03 -0.10475682475E+03  0.35926480902E+03  0.12699999809E+01 0. -1.
</event>
<event>
 5   0  0.7572415E-04  0.6999383E+03  0.7818609E-02  0.9717338E-01
        1   -1    0    0  501    0  0.00000000000E+00  0.00000000000E+00  0.29608682198E+03  0.29608682203E+03  0.50400001928E-02 0. -1.
       -1   -1    0    0    0  501  0.00000000000E+00  0.00000000000E+00 -0.41365711230E+03  0.41365711233E+03  0.50400001928E-02 0.  1.
    10030    2    1    2    0    0  0.00000000000E+00  0.00000000000E+00 -0.11757029032E+03  0.70974393436E+03  0.69993833957E+03 0.  0.
        4    1    3    3  502    0 -0.19802888189E+03 -0.15823536022E+02  0.23336741008E+03  0.30647639932E+03  0.12699999809E+01 0. -1.
       -4    1    3    3    0  502  0.19802888189E+03  0.15823536022E+02 -0.35093770039E+03  0.40326753504E+03  0.12699999809E+01 0.  1.
</event>
<event>
 5   0  0.7459843E-04  0.7011976E+03  0.7818609E-02  0.9715186E-01
       -1   -1    0    0    0  501  0.00000000000E+00  0.00000000000E+00  0.29210274903E+03  0.29210274907E+03  0.50400001928E-02 0.  1.
        1   -1    0    0  501    0  0.00000000000E+00  0.00000000000E+00 -0.42080914070E+03  0.42080914073E+03  0.50400001928E-02 0. -1.
    10030    2    1    2    0    0  0.00000000000E+00  0.00000000000E+00 -0.12870639167E+03  0.71291188981E+03  0.70119756658E+03 0.  0.
        2    1    3    3  502    0 -0.13415132906E+03  0.10181062015E+03 -0.37699245042E+03  0.41289864270E+03  0.25500000920E-02 0. -1.
       -2    1    3    3    0  502  0.13415132906E+03 -0.10181062015E+03  0.24828605875E+03  0.30001324711E+03  0.25500000920E-02 0.  1.
</event>
<event>
 5   0  0.1224048E-03  0.6996796E+03  0.7818609E-02  0.9717780E-01
       -2   -1    0    0    0  501  0.00000000000E+00  0.00000000000E+00  0.11919361591E+03  0.11919361594E+03  0.25500000920E-02 0. -1.
        2   -1    0    0  501    0  0.00000000000E+00  0.00000000000E+00 -0.10267989984E+04  0.10267989984E+04  0.25500000920E-02 0.  1.
    10030    2    1    2    0    0  0.00000000000E+00  0.00000000000E+00 -0.90760538244E+03  0.11459926143E+04  0.69967959937E+03 0.  0.
        3    1    3    3  502    0  0.16131303271E+03  0.25041927149E+03 -0.15332312166E+03  0.33502193345E+03  0.10100000352E+00 0. -1.
       -3    1    3    3    0  502 -0.16131303271E+03 -0.25041927149E+03 -0.75428226078E+03  0.81097068084E+03  0.10100000352E+00 0.  1.
</event>
<event>
 5   0  0.1243087E-03  0.7003474E+03  0.7818609E-02  0.9716638E-01
        2   -1    0    0  501    0  0.00000000000E+00  0.00000000000E+00  0.53955173271E+03  0.53955173271E+03  0.25500000920E-02 0.  1.
       -2   -1    0    0    0  501  0.00000000000E+00  0.00000000000E+00 -0.22726576430E+03  0.22726576432E+03  0.25500000920E-02 0. -1.
    10030    2    1    2    0    0  0.00000000000E+00  0.00000000000E+00  0.31228596840E+03  0.76681749703E+03  0.70034744784E+03 0.  0.
        4    1    3    3  502    0  0.71380184333E+02  0.32566977536E+03  0.27337555013E+03  0.43115164108E+03  0.12699999809E+01 0.  1.
       -4    1    3    3    0  502 -0.71380184333E+02 -0.32566977536E+03  0.38910418270E+02  0.33566585595E+03  0.12699999809E+01 0. -1.
</event>
<event>
 5   0  0.1243087E-03  0.7000367E+03  0.7818609E-02  0.9717169E-01
       -2   -1    0    0    0  501  0.00000000000E+00  0.00000000000E+00  0.22794314700E+03  0.22794314701E+03  0.25500000920E-02 0.  1.
        2   -1    0    0  501    0  0.00000000000E+00  0.00000000000E+00 -0.53747106658E+03  0.53747106659E+03  0.25500000920E-02 0. -1.
    10030    2    1    2    0    0  0.00000000000E+00  0.00000000000E+00 -0.30952791959E+03  0.76541421360E+03  0.70003670288E+03 0.  0.
        4    1    3    3  502    0  0.31581710272E+03  0.69407948476E+02 -0.82603951185E+01  0.32346213489E+03  0.12699999809E+01 0.  1.
       -4    1    3    3    0  502 -0.31581710272E+03 -0.69407948476E+02 -0.30126752447E+03  0.44195207871E+03  0.12699999809E+01 0. -1.
</event>
<event>
 5   0  0.7570633E-04  0.7002032E+03  0.7818609E-02  0.9716885E-01
        1   -1    0    0  501    0  0.00000000000E+00  0.00000000000E+00  0.23119354003E+03  0.23119354008E+03  0.50400001928E-02 0. -1.
       -1   -1    0    0    0  501  0.00000000000E+00  0.00000000000E+00 -0.53016682702E+03  0.53016682705E+03  0.50400001928E-02 0.  1.
    10030    2    1    2    0    0  0.00000000000E+00  0.00000000000E+00 -0.29897328699E+03  0.76136036713E+03  0.70020324357E+03 0.  0.
        5    1    3    3  502    0  0.18012191558E+03 -0.43543233804E+02  0.17345417099E+03  0.25386680979E+03  0.46999998093E+01 0. -1.
       -5    1    3    3    0  502 -0.18012191558E+03  0.43543233804E+02 -0.47242745799E+03  0.50749355734E+03  0.46999998093E+01 0.  1.
</event>
<event>
 5   0  0.7574241E-04  0.6994378E+03  0.7818609E-02  0.9718194E-01
        1   -1    0    0  501    0  0.00000000000E+00  0.00000000000E+00  0.52922479043E+03  0.52922479045E+03  0.50400001928E-02 0. -1.
       -1   -1    0    0    0  501  0.00000000000E+00  0.00000000000E+00 -0.23109897256E+03  0.23109897261E+03  0.50400001928E-02 0.  1.
    10030    2    1    2    0    0  0.00000000000E+00  0.00000000000E+00  0.29812581787E+03  0.76032376307E+03  0.69943778951E+03 0.  0.
        3    1    3    3  502    0  0.29522834749E+03 -0.15101982472E+03  0.26980146843E+03  0.42750392652E+03  0.10100000352E+00 0. -1.
       -3    1    3    3    0  502 -0.29522834749E+03  0.15101982472E+03  0.28324349441E+02  0.33281983654E+03  0.10100000352E+00 0.  1.
</event>
<event>
 5   0  0.1243087E-03  0.7008241E+03  0.7818609E-02  0.9715824E-01
        2   -1    0    0  501    0  0.00000000000E+00  0.00000000000E+00  0.57132358303E+03  0.57132358304E+03  0.25500000920E-02 0.  1.
       -2   -1    0    0    0  501  0.00000000000E+00  0.00000000000E+00 -0.21491954791E+03  0.21491954793E+03  0.25500000920E-02 0. -1.
    10030    2    1    2    0    0  0.00000000000E+00  0.00000000000E+00  0.35640403512E+03  0.78624313097E+03  0.70082410400E+03 0.  0.
        4    1    3    3  502    0  0.23779710016E+03 -0.22168195680E+03  0.32489294305E+03  0.45961656646E+03  0.12699999809E+01 0. -1.
       -4    1    3    3    0  502 -0.23779710016E+03  0.22168195680E+03  0.31511092064E+02  0.32662656451E+03  0.12699999809E+01 0.  1.
</event>
<event>
 5   0  0.4936000E-04  0.6960553E+03  0.7818609E-02  0.9724002E-01
        3   -1    0    0  501    0  0.00000000000E+00  0.00000000000E+00  0.20136645112E+03  0.20136647645E+03  0.10100000352E+00 0.  1.
       -3   -1    0    0    0  501  0.00000000000E+00  0.00000000000E+00 -0.60150649899E+03  0.60150650747E+03  0.10100000352E+00 0. -1.
    10030    2    1    2    0    0  0.00000000000E+00  0.00000000000E+00 -0.40014004787E+03  0.80287298392E+03  0.69605529263E+03 0.  0.
        3    1    3    3  502    0 -0.30328289232E+03  0.24933395006E+02 -0.39486862094E+03  0.49852123823E+03  0.10100000352E+00 0.  1.
       -3    1    3    3    0  502  0.30328289232E+03 -0.24933395006E+02 -0.52714269319E+01  0.30435174569E+03  0.10100000352E+00 0. -1.
</event>
<event>
 5   0  0.1282546E-03  0.7002726E+03  0.7818609E-02  0.9716766E-01
        2   -1    0    0  501    0  0.00000000000E+00  0.00000000000E+00  0.12651837397E+04  0.12651837397E+04  0.25500000920E-02 0.  1.
       -2   -1    0    0    0  501  0.00000000000E+00  0.00000000000E+00 -0.96899294321E+02  0.96899294355E+02  0.25500000920E-02 0. -1.
    10030    2    1    2    0    0  0.00000000000E+00  0.00000000000E+00  0.11682844454E+04  0.13620830341E+04  0.70027255149E+03 0.  0.
        5    1    3    3  502    0 -0.17933630774E+03 -0.25400792821E+03  0.89712285007E+03  0.94949093570E+03  0.46999998093E+01 0.  1.
       -5    1    3    3    0  502  0.17933630774E+03  0.25400792821E+03  0.27116159535E+03  0.41259209839E+03  0.46999998093E+01 0. -1.
</event>
<event>
 5   0  0.7570633E-04  0.6999510E+03  0.7818609E-02  0.9717316E-01
       -1   -1    0    0    0  501  0.00000000000E+00  0.00000000000E+00  0.57200571612E+03  0.57200571614E+03  0.50400001928E-02 0. -1.
        1   -1    0    0  501    0  0.00000000000E+00  0.00000000000E+00 -0.21412874508E+03  0.21412874513E+03  0.50400001928E-02 0.  1.
    10030    2    1    2    0    0  0.00000000000E+00  0.00000000000E+00  0.35787697105E+03  0.78613446128E+03  0.69995104458E+03 0.  0.
        5    1    3    3  502    0  0.24553414167E+03  0.98250636623E+02  0.43632980725E+03  0.51024111263E+03  0.46999998093E+01 0. -1.
       -5    1    3    3    0  502 -0.24553414167E+03 -0.98250636623E+02 -0.78452836199E+02  0.27589334865E+03  0.46999998093E+01 0.  1.
</event>
<event>
 5   0  0.7574241E-04  0.7004499E+03  0.7818609E-02  0.9716463E-01
        1   -1    0    0  501    0  0.00000000000E+00  0.00000000000E+00  0.77207771173E+03  0.77207771175E+03  0.50400001928E-02 0. -1.
       -1   -1    0    0    0  501  0.00000000000E+00  0.00000000000E+00 -0.15886679325E+03  0.15886679333E+03  0.50400001928E-02 0.  1.
    10030    2    1    2    0    0  0.00000000000E+00  0.00000000000E+00  0.61321091848E+03  0.93094450508E+03  0.70044988472E+03 0.  0.
        3    1    3    3  502    0  0.24806250707E+03 -0.22064600335E+03  0.45482965413E+03  0.56310717513E+03  0.10100000352E+00 0.  1.
       -3    1    3    3    0  502 -0.24806250707E+03  0.22064600335E+03  0.15838126434E+03  0.36783732995E+03  0.10100000352E+00 0. -1.
</event>
<event>
 5   0  0.1222679E-03  0.6994617E+03  0.7818609E-02  0.9718153E-01
       -2   -1    0    0    0  501  0.00000000000E+00  0.00000000000E+00  0.12767868886E+03  0.12767868888E+03  0.25500000920E-02 0. -1.
        2   -1    0    0  501    0  0.00000000000E+00  0.00000000000E+00 -0.95796456867E+03  0.95796456867E+03  0.25500000920E-02 0.  1.
    10030    2    1    2    0    0  0.00000000000E+00  0.00000000000E+00 -0.83028587981E+03  0.10856432576E+04  0.69946167904E+03 0.  0.
        2    1    3    3  502    0 -0.50025956868E+02  0.50377659076E+02 -0.94666196609E+03  0.94932048484E+03  0.25500000920E-02 0.  1.
       -2    1    3    3    0  502  0.50025956868E+02 -0.50377659076E+02  0.11637608628E+03  0.13632277271E+03  0.25500000920E-02 0. -1.
</event>
<event>
 5   0  0.1282546E-03  0.6997577E+03  0.7818609E-02  0.9717647E-01
       -2   -1    0    0    0  501  0.00000000000E+00  0.00000000000E+00  0.50261782551E+03  0.50261782551E+03  0.25500000920E-02 0. -1.
        2   -1    0    0  501    0  0.00000000000E+00  0.00000000000E+00 -0.24355525506E+03  0.24355525507E+03  0.25500000920E-02 0.  1.
    10030    2    1    2    0    0  0.00000000000E+00  0.00000000000E+00  0.25906257045E+03  0.74617308058E+03  0.69975770862E+03 0.  0.
        5    1    3    3  502    0 -0.29026547160E+03 -0.10845852357E+03 -0.43647596694E+02  0.31296085703E+03  0.46999998093E+01 0.  1.
       -5    1    3    3    0  502  0.29026547160E+03  0.10845852357E+03  0.30271016714E+03  0.43321222355E+03  0.46999998093E+01 0. -1.
</event>
<event>
 5   0  0.1265562E-03  0.7000581E+03  0.7818609E-02  0.9717133E-01
        2   -1    0    0  501    0  0.00000000000E+00  0.00000000000E+00  0.42545258029E+03  0.42545258030E+03  0.25500000920E-02 0. -1.
       -2   -1    0    0    0  501  0.00000000000E+00  0.00000000000E+00 -0.28797650217E+03  0.28797650218E+03  0.25500000920E-02 0.  1.
    10030    2    1    2    0    0  0.00000000000E+00  0.00000000000E+00  0.13747607812E+03  0.71342908248E+03  0.70005812878E+03 0.  0.
        1    1    3    3  502    0  0.25943524823E+03  0.23437512986E+03  0.85851524492E+02  0.36001226896E+03  0.50400001928E-02 0. -1.
       -1    1    3    3    0  502 -0.25943524823E+03 -0.23437512986E+03  0.51624553625E+02  0.35341681352E+03  0.50400001928E-02 0.  1.
</event>
<event>
 5   0  0.1243087E-03  0.7000548E+03  0.7818609E-02  0.9717139E-01
       -2   -1    0    0    0  501  0.00000000000E+00  0.00000000000E+00  0.10609310058E+03  0.10609310061E+03  0.25500000920E-02 0.  1.
        2   -1    0    0  501    0  0.00000000000E+00  0.00000000000E+00 -0.11548269570E+04  0.11548269570E+04  0.25500000920E-02 0. -1.
    10030    2    1    2    0    0  0.00000000000E+00  0.00000000000E+00 -0.10487338564E+04  0.12609200576E+04  0.70005477648E+03 0.  0.
        4    1    3    3  502    0  0.50744540348E+02  0.30848615827E+03 -0.24083888016E+03  0.39464376001E+03  0.12699999809E+01 0.  1.
       -4    1    3    3    0  502 -0.50744540348E+02 -0.30848615827E+03 -0.80789497621E+03  0.86627629756E+03  0.12699999809E+01 0. -1.
</event>
<event>
 5   0  0.1282546E-03  0.6991261E+03  0.7818609E-02  0.9718728E-01
        2   -1    0    0  501    0  0.00000000000E+00  0.00000000000E+00  0.28143201464E+03  0.28143201465E+03  0.25500000920E-02 0. -1.
       -2   -1    0    0    0  501  0.00000000000E+00  0.00000000000E+00 -0.43418776744E+03  0.43418776745E+03  0.25500000920E-02 0.  1.
    10030    2    1    2    0    0  0.00000000000E+00  0.00000000000E+00 -0.15275575280E+03  0.71561978210E+03  0.69912613491E+03 0.  0.
        5    1    3    3  502    0 -0.25974471584E+02 -0.12115598675E+02 -0.43295058421E+03  0.43392367909E+03  0.46999998093E+01 0.  1.
       -5    1    3    3    0  502  0.25974471584E+02  0.12115598675E+02  0.28019483141E+03  0.28169610301E+03  0.46999998093E+01 0. -1.
</event>
<event>
 5   0  0.1224048E-03  0.6976389E+03  0.7818609E-02  0.9721279E-01
        2   -1    0    0  501    0  0.00000000000E+00  0.00000000000E+00  0.73613111077E+03  0.73613111078E+03  0.25500000920E-02 0. -1.
       -2   -1    0    0    0  501  0.00000000000E+00  0.00000000000E+00 -0.16528984562E+03  0.16528984564E+03  0.25500000920E-02 0.  1.
    10030    2    1    2    0    0  0.00000000000E+00  0.00000000000E+00  0.57084126516E+03  0.90142095641E+03  0.69763886837E+03 0.  0.
        3    1    3    3  502    0  0.15658016290E+03  0.16667829825E+03  0.62575167380E+03  0.66623131868E+03  0.10100000352E+00 0. -1.
       -3    1    3    3    0  502 -0.15658016290E+03 -0.16667829825E+03 -0.54910408647E+02  0.23518963774E+03  0.10100000352E+00 0.  1.
</event>
<event>
 5   0  0.7459843E-04  0.7002304E+03  0.7818609E-02  0.9716838E-01
        1   -1    0    0  501    0  0.00000000000E+00  0.00000000000E+00  0.10593515286E+04  0.10593515286E+04  0.50400001928E-02 0.  1.
       -1   -1    0    0    0  501  0.00000000000E+00  0.00000000000E+00 -0.11571292280E+03  0.11571292291E+03  0.50400001928E-02 0. -1.
    10030    2    1    2    0    0  0.00000000000E+00  0.00000000000E+00  0.94363860584E+03  0.11750644516E+04  0.70023042414E+03 0.  0.
        2    1    3    3  502    0  0.34016534133E+03  0.81080877766E+02  0.44304111457E+03  0.56442182575E+03  0.25500000920E-02 0.  1.
       -2    1    3    3    0  502 -0.34016534133E+03 -0.81080877766E+02  0.50059749127E+03  0.61064262581E+03  0.25500000920E-02 0. -1.
</event>
<event>
 5   0  0.1282546E-03  0.7000416E+03  0.7818609E-02  0.9717161E-01
       -2   -1    0    0    0  501  0.00000000000E+00  0.00000000000E+00  0.67718013365E+02  0.67718013413E+02  0.25500000920E-02 0. -1.
        2   -1    0    0  501    0  0.00000000000E+00  0.00000000000E+00 -0.18091871699E+04  0.18091871699E+04  0.25500000920E-02 0.  1.
    10030    2    1    2    0    0  0.00000000000E+00  0.00000000000E+00 -0.17414691566E+04  0.18769051833E+04  0.70004160162E+03 0.  0.
        5    1    3    3  502    0  0.15903216024E+03  0.31172184460E+03 -0.88559846356E+03  0.95224391048E+03  0.46999998093E+01 0. -1.
       -5    1    3    3    0  502 -0.15903216024E+03 -0.31172184460E+03 -0.85587069300E+03  0.92466127286E+03  0.46999998093E+01 0.  1.
</event>
<event>
 5   0  0.7570633E-04  0.7023277E+03  0.7818609E-02  0.9713260E-01
       -1   -1    0    0    0  501  0.00000000000E+00  0.00000000000E+00  0.18862716081E+03  0.18862716088E+03  0.50400001928E-02 0.  1.
        1   -1    0    0  501    0  0.00000000000E+00  0.00000000000E+00 -0.65375550006E+03  0.65375550008E+03  0.50400001928E-02 0. -1.
    10030    2    1    2    0    0  0.00000000000E+00  0.00000000000E+00 -0.46512833924E+03  0.84238266096E+03  0.70232768386E+03 0.  0.
        5    1    3    3  502    0 -0.14831497571E+03  0.12956683739E+03 -0.58123952974E+03  0.61371522574E+03  0.46999998093E+01 0. -1.
       -5    1    3    3    0  502  0.14831497571E+03 -0.12956683739E+03  0.11611119050E+03  0.22866743522E+03  0.46999998093E+01 0.  1.
</event>
<event>
 5   0  0.7570633E-04  0.7002428E+03  0.7818609E-02  0.9716817E-01
       -1   -1    0    0    0  501  0.00000000000E+00  0.00000000000E+00  0.20631899511E+03  0.20631899517E+03  0.50400001928E-02 0.  1.
        1   -1    0    0  501    0  0.00000000000E+00  0.00000000000E+00 -0.59415280549E+03  0.59415280552E+03  0.50400001928E-02 0. -1.
    10030    2    1    2    0    0  0.00000000000E+00  0.00000000000E+00 -0.38783381039E+03  0.80047180068E+03  0.70024284303E+03 0.  0.
        5    1    3    3  502    0 -0.13744787361E+03  0.81645146742E+02 -0.54995345118E+03  0.57273792996E+03  0.46999998093E+01 0. -1.
       -5    1    3    3    0  502  0.13744787361E+03 -0.81645146742E+02  0.16211964079E+03  0.22773387073E+03  0.46999998093E+01 0.  1.
</event>
<event>
 5   0  0.7570633E-04  0.7005537E+03  0.7818609E-02  0.9716286E-01
       -1   -1    0    0    0  501  0.00000000000E+00  0.00000000000E+00  0.17985643600E+03  0.17985643607E+03  0.50400001928E-02 0. -1.
        1   -1    0    0  501    0  0.00000000000E+00  0.00000000000E+00 -0.68217677856E+03  0.68217677858E+03  0.50400001928E-02 0.  1.
    10030    2    1    2    0    0  0.00000000000E+00  0.00000000000E+00 -0.50232034257E+03  0.86203321465E+03  0.70055373570E+03 0.  0.
        5    1    3    3  502    0 -0.19737448336E+03 -0.97972225557E+02  0.83836233095E+02  0.23580892188E+03  0.46999998093E+01 0. -1.
       -5    1    3    3    0  502  0.19737448336E+03  0.97972225557E+02 -0.58615657566E+03  0.62622429277E+03  0.46999998093E+01 0.  1.
</event>
<event>
 5   0  0.7572415E-04  0.6996852E+03  0.7818609E-02  0.9717771E-01
        1   -1    0    0  501    0  0.00000000000E+00  0.00000000000E+00  0.19670603388E+04  0.19670603388E+04  0.50400001928E-02 0. -1.
       -1   -1    0    0    0  501  0.00000000000E+00  0.00000000000E+00 -0.62219671934E+02  0.62219672138E+02  0.50400001928E-02 0.  1.
    10030    2    1    2    0    0  0.00000000000E+00  0.00000000000E+00  0.19048406669E+04  0.20292800109E+04  0.69968521255E+03 0.  0.
        4    1    3    3  502    0  0.10084684289E+03  0.33382445097E+03  0.87145190382E+03  0.93863671533E+03  0.12699999809E+01 0. -1.
       -4    1    3    3    0  502 -0.10084684289E+03 -0.33382445097E+03  0.10333887630E+04  0.10906432956E+04  0.12699999809E+01 0.  1.
</event>
<event>
 5   0  0.1224048E-03  0.7001168E+03  0.7818609E-02  0.9717032E-01
       -2   -1    0    0    0  501  0.00000000000E+00  0.00000000000E+00  0.67833461375E+03  0.67833461375E+03  0.25500000920E-02 0.  1.
        2   -1    0    0  501    0  0.00000000000E+00  0.00000000000E+00 -0.18064960415E+03  0.18064960417E+03  0.25500000920E-02 0. -1.
    10030    2    1    2    0    0  0.00000000000E+00  0.00000000000E+00  0.49768500960E+03  0.85898421792E+03  0.70011678873E+03 0.  0.
        3    1    3    3  502    0 -0.29235543579E+03 -0.61822536986E+01  0.12741895091E+02  0.29269828696E+03  0.10100000352E+00 0. -1.
       -3    1    3    3    0  502  0.29235543579E+03  0.61822536986E+01  0.48494311451E+03  0.56628593096E+03  0.10100000352E+00 0.  1.
</event>
<event>
 5   0  0.4936000E-04  0.7000274E+03  0.7818609E-02  0.9717185E-01
        4   -1    0    0  501    0  0.00000000000E+00  0.00000000000E+00  0.28825174142E+03  0.28825453913E+03  0.12699999809E+01 0.  1.
       -4   -1    0    0    0  501  0.00000000000E+00  0.00000000000E+00 -0.42500326734E+03  0.42500516485E+03  0.12699999809E+01 0. -1.
    10030    2    1    2    0    0  0.00000000000E+00  0.00000000000E+00 -0.13675152592E+03  0.71325970398E+03  0.70002744623E+03 0.  0.
        2    1    3    3  502    0 -0.18388463870E+02 -0.25208096699E+03  0.17833050629E+03  0.30932946675E+03  0.25500000920E-02 0.  1.
       -2    1    3    3    0  502  0.18388463870E+02  0.25208096699E+03 -0.31508203221E+03  0.40393023723E+03  0.25500000920E-02 0. -1.
</event>
<event>
 5   0  0.7572415E-04  0.6998661E+03  0.7818609E-02  0.9717461E-01
        1   -1    0    0  501    0  0.00000000000E+00  0.00000000000E+00  0.89051374317E+03  0.89051374319E+03  0.50400001928E-02 0. -1.
       -1   -1    0    0    0  501  0.00000000000E+00  0.00000000000E+00 -0.13750841549E+03  0.13750841558E+03  0.50400001928E-02 0.  1.
    10030    2    1    2    0    0  0.00000000000E+00  0.00000000000E+00  0.75300532768E+03  0.10280221588E+04  0.69986608390E+03 0.  0.
        4    1    3    3  502    0 -0.10617376861E+03 -0.15361402540E+03  0.81120645478E+03  0.83242276706E+03  0.12699999809E+01 0. -1.
       -4    1    3    3    0  502  0.10617376861E+03  0.15361402540E+03 -0.58201127099E+02  0.19559939171E+03  0.12699999809E+01 0.  1.
</event>
<event>
 5   0  0.1222679E-03  0.6994923E+03  0.7818609E-02  0.9718101E-01
        2   -1    0    0  501    0  0.00000000000E+00  0.00000000000E+00  0.50981593182E+03  0.50981593183E+03  0.25500000920E-02 0. -1.
       -2   -1    0    0    0  501  0.00000000000E+00  0.00000000000E+00 -0.23993436605E+03  0.23993436606E+03  0.25500000920E-02 0.  1.
    10030    2    1    2    0    0  0.00000000000E+00  0.00000000000E+00  0.26988156578E+03  0.74975029789E+03  0.69949227990E+03 0.  0.
        2    1    3    3  502    0  0.23813258477E+03 -0.22914663960E+03  0.12229009309E+02  0.33070358184E+03  0.25500000920E-02 0. -1.
       -2    1    3    3    0  502 -0.23813258477E+03  0.22914663960E+03  0.25765255647E+03  0.41904671605E+03  0.25500000920E-02 0.  1.
</event>
<event>
 5   0  0.1222679E-03  0.6999365E+03  0.7818609E-02  0.9717341E-01
        2   -1    0    0  501    0  0.00000000000E+00  0.00000000000E+00  0.38486871183E+03  0.38486871184E+03  0.25500000920E-02 0. -1.
       -2   -1    0    0    0  501  0.00000000000E+00  0.00000000000E+00 -0.31823264605E+03  0.31823264606E+03  0.25500000920E-02 0.  1.
    10030    2    1    2    0    0  0.00000000000E+00  0.00000000000E+00  0.66636065785E+02  0.70310135790E+03  0.69993653585E+03 0.  0.
        2    1    3    3  502    0 -0.29749360885E+03 -0.10390215870E+03 -0.11961912525E+03  0.33705613927E+03  0.25500000920E-02 0.  1.
       -2    1    3    3    0  502  0.29749360885E+03  0.10390215870E+03  0.18625519103E+03  0.36604521863E+03  0.25500000920E-02 0. -1.
</event>
<event>
 5   0  0.7572415E-04  0.6999612E+03  0.7818609E-02  0.9717298E-01
       -1   -1    0    0    0  501  0.00000000000E+00  0.00000000000E+00  0.10799742407E+03  0.10799742419E+03  0.50400001928E-02 0. -1.
        1   -1    0    0  501    0  0.00000000000E+00  0.00000000000E+00 -0.11341606662E+04  0.11341606662E+04  0.50400001928E-02 0.  1.
    10030    2    1    2    0    0  0.00000000000E+00  0.00000000000E+00 -0.10261632421E+04  0.12421580904E+04  0.69996122896E+03 0.  0.
        4    1    3    3  502    0 -0.14531628361E+03  0.68337147619E+02 -0.10649197438E+04  0.10769598236E+04  0.12699999809E+01 0.  1.
       -4    1    3    3    0  502  0.14531628361E+03 -0.68337147619E+02  0.38756501672E+02  0.16519826679E+03  0.12699999809E+01 0. -1.
</event>
<event>
 5   0  0.1282546E-03  0.7000785E+03  0.7818609E-02  0.9717098E-01
        2   -1    0    0  501    0  0.00000000000E+00  0.00000000000E+00  0.66427051448E+03  0.66427051449E+03  0.25500000920E-02 0. -1.
       -2   -1    0    0    0  501  0.00000000000E+00  0.00000000000E+00 -0.18445419657E+03  0.18445419659E+03  0.25500000920E-02 0.  1.
    10030    2    1    2    0    0  0.00000000000E+00  0.00000000000E+00  0.47981631791E+03  0.84872471107E+03  0.70007852149E+03 0.  0.
        5    1    3    3  502    0 -0.18135203088E+03  0.21055085649E+03  0.49789532580E+03  0.57021230058E+03  0.46999998093E+01 0. -1.
       -5    1    3    3    0  502  0.18135203088E+03 -0.21055085649E+03 -0.18079007890E+02  0.27851241049E+03  0.46999998093E+01 0.  1.
</event>
<event>
 5   0  0.4936000E-04  0.7021665E+03  0.7818609E-02  0.9713534E-01
        3   -1    0    0  501    0  0.00000000000E+00  0.00000000000E+00  0.87148760186E+02  0.87148818712E+02  0.10100000352E+00 0.  1.
       -3   -1    0    0    0  501  0.00000000000E+00  0.00000000000E+00 -0.14143563802E+04  0.14143563838E+04  0.10100000352E+00 0. -1.
    10030    2    1    2    0    0  0.00000000000E+00  0.00000000000E+00 -0.13272076200E+04  0.15015052025E+04  0.70216650914E+03 0.  0.
        5    1    3    3  502    0  0.26094825627E+03 -0.12643778369E+03 -0.10867501972E+04  0.11247793502E+04  0.46999998093E+01 0. -1.
       -5    1    3    3    0  502 -0.26094825627E+03  0.12643778369E+03 -0.24045742283E+03  0.37672585230E+03  0.46999998093E+01 0.  1.
</event>
<event>
 5   0  0.7574241E-04  0.6995704E+03  0.7818609E-02  0.9717967E-01
        1   -1    0    0  501    0  0.00000000000E+00  0.00000000000E+00  0.12440801589E+04  0.12440801589E+04  0.50400001928E-02 0. -1.
       -1   -1    0    0    0  501  0.00000000000E+00  0.00000000000E+00 -0.98345487823E+02  0.98345487952E+02  0.50400001928E-02 0.  1.
    10030    2    1    2    0    0  0.00000000000E+00  0.00000000000E+00  0.11457346711E+04  0.13424256469E+04  0.69957035447E+03 0.  0.
        3    1    3    3  502    0  0.14567216392E+03  0.24785152173E+03  0.95520589648E+03  0.99753148874E+03  0.10100000352E+00 0. -1.
       -3    1    3    3    0  502 -0.14567216392E+03 -0.24785152173E+03  0.19052877463E+03  0.34489415815E+03  0.10100000352E+00 0.  1.
</event>
<event>
 5   0  0.1243087E-03  0.7000752E+03  0.7818609E-02  0.9717104E-01
       -2   -1    0    0    0  501  0.00000000000E+00  0.00000000000E+00  0.10653690505E+03  0.10653690508E+03  0.25500000920E-02 0.  1.
        2   -1    0    0  501    0  0.00000000000E+00  0.00000000000E+00 -0.11500832046E+04  0.11500832046E+04  0.25500000920E-02 0. -1.
    10030    2    1    2    0    0  0.00000000000E+00  0.00000000000E+00 -0.10435462995E+04  0.12566201096E+04  0.70007515364E+03 0.  0.
        4    1    3    3  502    0  0.10821536855E+03 -0.31834423696E+03 -0.34708681397E+03  0.48324371546E+03  0.12699999809E+01 0.  1.
       -4    1    3    3    0  502 -0.10821536855E+03  0.31834423696E+03 -0.69645948553E+03  0.77337639419E+03  0.12699999809E+01 0. -1.
</event>
<event>
 5   0  0.4936000E-04  0.7000129E+03  0.7818609E-02  0.9717210E-01
       -3   -1    0    0    0  501  0.00000000000E+00  0.00000000000E+00  0.82488441491E+02  0.82488503324E+02  0.10100000352E+00 0.  1.
        3   -1    0    0  501    0  0.00000000000E+00  0.00000000000E+00 -0.14851104968E+04  0.14851105002E+04  0.10100000352E+00 0. -1.
    10030    2    1    2    0    0  0.00000000000E+00  0.00000000000E+00 -0.14026220553E+04  0.15675990036E+04  0.70001286125E+03 0.  0.
        2    1    3    3  502    0  0.27097951138E+03  0.61072620522E+01 -0.11972089245E+04  0.12275082090E+04  0.25500000920E-02 0. -1.
       -2    1    3    3    0  502 -0.27097951138E+03 -0.61072620522E+01 -0.20541313084E+03  0.34009079459E+03  0.25500000920E-02 0.  1.
</event>
<event>
 5   0  0.4936000E-04  0.7015014E+03  0.7818609E-02  0.9714668E-01
        4   -1    0    0  501    0  0.00000000000E+00  0.00000000000E+00  0.45973408662E+03  0.45973584079E+03  0.12699999809E+01 0. -1.
       -4   -1    0    0    0  501  0.00000000000E+00  0.00000000000E+00 -0.26759885982E+03  0.26760187345E+03  0.12699999809E+01 0.  1.
    10030    2    1    2    0    0  0.00000000000E+00  0.00000000000E+00  0.19213522681E+03  0.72733771424E+03  0.70150139356E+03 0.  0.
        2    1    3    3  502    0  0.28748087465E+03 -0.18368488608E+03  0.18055915073E+03  0.38598833866E+03  0.25500000920E-02 0. -1.
       -2    1    3    3    0  502 -0.28748087465E+03  0.18368488608E+03  0.11576076079E+02  0.34134937558E+03  0.25500000920E-02 0.  1.
</event>
<event>
 5   0  0.7013526E-04  0.7002541E+03  0.7818609E-02  0.9716798E-01
       -1   -1    0    0    0  501  0.00000000000E+00  0.00000000000E+00  0.15025593814E+03  0.15025593823E+03  0.50400001928E-02 0. -1.
        1   -1    0    0  501    0  0.00000000000E+00  0.00000000000E+00 -0.81586761668E+03  0.81586761669E+03  0.50400001928E-02 0.  1.
    10030    2    1    2    0    0  0.00000000000E+00  0.00000000000E+00 -0.66561167854E+03  0.96612355492E+03  0.70025410871E+03 0.  0.
        1    1    3    3  502    0 -0.26534969735E+03  0.26831233675E+02 -0.64577813240E+03  0.69868431591E+03  0.50400001928E-02 0.  1.
       -1    1    3    3    0  502  0.26534969735E+03 -0.26831233675E+02 -0.19833546133E+02  0.26743923901E+03  0.50400001928E-02 0. -1.
</event>
<event>
 5   0  0.7013526E-04  0.7001757E+03  0.7818609E-02  0.9716932E-01
        1   -1    0    0  501    0  0.00000000000E+00  0.00000000000E+00  0.69991183083E+03  0.69991183085E+03  0.50400001928E-02 0. -1.
       -1   -1    0    0    0  501  0.00000000000E+00  0.00000000000E+00 -0.17510993611E+03  0.17510993618E+03  0.50400001928E-02 0.  1.
    10030    2    1    2    0    0  0.00000000000E+00  0.00000000000E+00  0.52480189472E+03  0.87502176703E+03  0.70017573798E+03 0.  0.
        1    1    3    3  502    0 -0.20033475139E+03  0.19906831395E+03  0.38594966615E+01  0.28244840586E+03  0.50400001928E-02 0.  1.
       -1    1    3    3    0  502  0.20033475139E+03 -0.19906831395E+03  0.52094239806E+03  0.59257336116E+03  0.50400001928E-02 0. -1.
</event>
<event>
 5   0  0.7574241E-04  0.7002270E+03  0.7818609E-02  0.9716844E-01
        1   -1    0    0  501    0  0.00000000000E+00  0.00000000000E+00  0.23192920551E+03  0.23192920556E+03  0.50400001928E-02 0.  1.
       -1   -1    0    0    0  501  0.00000000000E+00  0.00000000000E+00 -0.52852101557E+03  0.52852101560E+03  0.50400001928E-02 0. -1.
    10030    2    1    2    0    0  0.00000000000E+00  0.00000000000E+00 -0.29659181007E+03  0.76045022116E+03  0.70022698967E+03 0.  0.
        3    1    3    3  502    0 -0.66309165181E+02 -0.11949709431E+03  0.20176689564E+03  0.24369314991E+03  0.10100000352E+00 0.  1.
       -3    1    3    3    0  502  0.66309165181E+02  0.11949709431E+03 -0.49835870570E+03  0.51675707125E+03  0.10100000352E+00 0. -1.
</event>
<event>
 5   0  0.1243087E-03  0.7011180E+03  0.7818609E-02  0.9715322E-01
       -2   -1    0    0    0  501  0.00000000000E+00  0.00000000000E+00  0.49295344458E+03  0.49295344459E+03  0.25500000920E-02 0.  1.
        2   -1    0    0  501    0  0.00000000000E+00  0.00000000000E+00 -0.24929658568E+03  0.24929658569E+03  0.25500000920E-02 0. -1.
    10030    2    1    2    0    0  0.00000000000E+00  0.00000000000E+00  0.24365685890E+03  0.74225003028E+03  0.70111799475E+03 0.  0.
        4    1    3    3  502    0 -0.60042651322E+02  0.12820300172E+03 -0.21768649394E+03  0.25967316413E+03  0.12699999809E+01 0. -1.
       -4    1    3    3    0  502  0.60042651322E+02 -0.12820300172E+03  0.46134335284E+03  0.48257686615E+03  0.12699999809E+01 0.  1.
</event>
<event>
 5   0  0.1265562E-03  0.6997229E+03  0.7818609E-02  0.9717706E-01
       -2   -1    0    0    0  501  0.00000000000E+00  0.00000000000E+00  0.20038600329E+03  0.20038600331E+03  0.25500000920E-02 0. -1.
        2   -1    0    0  501    0  0.00000000000E+00  0.00000000000E+00 -0.61083616338E+03  0.61083616339E+03  0.25500000920E-02 0.  1.
    10030    2    1    2    0    0  0.00000000000E+00  0.00000000000E+00 -0.41045016009E+03  0.81122216670E+03  0.69972285215E+03 0.  0.
        1    1    3    3  502    0  0.10464827678E+03  0.10405719857E+02  0.18162807251E+03  0.20987686292E+03  0.50400001928E-02 0. -1.
       -1    1    3    3    0  502 -0.10464827678E+03 -0.10405719857E+02 -0.59207823260E+03  0.60134530378E+03  0.50400001928E-02 0.  1.
</event>
<event>
 5   0  0.4936000E-04  0.7001056E+03  0.7818609E-02  0.9717052E-01
        4   -1    0    0  501    0  0.00000000000E+00  0.00000000000E+00  0.13147917046E+03  0.13148530399E+03  0.12699999809E+01 0.  1.
       -4   -1    0    0    0  501  0.00000000000E+00  0.00000000000E+00 -0.93195923237E+03  0.93196009770E+03  0.12699999809E+01 0. -1.
    10030    2    1    2    0    0  0.00000000000E+00  0.00000000000E+00 -0.80048006191E+03  0.10634454017E+04  0.70010555837E+03 0.  0.
        4    1    3    3  502    0  0.27921508310E+03 -0.53857273047E+02 -0.71032629576E+03  0.76513183689E+03  0.12699999809E+01 0. -1.
       -4    1    3    3    0  502 -0.27921508310E+03  0.53857273047E+02 -0.90153766155E+02  0.29831356479E+03  0.12699999809E+01 0.  1.
</event>
<event>
 5   0  0.7459843E-04  0.6996375E+03  0.7818609E-02  0.9717852E-01
        1   -1    0    0  501    0  0.00000000000E+00  0.00000000000E+00  0.12977090071E+04  0.12977090071E+04  0.50400001928E-02 0. -1.
       -1   -1    0    0    0  501  0.00000000000E+00  0.00000000000E+00 -0.94299378241E+02  0.94299378376E+02  0.50400001928E-02 0.  1.
    10030    2    1    2    0    0  0.00000000000E+00  0.00000000000E+00  0.12034096289E+04  0.13920083855E+04  0.69963748501E+03 0.  0.
        2    1    3    3  502    0  0.24425697758E+03 -0.10156245421E+03  0.14627552855E+03  0.30227956177E+03  0.25500000920E-02 0.  1.
       -2    1    3    3    0  502 -0.24425697758E+03  0.10156245421E+03  0.10571341003E+04  0.10897288237E+04  0.25500000920E-02 0. -1.
</event>
<event>
 5   0  0.4936000E-04  0.6999579E+03  0.7818609E-02  0.9717304E-01
        3   -1    0    0  501    0  0.00000000000E+00  0.00000000000E+00  0.18033576691E+03  0.18033579520E+03  0.10100000352E+00 0. -1.
       -3   -1    0    0    0  501  0.00000000000E+00  0.00000000000E+00 -0.67920672434E+03  0.67920673184E+03  0.10100000352E+00 0.  1.
    10030    2    1    2    0    0  0.00000000000E+00  0.00000000000E+00 -0.49887095742E+03  0.85954252704E+03  0.69995794419E+03 0.  0.
        3    1    3    3  502    0 -0.25605027180E+03 -0.22613372912E+03 -0.34285220064E+03  0.48398951107E+03  0.10100000352E+00 0. -1.
       -3    1    3    3    0  502  0.25605027180E+03  0.22613372912E+03 -0.15601875678E+03  0.37555301597E+03  0.10100000352E+00 0.  1.
</event>
<event>
 5   0  0.7570633E-04  0.6998529E+03  0.7818609E-02  0.9717484E-01
       -1   -1    0    0    0  501  0.00000000000E+00  0.00000000000E+00  0.35581633958E+03  0.35581633961E+03  0.50400001928E-02 0.  1.
        1   -1    0    0  501    0  0.00000000000E+00  0.00000000000E+00 -0.34413400896E+03  0.34413400900E+03  0.50400001928E-02 0. -1.
    10030    2    1    2    0    0  0.00000000000E+00  0.00000000000E+00  0.11682330616E+02  0.69995034861E+03  0.69985285144E+03 0.  0.
        5    1    3    3  502    0 -0.24701610132E+03  0.15198056859E+03 -0.18991899665E+03  0.34670789265E+03  0.46999998093E+01 0. -1.
       -5    1    3    3    0  502  0.24701610132E+03 -0.15198056859E+03  0.20160132727E+03  0.35324245596E+03  0.46999998093E+01 0.  1.
</event>
<event>
 5   0  0.1243087E-03  0.7000174E+03  0.7818609E-02  0.9717202E-01
       -2   -1    0    0    0  501  0.00000000000E+00  0.00000000000E+00  0.89904468639E+02  0.89904468676E+02  0.25500000920E-02 0.  1.
        2   -1    0    0  501    0  0.00000000000E+00  0.00000000000E+00 -0.13626250226E+04  0.13626250226E+04  0.25500000920E-02 0. -1.
    10030    2    1    2    0    0  0.00000000000E+00  0.00000000000E+00 -0.12727205539E+04  0.14525294913E+04  0.70001736732E+03 0.  0.
        4    1    3    3  502    0  0.64538633216E+02 -0.16611055663E+03 -0.11286732705E+02  0.17856918950E+03  0.12699999809E+01 0.  1.
       -4    1    3    3    0  502 -0.64538633216E+02  0.16611055663E+03 -0.12614338212E+04  0.12739603018E+04  0.12699999809E+01 0. -1.
</event>
<event>
 5   0  0.7574241E-04  0.6993351E+03  0.7818609E-02  0.9718370E-01
        1   -1    0    0  501    0  0.00000000000E+00  0.00000000000E+00  0.88092718325E+03  0.88092718326E+03  0.50400001928E-02 0. -1.
       -1   -1    0    0    0  501  0.00000000000E+00  0.00000000000E+00 -0.13879399565E+03  0.13879399574E+03  0.50400001928E-02 0.  1.
    10030    2    1    2    0    0  0.00000000000E+00  0.00000000000E+00  0.74213318760E+03  0.10197211790E+04  0.69933512337E+03 0.  0.
        3    1    3    3  502    0 -0.41418618570E+02  0.46750078242E+02  0.87272740332E+03  0.87495954334E+03  0.10100000352E+00 0. -1.
       -3    1    3    3    0  502  0.41418618570E+02 -0.46750078242E+02 -0.13059421572E+03  0.14476163566E+03  0.10100000352E+00 0.  1.
</event>
<event>
 5   0  0.1243087E-03  0.7001046E+03  0.7818609E-02  0.9717053E-01
       -2   -1    0    0    0  501  0.00000000000E+00  0.00000000000E+00  0.87980039470E+02  0.87980039507E+02  0.25500000920E-02 0.  1.
        2   -1    0    0  501    0  0.00000000000E+00  0.00000000000E+00 -0.13927775493E+04  0.13927775493E+04  0.25500000920E-02 0. -1.
    10030    2    1    2    0    0  0.00000000000E+00  0.00000000000E+00 -0.13047975099E+04  0.14807575889E+04  0.70010463159E+03 0.  0.
        4    1    3    3  502    0 -0.12840988295E+03  0.28205731777E+03 -0.30816094365E+03  0.43704714693E+03  0.12699999809E+01 0.  1.
       -4    1    3    3    0  502  0.12840988295E+03 -0.28205731777E+03 -0.99663656622E+03  0.10437104419E+04  0.12699999809E+01 0. -1.
</event>
<event>
 5   0  0.7013526E-04  0.6998730E+03  0.7818609E-02  0.9717449E-01
        1   -1    0    0  501    0  0.00000000000E+00  0.00000000000E+00  0.10140059933E+04  0.10140059933E+04  0.50400001928E-02 0. -1.
       -1   -1    0    0    0  501  0.00000000000E+00  0.00000000000E+00 -0.12076414371E+03  0.12076414382E+03  0.50400001928E-02 0.  1.
    10030    2    1    2    0    0  0.00000000000E+00  0.00000000000E+00  0.89324184958E+03  0.11347701371E+04  0.69987303297E+03 0.  0.
        1    1    3    3  502    0  0.26928095154E+03  0.10979391545E+03  0.76222535732E+03  0.81581519359E+03  0.50400001928E-02 0. -1.
       -1    1    3    3    0  502 -0.26928095154E+03 -0.10979391545E+03  0.13101649226E+03  0.31895494353E+03  0.50400001928E-02 0.  1.
</event>
<event>
 5   0  0.7013526E-04  0.7005290E+03  0.7818609E-02  0.9716328E-01
        1   -1    0    0  501    0  0.00000000000E+00  0.00000000000E+00  0.30687894851E+03  0.30687894855E+03  0.50400001928E-02 0.  1.
       -1   -1    0    0    0  501  0.00000000000E+00  0.00000000000E+00 -0.39978375246E+03  0.39978375249E+03  0.50400001928E-02 0. -1.
    10030    2    1    2    0    0  0.00000000000E+00  0.00000000000E+00 -0.92904803943E+02  0.70666270104E+03  0.70052899329E+03 0.  0.
        1    1    3    3  502    0 -0.75055530198E+02  0.79069234826E+02 -0.38223317092E+03  0.39747638104E+03  0.50400001928E-02 0. -1.
       -1    1    3    3    0  502  0.75055530198E+02 -0.79069234826E+02  0.28932836698E+03  0.30918632000E+03  0.50400001928E-02 0.  1.
</event>
<event>
 5   0  0.1243087E-03  0.6999967E+03  0.7818609E-02  0.9717238E-01
        2   -1    0    0  501    0  0.00000000000E+00  0.00000000000E+00  0.15177964105E+03  0.15177964108E+03  0.25500000920E-02 0.  1.
       -2   -1    0    0    0  501  0.00000000000E+00  0.00000000000E+00 -0.80708339930E+03  0.80708339930E+03  0.25500000920E-02 0. -1.
    10030    2    1    2    0    0  0.00000000000E+00  0.00000000000E+00 -0.65530375824E+03  0.95886304037E+03  0.69999665330E+03 0.  0.
        4    1    3    3  502    0 -0.18158106489E+03  0.28833551873E+03 -0.21816840977E+03  0.40460860398E+03  0.12699999809E+01 0. -1.
       -4    1    3    3    0  502  0.18158106489E+03 -0.28833551873E+03 -0.43713534847E+03  0.55425443640E+03  0.12699999809E+01 0.  1.
</event>
<event>
 5   0  0.1265562E-03  0.6990955E+03  0.7818609E-02  0.9718780E-01
       -2   -1    0    0    0  501  0.00000000000E+00  0.00000000000E+00  0.49376009591E+02  0.49376009657E+02  0.25500000920E-02 0.  1.
        2   -1    0    0  501    0  0.00000000000E+00  0.00000000000E+00 -0.24745545302E+04  0.24745545302E+04  0.25500000920E-02 0. -1.
    10030    2    1    2    0    0  0.00000000000E+00  0.00000000000E+00 -0.24251785206E+04  0.25239305398E+04  0.69909549648E+03 0.  0.
        1    1    3    3  502    0  0.66353996085E+02  0.10077987372E+03 -0.23969823021E+04  0.24000174150E+04  0.50400001928E-02 0. -1.
       -1    1    3    3    0  502 -0.66353996085E+02 -0.10077987372E+03 -0.28196218490E+02  0.12391312483E+03  0.50400001928E-02 0.  1.
</event>
<event>
 5   0  0.1222679E-03  0.7005074E+03  0.7818609E-02  0.9716365E-01
       -2   -1    0    0    0  501  0.00000000000E+00  0.00000000000E+00  0.22343577306E+03  0.22343577307E+03  0.25500000920E-02 0. -1.
        2   -1    0    0  501    0  0.00000000000E+00  0.00000000000E+00 -0.54905104198E+03  0.54905104198E+03  0.25500000920E-02 0.  1.
    10030    2    1    2    0    0  0.00000000000E+00  0.00000000000E+00 -0.32561526892E+03  0.77248681506E+03  0.70050737047E+03 0.  0.
        2    1    3    3  502    0 -0.75318121250E+02  0.38101471909E+02 -0.53766769549E+03  0.54425278348E+03  0.25500000920E-02 0.  1.
       -2    1    3    3    0  502  0.75318121250E+02 -0.38101471909E+02  0.21205242657E+03  0.22823403158E+03  0.25500000920E-02 0. -1.
</event>
<event>
 5   0  0.1243087E-03  0.7000005E+03  0.7818609E-02  0.9717231E-01
       -2   -1    0    0    0  501  0.00000000000E+00  0.00000000000E+00  0.18775518585E+03  0.18775518587E+03  0.25500000920E-02 0.  1.
        2   -1    0    0  501    0  0.00000000000E+00  0.00000000000E+00 -0.65244628787E+03  0.65244628788E+03  0.25500000920E-02 0. -1.
    10030    2    1    2    0    0  0.00000000000E+00  0.00000000000E+00 -0.46469110202E+03  0.84020147375E+03  0.70000049728E+03 0.  0.
        4    1    3    3  502    0  0.20278571626E+03 -0.21345772243E+03 -0.45948956142E+03  0.54572751070E+03  0.12699999809E+01 0. -1.
       -4    1    3    3    0  502 -0.20278571626E+03  0.21345772243E+03 -0.52015405971E+01  0.29447396304E+03  0.12699999809E+01 0.  1.
</event>
<event>
 5   0  0.7013526E-04  0.6994360E+03  0.7818609E-02  0.9718197E-01
        1   -1    0    0  501    0  0.00000000000E+00  0.00000000000E+00  0.16601858072E+04  0.16601858072E+04  0.50400001928E-02 0. -1.
       -1   -1    0    0    0  501  0.00000000000E+00  0.00000000000E+00 -0.73668058272E+02  0.73668058445E+02  0.50400001928E-02 0.  1.
    10030    2    1    2    0    0  0.00000000000E+00  0.00000000000E+00  0.15865177489E+04  0.17338538656E+04  0.69943595830E+03 0.  0.
        1    1    3    3  502    0 -0.31615235327E+03 -0.14950009601E+03  0.79257668377E+03  0.86630271203E+03  0.50400001928E-02 0.  1.
       -1    1    3    3    0  502  0.31615235327E+03  0.14950009601E+03  0.79394106511E+03  0.86755115358E+03  0.50400001928E-02 0. -1.
</event>
<event>
 5   0  0.7574241E-04  0.6998306E+03  0.7818609E-02  0.9717522E-01
       -1   -1    0    0    0  501  0.00000000000E+00  0.00000000000E+00  0.42710097154E+03  0.42710097157E+03  0.50400001928E-02 0.  1.
        1   -1    0    0  501    0  0.00000000000E+00  0.00000000000E+00 -0.28667864266E+03  0.28667864271E+03  0.50400001928E-02 0. -1.
    10030    2    1    2    0    0  0.00000000000E+00  0.00000000000E+00  0.14042232887E+03  0.71377961428E+03  0.69983062759E+03 0.  0.
        3    1    3    3  502    0  0.12834842709E+03 -0.22169391476E+02  0.40145503284E+03  0.42205562933E+03  0.10100000352E+00 0.  1.
       -3    1    3    3    0  502 -0.12834842709E+03  0.22169391476E+02 -0.26103270396E+03  0.29172398495E+03  0.10100000352E+00 0. -1.
</event>
<event>
 5   0  0.1222679E-03  0.6999483E+03  0.7818609E-02  0.9717321E-01
       -2   -1    0    0    0  501  0.00000000000E+00  0.00000000000E+00  0.63397643168E+02  0.63397643220E+02  0.25500000920E-02 0. -1.
        2   -1    0    0  501    0  0.00000000000E+00  0.00000000000E+00 -0.19319632756E+04  0.19319632756E+04  0.25500000920E-02 0.  1.
    10030    2    1    2    0    0  0.00000000000E+00  0.00000000000E+00 -0.18685656324E+04  0.19953609188E+04  0.69994833642E+03 0.  0.
        2    1    3    3  502    0 -0.16756288338E+03  0.82969570282E+02 -0.17776384311E+04  0.17874450093E+04  0.25500000920E-02 0.  1.
       -2    1    3    3    0  502  0.16756288338E+03 -0.82969570282E+02 -0.90927201288E+02  0.20791590950E+03  0.25500000920E-02 0. -1.
</event>
<event>
 5   0  0.4936000E-04  0.7005795E+03  0.7818609E-02  0.9716242E-01
        3   -1    0    0  501    0  0.00000000000E+00  0.00000000000E+00  0.45288956065E+03  0.45288957191E+03  0.10100000352E+00 0. -1.
       -3   -1    0    0    0  501  0.00000000000E+00  0.00000000000E+00 -0.27093336550E+03  0.27093338432E+03  0.10100000352E+00 0.  1.
    10030    2    1    2    0    0  0.00000000000E+00  0.00000000000E+00  0.18195619515E+03  0.72382295624E+03  0.70057948515E+03 0.  0.
        1    1    3    3  502    0  0.15317887600E+02  0.33420013618E+03  0.19824229944E+03  0.38887578739E+03  0.50400001928E-02 0. -1.
       -1    1    3    3    0  502 -0.15317887600E+02 -0.33420013618E+03 -0.16286104291E+02  0.33494716885E+03  0.50400001928E-02 0.  1.
</event>
<event>
 5   0  0.7459843E-04  0.6999144E+03  0.7818609E-02  0.9717379E-01
        1   -1    0    0  501    0  0.00000000000E+00  0.00000000000E+00  0.30578462463E+03  0.30578462467E+03  0.50400001928E-02 0. -1.
       -1   -1    0    0    0  501  0.00000000000E+00  0.00000000000E+00 -0.40051073781E+03  0.40051073784E+03  0.50400001928E-02 0.  1.
    10030    2    1    2    0    0  0.00000000000E+00  0.00000000000E+00 -0.94726113178E+02  0.70629536252E+03  0.69991435376E+03 0.  0.
        2    1    3    3  502    0  0.25328211239E+03  0.97072479639E+02 -0.27050142909E+03  0.38307429815E+03  0.25500000920E-02 0.  1.
       -2    1    3    3    0  502 -0.25328211239E+03 -0.97072479639E+02  0.17577531591E+03  0.32322106437E+03  0.25500000920E-02 0. -1.
</event>
<event>
 5   0  0.7459843E-04  0.6998606E+03  0.7818609E-02  0.9717471E-01
       -1   -1    0    0    0  501  0.00000000000E+00  0.00000000000E+00  0.10166383057E+03  0.10166383069E+03  0.50400001928E-02 0.  1.
        1   -1    0    0  501    0  0.00000000000E+00  0.00000000000E+00 -0.12044717318E+04  0.12044717318E+04  0.50400001928E-02 0. -1.
    10030    2    1    2    0    0  0.00000000000E+00  0.00000000000E+00 -0.11028079012E+04  0.13061355625E+04  0.69986058655E+03 0.  0.
        2    1    3    3  502    0  0.59008120676E+02  0.38471370529E+02  0.88295092852E+02  0.11295144127E+03  0.25500000920E-02 0.  1.
       -2    1    3    3    0  502 -0.59008120676E+02 -0.38471370529E+02 -0.11911029941E+04  0.11931841212E+04  0.25500000920E-02 0. -1.
</event>
<event>
 5   0  0.7572415E-04  0.6999002E+03  0.7818609E-02  0.9717403E-01
        1   -1    0    0  501    0  0.00000000000E+00  0.00000000000E+00  0.20900828540E+04  0.20900828540E+04  0.50400001928E-02 0.  1.
       -1   -1    0    0    0  501  0.00000000000E+00  0.00000000000E+00 -0.58593397881E+02  0.58593398098E+02  0.50400001928E-02 0. -1.
    10030    2    1    2    0    0  0.00000000000E+00  0.00000000000E+00  0.20314894561E+04  0.21486762521E+04  0.69990015433E+03 0.  0.
        4    1    3    3  502    0 -0.16842432899E+03  0.28278218836E+03  0.13806836283E+04  0.14193735995E+04  0.12699999809E+01 0.  1.
       -4    1    3    3    0  502  0.16842432899E+03 -0.28278218836E+03  0.65080582787E+03  0.72930265264E+03  0.12699999809E+01 0. -1.
</event>
<event>
 5   0  0.1222679E-03  0.6968227E+03  0.7818609E-02  0.9722681E-01
       -2   -1    0    0    0  501  0.00000000000E+00  0.00000000000E+00  0.45505139845E+03  0.45505139846E+03  0.25500000920E-02 0. -1.
        2   -1    0    0  501    0  0.00000000000E+00  0.00000000000E+00 -0.26676209115E+03  0.26676209117E+03  0.25500000920E-02 0.  1.
    10030    2    1    2    0    0  0.00000000000E+00  0.00000000000E+00  0.18828930729E+03  0.72181348962E+03  0.69682268229E+03 0.  0.
        2    1    3    3  502    0  0.34688560295E+03 -0.25153046490E+02  0.72710394589E+02  0.35531549188E+03  0.25500000920E-02 0. -1.
       -2    1    3    3    0  502 -0.34688560295E+03  0.25153046490E+02  0.11557891270E+03  0.36649799774E+03  0.25500000920E-02 0.  1.
</event>
<event>
 5   0  0.7013526E-04  0.6995934E+03  0.7818609E-02  0.9717928E-01
       -1   -1    0    0    0  501  0.00000000000E+00  0.00000000000E+00  0.16135797886E+03  0.16135797894E+03  0.50400001928E-02 0.  1.
        1   -1    0    0  501    0  0.00000000000E+00  0.00000000000E+00 -0.75829976733E+03  0.75829976734E+03  0.50400001928E-02 0. -1.
    10030    2    1    2    0    0  0.00000000000E+00  0.00000000000E+00 -0.59694178847E+03  0.91965774628E+03  0.69959336152E+03 0.  0.
        1    1    3    3  502    0 -0.19750026945E+03  0.20471866163E+03 -0.56607882082E+03  0.63353083449E+03  0.50400001928E-02 0. -1.
       -1    1    3    3    0  502  0.19750026945E+03 -0.20471866163E+03 -0.30862967652E+02  0.28612691179E+03  0.50400001928E-02 0.  1.
</event>
<event>
 5   0  0.1222679E-03  0.7001602E+03  0.7818609E-02  0.9716958E-01
        2   -1    0    0  501    0  0.00000000000E+00  0.00000000000E+00  0.27016366283E+03  0.27016366284E+03  0.25500000920E-02 0.  1.
       -2   -1    0    0    0  501  0.00000000000E+00  0.00000000000E+00 -0.45363640035E+03  0.45363640036E+03  0.25500000920E-02 0. -1.
    10030    2    1    2    0    0  0.00000000000E+00  0.00000000000E+00 -0.18347273752E+03  0.72380006320E+03  0.70016018601E+03 0.  0.
        2    1    3    3  502    0 -0.10524817641E+03 -0.19614697982E+03  0.18758120888E+03  0.29109710796E+03  0.25500000920E-02 0.  1.
       -2    1    3    3    0  502  0.10524817641E+03  0.19614697982E+03 -0.37105394640E+03  0.43270295524E+03  0.25500000920E-02 0. -1.
</event>
<event>
 5   0  0.1222679E-03  0.7000891E+03  0.7818609E-02  0.9717080E-01
       -2   -1    0    0    0  501  0.00000000000E+00  0.00000000000E+00  0.64361614973E+02  0.64361615023E+02  0.25500000920E-02 0.  1.
        2   -1    0    0  501    0  0.00000000000E+00  0.00000000000E+00 -0.19037929142E+04  0.19037929142E+04  0.25500000920E-02 0. -1.
    10030    2    1    2    0    0  0.00000000000E+00  0.00000000000E+00 -0.18394312993E+04  0.19681545293E+04  0.70008909886E+03 0.  0.
        2    1    3    3  502    0 -0.11264504865E+03  0.32122932726E+03 -0.69039284678E+03  0.76975286330E+03  0.25500000920E-02 0.  1.
       -2    1    3    3    0  502  0.11264504865E+03 -0.32122932726E+03 -0.11490384525E+04  0.11984016660E+04  0.25500000920E-02 0. -1.
</event>
<event>
 5   0  0.1222679E-03  0.6997651E+03  0.7818609E-02  0.9717634E-01
        2   -1    0    0  501    0  0.00000000000E+00  0.00000000000E+00  0.47359031762E+03  0.47359031763E+03  0.25500000920E-02 0. -1.
       -2   -1    0    0    0  501  0.00000000000E+00  0.00000000000E+00 -0.25848881919E+03  0.25848881920E+03  0.25500000920E-02 0.  1.
    10030    2    1    2    0    0  0.00000000000E+00  0.00000000000E+00  0.21510149843E+03  0.73207913683E+03  0.69976510913E+03 0.  0.
        2    1    3    3  502    0 -0.10787272123E+02 -0.34668563640E+03  0.15561244257E+03  0.38016118688E+03  0.25500000920E-02 0. -1.
       -2    1    3    3    0  502  0.10787272123E+02  0.34668563640E+03  0.59489055865E+02  0.35191794995E+03  0.25500000920E-02 0.  1.
</event>
<event>
 5   0  0.1265562E-03  0.6999907E+03  0.7818609E-02  0.9717248E-01
       -2   -1    0    0    0  501  0.00000000000E+00  0.00000000000E+00  0.50717698557E+02  0.50717698621E+02  0.25500000920E-02 0. -1.
        2   -1    0    0  501    0  0.00000000000E+00  0.00000000000E+00 -0.24152664190E+04  0.24152664190E+04  0.25500000920E-02 0.  1.
    10030    2    1    2    0    0  0.00000000000E+00  0.00000000000E+00 -0.23645487204E+04  0.24659841176E+04  0.69999072638E+03 0.  0.
        1    1    3    3  502    0 -0.45927612944E+02 -0.18866611087E+03 -0.22081075054E+04  0.22166287471E+04  0.50400001928E-02 0.  1.
       -1    1    3    3    0  502  0.45927612944E+02  0.18866611087E+03 -0.15644121505E+03  0.24935537054E+03  0.50400001928E-02 0. -1.
</event>
<event>
 5   0  0.7459843E-04  0.6999236E+03  0.7818609E-02  0.9717363E-01
       -1   -1    0    0    0  501  0.00000000000E+00  0.00000000000E+00  0.21428056519E+03  0.21428056525E+03  0.50400001928E-02 0.  1.
        1   -1    0    0  501    0  0.00000000000E+00  0.00000000000E+00 -0.57155569320E+03  0.57155569322E+03  0.50400001928E-02 0. -1.
    10030    2    1    2    0    0  0.00000000000E+00  0.00000000000E+00 -0.35727512801E+03  0.78583625846E+03  0.69992364442E+03 0.  0.
        2    1    3    3  502    0 -0.65142589518E+02 -0.29788016654E+03 -0.37146607742E+03  0.48058630574E+03  0.25500000920E-02 0. -1.
       -2    1    3    3    0  502  0.65142589518E+02  0.29788016654E+03  0.14190949415E+02  0.30524995272E+03  0.25500000920E-02 0.  1.
</event>
<event>
 5   0  0.1243087E-03  0.6997113E+03  0.7818609E-02  0.9717726E-01
        2   -1    0    0  501    0  0.00000000000E+00  0.00000000000E+00  0.17256251600E+03  0.17256251602E+03  0.25500000920E-02 0.  1.
       -2   -1    0    0    0  501  0.00000000000E+00  0.00000000000E+00 -0.70930228701E+03  0.70930228702E+03  0.25500000920E-02 0. -1.
    10030    2    1    2    0    0  0.00000000000E+00  0.00000000000E+00 -0.53673977101E+03  0.88186480304E+03  0.69971133266E+03 0.  0.
        4    1    3    3  502    0 -0.28824641221E+03 -0.18199464106E+03 -0.36752267807E+03  0.50128093453E+03  0.12699999809E+01 0. -1.
       -4    1    3    3    0  502  0.28824641221E+03  0.18199464106E+03 -0.16921709294E+03  0.38058386851E+03  0.12699999809E+01 0.  1.
</event>
<event>
 5   0  0.1282546E-03  0.7014108E+03  0.7818609E-02  0.9714823E-01
       -2   -1    0    0    0  501  0.00000000000E+00  0.00000000000E+00  0.19508017415E+03  0.19508017417E+03  0.25500000920E-02 0. -1.
        2   -1    0    0  501    0  0.00000000000E+00  0.00000000000E+00 -0.63048061350E+03  0.63048061350E+03  0.25500000920E-02 0.  1.
    10030    2    1    2    0    0  0.00000000000E+00  0.00000000000E+00 -0.43540043935E+03  0.82556078768E+03  0.70141077235E+03 0.  0.
        5    1    3    3  502    0 -0.20804177298E+03  0.27172188271E+03 -0.12761533215E+03  0.36526965908E+03  0.46999998093E+01 0. -1.
       -5    1    3    3    0  502  0.20804177298E+03 -0.27172188271E+03 -0.30778510720E+03  0.46029112859E+03  0.46999998093E+01 0.  1.
</event>
<event>
 5   0  0.7574241E-04  0.7000315E+03  0.7818609E-02  0.9717178E-01
        1   -1    0    0  501    0  0.00000000000E+00  0.00000000000E+00  0.67637429802E+03  0.67637429804E+03  0.50400001928E-02 0.  1.
       -1   -1    0    0    0  501  0.00000000000E+00  0.00000000000E+00 -0.18112902905E+03  0.18112902912E+03  0.50400001928E-02 0. -1.
    10030    2    1    2    0    0  0.00000000000E+00  0.00000000000E+00  0.49524526896E+03  0.85750332716E+03  0.70003148476E+03 0.  0.
        3    1    3    3  502    0 -0.14576024331E+03  0.89596329359E+02  0.62165867838E+03  0.64477366057E+03  0.10100000352E+00 0.  1.
       -3    1    3    3    0  502  0.14576024331E+03 -0.89596329359E+02 -0.12641340942E+03  0.21272966659E+03  0.10100000352E+00 0. -1.
</event>
<event>
 5   0  0.1282546E-03  0.6992387E+03  0.7818609E-02  0.9718535E-01
       -2   -1    0    0    0  501  0.00000000000E+00  0.00000000000E+00  0.42482475349E+03  0.42482475350E+03  0.25500000920E-02 0.  1.
        2   -1    0    0  501    0  0.00000000000E+00  0.00000000000E+00 -0.28772733296E+03  0.28772733297E+03  0.25500000920E-02 0. -1.
    10030    2    1    2    0    0  0.00000000000E+00  0.00000000000E+00  0.13709742053E+03  0.71255208648E+03  0.69923870976E+03 0.  0.
        5    1    3    3  502    0  0.13070436214E+03 -0.41151639760E+02 -0.25918709871E+03  0.29321857014E+03  0.46999998093E+01 0. -1.
       -5    1    3    3    0  502 -0.13070436214E+03  0.41151639760E+02  0.39628451924E+03  0.41933351634E+03  0.46999998093E+01 0.  1.
</event>
<event>
 5   0  0.7574241E-04  0.6999427E+03  0.7818609E-02  0.9717330E-01
        1   -1    0    0  501    0  0.00000000000E+00  0.00000000000E+00  0.14738856130E+04  0.14738856130E+04  0.50400001928E-02 0. -1.
       -1   -1    0    0    0  501  0.00000000000E+00  0.00000000000E+00 -0.83100034295E+02  0.83100034448E+02  0.50400001928E-02 0.  1.
    10030    2    1    2    0    0  0.00000000000E+00  0.00000000000E+00  0.13907855787E+04  0.15569856474E+04  0.69994269797E+03 0.  0.
        3    1    3    3  502    0  0.23573712898E+03  0.22182153986E+03  0.39942302961E+03  0.51411628676E+03  0.10100000352E+00 0. -1.
       -3    1    3    3    0  502 -0.23573712898E+03 -0.22182153986E+03  0.99136254905E+03  0.10428693607E+04  0.10100000352E+00 0.  1.
</event>
<event>
 5   0  0.1282546E-03  0.7005776E+03  0.7818609E-02  0.9716245E-01
        2   -1    0    0  501    0  0.00000000000E+00  0.00000000000E+00  0.13530939922E+04  0.13530939922E+04  0.25500000920E-02 0. -1.
       -2   -1    0    0    0  501  0.00000000000E+00  0.00000000000E+00 -0.90682718526E+02  0.90682718562E+02  0.25500000920E-02 0.  1.
    10030    2    1    2    0    0  0.00000000000E+00  0.00000000000E+00  0.12624112736E+04  0.14437767107E+04  0.70057759501E+03 0.  0.
        5    1    3    3  502    0 -0.30238695120E+02  0.25104824579E+03  0.11306795342E+04  0.11586189621E+04  0.46999998093E+01 0. -1.
       -5    1    3    3    0  502  0.30238695120E+02 -0.25104824579E+03  0.13173173943E+03  0.28515774857E+03  0.46999998093E+01 0.  1.
</event>
<event>
 5   0  0.1222679E-03  0.7038647E+03  0.7818609E-02  0.9710646E-01
       -2   -1    0    0    0  501  0.00000000000E+00  0.00000000000E+00  0.11479115067E+03  0.11479115070E+03  0.25500000920E-02 0.  1.
        2   -1    0    0  501    0  0.00000000000E+00  0.00000000000E+00 -0.10789715285E+04  0.10789715285E+04  0.25500000920E-02 0. -1.
    10030    2    1    2    0    0  0.00000000000E+00  0.00000000000E+00 -0.96418037785E+03  0.11937626792E+04  0.70386471234E+03 0.  0.
        2    1    3    3  502    0 -0.39983315109E+02  0.16369272274E+03 -0.10061067377E+04  0.10201199638E+04  0.25500000920E-02 0. -1.
       -2    1    3    3    0  502  0.39983315109E+02 -0.16369272274E+03  0.41926359819E+02  0.17364271542E+03  0.25500000920E-02 0.  1.
</event>
<event>
 5   0  0.7013526E-04  0.6996241E+03  0.7818609E-02  0.9717875E-01
       -1   -1    0    0    0  501  0.00000000000E+00  0.00000000000E+00  0.81199076713E+03  0.81199076715E+03  0.50400001928E-02 0. -1.
        1   -1    0    0  501    0  0.00000000000E+00  0.00000000000E+00 -0.15070179000E+03  0.15070179008E+03  0.50400001928E-02 0.  1.
    10030    2    1    2    0    0  0.00000000000E+00  0.00000000000E+00  0.66128897713E+03  0.96269255723E+03  0.69962407653E+03 0.  0.
        1    1    3    3  502    0  0.14371602994E+03 -0.28416774631E+03  0.13141753174E+03  0.34449408265E+03  0.50400001928E-02 0.  1.
       -1    1    3    3    0  502 -0.14371602994E+03  0.28416774631E+03  0.52987144539E+03  0.61819847458E+03  0.50400001928E-02 0. -1.
</event>
<event>
 5   0  0.7013526E-04  0.7000940E+03  0.7818609E-02  0.9717071E-01
       -1   -1    0    0    0  501  0.00000000000E+00  0.00000000000E+00  0.29922737784E+03  0.29922737788E+03  0.50400001928E-02 0.  1.
        1   -1    0    0  501    0  0.00000000000E+00  0.00000000000E+00 -0.40949767383E+03  0.40949767387E+03  0.50400001928E-02 0. -1.
    10030    2    1    2    0    0  0.00000000000E+00  0.00000000000E+00 -0.11027029600E+03  0.70872505175E+03  0.70009403711E+03 0.  0.
        1    1    3    3  502    0 -0.18163901254E+03 -0.28998382757E+03  0.19596108789E+02  0.34273511439E+03  0.50400001928E-02 0.  1.
       -1    1    3    3    0  502  0.18163901254E+03  0.28998382757E+03 -0.12986640479E+03  0.36598993736E+03  0.50400001928E-02 0. -1.
</event>
<event>
 5   0  0.1243087E-03  0.6999943E+03  0.7818609E-02  0.9717242E-01
       -2   -1    0    0    0  501  0.00000000000E+00  0.00000000000E+00  0.61616300400E+03  0.61616300401E+03  0.25500000920E-02 0. -1.
        2   -1    0    0  501    0  0.00000000000E+00  0.00000000000E+00 -0.19880777092E+03  0.19880777094E+03  0.25500000920E-02 0.  1.
    10030    2    1    2    0    0  0.00000000000E+00  0.00000000000E+00  0.41735523308E+03  0.81497077495E+03  0.69999426672E+03 0.  0.
        4    1    3    3  502    0  0.26067794845E+03 -0.41571138784E+02  0.47624127894E+03  0.54450759504E+03  0.12699999809E+01 0. -1.
       -4    1    3    3    0  502 -0.26067794845E+03  0.41571138784E+02 -0.58886045859E+02  0.27046317991E+03  0.12699999809E+01 0.  1.
</event>
<event>
 5   0  0.1243087E-03  0.7005942E+03  0.7818609E-02  0.9716217E-01
       -2   -1    0    0    0  501  0.00000000000E+00  0.00000000000E+00  0.76564479385E+02  0.76564479428E+02  0.25500000920E-02 0.  1.
        2   -1    0    0  501    0  0.00000000000E+00  0.00000000000E+00 -0.16026761769E+04  0.16026761769E+04  0.25500000920E-02 0. -1.
    10030    2    1    2    0    0  0.00000000000E+00  0.00000000000E+00 -0.15261116975E+04  0.16792406564E+04  0.70059422534E+03 0.  0.
        4    1    3    3  502    0 -0.25439133332E+03 -0.16456670288E+03 -0.34165927451E+03  0.45665065742E+03  0.12699999809E+01 0.  1.
       -4    1    3    3    0  502  0.25439133332E+03  0.16456670288E+03 -0.11844524230E+04  0.12225899989E+04  0.12699999809E+01 0. -1.
</event>
<event>
 5   0  0.1265562E-03  0.7002338E+03  0.7818609E-02  0.9716832E-01
        2   -1    0    0  501    0  0.00000000000E+00  0.00000000000E+00  0.28522315767E+03  0.28522315768E+03  0.25500000920E-02 0. -1.
       -2   -1    0    0    0  501  0.00000000000E+00  0.00000000000E+00 -0.42977519633E+03  0.42977519634E+03  0.25500000920E-02 0.  1.
    10030    2    1    2    0    0  0.00000000000E+00  0.00000000000E+00 -0.14455203866E+03  0.71499835402E+03  0.70023378551E+03 0.  0.
        1    1    3    3  502    0 -0.26994160788E+03 -0.69472291113E+02  0.14405665280E+03  0.31376295215E+03  0.50400001928E-02 0. -1.
       -1    1    3    3    0  502  0.26994160788E+03  0.69472291113E+02 -0.28860869147E+03  0.40123540187E+03  0.50400001928E-02 0.  1.
</event>
<event>
 5   0  0.1282546E-03  0.6998237E+03  0.7818609E-02  0.9717534E-01
       -2   -1    0    0    0  501  0.00000000000E+00  0.00000000000E+00  0.82328836288E+02  0.82328836328E+02  0.25500000920E-02 0.  1.
        2   -1    0    0  501    0  0.00000000000E+00  0.00000000000E+00 -0.14871863090E+04  0.14871863090E+04  0.25500000920E-02 0. -1.
    10030    2    1    2    0    0  0.00000000000E+00  0.00000000000E+00 -0.14048574727E+04  0.15695151454E+04  0.69982374409E+03 0.  0.
        5    1    3    3  502    0 -0.11285820274E+03 -0.28704484534E+03 -0.10728832794E+04  0.11163477677E+04  0.46999998093E+01 0.  1.
       -5    1    3    3    0  502  0.11285820274E+03  0.28704484534E+03 -0.33197419335E+03  0.45316737770E+03  0.46999998093E+01 0. -1.
</event>
<event>
 5   0  0.7574241E-04  0.7000836E+03  0.7818609E-02  0.9717089E-01
        1   -1    0    0  501    0  0.00000000000E+00  0.00000000000E+00  0.49511065001E+03  0.49511065003E+03  0.50400001928E-02 0.  1.
       -1   -1    0    0    0  501  0.00000000000E+00  0.00000000000E+00 -0.24747851753E+03  0.24747851758E+03  0.50400001928E-02 0. -1.
    10030    2    1    2    0    0  0.00000000000E+00  0.00000000000E+00  0.24763213248E+03  0.74258916761E+03  0.70008356560E+03 0.  0.
        3    1    3    3  502    0  0.20549421816E+03 -0.18132118570E+03 -0.10717638519E+03  0.29426524399E+03  0.10100000352E+00 0. -1.
       -3    1    3    3    0  502 -0.20549421816E+03  0.18132118570E+03  0.35480851766E+03  0.44832392362E+03  0.10100000352E+00 0.  1.
</event>
<event>
 5   0  0.7013526E-04  0.7001430E+03  0.7818609E-02  0.9716988E-01
        1   -1    0    0  501    0  0.00000000000E+00  0.00000000000E+00  0.44347797654E+03  0.44347797656E+03  0.50400001928E-02 0.  1.
       -1   -1    0    0    0  501  0.00000000000E+00  0.00000000000E+00 -0.27633852324E+03  0.27633852328E+03  0.50400001928E-02 0. -1.
    10030    2    1    2    0    0  0.00000000000E+00  0.00000000000E+00  0.16713945330E+03  0.71981649985E+03  0.70014298297E+03 0.  0.
        1    1    3    3  502    0 -0.13237776564E+02 -0.34861216330E+03  0.11344428227E+03  0.36684504131E+03  0.50400001928E-02 0.  1.
       -1    1    3    3    0  502  0.13237776564E+02  0.34861216330E+03  0.53695171033E+02  0.35297145854E+03  0.50400001928E-02 0. -1.
</event>
<event>
 5   0  0.1222679E-03  0.7000104E+03  0.7818609E-02  0.9717214E-01
       -2   -1    0    0    0  501  0.00000000000E+00  0.00000000000E+00  0.47243035864E+02  0.47243035933E+02  0.25500000920E-02 0. -1.
        2   -1    0    0  501    0  0.00000000000E+00  0.00000000000E+00 -0.25930520842E+04  0.25930520842E+04  0.25500000920E-02 0.  1.
    10030    2    1    2    0    0  0.00000000000E+00  0.00000000000E+00 -0.25458090483E+04  0.26402951201E+04  0.70001043622E+03 0.  0.
        2    1    3    3  502    0 -0.98754616150E+02 -0.27167063112E+03 -0.20172606440E+04  0.20378660191E+04  0.25500000920E-02 0.  1.
       -2    1    3    3    0  502  0.98754616150E+02  0.27167063112E+03 -0.52854840437E+03  0.60242910105E+03  0.25500000920E-02 0. -1.
</event>
<event>
 5   0  0.7570633E-04  0.6998689E+03  0.7818609E-02  0.9717456E-01
        1   -1    0    0  501    0  0.00000000000E+00  0.00000000000E+00  0.46877409454E+03  0.46877409457E+03  0.50400001928E-02 0. -1.
       -1   -1    0    0    0  501  0.00000000000E+00  0.00000000000E+00 -0.26122206163E+03  0.26122206168E+03  0.50400001928E-02 0.  1.
    10030    2    1    2    0    0  0.00000000000E+00  0.00000000000E+00  0.20755203291E+03  0.72999615624E+03  0.69986894614E+03 0.  0.
        5    1    3    3  502    0  0.31759107532E+03 -0.36966724224E+01  0.25690968952E+03  0.40853694457E+03  0.46999998093E+01 0. -1.
       -5    1    3    3    0  502 -0.31759107532E+03  0.36966724224E+01 -0.49357656604E+02  0.32145921168E+03  0.46999998093E+01 0.  1.
</event>
<event>
 5   0  0.7013526E-04  0.7003305E+03  0.7818609E-02  0.9716667E-01
        1   -1    0    0  501    0  0.00000000000E+00  0.00000000000E+00  0.16981483327E+03  0.16981483334E+03  0.50400001928E-02 0. -1.
       -1   -1    0    0    0  501  0.00000000000E+00  0.00000000000E+00 -0.72205526858E+03  0.72205526859E+03  0.50400001928E-02 0.  1.
    10030    2    1    2    0    0  0.00000000000E+00  0.00000000000E+00 -0.55224043531E+03  0.89187010193E+03  0.70033047937E+03 0.  0.
        1    1    3    3  502    0 -0.23686221092E+03 -0.24785614221E+03 -0.18535877263E+03  0.38973612716E+03  0.50400001928E-02 0.  1.
       -1    1    3    3    0  502  0.23686221092E+03  0.24785614221E+03 -0.36688166268E+03  0.50213397478E+03  0.50400001928E-02 0. -1.
</event>
<event>
 5   0  0.7459843E-04  0.6999518E+03  0.7818609E-02  0.9717315E-01
        1   -1    0    0  501    0  0.00000000000E+00  0.00000000000E+00  0.72817380232E+03  0.72817380234E+03  0.50400001928E-02 0. -1.
       -1   -1    0    0    0  501  0.00000000000E+00  0.00000000000E+00 -0.16820591844E+03  0.16820591852E+03  0.50400001928E-02 0.  1.
    10030    2    1    2    0    0  0.00000000000E+00  0.00000000000E+00  0.55996788388E+03  0.89637972086E+03  0.69995183619E+03 0.  0.
        2    1    3    3  502    0  0.62193640813E+02 -0.24970301300E+03  0.58374859484E+03  0.63795146025E+03  0.25500000920E-02 0. -1.
       -2    1    3    3    0  502 -0.62193640813E+02  0.24970301300E+03 -0.23780710964E+02  0.25842826060E+03  0.25500000920E-02 0.  1.
</event>
<event>
 5   0  0.1222679E-03  0.7001575E+03  0.7818609E-02  0.9716963E-01
       -2   -1    0    0    0  501  0.00000000000E+00  0.00000000000E+00  0.28689534382E+03  0.28689534383E+03  0.25500000920E-02 0. -1.
        2   -1    0    0  501    0  0.00000000000E+00  0.00000000000E+00 -0.42717716812E+03  0.42717716813E+03  0.25500000920E-02 0.  1.
    10030    2    1    2    0    0  0.00000000000E+00  0.00000000000E+00 -0.14028182430E+03  0.71407251196E+03  0.70015752664E+03 0.  0.
        2    1    3    3  502    0 -0.43810234255E+02  0.31738874327E+03 -0.21401254083E+03  0.38530029667E+03  0.25500000920E-02 0.  1.
       -2    1    3    3    0  502  0.43810234255E+02 -0.31738874327E+03  0.73730716531E+02  0.32877221529E+03  0.25500000920E-02 0. -1.
</event>
<event>
 5   0  0.1224048E-03  0.6998342E+03  0.7818609E-02  0.9717516E-01
       -2   -1    0    0    0  501  0.00000000000E+00  0.00000000000E+00  0.17904298821E+03  0.17904298823E+03  0.25500000920E-02 0. -1.
        2   -1    0    0  501    0  0.00000000000E+00  0.00000000000E+00 -0.68386906064E+03  0.68386906065E+03  0.25500000920E-02 0.  1.
    10030    2    1    2    0    0  0.00000000000E+00  0.00000000000E+00 -0.50482607244E+03  0.86291204888E+03  0.69983415227E+03 0.  0.
        3    1    3    3  502    0 -0.18995352328E+03  0.37889914314E+02  0.10691121379E+03  0.22124195906E+03  0.10100000352E+00 0. -1.
       -3    1    3    3    0  502  0.18995352328E+03 -0.37889914314E+02 -0.61173728622E+03  0.64167008982E+03  0.10100000352E+00 0.  1.
</event>
<event>
 5   0  0.7570633E-04  0.6999510E+03  0.7818609E-02  0.9717316E-01
       -1   -1    0    0    0  501  0.00000000000E+00  0.00000000000E+00  0.12408201433E+04  0.12408201433E+04  0.50400001928E-02 0. -1.
        1   -1    0    0  501    0  0.00000000000E+00  0.00000000000E+00 -0.98711199504E+02  0.98711199632E+02  0.50400001928E-02 0.  1.
    10030    2    1    2    0    0  0.00000000000E+00  0.00000000000E+00  0.11421089438E+04  0.13395313429E+04  0.69995098344E+03 0.  0.
        5    1    3    3  502    0  0.27120884882E+03  0.32968049486E+02  0.98954759423E+03  0.10265805683E+04  0.46999998093E+01 0. -1.
       -5    1    3    3    0  502 -0.27120884882E+03 -0.32968049486E+02  0.15256134955E+03  0.31295077462E+03  0.46999998093E+01 0.  1.
</event>
<event>
 5   0  0.7013526E-04  0.7008374E+03  0.7818609E-02  0.9715801E-01
       -1   -1    0    0    0  501  0.00000000000E+00  0.00000000000E+00  0.36101025353E+03  0.36101025357E+03  0.50400001928E-02 0.  1.
        1   -1    0    0  501    0  0.00000000000E+00  0.00000000000E+00 -0.34013784132E+03  0.34013784136E+03  0.50400001928E-02 0. -1.
    10030    2    1    2    0    0  0.00000000000E+00  0.00000000000E+00  0.20872412214E+02  0.70114809493E+03  0.70083735162E+03 0.  0.
        1    1    3    3  502    0  0.19204703881E+03 -0.37443863819E+02  0.30126965961E+03  0.35923184140E+03  0.50400001928E-02 0.  1.
       -1    1    3    3    0  502 -0.19204703881E+03  0.37443863819E+02 -0.28039724739E+03  0.34191625352E+03  0.50400001928E-02 0. -1.
</event>
<event>
 5   0  0.7574241E-04  0.6999372E+03  0.7818609E-02  0.9717340E-01
        1   -1    0    0  501    0  0.00000000000E+00  0.00000000000E+00  0.36869065177E+03  0.36869065181E+03  0.50400001928E-02 0.  1.
       -1   -1    0    0    0  501  0.00000000000E+00  0.00000000000E+00 -0.33219723067E+03  0.33219723070E+03  0.50400001928E-02 0. -1.
    10030    2    1    2    0    0  0.00000000000E+00  0.00000000000E+00  0.36493421106E+02  0.70088788251E+03  0.69993717866E+03 0.  0.
        3    1    3    3  502    0 -0.21236886152E+03 -0.26652224851E+03 -0.61506688887E+02  0.34629138781E+03  0.10100000352E+00 0. -1.
       -3    1    3    3    0  502  0.21236886152E+03  0.26652224851E+03  0.98000109992E+02  0.35459649470E+03  0.10100000352E+00 0.  1.
</event>
<event>
 5   0  0.1282546E-03  0.7002226E+03  0.7818609E-02  0.9716852E-01
        2   -1    0    0  501    0  0.00000000000E+00  0.00000000000E+00  0.51148148052E+03  0.51148148052E+03  0.25500000920E-02 0.  1.
       -2   -1    0    0    0  501  0.00000000000E+00  0.00000000000E+00 -0.23965272123E+03  0.23965272125E+03  0.25500000920E-02 0. -1.
    10030    2    1    2    0    0  0.00000000000E+00  0.00000000000E+00  0.27182875928E+03  0.75113420177E+03  0.70022261795E+03 0.  0.
        5    1    3    3  502    0 -0.40863558435E+02  0.10905680807E+03  0.49005843039E+03  0.50372867001E+03  0.46999998093E+01 0.  1.
       -5    1    3    3    0  502  0.40863558435E+02 -0.10905680807E+03 -0.21822967111E+03  0.24740553176E+03  0.46999998093E+01 0. -1.
</event>
<event>
 5   0  0.7570633E-04  0.7000138E+03  0.7818609E-02  0.9717209E-01
        1   -1    0    0  501    0  0.00000000000E+00  0.00000000000E+00  0.51246235059E+03  0.51246235062E+03  0.50400001928E-02 0.  1.
       -1   -1    0    0    0  501  0.00000000000E+00  0.00000000000E+00 -0.23905134324E+03  0.23905134330E+03  0.50400001928E-02 0. -1.
    10030    2    1    2    0    0  0.00000000000E+00  0.00000000000E+00  0.27341100735E+03  0.75151369391E+03  0.70001375215E+03 0.  0.
        5    1    3    3  502    0 -0.18562428337E+02 -0.34360792599E+03  0.68200700007E+02  0.35083385815E+03  0.46999998093E+01 0. -1.
       -5    1    3    3    0  502  0.18562428337E+02  0.34360792599E+03  0.20521030735E+03  0.40067983576E+03  0.46999998093E+01 0.  1.
</event>
<event>
 5   0  0.1222679E-03  0.6995234E+03  0.7818609E-02  0.9718048E-01
        2   -1    0    0  501    0  0.00000000000E+00  0.00000000000E+00  0.27729024210E+03  0.27729024211E+03  0.25500000920E-02 0.  1.
       -2   -1    0    0    0  501  0.00000000000E+00  0.00000000000E+00 -0.44117402104E+03  0.44117402105E+03  0.25500000920E-02 0. -1.
    10030    2    1    2    0    0  0.00000000000E+00  0.00000000000E+00 -0.16388377894E+03  0.71846426316E+03  0.69952341236E+03 0.  0.
        2    1    3    3  502    0  0.26358766122E+03  0.20857509271E+03  0.17378224272E+02  0.33657692603E+03  0.25500000920E-02 0.  1.
       -2    1    3    3    0  502 -0.26358766122E+03 -0.20857509271E+03 -0.18126200322E+03  0.38188733714E+03  0.25500000920E-02 0. -1.
</event>
<event>
 5   0  0.1222679E-03  0.6952248E+03  0.7818609E-02  0.9725433E-01
       -2   -1    0    0    0  501  0.00000000000E+00  0.00000000000E+00  0.63456987483E+02  0.63456987534E+02  0.25500000920E-02 0. -1.
        2   -1    0    0  501    0  0.00000000000E+00  0.00000000000E+00 -0.19041932912E+04  0.19041932912E+04  0.25500000920E-02 0.  1.
    10030    2    1    2    0    0  0.00000000000E+00  0.00000000000E+00 -0.18407363037E+04  0.19676502788E+04  0.69522476911E+03 0.  0.
        2    1    3    3  502    0  0.22936385575E+03  0.21360677064E+02 -0.16571559429E+04  0.16730899186E+04  0.25500000920E-02 0.  1.
       -2    1    3    3    0  502 -0.22936385575E+03 -0.21360677064E+02 -0.18358036087E+03  0.29456036012E+03  0.25500000920E-02 0. -1.
</event>
<event>
 5   0  0.1282546E-03  0.6998534E+03  0.7818609E-02  0.9717483E-01
        2   -1    0    0  501    0  0.00000000000E+00  0.00000000000E+00  0.80927142295E+03  0.80927142296E+03  0.25500000920E-02 0.  1.
       -2   -1    0    0    0  501  0.00000000000E+00  0.00000000000E+00 -0.15130732845E+03  0.15130732847E+03  0.25500000920E-02 0. -1.
    10030    2    1    2    0    0  0.00000000000E+00  0.00000000000E+00  0.65796409450E+03  0.96057875143E+03  0.69985340468E+03 0.  0.
        5    1    3    3  502    0 -0.33282892296E+03  0.82214982632E+02  0.23298043734E+03  0.41453150605E+03  0.46999998093E+01 0.  1.
       -5    1    3    3    0  502  0.33282892296E+03 -0.82214982632E+02  0.42498365717E+03  0.54604724538E+03  0.46999998093E+01 0. -1.
</event>
<event>
 5   0  0.1265562E-03  0.6998973E+03  0.7818609E-02  0.9717408E-01
        2   -1    0    0  501    0  0.00000000000E+00  0.00000000000E+00  0.48105845224E+03  0.48105845225E+03  0.25500000920E-02 0.  1.
       -2   -1    0    0    0  501  0.00000000000E+00  0.00000000000E+00 -0.25457210518E+03  0.25457210519E+03  0.25500000920E-02 0. -1.
    10030    2    1    2    0    0  0.00000000000E+00  0.00000000000E+00  0.22648634706E+03  0.73563055744E+03  0.69989731507E+03 0.  0.
        1    1    3    3  502    0 -0.83397853488E+02 -0.18931963643E+03 -0.18342058278E+03  0.27647827567E+03  0.50400001928E-02 0. -1.
       -1    1    3    3    0  502  0.83397853488E+02  0.18931963643E+03  0.40990692984E+03  0.45915228177E+03  0.50400001928E-02 0.  1.
</event>
<event>
 5   0  0.1222679E-03  0.7000210E+03  0.7818609E-02  0.9717196E-01
       -2   -1    0    0    0  501  0.00000000000E+00  0.00000000000E+00  0.22165901823E+03  0.22165901824E+03  0.25500000920E-02 0.  1.
        2   -1    0    0  501    0  0.00000000000E+00  0.00000000000E+00 -0.55268379760E+03  0.55268379760E+03  0.25500000920E-02 0. -1.
    10030    2    1    2    0    0  0.00000000000E+00  0.00000000000E+00 -0.33102477937E+03  0.77434281584E+03  0.70002099390E+03 0.  0.
        2    1    3    3  502    0 -0.69093051104E+02 -0.33252856922E+03 -0.71923217388E+02  0.34716285554E+03  0.25500000920E-02 0.  1.
       -2    1    3    3    0  502  0.69093051104E+02  0.33252856922E+03 -0.25910156198E+03  0.42717996031E+03  0.25500000920E-02 0. -1.
</event>
<event>
 5   0  0.1265562E-03  0.6999211E+03  0.7818609E-02  0.9717367E-01
        2   -1    0    0  501    0  0.00000000000E+00  0.00000000000E+00  0.87660526185E+03  0.87660526185E+03  0.25500000920E-02 0.  1.
       -2   -1    0    0    0  501  0.00000000000E+00  0.00000000000E+00 -0.13971212105E+03  0.13971212108E+03  0.25500000920E-02 0. -1.
    10030    2    1    2    0    0  0.00000000000E+00  0.00000000000E+00  0.73689314080E+03  0.10163173829E+04  0.69992108262E+03 0.  0.
        1    1    3    3  502    0 -0.59012796930E+02 -0.34479689482E+03  0.38332359628E+03  0.51894545799E+03  0.50400001928E-02 0.  1.
       -1    1    3    3    0  502  0.59012796930E+02  0.34479689482E+03  0.35356954452E+03  0.49737192494E+03  0.50400001928E-02 0. -1.
</event>
<event>
 5   0  0.7459843E-04  0.7009795E+03  0.7818609E-02  0.9715559E-01
       -1   -1    0    0    0  501  0.00000000000E+00  0.00000000000E+00  0.86772491426E+02  0.86772491572E+02  0.50400001928E-02 0. -1.
        1   -1    0    0  501    0  0.00000000000E+00  0.00000000000E+00 -0.14156913454E+04  0.14156913454E+04  0.50400001928E-02 0.  1.
    10030    2    1    2    0    0  0.00000000000E+00  0.00000000000E+00 -0.13289188540E+04  0.15024638370E+04  0.70097950112E+03 0.  0.
        2    1    3    3  502    0  0.27270444476E+03  0.13013425387E+03 -0.28380358960E+03  0.41454446770E+03  0.25500000920E-02 0. -1.
       -2    1    3    3    0  502 -0.27270444476E+03 -0.13013425387E+03 -0.10451152644E+04  0.10879193693E+04  0.25500000920E-02 0.  1.
</event>
<event>
 5   0  0.7572415E-04  0.7002094E+03  0.7818609E-02  0.9716874E-01
        1   -1    0    0  501    0  0.00000000000E+00  0.00000000000E+00  0.11240338022E+03  0.11240338033E+03  0.50400001928E-02 0.  1.
       -1   -1    0    0    0  501  0.00000000000E+00  0.00000000000E+00 -0.10904769880E+04  0.10904769880E+04  0.50400001928E-02 0. -1.
    10030    2    1    2    0    0  0.00000000000E+00  0.00000000000E+00 -0.97807360775E+03  0.12028803683E+04  0.70020939604E+03 0.  0.
        4    1    3    3  502    0 -0.35991457661E+02  0.32330647746E+03 -0.26670999276E+03  0.42066411367E+03  0.12699999809E+01 0.  1.
       -4    1    3    3    0  502  0.35991457661E+02 -0.32330647746E+03 -0.71136361499E+03  0.78221625465E+03  0.12699999809E+01 0. -1.
</event>
<event>
 5   0  0.7572415E-04  0.7007189E+03  0.7818609E-02  0.9716004E-01
       -1   -1    0    0    0  501  0.00000000000E+00  0.00000000000E+00  0.98006386951E+02  0.98006387080E+02  0.50400001928E-02 0.  1.
        1   -1    0    0  501    0  0.00000000000E+00  0.00000000000E+00 -0.12524872290E+04  0.12524872290E+04  0.50400001928E-02 0. -1.
    10030    2    1    2    0    0  0.00000000000E+00  0.00000000000E+00 -0.11544808420E+04  0.13504936161E+04  0.70071891114E+03 0.  0.
        4    1    3    3  502    0  0.12109896693E+02  0.34819200508E+03 -0.50601347049E+03  0.61435784948E+03  0.12699999809E+01 0.  1.
       -4    1    3    3    0  502 -0.12109896693E+02 -0.34819200508E+03 -0.64846737152E+03  0.73613576657E+03  0.12699999809E+01 0. -1.
</event>
<event>
 5   0  0.1243087E-03  0.7007499E+03  0.7818609E-02  0.9715951E-01
       -2   -1    0    0    0  501  0.00000000000E+00  0.00000000000E+00  0.10539887725E+03  0.10539887728E+03  0.25500000920E-02 0.  1.
        2   -1    0    0  501    0  0.00000000000E+00  0.00000000000E+00 -0.11647428808E+04  0.11647428808E+04  0.25500000920E-02 0. -1.
    10030    2    1    2    0    0  0.00000000000E+00  0.00000000000E+00 -0.10593440035E+04  0.12701417581E+04  0.70074986106E+03 0.  0.
        4    1    3    3  502    0  0.48870561310E+02  0.26780205067E+03 -0.92948012476E+03  0.96852526313E+03  0.12699999809E+01 0. -1.
       -4    1    3    3    0  502 -0.48870561310E+02 -0.26780205067E+03 -0.12986387876E+03  0.30161649492E+03  0.12699999809E+01 0.  1.
</event>
<event>
 5   0  0.7570633E-04  0.7002888E+03  0.7818609E-02  0.9716738E-01
       -1   -1    0    0    0  501  0.00000000000E+00  0.00000000000E+00  0.81098383751E+02  0.81098383907E+02  0.50400001928E-02 0. -1.
        1   -1    0    0  501    0  0.00000000000E+00  0.00000000000E+00 -0.15117577867E+04  0.15117577867E+04  0.50400001928E-02 0.  1.
    10030    2    1    2    0    0  0.00000000000E+00  0.00000000000E+00 -0.14306594030E+04  0.15928561706E+04  0.70028883543E+03 0.  0.
        5    1    3    3  502    0  0.24144915606E+03  0.25353735783E+03 -0.71617000570E+03  0.79718282335E+03  0.46999998093E+01 0.  1.
       -5    1    3    3    0  502 -0.24144915606E+03 -0.25353735783E+03 -0.71448939727E+03  0.79567334729E+03  0.46999998093E+01 0. -1.
</event>
<event>
 5   0  0.7459843E-04  0.7002505E+03  0.7818609E-02  0.9716804E-01
       -1   -1    0    0    0  501  0.00000000000E+00  0.00000000000E+00  0.25243931243E+03  0.25243931248E+03  0.50400001928E-02 0. -1.
        1   -1    0    0  501    0  0.00000000000E+00  0.00000000000E+00 -0.48561250280E+03  0.48561250283E+03  0.50400001928E-02 0.  1.
    10030    2    1    2    0    0  0.00000000000E+00  0.00000000000E+00 -0.23317319037E+03  0.73805181530E+03  0.70025048759E+03 0.  0.
        2    1    3    3  502    0  0.29084687491E+03  0.49305639583E+02  0.82179920626E+02  0.30622947294E+03  0.25500000920E-02 0. -1.
       -2    1    3    3    0  502 -0.29084687491E+03 -0.49305639583E+02 -0.31535311100E+03  0.43182234236E+03  0.25500000920E-02 0.  1.
</event>
<event>
 5   0  0.7572415E-04  0.7003539E+03  0.7818609E-02  0.9716627E-01
        1   -1    0    0  501    0  0.00000000000E+00  0.00000000000E+00  0.28584865453E+03  0.28584865457E+03  0.50400001928E-02 0. -1.
       -1   -1    0    0    0  501  0.00000000000E+00  0.00000000000E+00 -0.42898190790E+03  0.42898190793E+03  0.50400001928E-02 0.  1.
    10030    2    1    2    0    0  0.00000000000E+00  0.00000000000E+00 -0.14313325337E+03  0.71483056250E+03  0.70035391400E+03 0.  0.
        4    1    3    3  502    0 -0.74626333830E+02 -0.98999069103E+01 -0.42062278342E+03  0.42730812851E+03  0.12699999809E+01 0.  1.
       -4    1    3    3    0  502  0.74626333830E+02  0.98999069103E+01  0.27748953005E+03  0.28752243399E+03  0.12699999809E+01 0. -1.
</event>
<event>
 5   0  0.7572415E-04  0.7001233E+03  0.7818609E-02  0.9717021E-01
       -1   -1    0    0    0  501  0.00000000000E+00  0.00000000000E+00  0.29183228428E+03  0.29183228433E+03  0.50400001928E-02 0.  1.
        1   -1    0    0  501    0  0.00000000000E+00  0.00000000000E+00 -0.41990949016E+03  0.41990949020E+03  0.50400001928E-02 0. -1.
    10030    2    1    2    0    0  0.00000000000E+00  0.00000000000E+00 -0.12807720588E+03  0.71174177452E+03  0.70012326267E+03 0.  0.
        4    1    3    3  502    0  0.73918615819E+00  0.54755365155E+02  0.28744876931E+03  0.29262109337E+03  0.12699999809E+01 0.  1.
       -4    1    3    3    0  502 -0.73918615819E+00 -0.54755365155E+02 -0.41552597519E+03  0.41912068115E+03  0.12699999809E+01 0. -1.
</event>
<event>
 5   0  0.1224048E-03  0.7003582E+03  0.7818609E-02  0.9716620E-01
       -2   -1    0    0    0  501  0.00000000000E+00  0.00000000000E+00  0.26331093782E+03  0.26331093783E+03  0.25500000920E-02 0. -1.
        2   -1    0    0  501    0  0.00000000000E+00  0.00000000000E+00 -0.46570562764E+03  0.46570562765E+03  0.25500000920E-02 0.  1.
    10030    2    1    2    0    0  0.00000000000E+00  0.00000000000E+00 -0.20239468983E+03  0.72901656548E+03  0.70035815286E+03 0.  0.
        3    1    3    3  502    0  0.12811828500E+03  0.25741573662E+03  0.10685179229E+03  0.30674822270E+03  0.10100000352E+00 0. -1.
       -3    1    3    3    0  502 -0.12811828500E+03 -0.25741573662E+03 -0.30924648212E+03  0.42226834278E+03  0.10100000352E+00 0.  1.
</event>
<event>
 5   0  0.7459843E-04  0.6998471E+03  0.7818609E-02  0.9717494E-01
       -1   -1    0    0    0  501  0.00000000000E+00  0.00000000000E+00  0.59531668291E+03  0.59531668293E+03  0.50400001928E-02 0. -1.
        1   -1    0    0  501    0  0.00000000000E+00  0.00000000000E+00 -0.20568294577E+03  0.20568294583E+03  0.50400001928E-02 0.  1.
    10030    2    1    2    0    0  0.00000000000E+00  0.00000000000E+00  0.38963373715E+03  0.80099962876E+03  0.69984709484E+03 0.  0.
        2    1    3    3  502    0 -0.18796290502E+03  0.29336325247E+03  0.15765140397E+03  0.38242125561E+03  0.25500000920E-02 0. -1.
       -2    1    3    3    0  502  0.18796290502E+03 -0.29336325247E+03  0.23198233318E+03  0.41857837316E+03  0.25500000920E-02 0.  1.
</event>
<event>
 5   0  0.1224048E-03  0.6983350E+03  0.7818609E-02  0.9720084E-01
        2   -1    0    0  501    0  0.00000000000E+00  0.00000000000E+00  0.85733431686E+03  0.85733431686E+03  0.25500000920E-02 0.  1.
       -2   -1    0    0    0  501  0.00000000000E+00  0.00000000000E+00 -0.14220581715E+03  0.14220581718E+03  0.25500000920E-02 0. -1.
    10030    2    1    2    0    0  0.00000000000E+00  0.00000000000E+00  0.71512849970E+03  0.99954013404E+03  0.69833495435E+03 0.  0.
        3    1    3    3  502    0 -0.15686525183E+03 -0.23989073294E+03  0.72147435067E+02  0.29556646219E+03  0.10100000352E+00 0. -1.
       -3    1    3    3    0  502  0.15686525183E+03  0.23989073294E+03  0.64298106464E+03  0.70397367185E+03  0.10100000352E+00 0.  1.
</event>
<event>
 5   0  0.7570633E-04  0.6998230E+03  0.7818609E-02  0.9717535E-01
        1   -1    0    0  501    0  0.00000000000E+00  0.00000000000E+00  0.33412621333E+03  0.33412621336E+03  0.50400001928E-02 0. -1.
       -1   -1    0    0    0  501  0.00000000000E+00  0.00000000000E+00 -0.36644255392E+03  0.36644255396E+03  0.50400001928E-02 0.  1.
    10030    2    1    2    0    0  0.00000000000E+00  0.00000000000E+00 -0.32316340596E+02  0.70056876732E+03  0.69982301468E+03 0.  0.
        5    1    3    3  502    0  0.13637429596E+03  0.18615761204E+01 -0.33870418668E+03  0.36516301858E+03  0.46999998093E+01 0.  1.
       -5    1    3    3    0  502 -0.13637429596E+03 -0.18615761204E+01  0.30638784608E+03  0.33540574874E+03  0.46999998093E+01 0. -1.
</event>
<event>
 5   0  0.1224048E-03  0.7022540E+03  0.7818609E-02  0.9713385E-01
       -2   -1    0    0    0  501  0.00000000000E+00  0.00000000000E+00  0.19695307124E+03  0.19695307125E+03  0.25500000920E-02 0. -1.
        2   -1    0    0  501    0  0.00000000000E+00  0.00000000000E+00 -0.62598754810E+03  0.62598754810E+03  0.25500000920E-02 0.  1.
    10030    2    1    2    0    0  0.00000000000E+00  0.00000000000E+00 -0.42903447686E+03  0.82294061936E+03  0.70225400010E+03 0.  0.
        3    1    3    3  502    0  0.75610240660E+02  0.26755525337E+03  0.36783569284E+02  0.28045634824E+03  0.10100000352E+00 0. -1.
       -3    1    3    3    0  502 -0.75610240660E+02 -0.26755525337E+03 -0.46581804614E+03  0.54248427112E+03  0.10100000352E+00 0.  1.
</event>
<event>
 5   0  0.7013526E-04  0.7002759E+03  0.7818609E-02  0.9716760E-01
       -1   -1    0    0    0  501  0.00000000000E+00  0.00000000000E+00  0.11544593165E+03  0.11544593176E+03  0.50400001928E-02 0. -1.
        1   -1    0    0  501    0  0.00000000000E+00  0.00000000000E+00 -0.10619394070E+04  0.10619394070E+04  0.50400001928E-02 0.  1.
    10030    2    1    2    0    0  0.00000000000E+00  0.00000000000E+00 -0.94649347534E+03  0.11773853388E+04  0.70027590069E+03 0.  0.
        1    1    3    3  502    0  0.81462041275E+02  0.32917161839E+02 -0.10431038180E+04  0.10467975826E+04  0.50400001928E-02 0.  1.
       -1    1    3    3    0  502 -0.81462041275E+02 -0.32917161839E+02  0.96610342711E+02  0.13058775615E+03  0.50400001928E-02 0. -1.
</event>
<event>
 5   0  0.7570633E-04  0.7002346E+03  0.7818609E-02  0.9716831E-01
        1   -1    0    0  501    0  0.00000000000E+00  0.00000000000E+00  0.72024329299E+03  0.72024329301E+03  0.50400001928E-02 0. -1.
       -1   -1    0    0    0  501  0.00000000000E+00  0.00000000000E+00 -0.17019541743E+03  0.17019541751E+03  0.50400001928E-02 0.  1.
    10030    2    1    2    0    0  0.00000000000E+00  0.00000000000E+00  0.55004787556E+03  0.89043871052E+03  0.70023455483E+03 0.  0.
        5    1    3    3  502    0 -0.22062538187E+03 -0.12321034689E+03  0.58312494456E+03  0.63554161128E+03  0.46999998093E+01 0. -1.
       -5    1    3    3    0  502  0.22062538187E+03  0.12321034689E+03 -0.33077069000E+02  0.25489709923E+03  0.46999998093E+01 0.  1.
</event>
<event>
 5   0  0.1282546E-03  0.7005094E+03  0.7818609E-02  0.9716361E-01
        2   -1    0    0  501    0  0.00000000000E+00  0.00000000000E+00  0.18571427028E+04  0.18571427028E+04  0.25500000920E-02 0. -1.
       -2   -1    0    0    0  501  0.00000000000E+00  0.00000000000E+00 -0.66057583896E+02  0.66057583946E+02  0.25500000920E-02 0.  1.
    10030    2    1    2    0    0  0.00000000000E+00  0.00000000000E+00  0.17910851189E+04  0.19232002867E+04  0.70050941449E+03 0.  0.
        5    1    3    3  502    0  0.22073497670E+03 -0.18046448655E+03  0.33716677464E+03  0.44158225141E+03  0.46999998093E+01 0.  1.
       -5    1    3    3    0  502 -0.22073497670E+03  0.18046448655E+03  0.14539183443E+04  0.14816180353E+04  0.46999998093E+01 0. -1.
</event>
<event>
 5   0  0.7013526E-04  0.7002493E+03  0.7818609E-02  0.9716806E-01
        1   -1    0    0  501    0  0.00000000000E+00  0.00000000000E+00  0.53070398117E+03  0.53070398119E+03  0.50400001928E-02 0.  1.
       -1   -1    0    0    0  501  0.00000000000E+00  0.00000000000E+00 -0.23098995141E+03  0.23098995147E+03  0.50400001928E-02 0. -1.
    10030    2    1    2    0    0  0.00000000000E+00  0.00000000000E+00  0.29971402975E+03  0.76169393266E+03  0.70024934660E+03 0.  0.
        1    1    3    3  502    0  0.17938995072E+03 -0.10382707607E+02 -0.17700812784E+03  0.25223091084E+03  0.50400001928E-02 0. -1.
       -1    1    3    3    0  502 -0.17938995072E+03  0.10382707607E+02  0.47672215759E+03  0.50946302182E+03  0.50400001928E-02 0.  1.
</event>
<event>
 5   0  0.7459843E-04  0.6995803E+03  0.7818609E-02  0.9717950E-01
       -1   -1    0    0    0  501  0.00000000000E+00  0.00000000000E+00  0.94507155463E+03  0.94507155464E+03  0.50400001928E-02 0. -1.
        1   -1    0    0  501    0  0.00000000000E+00  0.00000000000E+00 -0.12946442278E+03  0.12946442288E+03  0.50400001928E-02 0.  1.
    10030    2    1    2    0    0  0.00000000000E+00  0.00000000000E+00  0.81560713185E+03  0.10745359775E+04  0.69958028378E+03 0.  0.
        2    1    3    3  502    0  0.13597282611E+03  0.10541797219E+03 -0.59979041003E+02  0.18220604728E+03  0.25500000920E-02 0.  1.
       -2    1    3    3    0  502 -0.13597282611E+03 -0.10541797219E+03  0.87558617285E+03  0.89232993023E+03  0.25500000920E-02 0. -1.
</event>
<event>
 5   0  0.1222679E-03  0.7001735E+03  0.7818609E-02  0.9716936E-01
       -2   -1    0    0    0  501  0.00000000000E+00  0.00000000000E+00  0.13387269914E+03  0.13387269916E+03  0.25500000920E-02 0. -1.
        2   -1    0    0  501    0  0.00000000000E+00  0.00000000000E+00 -0.91550208552E+03  0.91550208553E+03  0.25500000920E-02 0.  1.
    10030    2    1    2    0    0  0.00000000000E+00  0.00000000000E+00 -0.78162938638E+03  0.10493747847E+04  0.70017350784E+03 0.  0.
        2    1    3    3  502    0  0.32133304873E+03 -0.91084032515E+02 -0.54807128810E+03  0.64182035339E+03  0.25500000920E-02 0.  1.
       -2    1    3    3    0  502 -0.32133304873E+03  0.91084032515E+02 -0.23355809829E+03  0.40755443129E+03  0.25500000920E-02 0. -1.
</event>
<event>
 5   0  0.1222679E-03  0.6983491E+03  0.7818609E-02  0.9720060E-01
        2   -1    0    0  501    0  0.00000000000E+00  0.00000000000E+00  0.11295259854E+04  0.11295259854E+04  0.25500000920E-02 0.  1.
       -2   -1    0    0    0  501  0.00000000000E+00  0.00000000000E+00 -0.10794161740E+03  0.10794161743E+03  0.25500000920E-02 0. -1.
    10030    2    1    2    0    0  0.00000000000E+00  0.00000000000E+00  0.10215843680E+04  0.12374676028E+04  0.69834908686E+03 0.  0.
        2    1    3    3  502    0 -0.26391260552E+03  0.22251084668E+03  0.60391732331E+03  0.69561273252E+03  0.25500000920E-02 0. -1.
       -2    1    3    3    0  502  0.26391260552E+03 -0.22251084668E+03  0.41766704465E+03  0.54185487027E+03  0.25500000920E-02 0.  1.
</event>
<event>
 5   0  0.1243087E-03  0.7001018E+03  0.7818609E-02  0.9717058E-01
        2   -1    0    0  501    0  0.00000000000E+00  0.00000000000E+00  0.16185164707E+04  0.16185164707E+04  0.25500000920E-02 0. -1.
       -2   -1    0    0    0  501  0.00000000000E+00  0.00000000000E+00 -0.75708601003E+02  0.75708601046E+02  0.25500000920E-02 0.  1.
    10030    2    1    2    0    0  0.00000000000E+00  0.00000000000E+00  0.15428078697E+04  0.16942250717E+04  0.70010175755E+03 0.  0.
        4    1    3    3  502    0 -0.97669592575E+02 -0.68144901259E+02 -0.25170297918E+02  0.12173016750E+03  0.12699999809E+01 0.  1.
       -4    1    3    3    0  502  0.97669592575E+02  0.68144901259E+02  0.15679781676E+04  0.15724949042E+04  0.12699999809E+01 0. -1.
</event>
<event>
 5   0  0.1265562E-03  0.6998751E+03  0.7818609E-02  0.9717446E-01
        2   -1    0    0  501    0  0.00000000000E+00  0.00000000000E+00  0.22143111789E+03  0.22143111791E+03  0.25500000920E-02 0.  1.
       -2   -1    0    0    0  501  0.00000000000E+00  0.00000000000E+00 -0.55302198374E+03  0.55302198375E+03  0.25500000920E-02 0. -1.
    10030    2    1    2    0    0  0.00000000000E+00  0.00000000000E+00 -0.33159086585E+03  0.77445310166E+03  0.69987506339E+03 0.  0.
        1    1    3    3  502    0  0.10217074869E+03  0.26545875253E+03 -0.39135187246E+03  0.48380109475E+03  0.50400001928E-02 0. -1.
       -1    1    3    3    0  502 -0.10217074869E+03 -0.26545875253E+03  0.59761006603E+02  0.29065200691E+03  0.50400001928E-02 0.  1.
</event>
<event>
 5   0  0.4936000E-04  0.6999987E+03  0.7818609E-02  0.9717234E-01
       -4   -1    0    0    0  501  0.00000000000E+00  0.00000000000E+00  0.41429757616E+03  0.41429952270E+03  0.12699999809E+01 0.  1.
        4   -1    0    0  501    0  0.00000000000E+00  0.00000000000E+00 -0.29567610152E+03  0.29567882898E+03  0.12699999809E+01 0. -1.
    10030    2    1    2    0    0  0.00000000000E+00  0.00000000000E+00  0.11862147464E+03  0.70997835168E+03  0.69999871829E+03 0.  0.
        4    1    3    3  502    0 -0.69226200987E+02 -0.34107311044E+03  0.96917712437E+02  0.36127245875E+03  0.12699999809E+01 0.  1.
       -4    1    3    3    0  502  0.69226200987E+02  0.34107311044E+03  0.21703762201E+02  0.34870589293E+03  0.12699999809E+01 0. -1.
</event>
<event>
 5   0  0.1222679E-03  0.7002532E+03  0.7818609E-02  0.9716799E-01
       -2   -1    0    0    0  501  0.00000000000E+00  0.00000000000E+00  0.10997171894E+03  0.10997171897E+03  0.25500000920E-02 0. -1.
        2   -1    0    0  501    0  0.00000000000E+00  0.00000000000E+00 -0.11147286341E+04  0.11147286341E+04  0.25500000920E-02 0.  1.
    10030    2    1    2    0    0  0.00000000000E+00  0.00000000000E+00 -0.10047569152E+04  0.12247003531E+04  0.70025316584E+03 0.  0.
        2    1    3    3  502    0  0.30903190165E+03  0.61066981979E+02 -0.76967872288E+03  0.83164609599E+03  0.25500000920E-02 0. -1.
       -2    1    3    3    0  502 -0.30903190165E+03 -0.61066981979E+02 -0.23507819232E+03  0.39305425711E+03  0.25500000920E-02 0.  1.
</event>
<event>
 5   0  0.1224048E-03  0.7005425E+03  0.7818609E-02  0.9716305E-01
       -2   -1    0    0    0  501  0.00000000000E+00  0.00000000000E+00  0.41814792920E+03  0.41814792921E+03  0.25500000920E-02 0. -1.
        2   -1    0    0  501    0  0.00000000000E+00  0.00000000000E+00 -0.29341276394E+03  0.29341276395E+03  0.25500000920E-02 0.  1.
    10030    2    1    2    0    0  0.00000000000E+00  0.00000000000E+00  0.12473516526E+03  0.71156069316E+03  0.70054247452E+03 0.  0.
        3    1    3    3  502    0  0.25232515947E+03  0.10644361786E+03  0.28418665110E+03  0.39466478529E+03  0.10100000352E+00 0. -1.
       -3    1    3    3    0  502 -0.25232515947E+03 -0.10644361786E+03 -0.15945148584E+03  0.31689590787E+03  0.10100000352E+00 0.  1.
</event>
<event>
 5   0  0.7570633E-04  0.7003482E+03  0.7818609E-02  0.9716637E-01
       -1   -1    0    0    0  501  0.00000000000E+00  0.00000000000E+00  0.10239531374E+03  0.10239531386E+03  0.50400001928E-02 0.  1.
        1   -1    0    0  501    0  0.00000000000E+00  0.00000000000E+00 -0.11975343123E+04  0.11975343124E+04  0.50400001928E-02 0. -1.
    10030    2    1    2    0    0  0.00000000000E+00  0.00000000000E+00 -0.10951389986E+04  0.12999296262E+04  0.70034820400E+03 0.  0.
        5    1    3    3  502    0 -0.16664260243E+03  0.69095107887E+02 -0.11045781731E+04  0.11192224628E+04  0.46999998093E+01 0. -1.
       -5    1    3    3    0  502  0.16664260243E+03 -0.69095107887E+02  0.94391744835E+01  0.18070716337E+03  0.46999998093E+01 0.  1.
</event>
<event>
 5   0  0.7570633E-04  0.7001210E+03  0.7818609E-02  0.9717025E-01
        1   -1    0    0  501    0  0.00000000000E+00  0.00000000000E+00  0.11964507789E+04  0.11964507789E+04  0.50400001928E-02 0. -1.
       -1   -1    0    0    0  501  0.00000000000E+00  0.00000000000E+00 -0.10242155400E+03  0.10242155413E+03  0.50400001928E-02 0.  1.
    10030    2    1    2    0    0  0.00000000000E+00  0.00000000000E+00  0.10940292249E+04  0.12988723330E+04  0.70012098426E+03 0.  0.
        5    1    3    3  502    0  0.96975289466E+02 -0.75269818193E+02  0.11551462581E+04  0.11616603290E+04  0.46999998093E+01 0. -1.
       -5    1    3    3    0  502 -0.96975289466E+02  0.75269818193E+02 -0.61117033247E+02  0.13721200403E+03  0.46999998093E+01 0.  1.
</event>
<event>
 5   0  0.7574241E-04  0.7007211E+03  0.7818609E-02  0.9716000E-01
        1   -1    0    0  501    0  0.00000000000E+00  0.00000000000E+00  0.48855787059E+03  0.48855787062E+03  0.50400001928E-02 0.  1.
       -1   -1    0    0    0  501  0.00000000000E+00  0.00000000000E+00 -0.25125483455E+03  0.25125483460E+03  0.50400001928E-02 0. -1.
    10030    2    1    2    0    0  0.00000000000E+00  0.00000000000E+00  0.23730303604E+03  0.73981270521E+03  0.70072113418E+03 0.  0.
        3    1    3    3  502    0  0.10949744933E+03  0.13105986276E+03  0.44163650165E+03  0.47350732711E+03  0.10100000352E+00 0.  1.
       -3    1    3    3    0  502 -0.10949744933E+03 -0.13105986276E+03 -0.20433346561E+03  0.26630537810E+03  0.10100000352E+00 0. -1.
</event>
<event>
 5   0  0.4936000E-04  0.7000001E+03  0.7818609E-02  0.9717232E-01
        3   -1    0    0  501    0  0.00000000000E+00  0.00000000000E+00  0.11855237273E+03  0.11855241575E+03  0.10100000352E+00 0.  1.
       -3   -1    0    0    0  501  0.00000000000E+00  0.00000000000E+00 -0.10332987634E+04  0.10332987684E+04  0.10100000352E+00 0. -1.
    10030    2    1    2    0    0  0.00000000000E+00  0.00000000000E+00 -0.91474639071E+03  0.11518511841E+04  0.70000013646E+03 0.  0.
        5    1    3    3  502    0  0.25637812367E+03 -0.23672929370E+03 -0.50114034482E+03  0.61068341716E+03  0.46999998093E+01 0. -1.
       -5    1    3    3    0  502 -0.25637812367E+03  0.23672929370E+03 -0.41360604589E+03  0.54116776695E+03  0.46999998093E+01 0.  1.
</event>
<event>
 5   0  0.1282546E-03  0.6999700E+03  0.7818609E-02  0.9717284E-01
        2   -1    0    0  501    0  0.00000000000E+00  0.00000000000E+00  0.50848102246E+03  0.50848102246E+03  0.25500000920E-02 0.  1.
       -2   -1    0    0    0  501  0.00000000000E+00  0.00000000000E+00 -0.24089294514E+03  0.24089294516E+03  0.25500000920E-02 0. -1.
    10030    2    1    2    0    0  0.00000000000E+00  0.00000000000E+00  0.26758807732E+03  0.74937396762E+03  0.69996997380E+03 0.  0.
        5    1    3    3  502    0 -0.94163333188E+02  0.19999866125E+03 -0.15664945261E+03  0.27097479370E+03  0.46999998093E+01 0. -1.
       -5    1    3    3    0  502  0.94163333188E+02 -0.19999866125E+03  0.42423752992E+03  0.47839917392E+03  0.46999998093E+01 0.  1.
</event>
<event>
 5   0  0.7572415E-04  0.6992874E+03  0.7818609E-02  0.9718452E-01
       -1   -1    0    0    0  501  0.00000000000E+00  0.00000000000E+00  0.13603625557E+03  0.13603625567E+03  0.50400001928E-02 0. -1.
        1   -1    0    0  501    0  0.00000000000E+00  0.00000000000E+00 -0.89866279401E+03  0.89866279402E+03  0.50400001928E-02 0.  1.
    10030    2    1    2    0    0  0.00000000000E+00  0.00000000000E+00 -0.76262653843E+03  0.10346990497E+04  0.69928741323E+03 0.  0.
        4    1    3    3  502    0  0.36831284959E+02 -0.21591898767E+03  0.21932296050E+02  0.22013675590E+03  0.12699999809E+01 0. -1.
       -4    1    3    3    0  502 -0.36831284959E+02  0.21591898767E+03 -0.78455883448E+03  0.81456229378E+03  0.12699999809E+01 0.  1.
</event>
<event>
 5   0  0.1265562E-03  0.6999598E+03  0.7818609E-02  0.9717301E-01
       -2   -1    0    0    0  501  0.00000000000E+00  0.00000000000E+00  0.33981267948E+03  0.33981267948E+03  0.25500000920E-02 0.  1.
        2   -1    0    0  501    0  0.00000000000E+00  0.00000000000E+00 -0.36045129144E+03  0.36045129145E+03  0.25500000920E-02 0. -1.
    10030    2    1    2    0    0  0.00000000000E+00  0.00000000000E+00 -0.20638611962E+02  0.70026397093E+03  0.69995976790E+03 0.  0.
        1    1    3    3  502    0  0.26562065381E+03 -0.65376361282E+02 -0.22872020293E+03  0.35656883150E+03  0.50400001928E-02 0. -1.
       -1    1    3    3    0  502 -0.26562065381E+03  0.65376361282E+02  0.20808159097E+03  0.34369513943E+03  0.50400001928E-02 0.  1.
</event>
<event>
 5   0  0.4936000E-04  0.6993586E+03  0.7818609E-02  0.9718330E-01
        3   -1    0    0  501    0  0.00000000000E+00  0.00000000000E+00  0.54658357913E+03  0.54658358846E+03  0.10100000352E+00 0.  1.
       -3   -1    0    0    0  501  0.00000000000E+00  0.00000000000E+00 -0.22370887716E+03  0.22370889996E+03  0.10100000352E+00 0. -1.
    10030    2    1    2    0    0  0.00000000000E+00  0.00000000000E+00  0.32287470197E+03  0.77029248841E+03  0.69935859510E+03 0.  0.
        4    1    3    3  502    0  0.16910044171E+03 -0.10714697756E+03  0.47721970763E+03  0.51750912691E+03  0.12699999809E+01 0.  1.
       -4    1    3    3    0  502 -0.16910044171E+03  0.10714697756E+03 -0.15434500565E+03  0.25278336151E+03  0.12699999809E+01 0. -1.
</event>
<event>
 5   0  0.1222679E-03  0.6995858E+03  0.7818609E-02  0.9717941E-01
       -2   -1    0    0    0  501  0.00000000000E+00  0.00000000000E+00  0.77796902479E+02  0.77796902521E+02  0.25500000920E-02 0. -1.
        2   -1    0    0  501    0  0.00000000000E+00  0.00000000000E+00 -0.15727497304E+04  0.15727497304E+04  0.25500000920E-02 0.  1.
    10030    2    1    2    0    0  0.00000000000E+00  0.00000000000E+00 -0.14949528279E+04  0.16505466329E+04  0.69958575582E+03 0.  0.
        2    1    3    3  502    0  0.28084070169E+03 -0.14075551509E+03 -0.11104702114E+04  0.11540483981E+04  0.25500000920E-02 0.  1.
       -2    1    3    3    0  502 -0.28084070169E+03  0.14075551509E+03 -0.38448261647E+03  0.49649823477E+03  0.25500000920E-02 0. -1.
</event>
<event>
 5   0  0.7570633E-04  0.7024468E+03  0.7818609E-02  0.9713057E-01
       -1   -1    0    0    0  501  0.00000000000E+00  0.00000000000E+00  0.11699844871E+03  0.11699844882E+03  0.50400001928E-02 0.  1.
        1   -1    0    0  501    0  0.00000000000E+00  0.00000000000E+00 -0.10543548703E+04  0.10543548703E+04  0.50400001928E-02 0. -1.
    10030    2    1    2    0    0  0.00000000000E+00  0.00000000000E+00 -0.93735642158E+03  0.11713533191E+04  0.70244682157E+03 0.  0.
        5    1    3    3  502    0  0.12695365213E+03  0.22829577258E+03 -0.77253082691E+02  0.27244507400E+03  0.46999998093E+01 0.  1.
       -5    1    3    3    0  502 -0.12695365213E+03 -0.22829577258E+03 -0.86010333889E+03  0.89890824511E+03  0.46999998093E+01 0. -1.
</event>
<event>
 5   0  0.1243087E-03  0.7002590E+03  0.7818609E-02  0.9716789E-01
        2   -1    0    0  501    0  0.00000000000E+00  0.00000000000E+00  0.39429552911E+03  0.39429552912E+03  0.25500000920E-02 0.  1.
       -2   -1    0    0    0  501  0.00000000000E+00  0.00000000000E+00 -0.31091064898E+03  0.31091064899E+03  0.25500000920E-02 0. -1.
    10030    2    1    2    0    0  0.00000000000E+00  0.00000000000E+00  0.83384880127E+02  0.70520617811E+03  0.70025903451E+03 0.  0.
        4    1    3    3  502    0  0.33967259635E+03  0.21135208889E+02  0.12452249623E+03  0.36239706778E+03  0.12699999809E+01 0.  1.
       -4    1    3    3    0  502 -0.33967259635E+03 -0.21135208889E+02 -0.41137616102E+02  0.34280911033E+03  0.12699999809E+01 0. -1.
</event>
<event>
 5   0  0.1282546E-03  0.6996151E+03  0.7818609E-02  0.9717891E-01
       -2   -1    0    0    0  501  0.00000000000E+00  0.00000000000E+00  0.33466940998E+03  0.33466940999E+03  0.25500000920E-02 0.  1.
        2   -1    0    0  501    0  0.00000000000E+00  0.00000000000E+00 -0.36563040207E+03  0.36563040208E+03  0.25500000920E-02 0. -1.
    10030    2    1    2    0    0  0.00000000000E+00  0.00000000000E+00 -0.30960992091E+02  0.70029981206E+03  0.69961506826E+03 0.  0.
        5    1    3    3  502    0 -0.19781832818E+03  0.28042060304E+03 -0.83188516725E+02  0.35314334892E+03  0.46999998093E+01 0.  1.
       -5    1    3    3    0  502  0.19781832818E+03 -0.28042060304E+03  0.52227524634E+02  0.34715646314E+03  0.46999998093E+01 0. -1.
</event>
<event>
 5   0  0.7572415E-04  0.7003148E+03  0.7818609E-02  0.9716694E-01
       -1   -1    0    0    0  501  0.00000000000E+00  0.00000000000E+00  0.31471605386E+03  0.31471605390E+03  0.50400001928E-02 0.  1.
        1   -1    0    0  501    0  0.00000000000E+00  0.00000000000E+00 -0.38958988660E+03  0.38958988664E+03  0.50400001928E-02 0. -1.
    10030    2    1    2    0    0  0.00000000000E+00  0.00000000000E+00 -0.74873832746E+02  0.70430594053E+03  0.70031476283E+03 0.  0.
        4    1    3    3  502    0  0.32593048051E+03  0.73858926423E+02  0.67670717642E+02  0.34097911675E+03  0.12699999809E+01 0.  1.
       -4    1    3    3    0  502 -0.32593048051E+03 -0.73858926423E+02 -0.14254455039E+03  0.36332682378E+03  0.12699999809E+01 0. -1.
</event>
<event>
 5   0  0.1224048E-03  0.6998339E+03  0.7818609E-02  0.9717516E-01
        2   -1    0    0  501    0  0.00000000000E+00  0.00000000000E+00  0.44788040433E+03  0.44788040434E+03  0.25500000920E-02 0.  1.
       -2   -1    0    0    0  501  0.00000000000E+00  0.00000000000E+00 -0.27338070653E+03  0.27338070654E+03  0.25500000920E-02 0. -1.
    10030    2    1    2    0    0  0.00000000000E+00  0.00000000000E+00  0.17449969781E+03  0.72126111088E+03  0.69983386996E+03 0.  0.
        3    1    3    3  502    0 -0.84874893682E+02 -0.19034227543E+03  0.37693943173E+03  0.43071716333E+03  0.10100000352E+00 0.  1.
       -3    1    3    3    0  502  0.84874893682E+02  0.19034227543E+03 -0.20243973392E+03  0.29054394756E+03  0.10100000352E+00 0. -1.
</event>
<event>
 5   0  0.7570633E-04  0.7018313E+03  0.7818609E-02  0.9714105E-01
        1   -1    0    0  501    0  0.00000000000E+00  0.00000000000E+00  0.19067422125E+04  0.19067422126E+04  0.50400001928E-02 0. -1.
       -1   -1    0    0    0  501  0.00000000000E+00  0.00000000000E+00 -0.64582305610E+02  0.64582305807E+02  0.50400001928E-02 0.  1.
    10030    2    1    2    0    0  0.00000000000E+00  0.00000000000E+00  0.18421599069E+04  0.19713245184E+04  0.70183134296E+03 0.  0.
        5    1    3    3  502    0 -0.29267044057E+03  0.72630925870E+02  0.41714370252E+03  0.51474478796E+03  0.46999998093E+01 0.  1.
       -5    1    3    3    0  502  0.29267044057E+03 -0.72630925870E+02  0.14250162044E+04  0.14565797304E+04  0.46999998093E+01 0. -1.
</event>
<event>
 5   0  0.7013526E-04  0.6999668E+03  0.7818609E-02  0.9717289E-01
        1   -1    0    0  501    0  0.00000000000E+00  0.00000000000E+00  0.77035921150E+03  0.77035921152E+03  0.50400001928E-02 0.  1.
       -1   -1    0    0    0  501  0.00000000000E+00  0.00000000000E+00 -0.15900165709E+03  0.15900165717E+03  0.50400001928E-02 0. -1.
    10030    2    1    2    0    0  0.00000000000E+00  0.00000000000E+00  0.61135755441E+03  0.92936086869E+03  0.69996683130E+03 0.  0.
        1    1    3    3  502    0 -0.20283620061E+02  0.23025254191E+03 -0.43238530555E+02  0.23515362818E+03  0.50400001928E-02 0. -1.
       -1    1    3    3    0  502  0.20283620061E+02 -0.23025254191E+03  0.65459608496E+03  0.69420724051E+03  0.50400001928E-02 0.  1.
</event>
<event>
 5   0  0.7574241E-04  0.7002780E+03  0.7818609E-02  0.9716757E-01
        1   -1    0    0  501    0  0.00000000000E+00  0.00000000000E+00  0.27408886117E+03  0.27408886122E+03  0.50400001928E-02 0.  1.
       -1   -1    0    0    0  501  0.00000000000E+00  0.00000000000E+00 -0.44729041435E+03  0.44729041438E+03  0.50400001928E-02 0. -1.
    10030    2    1    2    0    0  0.00000000000E+00  0.00000000000E+00 -0.17320155318E+03  0.72137927560E+03  0.70027800283E+03 0.  0.
        3    1    3    3  502    0  0.30556981628E+03 -0.22136004284E+02  0.88019311997E+02  0.31876374447E+03  0.10100000352E+00 0.  1.
       -3    1    3    3    0  502 -0.30556981628E+03  0.22136004284E+02 -0.26122086518E+03  0.40261553113E+03  0.10100000352E+00 0. -1.
</event>
<event>
 5   0  0.7572415E-04  0.7000626E+03  0.7818609E-02  0.9717125E-01
        1   -1    0    0  501    0  0.00000000000E+00  0.00000000000E+00  0.66306122835E+02  0.66306123027E+02  0.50400001928E-02 0.  1.
       -1   -1    0    0    0  501  0.00000000000E+00  0.00000000000E+00 -0.18478221744E+04  0.18478221744E+04  0.50400001928E-02 0. -1.
    10030    2    1    2    0    0  0.00000000000E+00  0.00000000000E+00 -0.17815160516E+04  0.19141282974E+04  0.70006263795E+03 0.  0.
        4    1    3    3  502    0 -0.23796371850E+03 -0.20253759530E+03 -0.13219695841E+04  0.13584010464E+04  0.12699999809E+01 0.  1.
       -4    1    3    3    0  502  0.23796371850E+03  0.20253759530E+03 -0.45954646753E+03  0.55572725104E+03  0.12699999809E+01 0. -1.
</event>
<event>
 5   0  0.1224048E-03  0.6999070E+03  0.7818609E-02  0.9717391E-01
        2   -1    0    0  501    0  0.00000000000E+00  0.00000000000E+00  0.10958681468E+04  0.10958681468E+04  0.25500000920E-02 0. -1.
       -2   -1    0    0    0  501  0.00000000000E+00  0.00000000000E+00 -0.11175382383E+03  0.11175382386E+03  0.25500000920E-02 0.  1.
    10030    2    1    2    0    0  0.00000000000E+00  0.00000000000E+00  0.98411432301E+03  0.12076219707E+04  0.69990701053E+03 0.  0.
        3    1    3    3  502    0  0.12666838374E+03  0.31995842258E+03  0.38226435585E+03  0.51433872066E+03  0.10100000352E+00 0.  1.
       -3    1    3    3    0  502 -0.12666838374E+03 -0.31995842258E+03  0.60184996716E+03  0.69328325005E+03  0.10100000352E+00 0. -1.
</event>
<event>
 5   0  0.7570633E-04  0.6998819E+03  0.7818609E-02  0.9717434E-01
       -1   -1    0    0    0  501  0.00000000000E+00  0.00000000000E+00  0.37320115825E+03  0.37320115828E+03  0.50400001928E-02 0.  1.
        1   -1    0    0  501    0  0.00000000000E+00  0.00000000000E+00 -0.32813048526E+03  0.32813048529E+03  0.50400001928E-02 0. -1.
    10030    2    1    2    0    0  0.00000000000E+00  0.00000000000E+00  0.45070672989E+02  0.70133164357E+03  0.69988192484E+03 0.  0.
        5    1    3    3  502    0  0.31824130512E+03 -0.17353802745E+02 -0.12218647614E+03  0.34136535809E+03  0.46999998093E+01 0. -1.
       -5    1    3    3    0  502 -0.31824130512E+03  0.17353802745E+02  0.16725714913E+03  0.35996628549E+03  0.46999998093E+01 0.  1.
</event>
<event>
 5   0  0.1224048E-03  0.6998091E+03  0.7818609E-02  0.9717559E-01
        2   -1    0    0  501    0  0.00000000000E+00  0.00000000000E+00  0.44098563116E+03  0.44098563117E+03  0.25500000920E-02 0. -1.
       -2   -1    0    0    0  501  0.00000000000E+00  0.00000000000E+00 -0.27763531885E+03  0.27763531886E+03  0.25500000920E-02 0.  1.
    10030    2    1    2    0    0  0.00000000000E+00  0.00000000000E+00  0.16335031231E+03  0.71862095003E+03  0.69980907775E+03 0.  0.
        3    1    3    3  502    0  0.11664264016E+03 -0.64607080175E+01  0.42036850369E+03  0.43629913516E+03  0.10100000352E+00 0. -1.
       -3    1    3    3    0  502 -0.11664264016E+03  0.64607080175E+01 -0.25701819138E+03  0.28232181487E+03  0.10100000352E+00 0.  1.
</event>
<event>
 5   0  0.1282546E-03  0.6997427E+03  0.7818609E-02  0.9717672E-01
        2   -1    0    0  501    0  0.00000000000E+00  0.00000000000E+00  0.46143861751E+03  0.46143861752E+03  0.25500000920E-02 0. -1.
       -2   -1    0    0    0  501  0.00000000000E+00  0.00000000000E+00 -0.26527897958E+03  0.26527897959E+03  0.25500000920E-02 0.  1.
    10030    2    1    2    0    0  0.00000000000E+00  0.00000000000E+00  0.19615963793E+03  0.72671759711E+03  0.69974271157E+03 0.  0.
        5    1    3    3  502    0 -0.24024116573E+03 -0.19404394787E+02 -0.16526069225E+03  0.29227646955E+03  0.46999998093E+01 0.  1.
       -5    1    3    3    0  502  0.24024116573E+03  0.19404394787E+02  0.36142033018E+03  0.43444112756E+03  0.46999998093E+01 0. -1.
</event>
<event>
 5   0  0.7459843E-04  0.7001147E+03  0.7818609E-02  0.9717036E-01
        1   -1    0    0  501    0  0.00000000000E+00  0.00000000000E+00  0.11929343515E+03  0.11929343526E+03  0.50400001928E-02 0. -1.
       -1   -1    0    0    0  501  0.00000000000E+00  0.00000000000E+00 -0.10272160599E+04  0.10272160599E+04  0.50400001928E-02 0.  1.
    10030    2    1    2    0    0  0.00000000000E+00  0.00000000000E+00 -0.90792262478E+03  0.11465094952E+04  0.70011465490E+03 0.  0.
        2    1    3    3  502    0 -0.32882947296E+03 -0.92112362698E+02 -0.58003142266E+03  0.67308986097E+03  0.25500000920E-02 0.  1.
       -2    1    3    3    0  502  0.32882947296E+03  0.92112362698E+02 -0.32789120212E+03  0.47341963424E+03  0.25500000920E-02 0. -1.
</event>
<event>
 5   0  0.7572415E-04  0.6997736E+03  0.7818609E-02  0.9717619E-01
       -1   -1    0    0    0  501  0.00000000000E+00  0.00000000000E+00  0.60075177090E+03  0.60075177092E+03  0.50400001928E-02 0. -1.
        1   -1    0    0  501    0  0.00000000000E+00  0.00000000000E+00 -0.20377931260E+03  0.20377931267E+03  0.50400001928E-02 0.  1.
    10030    2    1    2    0    0  0.00000000000E+00  0.00000000000E+00  0.39697245830E+03  0.80453108359E+03  0.69977362898E+03 0.  0.
        4    1    3    3  502    0 -0.25490114776E+03 -0.78478286238E+02 -0.61879333561E+02  0.27379572926E+03  0.12699999809E+01 0.  1.
       -4    1    3    3    0  502  0.25490114776E+03  0.78478286238E+02  0.45885179186E+03  0.53073535433E+03  0.12699999809E+01 0. -1.
</event>
<event>
 5   0  0.1222679E-03  0.6994632E+03  0.7818609E-02  0.9718151E-01
        2   -1    0    0  501    0  0.00000000000E+00  0.00000000000E+00  0.40201637518E+03  0.40201637519E+03  0.25500000920E-02 0.  1.
       -2   -1    0    0    0  501  0.00000000000E+00  0.00000000000E+00 -0.30424681515E+03  0.30424681516E+03  0.25500000920E-02 0. -1.
    10030    2    1    2    0    0  0.00000000000E+00  0.00000000000E+00  0.97769560038E+02  0.70626319035E+03  0.69946322789E+03 0.  0.
        2    1    3    3  502    0 -0.15390730496E+03  0.24310706252E+03 -0.15185362913E+03  0.32534293761E+03  0.25500000920E-02 0. -1.
       -2    1    3    3    0  502  0.15390730496E+03 -0.24310706252E+03  0.24962318917E+03  0.38092025274E+03  0.25500000920E-02 0.  1.
</event>
<event>
 5   0  0.1224048E-03  0.7003578E+03  0.7818609E-02  0.9716620E-01
       -2   -1    0    0    0  501  0.00000000000E+00  0.00000000000E+00  0.12278116448E+03  0.12278116451E+03  0.25500000920E-02 0. -1.
        2   -1    0    0  501    0  0.00000000000E+00  0.00000000000E+00 -0.99873030790E+03  0.99873030790E+03  0.25500000920E-02 0.  1.
    10030    2    1    2    0    0  0.00000000000E+00  0.00000000000E+00 -0.87594914342E+03  0.11215114724E+04  0.70035782346E+03 0.  0.
        3    1    3    3  502    0 -0.80882508161E+02 -0.25189167476E+03 -0.80535529383E+03  0.84769602773E+03  0.10100000352E+00 0.  1.
       -3    1    3    3    0  502  0.80882508161E+02  0.25189167476E+03 -0.70593849590E+02  0.27381544467E+03  0.10100000352E+00 0. -1.
</event>
<event>
 5   0  0.7013526E-04  0.6990268E+03  0.7818609E-02  0.9718898E-01
       -1   -1    0    0    0  501  0.00000000000E+00  0.00000000000E+00  0.14461147152E+03  0.14461147161E+03  0.50400001928E-02 0. -1.
        1   -1    0    0  501    0  0.00000000000E+00  0.00000000000E+00 -0.84474367888E+03  0.84474367889E+03  0.50400001928E-02 0.  1.
    10030    2    1    2    0    0  0.00000000000E+00  0.00000000000E+00 -0.70013220736E+03  0.98935515050E+03  0.69902682784E+03 0.  0.
        1    1    3    3  502    0  0.26808124664E+03 -0.92138759964E+02 -0.60692035423E+02  0.28989761827E+03  0.50400001928E-02 0. -1.
       -1    1    3    3    0  502 -0.26808124664E+03  0.92138759964E+02 -0.63944017194E+03  0.69945753223E+03  0.50400001928E-02 0.  1.
</event>
<event>
 5   0  0.1282546E-03  0.7032827E+03  0.7818609E-02  0.9711635E-01
        2   -1    0    0  501    0  0.00000000000E+00  0.00000000000E+00  0.62651552967E+03  0.62651552968E+03  0.25500000920E-02 0.  1.
       -2   -1    0    0    0  501  0.00000000000E+00  0.00000000000E+00 -0.19736404468E+03  0.19736404470E+03  0.25500000920E-02 0. -1.
    10030    2    1    2    0    0  0.00000000000E+00  0.00000000000E+00  0.42915148499E+03  0.82387957437E+03  0.70328269991E+03 0.  0.
        5    1    3    3  502    0 -0.30688380665E+03 -0.11198925345E+03  0.62237384747E+02  0.33258810220E+03  0.46999998093E+01 0.  1.
       -5    1    3    3    0  502  0.30688380665E+03  0.11198925345E+03  0.36691410025E+03  0.49129147217E+03  0.46999998093E+01 0. -1.
</event>
<event>
 5   0  0.7572415E-04  0.6993843E+03  0.7818609E-02  0.9718286E-01
        1   -1    0    0  501    0  0.00000000000E+00  0.00000000000E+00  0.77240366740E+03  0.77240366741E+03  0.50400001928E-02 0. -1.
       -1   -1    0    0    0  501  0.00000000000E+00  0.00000000000E+00 -0.15831693920E+03  0.15831693928E+03  0.50400001928E-02 0.  1.
    10030    2    1    2    0    0  0.00000000000E+00  0.00000000000E+00  0.61408672820E+03  0.93072060670E+03  0.69938425632E+03 0.  0.
        4    1    3    3  502    0  0.22315305899E+03  0.26280638548E+03  0.38485068877E+03  0.51669734810E+03  0.12699999809E+01 0. -1.
       -4    1    3    3    0  502 -0.22315305899E+03 -0.26280638548E+03  0.22923603943E+03  0.41402325860E+03  0.12699999809E+01 0.  1.
</event>
<event>
 5   0  0.7570633E-04  0.6998139E+03  0.7818609E-02  0.9717550E-01
        1   -1    0    0  501    0  0.00000000000E+00  0.00000000000E+00  0.40302618208E+03  0.40302618211E+03  0.50400001928E-02 0. -1.
       -1   -1    0    0    0  501  0.00000000000E+00  0.00000000000E+00 -0.30378892404E+03  0.30378892408E+03  0.50400001928E-02 0.  1.
    10030    2    1    2    0    0  0.00000000000E+00  0.00000000000E+00  0.99237258037E+02  0.70681510619E+03  0.69981394739E+03 0.  0.
        5    1    3    3  502    0  0.23261138654E+03  0.17517897008E+03  0.24551018708E+03  0.38091084345E+03  0.46999998093E+01 0. -1.
       -5    1    3    3    0  502 -0.23261138654E+03 -0.17517897008E+03 -0.14627292904E+03  0.32590426274E+03  0.46999998093E+01 0.  1.
</event>
<event>
 5   0  0.1222679E-03  0.6997078E+03  0.7818609E-02  0.9717732E-01
       -2   -1    0    0    0  501  0.00000000000E+00  0.00000000000E+00  0.17097897172E+03  0.17097897174E+03  0.25500000920E-02 0.  1.
        2   -1    0    0  501    0  0.00000000000E+00  0.00000000000E+00 -0.71586436370E+03  0.71586436370E+03  0.25500000920E-02 0. -1.
    10030    2    1    2    0    0  0.00000000000E+00  0.00000000000E+00 -0.54488539198E+03  0.88684333545E+03  0.69970780418E+03 0.  0.
        2    1    3    3  502    0  0.16807360263E+01  0.15317231667E+03  0.12621591554E+03  0.19848184000E+03  0.25500000920E-02 0.  1.
       -2    1    3    3    0  502 -0.16807360263E+01 -0.15317231667E+03 -0.67110130751E+03  0.68836149545E+03  0.25500000920E-02 0. -1.
</event>
<event>
 5   0  0.7013526E-04  0.7002002E+03  0.7818609E-02  0.9716890E-01
        1   -1    0    0  501    0  0.00000000000E+00  0.00000000000E+00  0.38055712662E+03  0.38055712666E+03  0.50400001928E-02 0. -1.
       -1   -1    0    0    0  501  0.00000000000E+00  0.00000000000E+00 -0.32208063743E+03  0.32208063747E+03  0.50400001928E-02 0.  1.
    10030    2    1    2    0    0  0.00000000000E+00  0.00000000000E+00  0.58476489195E+02  0.70263776413E+03  0.70020020550E+03 0.  0.
        1    1    3    3  502    0 -0.31750237644E+03  0.13439716324E+03 -0.31798870525E+02  0.34623911496E+03  0.50400001928E-02 0.  1.
       -1    1    3    3    0  502  0.31750237644E+03 -0.13439716324E+03  0.90275359719E+02  0.35639864917E+03  0.50400001928E-02 0. -1.
</event>
<event>
 5   0  0.7459843E-04  0.7012807E+03  0.7818609E-02  0.9715045E-01
       -1   -1    0    0    0  501  0.00000000000E+00  0.00000000000E+00  0.26176655505E+03  0.26176655510E+03  0.50400001928E-02 0.  1.
        1   -1    0    0  501    0  0.00000000000E+00  0.00000000000E+00 -0.46968811999E+03  0.46968812002E+03  0.50400001928E-02 0. -1.
    10030    2    1    2    0    0  0.00000000000E+00  0.00000000000E+00 -0.20792156494E+03  0.73145467512E+03  0.70128066035E+03 0.  0.
        2    1    3    3  502    0 -0.22304660839E+03 -0.67395266603E+02  0.16933763328E+03  0.28804018040E+03  0.25500000920E-02 0.  1.
       -2    1    3    3    0  502  0.22304660839E+03  0.67395266603E+02 -0.37725919822E+03  0.44341449472E+03  0.25500000920E-02 0. -1.
</event>
<event>
 5   0  0.1282546E-03  0.6999142E+03  0.7818609E-02  0.9717379E-01
        2   -1    0    0  501    0  0.00000000000E+00  0.00000000000E+00  0.28145623742E+04  0.28145623742E+04  0.25500000920E-02 0. -1.
       -2   -1    0    0    0  501  0.00000000000E+00  0.00000000000E+00 -0.43512965254E+02  0.43512965329E+02  0.25500000920E-02 0.  1.
    10030    2    1    2    0    0  0.00000000000E+00  0.00000000000E+00  0.27710494090E+04  0.28580753396E+04  0.69991415160E+03 0.  0.
        5    1    3    3  502    0 -0.20507281281E+03  0.35669349884E+02  0.23691106515E+03  0.31539832572E+03  0.46999998093E+01 0.  1.
       -5    1    3    3    0  502  0.20507281281E+03 -0.35669349884E+02  0.25341383438E+04  0.25426770138E+04  0.46999998093E+01 0. -1.
</event>
<event>
 5   0  0.1243087E-03  0.6989472E+03  0.7818609E-02  0.9719034E-01
       -2   -1    0    0    0  501  0.00000000000E+00  0.00000000000E+00  0.13232955113E+03  0.13232955116E+03  0.25500000920E-02 0.  1.
        2   -1    0    0  501    0  0.00000000000E+00  0.00000000000E+00 -0.92293658803E+03  0.92293658804E+03  0.25500000920E-02 0. -1.
    10030    2    1    2    0    0  0.00000000000E+00  0.00000000000E+00 -0.79060703690E+03  0.10552661392E+04  0.69894716376E+03 0.  0.
        4    1    3    3  502    0 -0.32046229929E+03  0.12163692946E+03 -0.49813082978E+03  0.60467145158E+03  0.12699999809E+01 0. -1.
       -4    1    3    3    0  502  0.32046229929E+03 -0.12163692946E+03 -0.29247620712E+03  0.45059468761E+03  0.12699999809E+01 0.  1.
</event>
<event>
 5   0  0.7459843E-04  0.7005845E+03  0.7818609E-02  0.9716233E-01
        1   -1    0    0  501    0  0.00000000000E+00  0.00000000000E+00  0.47099216491E+03  0.47099216494E+03  0.50400001928E-02 0.  1.
       -1   -1    0    0    0  501  0.00000000000E+00  0.00000000000E+00 -0.26052380799E+03  0.26052380804E+03  0.50400001928E-02 0. -1.
    10030    2    1    2    0    0  0.00000000000E+00  0.00000000000E+00  0.21046835692E+03  0.73151597298E+03  0.70058453413E+03 0.  0.
        2    1    3    3  502    0 -0.25746713660E+03  0.39241196793E+02  0.34983190254E+03  0.43613250051E+03  0.25500000920E-02 0.  1.
       -2    1    3    3    0  502  0.25746713660E+03 -0.39241196793E+02 -0.13936354563E+03  0.29538347247E+03  0.25500000920E-02 0. -1.
</event>
<event>
 5   0  0.7574241E-04  0.7000657E+03  0.7818609E-02  0.9717120E-01
       -1   -1    0    0    0  501  0.00000000000E+00  0.00000000000E+00  0.12114847698E+03  0.12114847709E+03  0.50400001928E-02 0.  1.
        1   -1    0    0  501    0  0.00000000000E+00  0.00000000000E+00 -0.10113458022E+04  0.10113458022E+04  0.50400001928E-02 0. -1.
    10030    2    1    2    0    0  0.00000000000E+00  0.00000000000E+00 -0.89019732523E+03  0.11324942793E+04  0.70006572179E+03 0.  0.
        3    1    3    3  502    0  0.10992140896E+03 -0.22994595150E+03 -0.56968875578E+02  0.26115765304E+03  0.10100000352E+00 0.  1.
       -3    1    3    3    0  502 -0.10992140896E+03  0.22994595150E+03 -0.83322844966E+03  0.87133662627E+03  0.10100000352E+00 0. -1.
</event>
<event>
 5   0  0.7459843E-04  0.6997571E+03  0.7818609E-02  0.9717648E-01
        1   -1    0    0  501    0  0.00000000000E+00  0.00000000000E+00  0.94343567442E+03  0.94343567444E+03  0.50400001928E-02 0. -1.
       -1   -1    0    0    0  501  0.00000000000E+00  0.00000000000E+00 -0.12975445993E+03  0.12975446003E+03  0.50400001928E-02 0.  1.
    10030    2    1    2    0    0  0.00000000000E+00  0.00000000000E+00  0.81368121450E+03  0.10731901345E+04  0.69975706205E+03 0.  0.
        2    1    3    3  502    0 -0.30162693617E+03  0.40105245118E+01  0.67869297401E+03  0.74271060710E+03  0.25500000920E-02 0. -1.
       -2    1    3    3    0  502  0.30162693617E+03 -0.40105245118E+01  0.13498824049E+03  0.33047952736E+03  0.25500000920E-02 0.  1.
</event>
<event>
 5   0  0.1224048E-03  0.7003383E+03  0.7818609E-02  0.9716654E-01
       -2   -1    0    0    0  501  0.00000000000E+00  0.00000000000E+00  0.85058510226E+02  0.85058510264E+02  0.25500000920E-02 0.  1.
        2   -1    0    0  501    0  0.00000000000E+00  0.00000000000E+00 -0.14415775968E+04  0.14415775968E+04  0.25500000920E-02 0. -1.
    10030    2    1    2    0    0  0.00000000000E+00  0.00000000000E+00 -0.13565190865E+04  0.15266361070E+04  0.70033832620E+03 0.  0.
        3    1    3    3  502    0  0.18625897136E+03 -0.36816544154E+02 -0.36883439461E+02  0.19341215226E+03  0.10100000352E+00 0.  1.
       -3    1    3    3    0  502 -0.18625897136E+03  0.36816544154E+02 -0.13196356471E+04  0.13332239548E+04  0.10100000352E+00 0. -1.
</event>
<event>
 5   0  0.7570633E-04  0.6999382E+03  0.7818609E-02  0.9717338E-01
        1   -1    0    0  501    0  0.00000000000E+00  0.00000000000E+00  0.14526283260E+03  0.14526283269E+03  0.50400001928E-02 0.  1.
       -1   -1    0    0    0  501  0.00000000000E+00  0.00000000000E+00 -0.84315012420E+03  0.84315012421E+03  0.50400001928E-02 0. -1.
    10030    2    1    2    0    0  0.00000000000E+00  0.00000000000E+00 -0.69788729159E+03  0.98841295690E+03  0.69993821270E+03 0.  0.
        5    1    3    3  502    0 -0.17129976859E+02 -0.21176695156E+03  0.43717499630E+02  0.21696079750E+03  0.46999998093E+01 0.  1.
       -5    1    3    3    0  502  0.17129976859E+02  0.21176695156E+03 -0.74160479122E+03  0.77145215940E+03  0.46999998093E+01 0. -1.
</event>
<event>
 5   0  0.7572415E-04  0.6999282E+03  0.7818609E-02  0.9717355E-01
       -1   -1    0    0    0  501  0.00000000000E+00  0.00000000000E+00  0.19817911202E+03  0.19817911208E+03  0.50400001928E-02 0. -1.
        1   -1    0    0  501    0  0.00000000000E+00  0.00000000000E+00 -0.61800099041E+03  0.61800099043E+03  0.50400001928E-02 0.  1.
    10030    2    1    2    0    0  0.00000000000E+00  0.00000000000E+00 -0.41982187839E+03  0.81618010251E+03  0.69992824644E+03 0.  0.
        4    1    3    3  502    0 -0.34380959224E+03  0.37418201148E+02 -0.14746115738E+03  0.37596750303E+03  0.12699999809E+01 0. -1.
       -4    1    3    3    0  502  0.34380959224E+03 -0.37418201148E+02 -0.27236072101E+03  0.44021259948E+03  0.12699999809E+01 0.  1.
</event>
<event>
 5   0  0.7013526E-04  0.6999935E+03  0.7818609E-02  0.9717243E-01
        1   -1    0    0  501    0  0.00000000000E+00  0.00000000000E+00  0.66998888093E+03  0.66998888095E+03  0.50400001928E-02 0. -1.
       -1   -1    0    0    0  501  0.00000000000E+00  0.00000000000E+00 -0.18283545886E+03  0.18283545893E+03  0.50400001928E-02 0.  1.
    10030    2    1    2    0    0  0.00000000000E+00  0.00000000000E+00  0.48715342207E+03  0.85282433988E+03  0.69999349857E+03 0.  0.
        1    1    3    3  502    0 -0.52975556973E+01 -0.29771214872E+03  0.19466118115E+02  0.29839490172E+03  0.50400001928E-02 0.  1.
       -1    1    3    3    0  502  0.52975556973E+01  0.29771214872E+03  0.46768730396E+03  0.55442943816E+03  0.50400001928E-02 0. -1.
</event>
<event>
 5   0  0.1265562E-03  0.6999803E+03  0.7818609E-02  0.9717266E-01
        2   -1    0    0  501    0  0.00000000000E+00  0.00000000000E+00  0.28017246837E+03  0.28017246838E+03  0.25500000920E-02 0.  1.
       -2   -1    0    0    0  501  0.00000000000E+00  0.00000000000E+00 -0.43720608378E+03  0.43720608378E+03  0.25500000920E-02 0. -1.
    10030    2    1    2    0    0  0.00000000000E+00  0.00000000000E+00 -0.15703361541E+03  0.71737855216E+03  0.69998030739E+03 0.  0.
        1    1    3    3  502    0 -0.19405446727E+02 -0.13987828313E+03 -0.40671159098E+03  0.43053086267E+03  0.50400001928E-02 0. -1.
       -1    1    3    3    0  502  0.19405446727E+02  0.13987828313E+03  0.24967797557E+03  0.28684768949E+03  0.50400001928E-02 0.  1.
</event>
<event>
 5   0  0.7013526E-04  0.7000418E+03  0.7818609E-02  0.9717161E-01
       -1   -1    0    0    0  501  0.00000000000E+00  0.00000000000E+00  0.81852350871E+02  0.81852351026E+02  0.50400001928E-02 0.  1.
        1   -1    0    0  501    0  0.00000000000E+00  0.00000000000E+00 -0.14967758409E+04  0.14967758409E+04  0.50400001928E-02 0. -1.
    10030    2    1    2    0    0  0.00000000000E+00  0.00000000000E+00 -0.14149234900E+04  0.15786281919E+04  0.70004177427E+03 0.  0.
        1    1    3    3  502    0 -0.28079692772E+03  0.10917496869E+03 -0.30565453183E+03  0.42917453473E+03  0.50400001928E-02 0.  1.
       -1    1    3    3    0  502  0.28079692772E+03 -0.10917496869E+03 -0.11092689582E+04  0.11494536572E+04  0.50400001928E-02 0. -1.
</event>
<event>
 5   0  0.1224048E-03  0.7003741E+03  0.7818609E-02  0.9716593E-01
       -2   -1    0    0    0  501  0.00000000000E+00  0.00000000000E+00  0.60761978923E+02  0.60761978977E+02  0.25500000920E-02 0.  1.
        2   -1    0    0  501    0  0.00000000000E+00  0.00000000000E+00 -0.20182189023E+04  0.20182189023E+04  0.25500000920E-02 0. -1.
    10030    2    1    2    0    0  0.00000000000E+00  0.00000000000E+00 -0.19574569234E+04  0.20789808813E+04  0.70037411277E+03 0.  0.
        3    1    3    3  502    0 -0.30726464295E+03  0.11959622105E+03 -0.13288992547E+04  0.13691924832E+04  0.10100000352E+00 0. -1.
       -3    1    3    3    0  502  0.30726464295E+03 -0.11959622105E+03 -0.62855766869E+03  0.70978839802E+03  0.10100000352E+00 0.  1.
</event>
<event>
 5   0  0.1224048E-03  0.6992721E+03  0.7818609E-02  0.9718478E-01
       -2   -1    0    0    0  501  0.00000000000E+00  0.00000000000E+00  0.30843993301E+03  0.30843993302E+03  0.25500000920E-02 0.  1.
        2   -1    0    0  501    0  0.00000000000E+00  0.00000000000E+00 -0.39633444741E+03  0.39633444742E+03  0.25500000920E-02 0. -1.
    10030    2    1    2    0    0  0.00000000000E+00  0.00000000000E+00 -0.87894514401E+02  0.70477438043E+03  0.69927210845E+03 0.  0.
        3    1    3    3  502    0  0.26027194389E+03  0.10445130962E+03  0.16648691354E+03  0.32614331733E+03  0.10100000352E+00 0.  1.
       -3    1    3    3    0  502 -0.26027194389E+03 -0.10445130962E+03 -0.25438142795E+03  0.37863106310E+03  0.10100000352E+00 0. -1.
</event>
<event>
 5   0  0.1243087E-03  0.7001407E+03  0.7818609E-02  0.9716992E-01
       -2   -1    0    0    0  501  0.00000000000E+00  0.00000000000E+00  0.18762030825E+03  0.18762030827E+03  0.25500000920E-02 0. -1.
        2   -1    0    0  501    0  0.00000000000E+00  0.00000000000E+00 -0.65317686564E+03  0.65317686565E+03  0.25500000920E-02 0.  1.
    10030    2    1    2    0    0  0.00000000000E+00  0.00000000000E+00 -0.46555655739E+03  0.84079717392E+03  0.70014068553E+03 0.  0.
        4    1    3    3  502    0  0.23145450970E+03 -0.22782066069E+03 -0.38969743468E+03  0.50728606032E+03  0.12699999809E+01 0.  1.
       -4    1    3    3    0  502 -0.23145450970E+03  0.22782066069E+03 -0.75859122712E+02  0.33351111360E+03  0.12699999809E+01 0. -1.
</event>
<event>
 5   0  0.7574241E-04  0.7021997E+03  0.7818609E-02  0.9713478E-01
       -1   -1    0    0    0  501  0.00000000000E+00  0.00000000000E+00  0.45257913720E+03  0.45257913723E+03  0.50400001928E-02 0. -1.
        1   -1    0    0  501    0  0.00000000000E+00  0.00000000000E+00 -0.27237467120E+03  0.27237467125E+03  0.50400001928E-02 0.  1.
    10030    2    1    2    0    0  0.00000000000E+00  0.00000000000E+00  0.18020446599E+03  0.72495380848E+03  0.70219966880E+03 0.  0.
        3    1    3    3  502    0  0.20201408272E+02  0.24648412199E+03  0.34739374567E+03  0.42643281302E+03  0.10100000352E+00 0. -1.
       -3    1    3    3    0  502 -0.20201408272E+02 -0.24648412199E+03 -0.16718927968E+03  0.29852099546E+03  0.10100000352E+00 0.  1.
</event>
<event>
 5   0  0.1243087E-03  0.6998582E+03  0.7818609E-02  0.9717475E-01
       -2   -1    0    0    0  501  0.00000000000E+00  0.00000000000E+00  0.15569227915E+03  0.15569227917E+03  0.25500000920E-02 0.  1.
        2   -1    0    0  501    0  0.00000000000E+00  0.00000000000E+00 -0.78648963078E+03  0.78648963078E+03  0.25500000920E-02 0. -1.
    10030    2    1    2    0    0  0.00000000000E+00  0.00000000000E+00 -0.63079735163E+03  0.94218190995E+03  0.69985816606E+03 0.  0.
        4    1    3    3  502    0 -0.13160574363E+03  0.28078775588E+03 -0.53366892011E+03  0.61722440393E+03  0.12699999809E+01 0. -1.
       -4    1    3    3    0  502  0.13160574363E+03 -0.28078775588E+03 -0.97128431519E+02  0.32495750602E+03  0.12699999809E+01 0.  1.
</event>
<event>
 5   0  0.7570633E-04  0.6988074E+03  0.7818609E-02  0.9719274E-01
        1   -1    0    0  501    0  0.00000000000E+00  0.00000000000E+00  0.52326560509E+03  0.52326560512E+03  0.50400001928E-02 0. -1.
       -1   -1    0    0    0  501  0.00000000000E+00  0.00000000000E+00 -0.23330968188E+03  0.23330968194E+03  0.50400001928E-02 0.  1.
    10030    2    1    2    0    0  0.00000000000E+00  0.00000000000E+00  0.28995592321E+03  0.75657528706E+03  0.69880736085E+03 0.  0.
        5    1    3    3  502    0  0.13485434903E+03 -0.58612220172E+02 -0.19814319781E+03  0.24678716466E+03  0.46999998093E+01 0.  1.
       -5    1    3    3    0  502 -0.13485434903E+03  0.58612220172E+02  0.48809912101E+03  0.50978812240E+03  0.46999998093E+01 0. -1.
</event>
<event>
 5   0  0.1265562E-03  0.7023596E+03  0.7818609E-02  0.9713205E-01
        2   -1    0    0  501    0  0.00000000000E+00  0.00000000000E+00  0.60794949984E+03  0.60794949985E+03  0.25500000920E-02 0.  1.
       -2   -1    0    0    0  501  0.00000000000E+00  0.00000000000E+00 -0.20285773178E+03  0.20285773179E+03  0.25500000920E-02 0. -1.
    10030    2    1    2    0    0  0.00000000000E+00  0.00000000000E+00  0.40509176807E+03  0.81080723164E+03  0.70235961325E+03 0.  0.
        1    1    3    3  502    0 -0.13384991448E+02  0.29648581325E+03 -0.14175760468E+02  0.29712614773E+03  0.50400001928E-02 0. -1.
       -1    1    3    3    0  502  0.13384991448E+02 -0.29648581325E+03  0.41926752853E+03  0.51368108391E+03  0.50400001928E-02 0.  1.
</event>
<event>
 5   0  0.7459843E-04  0.7000995E+03  0.7818609E-02  0.9717062E-01
       -1   -1    0    0    0  501  0.00000000000E+00  0.00000000000E+00  0.82217183071E+02  0.82217183226E+02  0.50400001928E-02 0. -1.
        1   -1    0    0  501    0  0.00000000000E+00  0.00000000000E+00 -0.14903799357E+04  0.14903799357E+04  0.50400001928E-02 0.  1.
    10030    2    1    2    0    0  0.00000000000E+00  0.00000000000E+00 -0.14081627526E+04  0.15725971189E+04  0.70009953620E+03 0.  0.
        2    1    3    3  502    0  0.12245058814E+03 -0.19453370662E+03 -0.11106626781E+03  0.25529047259E+03  0.25500000920E-02 0. -1.
       -2    1    3    3    0  502 -0.12245058814E+03  0.19453370662E+03 -0.12970964848E+04  0.13173066463E+04  0.25500000920E-02 0.  1.
</event>
<event>
 5   0  0.1282546E-03  0.7002302E+03  0.7818609E-02  0.9716839E-01
       -2   -1    0    0    0  501  0.00000000000E+00  0.00000000000E+00  0.13899625074E+03  0.13899625076E+03  0.25500000920E-02 0.  1.
        2   -1    0    0  501    0  0.00000000000E+00  0.00000000000E+00 -0.88189838170E+03  0.88189838170E+03  0.25500000920E-02 0. -1.
    10030    2    1    2    0    0  0.00000000000E+00  0.00000000000E+00 -0.74290213096E+03  0.10208946325E+04  0.70023015817E+03 0.  0.
        5    1    3    3  502    0  0.17438727385E+03 -0.29855643283E+03 -0.29144189943E+03  0.45222487283E+03  0.46999998093E+01 0. -1.
       -5    1    3    3    0  502 -0.17438727385E+03  0.29855643283E+03 -0.45146023153E+03  0.56866975963E+03  0.46999998093E+01 0.  1.
</event>
<event>
 5   0  0.7574241E-04  0.6996181E+03  0.7818609E-02  0.9717886E-01
       -1   -1    0    0    0  501  0.00000000000E+00  0.00000000000E+00  0.33834202541E+03  0.33834202544E+03  0.50400001928E-02 0. -1.
        1   -1    0    0  501    0  0.00000000000E+00  0.00000000000E+00 -0.36166468346E+03  0.36166468350E+03  0.50400001928E-02 0.  1.
    10030    2    1    2    0    0  0.00000000000E+00  0.00000000000E+00 -0.23322658055E+02  0.70000670894E+03  0.69961807165E+03 0.  0.
        3    1    3    3  502    0  0.11238160870E+03  0.33126463056E+03 -0.12347207791E+02  0.35002620642E+03  0.10100000352E+00 0. -1.
       -3    1    3    3    0  502 -0.11238160870E+03 -0.33126463056E+03 -0.10975450263E+02  0.34998050252E+03  0.10100000352E+00 0.  1.
</event>
<event>
 5   0  0.7013526E-04  0.7000756E+03  0.7818609E-02  0.9717103E-01
        1   -1    0    0  501    0  0.00000000000E+00  0.00000000000E+00  0.66762130643E+03  0.66762130645E+03  0.50400001928E-02 0.  1.
       -1   -1    0    0    0  501  0.00000000000E+00  0.00000000000E+00 -0.18352690831E+03  0.18352690837E+03  0.50400001928E-02 0. -1.
    10030    2    1    2    0    0  0.00000000000E+00  0.00000000000E+00  0.48409439812E+03  0.85114821482E+03  0.70007563684E+03 0.  0.
        1    1    3    3  502    0 -0.32374955523E+03 -0.64636234468E+02  0.38349202449E+03  0.50602149183E+03  0.50400001928E-02 0.  1.
       -1    1    3    3    0  502  0.32374955523E+03  0.64636234468E+02  0.10060237363E+03  0.34512672299E+03  0.50400001928E-02 0. -1.
</event>
<event>
 5   0  0.4936000E-04  0.6996331E+03  0.7818609E-02  0.9717860E-01
       -3   -1    0    0    0  501  0.00000000000E+00  0.00000000000E+00  0.45960185776E+03  0.45960186885E+03  0.10100000352E+00 0.  1.
        3   -1    0    0  501    0  0.00000000000E+00  0.00000000000E+00 -0.26625571471E+03  0.26625573386E+03  0.10100000352E+00 0. -1.
    10030    2    1    2    0    0  0.00000000000E+00  0.00000000000E+00  0.19334614305E+03  0.72585760271E+03  0.69963313843E+03 0.  0.
        5    1    3    3  502    0  0.24012085469E+03 -0.11919540549E+03 -0.13643527248E+03  0.30083590730E+03  0.46999998093E+01 0. -1.
       -5    1    3    3    0  502 -0.24012085469E+03  0.11919540549E+03  0.32978141553E+03  0.42502169541E+03  0.46999998093E+01 0.  1.
</event>
<event>
 5   0  0.7570633E-04  0.7003953E+03  0.7818609E-02  0.9716556E-01
       -1   -1    0    0    0  501  0.00000000000E+00  0.00000000000E+00  0.36064688028E+03  0.36064688031E+03  0.50400001928E-02 0.  1.
        1   -1    0    0  501    0  0.00000000000E+00  0.00000000000E+00 -0.34005116079E+03  0.34005116083E+03  0.50400001928E-02 0. -1.
    10030    2    1    2    0    0  0.00000000000E+00  0.00000000000E+00  0.20595719487E+02  0.70069804114E+03  0.70039528924E+03 0.  0.
        5    1    3    3  502    0 -0.17243680606E+03  0.18904997091E+03  0.24944502697E+03  0.35737830806E+03  0.46999998093E+01 0.  1.
       -5    1    3    3    0  502  0.17243680606E+03 -0.18904997091E+03 -0.22884930749E+03  0.34331973308E+03  0.46999998093E+01 0. -1.
</event>
<event>
 5   0  0.7013526E-04  0.7003632E+03  0.7818609E-02  0.9716611E-01
        1   -1    0    0  501    0  0.00000000000E+00  0.00000000000E+00  0.66886656395E+03  0.66886656397E+03  0.50400001928E-02 0. -1.
       -1   -1    0    0    0  501  0.00000000000E+00  0.00000000000E+00 -0.18333576027E+03  0.18333576034E+03  0.50400001928E-02 0.  1.
    10030    2    1    2    0    0  0.00000000000E+00  0.00000000000E+00  0.48553080368E+03  0.85220232430E+03  0.70036322021E+03 0.  0.
        1    1    3    3  502    0 -0.24151048459E+03 -0.23775365780E+03  0.13548634459E+03  0.36498036326E+03  0.50400001928E-02 0.  1.
       -1    1    3    3    0  502  0.24151048459E+03  0.23775365780E+03  0.35004445908E+03  0.48722196105E+03  0.50400001928E-02 0. -1.
</event>
<event>
 5   0  0.7459843E-04  0.7004372E+03  0.7818609E-02  0.9716485E-01
        1   -1    0    0  501    0  0.00000000000E+00  0.00000000000E+00  0.39109065429E+03  0.39109065432E+03  0.50400001928E-02 0. -1.
       -1   -1    0    0    0  501  0.00000000000E+00  0.00000000000E+00 -0.31361796261E+03  0.31361796265E+03  0.50400001928E-02 0.  1.
    10030    2    1    2    0    0  0.00000000000E+00  0.00000000000E+00  0.77472691685E+02  0.70470861697E+03  0.70043716126E+03 0.  0.
        2    1    3    3  502    0  0.19221444058E+03 -0.49430149745E+02 -0.25157718201E+03  0.32043846427E+03  0.25500000920E-02 0.  1.
       -2    1    3    3    0  502 -0.19221444058E+03  0.49430149745E+02  0.32904987369E+03  0.38427015270E+03  0.25500000920E-02 0. -1.
</event>
<event>
 5   0  0.7574241E-04  0.7000886E+03  0.7818609E-02  0.9717081E-01
       -1   -1    0    0    0  501  0.00000000000E+00  0.00000000000E+00  0.18996103351E+03  0.18996103358E+03  0.50400001928E-02 0.  1.
        1   -1    0    0  501    0  0.00000000000E+00  0.00000000000E+00 -0.64503238045E+03  0.64503238047E+03  0.50400001928E-02 0. -1.
    10030    2    1    2    0    0  0.00000000000E+00  0.00000000000E+00 -0.45507134694E+03  0.83499341405E+03  0.70008861632E+03 0.  0.
        3    1    3    3  502    0 -0.45289352015E+02  0.14422478096E+03  0.14902249802E+03  0.21227253230E+03  0.10100000352E+00 0.  1.
       -3    1    3    3    0  502  0.45289352015E+02 -0.14422478096E+03 -0.60409384496E+03  0.62272088175E+03  0.10100000352E+00 0. -1.
</event>
<event>
 5   0  0.1282546E-03  0.7000096E+03  0.7818609E-02  0.9717216E-01
       -2   -1    0    0    0  501  0.00000000000E+00  0.00000000000E+00  0.12645394728E+03  0.12645394731E+03  0.25500000920E-02 0.  1.
        2   -1    0    0  501    0  0.00000000000E+00  0.00000000000E+00 -0.96875866061E+03  0.96875866062E+03  0.25500000920E-02 0. -1.
    10030    2    1    2    0    0  0.00000000000E+00  0.00000000000E+00 -0.84230471333E+03  0.10952126079E+04  0.70000959026E+03 0.  0.
        5    1    3    3  502    0  0.36992408159E+02 -0.26378920617E+03 -0.77630613379E+03  0.82074751715E+03  0.46999998093E+01 0. -1.
       -5    1    3    3    0  502 -0.36992408159E+02  0.26378920617E+03 -0.65998579546E+02  0.27446509078E+03  0.46999998093E+01 0.  1.
</event>
<event>
 5   0  0.7570633E-04  0.7011299E+03  0.7818609E-02  0.9715302E-01
       -1   -1    0    0    0  501  0.00000000000E+00  0.00000000000E+00  0.14586405641E+03  0.14586405650E+03  0.50400001928E-02 0. -1.
        1   -1    0    0  501    0  0.00000000000E+00  0.00000000000E+00 -0.84253639542E+03  0.84253639544E+03  0.50400001928E-02 0.  1.
    10030    2    1    2    0    0  0.00000000000E+00  0.00000000000E+00 -0.69667233901E+03  0.98840045193E+03  0.70112987773E+03 0.  0.
        5    1    3    3  502    0  0.34848463783E+03 -0.37049437974E+02 -0.33746365971E+03  0.48653675635E+03  0.46999998093E+01 0.  1.
       -5    1    3    3    0  502 -0.34848463783E+03  0.37049437974E+02 -0.35920867930E+03  0.50186369558E+03  0.46999998093E+01 0. -1.
</event>
<event>
 5   0  0.1265562E-03  0.7000717E+03  0.7818609E-02  0.9717110E-01
        2   -1    0    0  501    0  0.00000000000E+00  0.00000000000E+00  0.25302421647E+04  0.25302421647E+04  0.25500000920E-02 0. -1.
       -2   -1    0    0    0  501  0.00000000000E+00  0.00000000000E+00 -0.48424254758E+02  0.48424254825E+02  0.25500000920E-02 0.  1.
    10030    2    1    2    0    0  0.00000000000E+00  0.00000000000E+00  0.24818179099E+04  0.25786664195E+04  0.70007168567E+03 0.  0.
        1    1    3    3  502    0  0.19947636855E+03 -0.21057514226E+03  0.51917827952E+03  0.59470900287E+03  0.50400001928E-02 0.  1.
       -1    1    3    3    0  502 -0.19947636855E+03  0.21057514226E+03  0.19626396304E+04  0.19839574166E+04  0.50400001928E-02 0. -1.
</event>
<event>
 5   0  0.7013526E-04  0.7001670E+03  0.7818609E-02  0.9716947E-01
        1   -1    0    0  501    0  0.00000000000E+00  0.00000000000E+00  0.48463166937E+03  0.48463166939E+03  0.50400001928E-02 0. -1.
       -1   -1    0    0    0  501  0.00000000000E+00  0.00000000000E+00 -0.25288990369E+03  0.25288990374E+03  0.50400001928E-02 0.  1.
    10030    2    1    2    0    0  0.00000000000E+00  0.00000000000E+00  0.23174176567E+03  0.73752157314E+03  0.70016699786E+03 0.  0.
        1    1    3    3  502    0 -0.13395647246E+02 -0.12296343293E+03 -0.22910598734E+03  0.26036321296E+03  0.50400001928E-02 0.  1.
       -1    1    3    3    0  502  0.13395647246E+02  0.12296343293E+03  0.46084775301E+03  0.47715836018E+03  0.50400001928E-02 0. -1.
</event>
<event>
 5   0  0.1243087E-03  0.7010658E+03  0.7818609E-02  0.9715411E-01
        2   -1    0    0  501    0  0.00000000000E+00  0.00000000000E+00  0.36268018188E+03  0.36268018189E+03  0.25500000920E-02 0. -1.
       -2   -1    0    0    0  501  0.00000000000E+00  0.00000000000E+00 -0.33879249137E+03  0.33879249138E+03  0.25500000920E-02 0.  1.
    10030    2    1    2    0    0  0.00000000000E+00  0.00000000000E+00  0.23887690505E+02  0.70147267327E+03  0.70106582401E+03 0.  0.
        4    1    3    3  502    0 -0.16987985785E+03 -0.11664275298E+03  0.29566970553E+03  0.36039823196E+03  0.12699999809E+01 0. -1.
       -4    1    3    3    0  502  0.16987985785E+03  0.11664275298E+03 -0.27178201503E+03  0.34107444132E+03  0.12699999809E+01 0.  1.
</event>
<event>
 5   0  0.1224048E-03  0.7006364E+03  0.7818609E-02  0.9716144E-01
       -2   -1    0    0    0  501  0.00000000000E+00  0.00000000000E+00  0.21612850915E+03  0.21612850917E+03  0.25500000920E-02 0. -1.
        2   -1    0    0  501    0  0.00000000000E+00  0.00000000000E+00 -0.56782353605E+03  0.56782353606E+03  0.25500000920E-02 0.  1.
    10030    2    1    2    0    0  0.00000000000E+00  0.00000000000E+00 -0.35169502690E+03  0.78395204522E+03  0.70063643729E+03 0.  0.
        3    1    3    3  502    0  0.11200364297E+03  0.21241901568E+03 -0.46123905030E+03  0.52000781338E+03  0.10100000352E+00 0.  1.
       -3    1    3    3    0  502 -0.11200364297E+03 -0.21241901568E+03  0.10954402340E+03  0.26394423184E+03  0.10100000352E+00 0. -1.
</event>
<event>
 5   0  0.7574241E-04  0.7001407E+03  0.7818609E-02  0.9716992E-01
       -1   -1    0    0    0  501  0.00000000000E+00  0.00000000000E+00  0.25574452718E+03  0.25574452723E+03  0.50400001928E-02 0.  1.
        1   -1    0    0  501    0  0.00000000000E+00  0.00000000000E+00 -0.47918617573E+03  0.47918617576E+03  0.50400001928E-02 0. -1.
    10030    2    1    2    0    0  0.00000000000E+00  0.00000000000E+00 -0.22344164855E+03  0.73493070299E+03  0.70014067721E+03 0.  0.
        3    1    3    3  502    0 -0.14996252245E+03  0.31484457030E+03 -0.79651630458E+02  0.35771532540E+03  0.10100000352E+00 0.  1.
       -3    1    3    3    0  502  0.14996252245E+03 -0.31484457030E+03 -0.14379001809E+03  0.37721537759E+03  0.10100000352E+00 0. -1.
</event>
<event>
 5   0  0.7570633E-04  0.6966758E+03  0.7818609E-02  0.9722934E-01
       -1   -1    0    0    0  501  0.00000000000E+00  0.00000000000E+00  0.13389820954E+03  0.13389820963E+03  0.50400001928E-02 0. -1.
        1   -1    0    0  501    0  0.00000000000E+00  0.00000000000E+00 -0.90620553656E+03  0.90620553658E+03  0.50400001928E-02 0.  1.
    10030    2    1    2    0    0  0.00000000000E+00  0.00000000000E+00 -0.77230732703E+03  0.10401037462E+04  0.69667581808E+03 0.  0.
        5    1    3    3  502    0  0.32624202378E+03  0.11979290725E+03 -0.42062147210E+03  0.54564522493E+03  0.46999998093E+01 0. -1.
       -5    1    3    3    0  502 -0.32624202378E+03 -0.11979290725E+03 -0.35168585493E+03  0.49445852128E+03  0.46999998093E+01 0.  1.
</event>
<event>
 5   0  0.4936000E-04  0.6999042E+03  0.7818609E-02  0.9717396E-01
       -3   -1    0    0    0  501  0.00000000000E+00  0.00000000000E+00  0.26691904419E+03  0.26691906330E+03  0.10100000352E+00 0.  1.
        3   -1    0    0  501    0  0.00000000000E+00  0.00000000000E+00 -0.45881493495E+03  0.45881494607E+03  0.10100000352E+00 0. -1.
    10030    2    1    2    0    0  0.00000000000E+00  0.00000000000E+00 -0.19189589076E+03  0.72573400937E+03  0.69990415020E+03 0.  0.
        2    1    3    3  502    0  0.53862520609E+02 -0.19279879179E+03  0.20168874187E+03  0.28416701752E+03  0.25500000920E-02 0.  1.
       -2    1    3    3    0  502 -0.53862520609E+02  0.19279879179E+03 -0.39358463262E+03  0.44156699185E+03  0.25500000920E-02 0. -1.
</event>
<event>
 5   0  0.7459843E-04  0.7000373E+03  0.7818609E-02  0.9717168E-01
        1   -1    0    0  501    0  0.00000000000E+00  0.00000000000E+00  0.43968606023E+03  0.43968606026E+03  0.50400001928E-02 0.  1.
       -1   -1    0    0    0  501  0.00000000000E+00  0.00000000000E+00 -0.27863759326E+03  0.27863759330E+03  0.50400001928E-02 0. -1.
    10030    2    1    2    0    0  0.00000000000E+00  0.00000000000E+00  0.16104846697E+03  0.71832365356E+03  0.70003732940E+03 0.  0.
        2    1    3    3  502    0  0.32272353695E+03 -0.11472478197E+03  0.15452469173E+03  0.37575276082E+03  0.25500000920E-02 0.  1.
       -2    1    3    3    0  502 -0.32272353695E+03  0.11472478197E+03  0.65237752408E+01  0.34257089274E+03  0.25500000920E-02 0. -1.
</event>
<event>
 5   0  0.1224048E-03  0.6986840E+03  0.7818609E-02  0.9719485E-01
       -2   -1    0    0    0  501  0.00000000000E+00  0.00000000000E+00  0.17718122657E+03  0.17718122658E+03  0.25500000920E-02 0.  1.
        2   -1    0    0  501    0  0.00000000000E+00  0.00000000000E+00 -0.68878536789E+03  0.68878536789E+03  0.25500000920E-02 0. -1.
    10030    2    1    2    0    0  0.00000000000E+00  0.00000000000E+00 -0.51160414132E+03  0.86596659448E+03  0.69868400964E+03 0.  0.
        3    1    3    3  502    0 -0.16314614458E+03 -0.28696719511E+03 -0.39751445624E+03  0.51670551447E+03  0.10100000352E+00 0. -1.
       -3    1    3    3    0  502  0.16314614458E+03  0.28696719511E+03 -0.11408968508E+03  0.34926108000E+03  0.10100000352E+00 0.  1.
</event>
<event>
 5   0  0.1222679E-03  0.7000335E+03  0.7818609E-02  0.9717175E-01
       -2   -1    0    0    0  501  0.00000000000E+00  0.00000000000E+00  0.12548783682E+03  0.12548783685E+03  0.25500000920E-02 0. -1.
        2   -1    0    0  501    0  0.00000000000E+00  0.00000000000E+00 -0.97628375511E+03  0.97628375512E+03  0.25500000920E-02 0.  1.
    10030    2    1    2    0    0  0.00000000000E+00  0.00000000000E+00 -0.85079591829E+03  0.11017715920E+04  0.70003353226E+03 0.  0.
        2    1    3    3  502    0 -0.24422037759E+03  0.75079651924E+02 -0.80191888101E+03  0.84163794989E+03  0.25500000920E-02 0.  1.
       -2    1    3    3    0  502  0.24422037759E+03 -0.75079651924E+02 -0.48877037277E+02  0.26013364208E+03  0.25500000920E-02 0. -1.
</event>
<event>
 5   0  0.1224048E-03  0.6992902E+03  0.7818609E-02  0.9718447E-01
        2   -1    0    0  501    0  0.00000000000E+00  0.00000000000E+00  0.62362632083E+03  0.62362632083E+03  0.25500000920E-02 0. -1.
       -2   -1    0    0    0  501  0.00000000000E+00  0.00000000000E+00 -0.19603359773E+03  0.19603359775E+03  0.25500000920E-02 0.  1.
    10030    2    1    2    0    0  0.00000000000E+00  0.00000000000E+00  0.42759272309E+03  0.81965991858E+03  0.69929024395E+03 0.  0.
        3    1    3    3  502    0  0.11226247918E+03 -0.63720304880E+02  0.59467328643E+03  0.60852236547E+03  0.10100000352E+00 0. -1.
       -3    1    3    3    0  502 -0.11226247918E+03  0.63720304880E+02 -0.16708056334E+03  0.21113755311E+03  0.10100000352E+00 0.  1.
</event>
<event>
 5   0  0.1222679E-03  0.7001058E+03  0.7818609E-02  0.9717051E-01
       -2   -1    0    0    0  501  0.00000000000E+00  0.00000000000E+00  0.77464668800E+02  0.77464668842E+02  0.25500000920E-02 0. -1.
        2   -1    0    0  501    0  0.00000000000E+00  0.00000000000E+00 -0.15818443359E+04  0.15818443359E+04  0.25500000920E-02 0.  1.
    10030    2    1    2    0    0  0.00000000000E+00  0.00000000000E+00 -0.15043796671E+04  0.16593090047E+04  0.70010584232E+03 0.  0.
        2    1    3    3  502    0  0.95466336200E+02 -0.66042247190E+02  0.30517847666E+02  0.12002807502E+03  0.25500000920E-02 0. -1.
       -2    1    3    3    0  502 -0.95466336200E+02  0.66042247190E+02 -0.15348975148E+04  0.15392809297E+04  0.25500000920E-02 0.  1.
</event>
<event>
 5   0  0.1224048E-03  0.6999585E+03  0.7818609E-02  0.9717303E-01
       -2   -1    0    0    0  501  0.00000000000E+00  0.00000000000E+00  0.50454006161E+02  0.50454006226E+02  0.25500000920E-02 0. -1.
        2   -1    0    0  501    0  0.00000000000E+00  0.00000000000E+00 -0.24276663095E+04  0.24276663095E+04  0.25500000920E-02 0.  1.
    10030    2    1    2    0    0  0.00000000000E+00  0.00000000000E+00 -0.23772123034E+04  0.24781203157E+04  0.69995854454E+03 0.  0.
        3    1    3    3  502    0 -0.10197853284E+03 -0.26352586035E+03 -0.45753681642E+03  0.53775965711E+03  0.10100000352E+00 0. -1.
       -3    1    3    3    0  502  0.10197853284E+03  0.26352586035E+03 -0.19196754869E+04  0.19403606586E+04  0.10100000352E+00 0.  1.
</event>
<event>
 5   0  0.1282546E-03  0.6999903E+03  0.7818609E-02  0.9717249E-01
        2   -1    0    0  501    0  0.00000000000E+00  0.00000000000E+00  0.78552651968E+03  0.78552651968E+03  0.25500000920E-02 0.  1.
       -2   -1    0    0    0  501  0.00000000000E+00  0.00000000000E+00 -0.15594204852E+03  0.15594204854E+03  0.25500000920E-02 0. -1.
    10030    2    1    2    0    0  0.00000000000E+00  0.00000000000E+00  0.62958447116E+03  0.94146856822E+03  0.69999032752E+03 0.  0.
        5    1    3    3  502    0  0.15319791179E+03  0.14610469649E+03 -0.60014894302E+02  0.22009102674E+03  0.46999998093E+01 0. -1.
       -5    1    3    3    0  502 -0.15319791179E+03 -0.14610469649E+03  0.68959936546E+03  0.72137754148E+03  0.46999998093E+01 0.  1.
</event>
<event>
 5   0  0.1243087E-03  0.6999486E+03  0.7818609E-02  0.9717320E-01
       -2   -1    0    0    0  501  0.00000000000E+00  0.00000000000E+00  0.82491390276E+02  0.82491390316E+02  0.25500000920E-02 0.  1.
        2   -1    0    0  501    0  0.00000000000E+00  0.00000000000E+00 -0.14847855299E+04  0.14847855299E+04  0.25500000920E-02 0. -1.
    10030    2    1    2    0    0  0.00000000000E+00  0.00000000000E+00 -0.14022941396E+04  0.15672769202E+04  0.69994863427E+03 0.  0.
        4    1    3    3  502    0 -0.30789238817E+03 -0.74668864404E+02 -0.10340724519E+04  0.10815177348E+04  0.12699999809E+01 0. -1.
       -4    1    3    3    0  502  0.30789238817E+03  0.74668864404E+02 -0.36822168768E+03  0.48575918538E+03  0.12699999809E+01 0.  1.
</event>
<event>
 5   0  0.1243087E-03  0.6999566E+03  0.7818609E-02  0.9717306E-01
        2   -1    0    0  501    0  0.00000000000E+00  0.00000000000E+00  0.19744055222E+03  0.19744055223E+03  0.25500000920E-02 0. -1.
       -2   -1    0    0    0  501  0.00000000000E+00  0.00000000000E+00 -0.62036306297E+03  0.62036306298E+03  0.25500000920E-02 0.  1.
    10030    2    1    2    0    0  0.00000000000E+00  0.00000000000E+00 -0.42292251075E+03  0.81780361521E+03  0.69995664362E+03 0.  0.
        4    1    3    3  502    0 -0.32058717840E+02 -0.28652478477E+03  0.20331527341E+02  0.28903148199E+03  0.12699999809E+01 0. -1.
       -4    1    3    3    0  502  0.32058717840E+02  0.28652478477E+03 -0.44325403810E+03  0.52877213322E+03  0.12699999809E+01 0.  1.
</event>
<event>
 5   0  0.7013526E-04  0.6999056E+03  0.7818609E-02  0.9717394E-01
       -1   -1    0    0    0  501  0.00000000000E+00  0.00000000000E+00  0.13296847871E+03  0.13296847880E+03  0.50400001928E-02 0. -1.
        1   -1    0    0  501    0  0.00000000000E+00  0.00000000000E+00 -0.92102263302E+03  0.92102263303E+03  0.50400001928E-02 0.  1.
    10030    2    1    2    0    0  0.00000000000E+00  0.00000000000E+00 -0.78805415431E+03  0.10539911118E+04  0.69990564628E+03 0.  0.
        1    1    3    3  502    0  0.23614347787E+03  0.25825655251E+03 -0.39010323641E+03  0.52406175603E+03  0.50400001928E-02 0.  1.
       -1    1    3    3    0  502 -0.23614347787E+03 -0.25825655251E+03 -0.39795091791E+03  0.52992935581E+03  0.50400001928E-02 0. -1.
</event>
<event>
 5   0  0.1222679E-03  0.6992362E+03  0.7818609E-02  0.9718539E-01
        2   -1    0    0  501    0  0.00000000000E+00  0.00000000000E+00  0.12375491433E+04  0.12375491433E+04  0.25500000920E-02 0. -1.
       -2   -1    0    0    0  501  0.00000000000E+00  0.00000000000E+00 -0.98770075390E+02  0.98770075423E+02  0.25500000920E-02 0.  1.
    10030    2    1    2    0    0  0.00000000000E+00  0.00000000000E+00  0.11387790679E+04  0.13363192187E+04  0.69923621819E+03 0.  0.
        2    1    3    3  502    0  0.25247384559E+03  0.22542531711E+03  0.40198210557E+03  0.52549902903E+03  0.25500000920E-02 0. -1.
       -2    1    3    3    0  502 -0.25247384559E+03 -0.22542531711E+03  0.73679696236E+03  0.81082018972E+03  0.25500000920E-02 0.  1.
</event>
<event>
 5   0  0.7570633E-04  0.6999161E+03  0.7818609E-02  0.9717376E-01
        1   -1    0    0  501    0  0.00000000000E+00  0.00000000000E+00  0.57210720339E+03  0.57210720341E+03  0.50400001928E-02 0.  1.
       -1   -1    0    0    0  501  0.00000000000E+00  0.00000000000E+00 -0.21406940723E+03  0.21406940729E+03  0.50400001928E-02 0. -1.
    10030    2    1    2    0    0  0.00000000000E+00  0.00000000000E+00  0.35803779616E+03  0.78617661071E+03  0.69991613765E+03 0.  0.
        5    1    3    3  502    0 -0.47002302173E+02  0.11872570057E+03  0.54496819714E+03  0.55974765232E+03  0.46999998093E+01 0.  1.
       -5    1    3    3    0  502  0.47002302173E+02 -0.11872570057E+03 -0.18693040099E+03  0.22642895839E+03  0.46999998093E+01 0. -1.
</event>
<event>
 5   0  0.7572415E-04  0.6995647E+03  0.7818609E-02  0.9717977E-01
        1   -1    0    0  501    0  0.00000000000E+00  0.00000000000E+00  0.98362985377E+03  0.98362985378E+03  0.50400001928E-02 0. -1.
       -1   -1    0    0    0  501  0.00000000000E+00  0.00000000000E+00 -0.12438388265E+03  0.12438388275E+03  0.50400001928E-02 0.  1.
    10030    2    1    2    0    0  0.00000000000E+00  0.00000000000E+00  0.85924597112E+03  0.11080137365E+04  0.69956472284E+03 0.  0.
        4    1    3    3  502    0  0.34380936042E+03  0.60461656525E+02  0.46452546203E+03  0.58107315029E+03  0.12699999809E+01 0. -1.
       -4    1    3    3    0  502 -0.34380936042E+03 -0.60461656525E+02  0.39472050909E+03  0.52694058623E+03  0.12699999809E+01 0.  1.
</event>
<event>
 5   0  0.7570633E-04  0.6998580E+03  0.7818609E-02  0.9717475E-01
        1   -1    0    0  501    0  0.00000000000E+00  0.00000000000E+00  0.11022031603E+04  0.11022031603E+04  0.50400001928E-02 0.  1.
       -1   -1    0    0    0  501  0.00000000000E+00  0.00000000000E+00 -0.11109594126E+03  0.11109594137E+03  0.50400001928E-02 0. -1.
    10030    2    1    2    0    0  0.00000000000E+00  0.00000000000E+00  0.99110721901E+03  0.12132991017E+04  0.69985797881E+03 0.  0.
        5    1    3    3  502    0 -0.84500056148E+02 -0.29825695699E+03  0.21424083431E+03  0.37685368111E+03  0.46999998093E+01 0. -1.
       -5    1    3    3    0  502  0.84500056148E+02  0.29825695699E+03  0.77686638470E+03  0.83644542055E+03  0.46999998093E+01 0.  1.
</event>
<event>
 5   0  0.1265562E-03  0.6994567E+03  0.7818609E-02  0.9718162E-01
       -2   -1    0    0    0  501  0.00000000000E+00  0.00000000000E+00  0.50404050195E+03  0.50404050195E+03  0.25500000920E-02 0.  1.
        2   -1    0    0  501    0  0.00000000000E+00  0.00000000000E+00 -0.24265888718E+03  0.24265888719E+03  0.25500000920E-02 0. -1.
    10030    2    1    2    0    0  0.00000000000E+00  0.00000000000E+00  0.26138161477E+03  0.74669938915E+03  0.69945666715E+03 0.  0.
        1    1    3    3  502    0 -0.21606439951E+03 -0.26656246657E+03  0.20286275943E+03  0.39861343744E+03  0.50400001928E-02 0.  1.
       -1    1    3    3    0  502  0.21606439951E+03  0.26656246657E+03  0.58518855338E+02  0.34808595171E+03  0.50400001928E-02 0. -1.
</event>
<event>
 5   0  0.1224048E-03  0.7007232E+03  0.7818609E-02  0.9715996E-01
        2   -1    0    0  501    0  0.00000000000E+00  0.00000000000E+00  0.11970822649E+04  0.11970822649E+04  0.25500000920E-02 0.  1.
       -2   -1    0    0    0  501  0.00000000000E+00  0.00000000000E+00 -0.10254369752E+03  0.10254369756E+03  0.25500000920E-02 0. -1.
    10030    2    1    2    0    0  0.00000000000E+00  0.00000000000E+00  0.10945385673E+04  0.12996259624E+04  0.70072317417E+03 0.  0.
        3    1    3    3  502    0 -0.21366201096E+03 -0.27384983048E+03  0.46211391472E+03  0.57809555002E+03  0.10100000352E+00 0.  1.
       -3    1    3    3    0  502  0.21366201096E+03  0.27384983048E+03  0.63242465263E+03  0.72153041241E+03  0.10100000352E+00 0. -1.
</event>
<event>
 5   0  0.1282546E-03  0.7002391E+03  0.7818609E-02  0.9716823E-01
        2   -1    0    0  501    0  0.00000000000E+00  0.00000000000E+00  0.15799047356E+04  0.15799047356E+04  0.25500000920E-02 0.  1.
       -2   -1    0    0    0  501  0.00000000000E+00  0.00000000000E+00 -0.77589300155E+02  0.77589300197E+02  0.25500000920E-02 0. -1.
    10030    2    1    2    0    0  0.00000000000E+00  0.00000000000E+00  0.15023154354E+04  0.16574940358E+04  0.70023910997E+03 0.  0.
        5    1    3    3  502    0 -0.24151992496E+03  0.16866596892E+02  0.15259484126E+03  0.28622304558E+03  0.46999998093E+01 0. -1.
       -5    1    3    3    0  502  0.24151992496E+03 -0.16866596892E+02  0.13497205942E+04  0.13712709902E+04  0.46999998093E+01 0.  1.
</event>
<event>
 5   0  0.7570633E-04  0.6990327E+03  0.7818609E-02  0.9718888E-01
       -1   -1    0    0    0  501  0.00000000000E+00  0.00000000000E+00  0.33990181204E+03  0.33990181208E+03  0.50400001928E-02 0. -1.
        1   -1    0    0  501    0  0.00000000000E+00  0.00000000000E+00 -0.35940280209E+03  0.35940280212E+03  0.50400001928E-02 0.  1.
    10030    2    1    2    0    0  0.00000000000E+00  0.00000000000E+00 -0.19500990042E+02  0.69930461420E+03  0.69903265649E+03 0.  0.
        5    1    3    3  502    0 -0.60142172112E+02  0.33631837356E+03 -0.83348434372E+02  0.35170467835E+03  0.46999998093E+01 0.  1.
       -5    1    3    3    0  502  0.60142172112E+02 -0.33631837356E+03  0.63847444330E+02  0.34759993586E+03  0.46999998093E+01 0. -1.
</event>
<event>
 5   0  0.1224048E-03  0.7000729E+03  0.7818609E-02  0.9717108E-01
       -2   -1    0    0    0  501  0.00000000000E+00  0.00000000000E+00  0.27138182352E+03  0.27138182354E+03  0.25500000920E-02 0.  1.
        2   -1    0    0  501    0  0.00000000000E+00  0.00000000000E+00 -0.45148756138E+03  0.45148756139E+03  0.25500000920E-02 0. -1.
    10030    2    1    2    0    0  0.00000000000E+00  0.00000000000E+00 -0.18010573785E+03  0.72286938492E+03  0.70007290395E+03 0.  0.
        3    1    3    3  502    0 -0.19223971718E+03  0.55356790691E+02  0.20653730693E+03  0.28753808876E+03  0.10100000352E+00 0.  1.
       -3    1    3    3    0  502  0.19223971718E+03 -0.55356790691E+02 -0.38664304478E+03  0.43533129616E+03  0.10100000352E+00 0. -1.
</event>
<event>
 5   0  0.1243087E-03  0.6994616E+03  0.7818609E-02  0.9718153E-01
       -2   -1    0    0    0  501  0.00000000000E+00  0.00000000000E+00  0.89968963869E+03  0.89968963870E+03  0.25500000920E-02 0.  1.
        2   -1    0    0  501    0  0.00000000000E+00  0.00000000000E+00 -0.13594868715E+03  0.13594868718E+03  0.25500000920E-02 0. -1.
    10030    2    1    2    0    0  0.00000000000E+00  0.00000000000E+00  0.76374095154E+03  0.10356383259E+04  0.69946157933E+03 0.  0.
        4    1    3    3  502    0  0.21345414918E+03 -0.79634671743E+02 -0.10998766684E+02  0.22809414836E+03  0.12699999809E+01 0. -1.
       -4    1    3    3    0  502 -0.21345414918E+03  0.79634671743E+02  0.77473971822E+03  0.80754417752E+03  0.12699999809E+01 0.  1.
</event>
<event>
 5   0  0.1282546E-03  0.7005604E+03  0.7818609E-02  0.9716274E-01
        2   -1    0    0  501    0  0.00000000000E+00  0.00000000000E+00  0.34604872353E+03  0.34604872354E+03  0.25500000920E-02 0.  1.
       -2   -1    0    0    0  501  0.00000000000E+00  0.00000000000E+00 -0.35456346822E+03  0.35456346823E+03  0.25500000920E-02 0. -1.
    10030    2    1    2    0    0  0.00000000000E+00  0.00000000000E+00 -0.85147446970E+01  0.70061219177E+03  0.70056044877E+03 0.  0.
        5    1    3    3  502    0  0.96152373661E+02  0.26473450452E+03 -0.21246619010E+03  0.35283651849E+03  0.46999998093E+01 0. -1.
       -5    1    3    3    0  502 -0.96152373661E+02 -0.26473450452E+03  0.20395144540E+03  0.34777567328E+03  0.46999998093E+01 0.  1.
</event>
<event>
 5   0  0.7570633E-04  0.6997397E+03  0.7818609E-02  0.9717677E-01
       -1   -1    0    0    0  501  0.00000000000E+00  0.00000000000E+00  0.55658377245E+03  0.55658377247E+03  0.50400001928E-02 0.  1.
        1   -1    0    0  501    0  0.00000000000E+00  0.00000000000E+00 -0.21992899349E+03  0.21992899355E+03  0.50400001928E-02 0. -1.
    10030    2    1    2    0    0  0.00000000000E+00  0.00000000000E+00  0.33665477896E+03  0.77651276602E+03  0.69973969131E+03 0.  0.
        5    1    3    3  502    0  0.25148085465E+03  0.22189756774E+03  0.27877440288E+03  0.43614035416E+03  0.46999998093E+01 0.  1.
       -5    1    3    3    0  502 -0.25148085465E+03 -0.22189756774E+03  0.57880376075E+02  0.34037241186E+03  0.46999998093E+01 0. -1.
</event>
<event>
 5   0  0.1224048E-03  0.6997780E+03  0.7818609E-02  0.9717612E-01
        2   -1    0    0  501    0  0.00000000000E+00  0.00000000000E+00  0.40532428092E+03  0.40532428093E+03  0.25500000920E-02 0.  1.
       -2   -1    0    0    0  501  0.00000000000E+00  0.00000000000E+00 -0.30203551640E+03  0.30203551641E+03  0.25500000920E-02 0. -1.
    10030    2    1    2    0    0  0.00000000000E+00  0.00000000000E+00  0.10328876452E+03  0.70735979733E+03  0.69977804625E+03 0.  0.
        3    1    3    3  502    0 -0.62600566699E+01  0.19325061788E+03 -0.24312669200E+03  0.31063739018E+03  0.10100000352E+00 0. -1.
       -3    1    3    3    0  502  0.62600566699E+01 -0.19325061788E+03  0.34641545652E+03  0.39672240715E+03  0.10100000352E+00 0.  1.
</event>
<event>
 5   0  0.1265562E-03  0.7010295E+03  0.7818609E-02  0.9715473E-01
       -2   -1    0    0    0  501  0.00000000000E+00  0.00000000000E+00  0.92688653320E+02  0.92688653355E+02  0.25500000920E-02 0. -1.
        2   -1    0    0  501    0  0.00000000000E+00  0.00000000000E+00 -0.13255192540E+04  0.13255192540E+04  0.25500000920E-02 0.  1.
    10030    2    1    2    0    0  0.00000000000E+00  0.00000000000E+00 -0.12328306006E+04  0.14182079073E+04  0.70102951329E+03 0.  0.
        1    1    3    3  502    0  0.26613095771E+03 -0.96261980102E+02 -0.10347903804E+04  0.10727922384E+04  0.50400001928E-02 0.  1.
       -1    1    3    3    0  502 -0.26613095771E+03  0.96261980102E+02 -0.19804022029E+03  0.34541566893E+03  0.50400001928E-02 0. -1.
</event>
<event>
 5   0  0.1243087E-03  0.7000631E+03  0.7818609E-02  0.9717124E-01
       -2   -1    0    0    0  501  0.00000000000E+00  0.00000000000E+00  0.20367665563E+03  0.20367665565E+03  0.25500000920E-02 0.  1.
        2   -1    0    0  501    0  0.00000000000E+00  0.00000000000E+00 -0.60155190250E+03  0.60155190251E+03  0.25500000920E-02 0. -1.
    10030    2    1    2    0    0  0.00000000000E+00  0.00000000000E+00 -0.39787524687E+03  0.80522855815E+03  0.70006308201E+03 0.  0.
        4    1    3    3  502    0  0.21886708935E+03  0.62325346945E+02 -0.50484763683E+03  0.55376890576E+03  0.12699999809E+01 0. -1.
       -4    1    3    3    0  502 -0.21886708935E+03 -0.62325346945E+02  0.10697238996E+03  0.25145965240E+03  0.12699999809E+01 0.  1.
</event>
<event>
 5   0  0.1265562E-03  0.7020961E+03  0.7818609E-02  0.9713654E-01
        2   -1    0    0  501    0  0.00000000000E+00  0.00000000000E+00  0.63066715903E+03  0.63066715904E+03  0.25500000920E-02 0.  1.
       -2   -1    0    0    0  501  0.00000000000E+00  0.00000000000E+00 -0.19540373973E+03  0.19540373975E+03  0.25500000920E-02 0. -1.
    10030    2    1    2    0    0  0.00000000000E+00  0.00000000000E+00  0.43526341930E+03  0.82607089879E+03  0.70209606582E+03 0.  0.
        1    1    3    3  502    0 -0.43162587883E+02 -0.34741122279E+03  0.24824885683E+03  0.42916787119E+03  0.50400001928E-02 0.  1.
       -1    1    3    3    0  502  0.43162587883E+02  0.34741122279E+03  0.18701456247E+03  0.39690302760E+03  0.50400001928E-02 0. -1.
</event>
<event>
 5   0  0.1224048E-03  0.7000477E+03  0.7818609E-02  0.9717151E-01
       -2   -1    0    0    0  501  0.00000000000E+00  0.00000000000E+00  0.13230579160E+03  0.13230579163E+03  0.25500000920E-02 0. -1.
        2   -1    0    0  501    0  0.00000000000E+00  0.00000000000E+00 -0.92601159932E+03  0.92601159932E+03  0.25500000920E-02 0.  1.
    10030    2    1    2    0    0  0.00000000000E+00  0.00000000000E+00 -0.79370580772E+03  0.10583173910E+04  0.70004770608E+03 0.  0.
        3    1    3    3  502    0 -0.26352992352E+03 -0.22986118848E+03 -0.41990448136E+03  0.54644667647E+03  0.10100000352E+00 0. -1.
       -3    1    3    3    0  502  0.26352992352E+03  0.22986118848E+03 -0.37380132636E+03  0.51187071448E+03  0.10100000352E+00 0.  1.
</event>
<event>
 5   0  0.1222679E-03  0.7001000E+03  0.7818609E-02  0.9717061E-01
        2   -1    0    0  501    0  0.00000000000E+00  0.00000000000E+00  0.61235534985E+03  0.61235534986E+03  0.25500000920E-02 0.  1.
       -2   -1    0    0    0  501  0.00000000000E+00  0.00000000000E+00 -0.20010439984E+03  0.20010439986E+03  0.25500000920E-02 0. -1.
    10030    2    1    2    0    0  0.00000000000E+00  0.00000000000E+00  0.41225095001E+03  0.81245974972E+03  0.70009999223E+03 0.  0.
        2    1    3    3  502    0  0.22941269357E+03 -0.88499035304E+02  0.49525485703E+03  0.55293728093E+03  0.25500000920E-02 0.  1.
       -2    1    3    3    0  502 -0.22941269357E+03  0.88499035304E+02 -0.83003907018E+02  0.25952246879E+03  0.25500000920E-02 0. -1.
</event>
<event>
 5   0  0.1265562E-03  0.7000595E+03  0.7818609E-02  0.9717131E-01
        2   -1    0    0  501    0  0.00000000000E+00  0.00000000000E+00  0.56394081356E+03  0.56394081357E+03  0.25500000920E-02 0. -1.
       -2   -1    0    0    0  501  0.00000000000E+00  0.00000000000E+00 -0.21725828268E+03  0.21725828270E+03  0.25500000920E-02 0.  1.
    10030    2    1    2    0    0  0.00000000000E+00  0.00000000000E+00  0.34668253088E+03  0.78119909626E+03  0.70005946232E+03 0.  0.
        1    1    3    3  502    0 -0.20546944111E+03  0.80863446775E+02  0.47641597129E+03  0.52509881544E+03  0.50400001928E-02 0. -1.
       -1    1    3    3    0  502  0.20546944111E+03 -0.80863446775E+02 -0.12973344041E+03  0.25610028082E+03  0.50400001928E-02 0.  1.
</event>
<event>
 5   0  0.1222679E-03  0.6994155E+03  0.7818609E-02  0.9718232E-01
       -2   -1    0    0    0  501  0.00000000000E+00  0.00000000000E+00  0.38028750444E+03  0.38028750445E+03  0.25500000920E-02 0. -1.
        2   -1    0    0  501    0  0.00000000000E+00  0.00000000000E+00 -0.32158701213E+03  0.32158701214E+03  0.25500000920E-02 0.  1.
    10030    2    1    2    0    0  0.00000000000E+00  0.00000000000E+00  0.58700492312E+02  0.70187451660E+03  0.69941553404E+03 0.  0.
        2    1    3    3  502    0  0.32136933026E+03 -0.12063641964E+03 -0.37698803070E+02  0.34532968585E+03  0.25500000920E-02 0.  1.
       -2    1    3    3    0  502 -0.32136933026E+03  0.12063641964E+03  0.96399295382E+02  0.35654483074E+03  0.25500000920E-02 0. -1.
</event>
<event>
 5   0  0.7013526E-04  0.7001346E+03  0.7818609E-02  0.9717002E-01
       -1   -1    0    0    0  501  0.00000000000E+00  0.00000000000E+00  0.43417464852E+03  0.43417464855E+03  0.50400001928E-02 0. -1.
        1   -1    0    0  501    0  0.00000000000E+00  0.00000000000E+00 -0.28225305249E+03  0.28225305254E+03  0.50400001928E-02 0.  1.
    10030    2    1    2    0    0  0.00000000000E+00  0.00000000000E+00  0.15192159603E+03  0.71642770109E+03  0.70013461530E+03 0.  0.
        1    1    3    3  502    0  0.25362411637E+03 -0.13419673100E+03 -0.12923806343E+03  0.31470054350E+03  0.50400001928E-02 0.  1.
       -1    1    3    3    0  502 -0.25362411637E+03  0.13419673100E+03  0.28115965945E+03  0.40172715759E+03  0.50400001928E-02 0. -1.
</event>
<event>
 5   0  0.7459843E-04  0.6998637E+03  0.7818609E-02  0.9717465E-01
        1   -1    0    0  501    0  0.00000000000E+00  0.00000000000E+00  0.76113232589E+03  0.76113232591E+03  0.50400001928E-02 0.  1.
       -1   -1    0    0    0  501  0.00000000000E+00  0.00000000000E+00 -0.16088176702E+03  0.16088176710E+03  0.50400001928E-02 0. -1.
    10030    2    1    2    0    0  0.00000000000E+00  0.00000000000E+00  0.60025055887E+03  0.92201409301E+03  0.69986373980E+03 0.  0.
        2    1    3    3  502    0  0.62990128233E+02  0.44102991028E+02 -0.14961378347E+03  0.16821746129E+03  0.25500000920E-02 0. -1.
       -2    1    3    3    0  502 -0.62990128233E+02 -0.44102991028E+02  0.74986434234E+03  0.75379663172E+03  0.25500000920E-02 0.  1.
</event>
<event>
 5   0  0.7572415E-04  0.6990704E+03  0.7818609E-02  0.9718823E-01
        1   -1    0    0  501    0  0.00000000000E+00  0.00000000000E+00  0.84297651369E+03  0.84297651371E+03  0.50400001928E-02 0. -1.
       -1   -1    0    0    0  501  0.00000000000E+00  0.00000000000E+00 -0.14493270019E+03  0.14493270028E+03  0.50400001928E-02 0.  1.
    10030    2    1    2    0    0  0.00000000000E+00  0.00000000000E+00  0.69804381350E+03  0.98790921398E+03  0.69907041813E+03 0.  0.
        4    1    3    3  502    0  0.17657680774E+03  0.24236420692E+03  0.95226156994E+02  0.31462582809E+03  0.12699999809E+01 0.  1.
       -4    1    3    3    0  502 -0.17657680774E+03 -0.24236420692E+03  0.60281765651E+03  0.67328338589E+03  0.12699999809E+01 0. -1.
</event>
<event>
 5   0  0.7570633E-04  0.6992045E+03  0.7818609E-02  0.9718594E-01
        1   -1    0    0  501    0  0.00000000000E+00  0.00000000000E+00  0.26415380992E+03  0.26415380997E+03  0.50400001928E-02 0.  1.
       -1   -1    0    0    0  501  0.00000000000E+00  0.00000000000E+00 -0.46269147552E+03  0.46269147555E+03  0.50400001928E-02 0. -1.
    10030    2    1    2    0    0  0.00000000000E+00  0.00000000000E+00 -0.19853766560E+03  0.72684528552E+03  0.69920445109E+03 0.  0.
        5    1    3    3  502    0  0.17618588995E+03 -0.98256941702E+02  0.19750563875E+03  0.28235874654E+03  0.46999998093E+01 0.  1.
       -5    1    3    3    0  502 -0.17618588995E+03  0.98256941702E+02 -0.39604330436E+03  0.44448653898E+03  0.46999998093E+01 0. -1.
</event>
<event>
 5   0  0.1224048E-03  0.7003234E+03  0.7818609E-02  0.9716679E-01
        2   -1    0    0  501    0  0.00000000000E+00  0.00000000000E+00  0.52607321755E+03  0.52607321755E+03  0.25500000920E-02 0. -1.
       -2   -1    0    0    0  501  0.00000000000E+00  0.00000000000E+00 -0.23307254989E+03  0.23307254991E+03  0.25500000920E-02 0.  1.
    10030    2    1    2    0    0  0.00000000000E+00  0.00000000000E+00  0.29300066765E+03  0.75914576746E+03  0.70032342886E+03 0.  0.
        3    1    3    3  502    0  0.36119343922E+02  0.25022813210E+03  0.40911875711E+03  0.48093335580E+03  0.10100000352E+00 0. -1.
       -3    1    3    3    0  502 -0.36119343922E+02 -0.25022813210E+03 -0.11611808946E+03  0.27821241166E+03  0.10100000352E+00 0.  1.
</event>
<event>
 5   0  0.4936000E-04  0.7044668E+03  0.7818609E-02  0.9709624E-01
        3   -1    0    0  501    0  0.00000000000E+00  0.00000000000E+00  0.15624961136E+03  0.15624964400E+03  0.10100000352E+00 0.  1.
       -3   -1    0    0    0  501  0.00000000000E+00  0.00000000000E+00 -0.79403932860E+03  0.79403933502E+03  0.10100000352E+00 0. -1.
    10030    2    1    2    0    0  0.00000000000E+00  0.00000000000E+00 -0.63778971724E+03  0.95028897902E+03  0.70446676304E+03 0.  0.
        2    1    3    3  502    0 -0.16209958342E+03  0.30756342759E+03 -0.39516492929E+03  0.52633340981E+03  0.25500000920E-02 0.  1.
       -2    1    3    3    0  502  0.16209958342E+03 -0.30756342759E+03 -0.24262478795E+03  0.42395556921E+03  0.25500000920E-02 0. -1.
</event>
<event>
 5   0  0.1224048E-03  0.7003439E+03  0.7818609E-02  0.9716644E-01
        2   -1    0    0  501    0  0.00000000000E+00  0.00000000000E+00  0.29457136908E+03  0.29457136909E+03  0.25500000920E-02 0. -1.
       -2   -1    0    0    0  501  0.00000000000E+00  0.00000000000E+00 -0.41626721789E+03  0.41626721790E+03  0.25500000920E-02 0.  1.
    10030    2    1    2    0    0  0.00000000000E+00  0.00000000000E+00 -0.12169584881E+03  0.71083858700E+03  0.70034392776E+03 0.  0.
        3    1    3    3  502    0  0.79527584584E+02  0.25471831411E+02 -0.40601288852E+03  0.41451167264E+03  0.10100000352E+00 0.  1.
       -3    1    3    3    0  502 -0.79527584584E+02 -0.25471831411E+02  0.28431703971E+03  0.29632691436E+03  0.10100000352E+00 0. -1.
</event>
<event>
 5   0  0.7574241E-04  0.7000378E+03  0.7818609E-02  0.9717168E-01
        1   -1    0    0  501    0  0.00000000000E+00  0.00000000000E+00  0.23135998631E+03  0.23135998637E+03  0.50400001928E-02 0. -1.
       -1   -1    0    0    0  501  0.00000000000E+00  0.00000000000E+00 -0.52953508993E+03  0.52953508995E+03  0.50400001928E-02 0.  1.
    10030    2    1    2    0    0  0.00000000000E+00  0.00000000000E+00 -0.29817510361E+03  0.76089507632E+03  0.70003780237E+03 0.  0.
        3    1    3    3  502    0 -0.13765952299E+01 -0.87446807386E+02 -0.51746749022E+03  0.52480610970E+03  0.10100000352E+00 0.  1.
       -3    1    3    3    0  502  0.13765952299E+01  0.87446807386E+02  0.21929238661E+03  0.23608896662E+03  0.10100000352E+00 0. -1.
</event>
<event>
 5   0  0.7459843E-04  0.7026406E+03  0.7818609E-02  0.9712727E-01
       -1   -1    0    0    0  501  0.00000000000E+00  0.00000000000E+00  0.11862450298E+03  0.11862450309E+03  0.50400001928E-02 0.  1.
        1   -1    0    0  501    0  0.00000000000E+00  0.00000000000E+00 -0.10404760852E+04  0.10404760852E+04  0.50400001928E-02 0. -1.
    10030    2    1    2    0    0  0.00000000000E+00  0.00000000000E+00 -0.92185158218E+03  0.11591005883E+04  0.70264061520E+03 0.  0.
        2    1    3    3  502    0 -0.30907658879E+03  0.13921244438E+03 -0.30868032847E+03  0.45846699729E+03  0.25500000920E-02 0.  1.
       -2    1    3    3    0  502  0.30907658879E+03 -0.13921244438E+03 -0.61317125370E+03  0.70063359096E+03  0.25500000920E-02 0. -1.
</event>
<event>
 5   0  0.7570633E-04  0.7001561E+03  0.7818609E-02  0.9716965E-01
        1   -1    0    0  501    0  0.00000000000E+00  0.00000000000E+00  0.26903698286E+03  0.26903698290E+03  0.50400001928E-02 0. -1.
       -1   -1    0    0    0  501  0.00000000000E+00  0.00000000000E+00 -0.45553084767E+03  0.45553084769E+03  0.50400001928E-02 0.  1.
    10030    2    1    2    0    0  0.00000000000E+00  0.00000000000E+00 -0.18649386481E+03  0.72456783060E+03  0.70015611083E+03 0.  0.
        5    1    3    3  502    0 -0.23631767873E+03  0.17163710617E+03  0.10642380832E+03  0.31089139336E+03  0.46999998093E+01 0. -1.
       -5    1    3    3    0  502  0.23631767873E+03 -0.17163710617E+03 -0.29291767313E+03  0.41367643723E+03  0.46999998093E+01 0.  1.
</event>
<event>
 5   0  0.1243087E-03  0.7000789E+03  0.7818609E-02  0.9717097E-01
       -2   -1    0    0    0  501  0.00000000000E+00  0.00000000000E+00  0.12607450226E+03  0.12607450228E+03  0.25500000920E-02 0.  1.
        2   -1    0    0  501    0  0.00000000000E+00  0.00000000000E+00 -0.97186676221E+03  0.97186676222E+03  0.25500000920E-02 0. -1.
    10030    2    1    2    0    0  0.00000000000E+00  0.00000000000E+00 -0.84579225996E+03  0.10979412645E+04  0.70007890505E+03 0.  0.
        4    1    3    3  502    0 -0.98507822830E+02 -0.22025578692E+03 -0.25182908279E+02  0.24259471264E+03  0.12699999809E+01 0.  1.
       -4    1    3    3    0  502  0.98507822830E+02  0.22025578692E+03 -0.82060935168E+03  0.85534655187E+03  0.12699999809E+01 0. -1.
</event>
<event>
 5   0  0.1243087E-03  0.6989827E+03  0.7818609E-02  0.9718974E-01
       -2   -1    0    0    0  501  0.00000000000E+00  0.00000000000E+00  0.13365677848E+03  0.13365677850E+03  0.25500000920E-02 0. -1.
        2   -1    0    0  501    0  0.00000000000E+00  0.00000000000E+00 -0.91386454310E+03  0.91386454311E+03  0.25500000920E-02 0.  1.
    10030    2    1    2    0    0  0.00000000000E+00  0.00000000000E+00 -0.78020776463E+03  0.10475213216E+04  0.69898266305E+03 0.  0.
        4    1    3    3  502    0 -0.10079999378E+03 -0.91821986734E+01  0.11120673722E+03  0.15037786679E+03  0.12699999809E+01 0. -1.
       -4    1    3    3    0  502  0.10079999378E+03  0.91821986734E+01 -0.89141450185E+03  0.89714345482E+03  0.12699999809E+01 0.  1.
</event>
<event>
 5   0  0.1224048E-03  0.7004207E+03  0.7818609E-02  0.9716513E-01
       -2   -1    0    0    0  501  0.00000000000E+00  0.00000000000E+00  0.63327299112E+03  0.63327299113E+03  0.25500000920E-02 0.  1.
        2   -1    0    0  501    0  0.00000000000E+00  0.00000000000E+00 -0.19367206294E+03  0.19367206296E+03  0.25500000920E-02 0. -1.
    10030    2    1    2    0    0  0.00000000000E+00  0.00000000000E+00  0.43960092818E+03  0.82694505409E+03  0.70042069246E+03 0.  0.
        3    1    3    3  502    0  0.22277280671E+03  0.27015992535E+03  0.22659994178E+03  0.41708710420E+03  0.10100000352E+00 0. -1.
       -3    1    3    3    0  502 -0.22277280671E+03 -0.27015992535E+03  0.21300098640E+03  0.40985794989E+03  0.10100000352E+00 0.  1.
</event>
<event>
 5   0  0.7013526E-04  0.7001461E+03  0.7818609E-02  0.9716982E-01
        1   -1    0    0  501    0  0.00000000000E+00  0.00000000000E+00  0.18560841136E+03  0.18560841143E+03  0.50400001928E-02 0.  1.
       -1   -1    0    0    0  501  0.00000000000E+00  0.00000000000E+00 -0.66026710494E+03  0.66026710496E+03  0.50400001928E-02 0. -1.
    10030    2    1    2    0    0  0.00000000000E+00  0.00000000000E+00 -0.47465869358E+03  0.84587551638E+03  0.70014606606E+03 0.  0.
        1    1    3    3  502    0  0.23935563035E+02 -0.64564305004E+02  0.17734604846E+03  0.19024479385E+03  0.50400001928E-02 0.  1.
       -1    1    3    3    0  502 -0.23935563035E+02  0.64564305004E+02 -0.65200474204E+03  0.65563072253E+03  0.50400001928E-02 0. -1.
</event>
<event>
 5   0  0.1243087E-03  0.7002697E+03  0.7818609E-02  0.9716771E-01
       -2   -1    0    0    0  501  0.00000000000E+00  0.00000000000E+00  0.20916422660E+03  0.20916422661E+03  0.25500000920E-02 0. -1.
        2   -1    0    0  501    0  0.00000000000E+00  0.00000000000E+00 -0.58611552957E+03  0.58611552958E+03  0.25500000920E-02 0.  1.
    10030    2    1    2    0    0  0.00000000000E+00  0.00000000000E+00 -0.37695130298E+03  0.79527975619E+03  0.70026966648E+03 0.  0.
        4    1    3    3  502    0  0.24202789233E+02 -0.36814797791E+02 -0.58295230707E+03  0.58461620707E+03  0.12699999809E+01 0.  1.
       -4    1    3    3    0  502 -0.24202789233E+02  0.36814797791E+02  0.20600100410E+03  0.21066354913E+03  0.12699999809E+01 0. -1.
</event>
<event>
 5   0  0.7572415E-04  0.7003078E+03  0.7818609E-02  0.9716706E-01
       -1   -1    0    0    0  501  0.00000000000E+00  0.00000000000E+00  0.97902489464E+02  0.97902489594E+02  0.50400001928E-02 0. -1.
        1   -1    0    0  501    0  0.00000000000E+00  0.00000000000E+00 -0.12523457476E+04  0.12523457476E+04  0.50400001928E-02 0.  1.
    10030    2    1    2    0    0  0.00000000000E+00  0.00000000000E+00 -0.11544432581E+04  0.13502482372E+04  0.70030783645E+03 0.  0.
        4    1    3    3  502    0 -0.81489774475E+02  0.28026631343E+03 -0.20426749767E+03  0.35625358004E+03  0.12699999809E+01 0. -1.
       -4    1    3    3    0  502  0.81489774475E+02 -0.28026631343E+03 -0.95017576042E+03  0.99399465712E+03  0.12699999809E+01 0.  1.
</event>
<event>
 5   0  0.1265562E-03  0.6999632E+03  0.7818609E-02  0.9717295E-01
        2   -1    0    0  501    0  0.00000000000E+00  0.00000000000E+00  0.40705640590E+03  0.40705640590E+03  0.25500000920E-02 0. -1.
       -2   -1    0    0    0  501  0.00000000000E+00  0.00000000000E+00 -0.30090941136E+03  0.30090941137E+03  0.25500000920E-02 0.  1.
    10030    2    1    2    0    0  0.00000000000E+00  0.00000000000E+00  0.10614699454E+03  0.70796581727E+03  0.69996315187E+03 0.  0.
        1    1    3    3  502    0  0.75140634753E+02  0.13728244929E+03  0.36969324660E+03  0.40145445879E+03  0.50400001928E-02 0. -1.
       -1    1    3    3    0  502 -0.75140634753E+02 -0.13728244929E+03 -0.26354625206E+03  0.30651135848E+03  0.50400001928E-02 0.  1.
</event>
<event>
 5   0  0.1282546E-03  0.7000500E+03  0.7818609E-02  0.9717147E-01
       -2   -1    0    0    0  501  0.00000000000E+00  0.00000000000E+00  0.11103338500E+03  0.11103338503E+03  0.25500000920E-02 0.  1.
        2   -1    0    0  501    0  0.00000000000E+00  0.00000000000E+00 -0.11034293414E+04  0.11034293414E+04  0.25500000920E-02 0. -1.
    10030    2    1    2    0    0  0.00000000000E+00  0.00000000000E+00 -0.99239595638E+03  0.12144627264E+04  0.70004998366E+03 0.  0.
        5    1    3    3  502    0 -0.34938891891E+03 -0.75661057018E+01 -0.52936633497E+03  0.63433482422E+03  0.46999998093E+01 0. -1.
       -5    1    3    3    0  502  0.34938891891E+03  0.75661057018E+01 -0.46302962140E+03  0.58012790220E+03  0.46999998093E+01 0.  1.
</event>
<event>
 5   0  0.7572415E-04  0.7003130E+03  0.7818609E-02  0.9716697E-01
       -1   -1    0    0    0  501  0.00000000000E+00  0.00000000000E+00  0.16772611972E+03  0.16772611980E+03  0.50400001928E-02 0.  1.
        1   -1    0    0  501    0  0.00000000000E+00  0.00000000000E+00 -0.73101070605E+03  0.73101070607E+03  0.50400001928E-02 0. -1.
    10030    2    1    2    0    0  0.00000000000E+00  0.00000000000E+00 -0.56328458632E+03  0.89873682587E+03  0.70031304213E+03 0.  0.
        4    1    3    3  502    0  0.50222886564E+02 -0.33235521086E+03 -0.40755089380E+03  0.52828180781E+03  0.12699999809E+01 0. -1.
       -4    1    3    3    0  502 -0.50222886564E+02  0.33235521086E+03 -0.15573369252E+03  0.37045501806E+03  0.12699999809E+01 0.  1.
</event>
<event>
 5   0  0.7013526E-04  0.6999568E+03  0.7818609E-02  0.9717306E-01
        1   -1    0    0  501    0  0.00000000000E+00  0.00000000000E+00  0.90174697873E+03  0.90174697874E+03  0.50400001928E-02 0. -1.
       -1   -1    0    0    0  501  0.00000000000E+00  0.00000000000E+00 -0.13583065359E+03  0.13583065368E+03  0.50400001928E-02 0.  1.
    10030    2    1    2    0    0  0.00000000000E+00  0.00000000000E+00  0.76591632514E+03  0.10375776324E+04  0.69995680309E+03 0.  0.
        1    1    3    3  502    0  0.45346662790E+02 -0.14943198604E+03  0.84723911041E+03  0.86151050401E+03  0.50400001928E-02 0. -1.
       -1    1    3    3    0  502 -0.45346662790E+02  0.14943198604E+03 -0.81322785273E+02  0.17606712842E+03  0.50400001928E-02 0.  1.
</event>
<event>
 5   0  0.7572415E-04  0.7005731E+03  0.7818609E-02  0.9716253E-01
        1   -1    0    0  501    0  0.00000000000E+00  0.00000000000E+00  0.97069405340E+03  0.97069405341E+03  0.50400001928E-02 0.  1.
       -1   -1    0    0    0  501  0.00000000000E+00  0.00000000000E+00 -0.12640508809E+03  0.12640508819E+03  0.50400001928E-02 0. -1.
    10030    2    1    2    0    0  0.00000000000E+00  0.00000000000E+00  0.84428896531E+03  0.10970991416E+04  0.70057310079E+03 0.  0.
        4    1    3    3  502    0 -0.53701890940E+01 -0.21668161516E+03 -0.87745664686E+01  0.21692940602E+03  0.12699999809E+01 0. -1.
       -4    1    3    3    0  502  0.53701890940E+01  0.21668161516E+03  0.85306353178E+03  0.88016973558E+03  0.12699999809E+01 0.  1.
</event>
<event>
 5   0  0.1243087E-03  0.6998863E+03  0.7818609E-02  0.9717427E-01
       -2   -1    0    0    0  501  0.00000000000E+00  0.00000000000E+00  0.10311085931E+03  0.10311085934E+03  0.25500000920E-02 0.  1.
        2   -1    0    0  501    0  0.00000000000E+00  0.00000000000E+00 -0.11876558587E+04  0.11876558587E+04  0.25500000920E-02 0. -1.
    10030    2    1    2    0    0  0.00000000000E+00  0.00000000000E+00 -0.10845449994E+04  0.12907667180E+04  0.69988632269E+03 0.  0.
        4    1    3    3  502    0  0.57150287544E+02 -0.25754443894E+03 -0.96630332392E+03  0.10016681187E+04  0.12699999809E+01 0. -1.
       -4    1    3    3    0  502 -0.57150287544E+02  0.25754443894E+03 -0.11824167548E+03  0.28909859930E+03  0.12699999809E+01 0.  1.
</event>
<event>
 5   0  0.7013526E-04  0.7002215E+03  0.7818609E-02  0.9716853E-01
       -1   -1    0    0    0  501  0.00000000000E+00  0.00000000000E+00  0.34239935754E+03  0.34239935758E+03  0.50400001928E-02 0.  1.
        1   -1    0    0  501    0  0.00000000000E+00  0.00000000000E+00 -0.35799581350E+03  0.35799581354E+03  0.50400001928E-02 0. -1.
    10030    2    1    2    0    0  0.00000000000E+00  0.00000000000E+00 -0.15596455955E+02  0.70039517112E+03  0.70022149802E+03 0.  0.
        1    1    3    3  502    0 -0.10242634894E+03 -0.43601883357E+02  0.32422574667E+03  0.34280404901E+03  0.50400001928E-02 0.  1.
       -1    1    3    3    0  502  0.10242634894E+03  0.43601883357E+02 -0.33982220262E+03  0.35759112211E+03  0.50400001928E-02 0. -1.
</event>
<event>
 5   0  0.1265562E-03  0.7005676E+03  0.7818609E-02  0.9716262E-01
       -2   -1    0    0    0  501  0.00000000000E+00  0.00000000000E+00  0.63615911718E+02  0.63615911769E+02  0.25500000920E-02 0.  1.
        2   -1    0    0  501    0  0.00000000000E+00  0.00000000000E+00 -0.19287428687E+04  0.19287428687E+04  0.25500000920E-02 0. -1.
    10030    2    1    2    0    0  0.00000000000E+00  0.00000000000E+00 -0.18651269570E+04  0.19923587805E+04  0.70056758736E+03 0.  0.
        1    1    3    3  502    0 -0.24358253135E+03  0.24840922215E+03 -0.10484037752E+04  0.11046221377E+04  0.50400001928E-02 0. -1.
       -1    1    3    3    0  502  0.24358253135E+03 -0.24840922215E+03 -0.81672318179E+03  0.88773664278E+03  0.50400001928E-02 0.  1.
</event>
<event>
 5   0  0.7570633E-04  0.7000481E+03  0.7818609E-02  0.9717150E-01
       -1   -1    0    0    0  501  0.00000000000E+00  0.00000000000E+00  0.25095239235E+03  0.25095239240E+03  0.50400001928E-02 0. -1.
        1   -1    0    0  501    0  0.00000000000E+00  0.00000000000E+00 -0.48820742184E+03  0.48820742187E+03  0.50400001928E-02 0.  1.
    10030    2    1    2    0    0  0.00000000000E+00  0.00000000000E+00 -0.23725502949E+03  0.73915981427E+03  0.70004805693E+03 0.  0.
        5    1    3    3  502    0  0.30286388586E+03 -0.15505193153E+03 -0.20522879161E+03  0.39737712784E+03  0.46999998093E+01 0.  1.
       -5    1    3    3    0  502 -0.30286388586E+03  0.15505193153E+03 -0.32026237880E+02  0.34178268642E+03  0.46999998093E+01 0. -1.
</event>
<event>
 5   0  0.7570633E-04  0.7003577E+03  0.7818609E-02  0.9716621E-01
       -1   -1    0    0    0  501  0.00000000000E+00  0.00000000000E+00  0.16256704121E+03  0.16256704129E+03  0.50400001928E-02 0. -1.
        1   -1    0    0  501    0  0.00000000000E+00  0.00000000000E+00 -0.75430551412E+03  0.75430551413E+03  0.50400001928E-02 0.  1.
    10030    2    1    2    0    0  0.00000000000E+00  0.00000000000E+00 -0.59173847291E+03  0.91687255542E+03  0.70035766760E+03 0.  0.
        5    1    3    3  502    0  0.31192712620E+03  0.57243912122E+02 -0.10156872707E+03  0.33303707579E+03  0.46999998093E+01 0. -1.
       -5    1    3    3    0  502 -0.31192712620E+03 -0.57243912122E+02 -0.49016974584E+03  0.58383547963E+03  0.46999998093E+01 0.  1.
</event>
<event>
 5   0  0.1224048E-03  0.6997326E+03  0.7818609E-02  0.9717690E-01
       -2   -1    0    0    0  501  0.00000000000E+00  0.00000000000E+00  0.94376076086E+02  0.94376076121E+02  0.25500000920E-02 0.  1.
        2   -1    0    0  501    0  0.00000000000E+00  0.00000000000E+00 -0.12970068904E+04  0.12970068904E+04  0.25500000920E-02 0. -1.
    10030    2    1    2    0    0  0.00000000000E+00  0.00000000000E+00 -0.12026308143E+04  0.13913829666E+04  0.69973258035E+03 0.  0.
        3    1    3    3  502    0  0.32571054255E+02  0.17181002567E+03 -0.12038742101E+04  0.12165083980E+04  0.10100000352E+00 0. -1.
       -3    1    3    3    0  502 -0.32571054255E+02 -0.17181002567E+03  0.12433957363E+01  0.17487456856E+03  0.10100000352E+00 0.  1.
</event>
<event>
 5   0  0.7013526E-04  0.6999612E+03  0.7818609E-02  0.9717299E-01
        1   -1    0    0  501    0  0.00000000000E+00  0.00000000000E+00  0.22815061588E+03  0.22815061594E+03  0.50400001928E-02 0.  1.
       -1   -1    0    0    0  501  0.00000000000E+00  0.00000000000E+00 -0.53686649958E+03  0.53686649960E+03  0.50400001928E-02 0. -1.
    10030    2    1    2    0    0  0.00000000000E+00  0.00000000000E+00 -0.30871588369E+03  0.76501711554E+03  0.69996120622E+03 0.  0.
        1    1    3    3  502    0 -0.15664393415E+03  0.11397809022E+03 -0.47292404610E+03  0.51106308863E+03  0.50400001928E-02 0. -1.
       -1    1    3    3    0  502  0.15664393415E+03 -0.11397809022E+03  0.16420816241E+03  0.25395402691E+03  0.50400001928E-02 0.  1.
</event>
<event>
 5   0  0.7570633E-04  0.7001000E+03  0.7818609E-02  0.9717061E-01
       -1   -1    0    0    0  501  0.00000000000E+00  0.00000000000E+00  0.72954536115E+03  0.72954536117E+03  0.50400001928E-02 0.  1.
        1   -1    0    0  501    0  0.00000000000E+00  0.00000000000E+00 -0.16796076443E+03  0.16796076450E+03  0.50400001928E-02 0. -1.
    10030    2    1    2    0    0  0.00000000000E+00  0.00000000000E+00  0.56158459672E+03  0.89750612567E+03  0.70009998310E+03 0.  0.
        5    1    3    3  502    0 -0.12926584568E+03  0.23789462468E+03  0.56517381650E+03  0.62669533600E+03  0.46999998093E+01 0.  1.
       -5    1    3    3    0  502  0.12926584568E+03 -0.23789462468E+03 -0.35892197761E+01  0.27081078968E+03  0.46999998093E+01 0. -1.
</event>
<event>
 5   0  0.4936000E-04  0.6999882E+03  0.7818609E-02  0.9717252E-01
       -3   -1    0    0    0  501  0.00000000000E+00  0.00000000000E+00  0.36136480139E+03  0.36136481550E+03  0.10100000352E+00 0. -1.
        3   -1    0    0  501    0  0.00000000000E+00  0.00000000000E+00 -0.33898120664E+03  0.33898122169E+03  0.10100000352E+00 0.  1.
    10030    2    1    2    0    0  0.00000000000E+00  0.00000000000E+00  0.22383594746E+02  0.70034603719E+03  0.69998824740E+03 0.  0.
        4    1    3    3  502    0  0.21724062769E+03  0.59479890145E+02  0.27921475567E+03  0.35873923724E+03  0.12699999809E+01 0. -1.
       -4    1    3    3    0  502 -0.21724062769E+03 -0.59479890145E+02 -0.25683116093E+03  0.34160679995E+03  0.12699999809E+01 0.  1.
</event>
<event>
 5   0  0.1282546E-03  0.6993629E+03  0.7818609E-02  0.9718322E-01
       -2   -1    0    0    0  501  0.00000000000E+00  0.00000000000E+00  0.48374729108E+03  0.48374729108E+03  0.25500000920E-02 0. -1.
        2   -1    0    0  501    0  0.00000000000E+00  0.00000000000E+00 -0.25277065706E+03  0.25277065707E+03  0.25500000920E-02 0.  1.
    10030    2    1    2    0    0  0.00000000000E+00  0.00000000000E+00  0.23097663402E+03  0.73651794816E+03  0.69936291186E+03 0.  0.
        5    1    3    3  502    0  0.24321133312E+03  0.25012905515E+03  0.13993206875E+03  0.37592468747E+03  0.46999998093E+01 0.  1.
       -5    1    3    3    0  502 -0.24321133312E+03 -0.25012905515E+03  0.91044565264E+02  0.36059326068E+03  0.46999998093E+01 0. -1.
</event>
<event>
 5   0  0.7013526E-04  0.6996666E+03  0.7818609E-02  0.9717803E-01
       -1   -1    0    0    0  501  0.00000000000E+00  0.00000000000E+00  0.81290439551E+02  0.81290439707E+02  0.50400001928E-02 0. -1.
        1   -1    0    0  501    0  0.00000000000E+00  0.00000000000E+00 -0.15055070177E+04  0.15055070177E+04  0.50400001928E-02 0.  1.
    10030    2    1    2    0    0  0.00000000000E+00  0.00000000000E+00 -0.14242165781E+04  0.15867974574E+04  0.69966657014E+03 0.  0.
        1    1    3    3  502    0 -0.15971440774E+01  0.65083713267E+02 -0.14916472701E+04  0.14930673190E+04  0.50400001928E-02 0.  1.
       -1    1    3    3    0  502  0.15971440774E+01 -0.65083713267E+02  0.67430691969E+02  0.93730138411E+02  0.50400001928E-02 0. -1.
</event>
<event>
 5   0  0.7570633E-04  0.7000101E+03  0.7818609E-02  0.9717215E-01
       -1   -1    0    0    0  501  0.00000000000E+00  0.00000000000E+00  0.22669549752E+03  0.22669549757E+03  0.50400001928E-02 0. -1.
        1   -1    0    0  501    0  0.00000000000E+00  0.00000000000E+00 -0.54038798204E+03  0.54038798206E+03  0.50400001928E-02 0.  1.
    10030    2    1    2    0    0  0.00000000000E+00  0.00000000000E+00 -0.31369248452E+03  0.76708347964E+03  0.70001006413E+03 0.  0.
        5    1    3    3  502    0  0.23496907934E+03 -0.21019395211E+03 -0.32335815012E+03  0.45163541602E+03  0.46999998093E+01 0.  1.
       -5    1    3    3    0  502 -0.23496907934E+03  0.21019395211E+03  0.96656656008E+01  0.31544806362E+03  0.46999998093E+01 0. -1.
</event>
<event>
 5   0  0.7574241E-04  0.7000469E+03  0.7818609E-02  0.9717152E-01
        1   -1    0    0  501    0  0.00000000000E+00  0.00000000000E+00  0.43576267857E+03  0.43576267860E+03  0.50400001928E-02 0. -1.
       -1   -1    0    0    0  501  0.00000000000E+00  0.00000000000E+00 -0.28115399868E+03  0.28115399872E+03  0.50400001928E-02 0.  1.
    10030    2    1    2    0    0  0.00000000000E+00  0.00000000000E+00  0.15460867989E+03  0.71691667732E+03  0.70004691151E+03 0.  0.
        3    1    3    3  502    0 -0.11578532306E+03  0.21084017828E+02 -0.26028416135E+03  0.28565474211E+03  0.10100000352E+00 0.  1.
       -3    1    3    3    0  502  0.11578532306E+03 -0.21084017828E+02  0.41489284124E+03  0.43126193520E+03  0.10100000352E+00 0. -1.
</event>
<event>
 5   0  0.1243087E-03  0.6999087E+03  0.7818609E-02  0.9717388E-01
       -2   -1    0    0    0  501  0.00000000000E+00  0.00000000000E+00  0.12959261651E+03  0.12959261654E+03  0.25500000920E-02 0.  1.
        2   -1    0    0  501    0  0.00000000000E+00  0.00000000000E+00 -0.94502323160E+03  0.94502323160E+03  0.25500000920E-02 0. -1.
    10030    2    1    2    0    0  0.00000000000E+00  0.00000000000E+00 -0.81543061508E+03  0.10746158481E+04  0.69990866051E+03 0.  0.
        4    1    3    3  502    0  0.12591967500E+03 -0.31416317494E+03 -0.27114406023E+03  0.43367612263E+03  0.12699999809E+01 0.  1.
       -4    1    3    3    0  502 -0.12591967500E+03  0.31416317494E+03 -0.54428655485E+03  0.64093972551E+03  0.12699999809E+01 0. -1.
</event>
<event>
 5   0  0.7459843E-04  0.6997995E+03  0.7818609E-02  0.9717575E-01
       -1   -1    0    0    0  501  0.00000000000E+00  0.00000000000E+00  0.19743126503E+03  0.19743126509E+03  0.50400001928E-02 0.  1.
        1   -1    0    0  501    0  0.00000000000E+00  0.00000000000E+00 -0.62011376211E+03  0.62011376213E+03  0.50400001928E-02 0. -1.
    10030    2    1    2    0    0  0.00000000000E+00  0.00000000000E+00 -0.42268249707E+03  0.81754502722E+03  0.69979952715E+03 0.  0.
        2    1    3    3  502    0 -0.17423717858E+03  0.25330461573E+03 -0.40650653046E+03  0.50967576170E+03  0.25500000920E-02 0. -1.
       -2    1    3    3    0  502  0.17423717858E+03 -0.25330461573E+03 -0.16175966616E+02  0.30786926552E+03  0.25500000920E-02 0.  1.
</event>
<event>
 5   0  0.7570633E-04  0.7002394E+03  0.7818609E-02  0.9716823E-01
        1   -1    0    0  501    0  0.00000000000E+00  0.00000000000E+00  0.27219795771E+03  0.27219795776E+03  0.50400001928E-02 0.  1.
       -1   -1    0    0    0  501  0.00000000000E+00  0.00000000000E+00 -0.45034793490E+03  0.45034793493E+03  0.50400001928E-02 0. -1.
    10030    2    1    2    0    0  0.00000000000E+00  0.00000000000E+00 -0.17814997718E+03  0.72254589268E+03  0.70023935384E+03 0.  0.
        5    1    3    3  502    0 -0.27179692118E+03  0.46138116920E+02  0.13357497953E+03  0.30637665928E+03  0.46999998093E+01 0. -1.
       -5    1    3    3    0  502  0.27179692118E+03 -0.46138116920E+02 -0.31172495672E+03  0.41616923341E+03  0.46999998093E+01 0.  1.
</event>
<event>
 5   0  0.1265562E-03  0.6996501E+03  0.7818609E-02  0.9717831E-01
        2   -1    0    0  501    0  0.00000000000E+00  0.00000000000E+00  0.94758336057E+03  0.94758336057E+03  0.25500000920E-02 0. -1.
       -2   -1    0    0    0  501  0.00000000000E+00  0.00000000000E+00 -0.12914701067E+03  0.12914701069E+03  0.25500000920E-02 0.  1.
    10030    2    1    2    0    0  0.00000000000E+00  0.00000000000E+00  0.81843634990E+03  0.10767303713E+04  0.69965007937E+03 0.  0.
        1    1    3    3  502    0 -0.22279588113E+02  0.32696097299E+03  0.59756081166E+03  0.68152680179E+03  0.50400001928E-02 0. -1.
       -1    1    3    3    0  502  0.22279588113E+02 -0.32696097299E+03  0.22087553824E+03  0.39520356947E+03  0.50400001928E-02 0.  1.
</event>
<event>
 5   0  0.1243087E-03  0.7015898E+03  0.7818609E-02  0.9714517E-01
        2   -1    0    0  501    0  0.00000000000E+00  0.00000000000E+00  0.25105964627E+04  0.25105964627E+04  0.25500000920E-02 0. -1.
       -2   -1    0    0    0  501  0.00000000000E+00  0.00000000000E+00 -0.49015072875E+02  0.49015072942E+02  0.25500000920E-02 0.  1.
    10030    2    1    2    0    0  0.00000000000E+00  0.00000000000E+00  0.24615813898E+04  0.25596115356E+04  0.70158981938E+03 0.  0.
        4    1    3    3  502    0 -0.31905786271E+03 -0.14541117676E+03  0.12695942378E+04  0.13171231801E+04  0.12699999809E+01 0.  1.
       -4    1    3    3    0  502  0.31905786271E+03  0.14541117676E+03  0.11919871520E+04  0.12424883555E+04  0.12699999809E+01 0. -1.
</event>
<event>
 5   0  0.1243087E-03  0.6996332E+03  0.7818609E-02  0.9717860E-01
        2   -1    0    0  501    0  0.00000000000E+00  0.00000000000E+00  0.24527794335E+03  0.24527794336E+03  0.25500000920E-02 0. -1.
       -2   -1    0    0    0  501  0.00000000000E+00  0.00000000000E+00 -0.49891010457E+03  0.49891010458E+03  0.25500000920E-02 0.  1.
    10030    2    1    2    0    0  0.00000000000E+00  0.00000000000E+00 -0.25363216123E+03  0.74418804794E+03  0.69963317352E+03 0.  0.
        4    1    3    3  502    0  0.12032812949E+03  0.10324160354E+03  0.20486268993E+03  0.25905216091E+03  0.12699999809E+01 0. -1.
       -4    1    3    3    0  502 -0.12032812949E+03 -0.10324160354E+03 -0.45849485115E+03  0.48513588703E+03  0.12699999809E+01 0.  1.
</event>
<event>
 5   0  0.1222679E-03  0.6999994E+03  0.7818609E-02  0.9717233E-01
       -2   -1    0    0    0  501  0.00000000000E+00  0.00000000000E+00  0.16013876799E+03  0.16013876801E+03  0.25500000920E-02 0. -1.
        2   -1    0    0  501    0  0.00000000000E+00  0.00000000000E+00 -0.76496017383E+03  0.76496017383E+03  0.25500000920E-02 0.  1.
    10030    2    1    2    0    0  0.00000000000E+00  0.00000000000E+00 -0.60482140584E+03  0.92509894184E+03  0.69999937088E+03 0.  0.
        2    1    3    3  502    0  0.34949322702E+03 -0.11957715994E+02 -0.32162023316E+03  0.47510848981E+03  0.25500000920E-02 0.  1.
       -2    1    3    3    0  502 -0.34949322702E+03  0.11957715994E+02 -0.28320117268E+03  0.44999045203E+03  0.25500000920E-02 0. -1.
</event>
<event>
 5   0  0.1224048E-03  0.7002675E+03  0.7818609E-02  0.9716775E-01
        2   -1    0    0  501    0  0.00000000000E+00  0.00000000000E+00  0.12161553383E+04  0.12161553383E+04  0.25500000920E-02 0. -1.
       -2   -1    0    0    0  501  0.00000000000E+00  0.00000000000E+00 -0.10080426501E+03  0.10080426504E+03  0.25500000920E-02 0.  1.
    10030    2    1    2    0    0  0.00000000000E+00  0.00000000000E+00  0.11153510732E+04  0.13169596033E+04  0.70026750614E+03 0.  0.
        3    1    3    3  502    0 -0.16529937560E+03 -0.25567745926E+03  0.23248696726E+03  0.38307316128E+03  0.10100000352E+00 0.  1.
       -3    1    3    3    0  502  0.16529937560E+03  0.25567745926E+03  0.88286410599E+03  0.93388644202E+03  0.10100000352E+00 0. -1.
</event>
<event>
 5   0  0.7574241E-04  0.6999647E+03  0.7818609E-02  0.9717293E-01
       -1   -1    0    0    0  501  0.00000000000E+00  0.00000000000E+00  0.50658704271E+03  0.50658704273E+03  0.50400001928E-02 0. -1.
        1   -1    0    0  501    0  0.00000000000E+00  0.00000000000E+00 -0.24178990766E+03  0.24178990771E+03  0.50400001928E-02 0.  1.
    10030    2    1    2    0    0  0.00000000000E+00  0.00000000000E+00  0.26479713504E+03  0.74837695045E+03  0.69996466856E+03 0.  0.
        3    1    3    3  502    0 -0.11298156995E+03 -0.18328262380E+03  0.42739921246E+03  0.47856812717E+03  0.10100000352E+00 0. -1.
       -3    1    3    3    0  502  0.11298156995E+03  0.18328262380E+03 -0.16260207741E+03  0.26980882327E+03  0.10100000352E+00 0.  1.
</event>
<event>
 5   0  0.7572415E-04  0.6998579E+03  0.7818609E-02  0.9717475E-01
       -1   -1    0    0    0  501  0.00000000000E+00  0.00000000000E+00  0.26962581486E+03  0.26962581491E+03  0.50400001928E-02 0.  1.
        1   -1    0    0  501    0  0.00000000000E+00  0.00000000000E+00 -0.45414887497E+03  0.45414887500E+03  0.50400001928E-02 0. -1.
    10030    2    1    2    0    0  0.00000000000E+00  0.00000000000E+00 -0.18452306011E+03  0.72377468991E+03  0.69985787275E+03 0.  0.
        4    1    3    3  502    0  0.31451567168E+03 -0.14467379685E+03 -0.39548762357E+02  0.34844846496E+03  0.12699999809E+01 0. -1.
       -4    1    3    3    0  502 -0.31451567168E+03  0.14467379685E+03 -0.14497429776E+03  0.37532622495E+03  0.12699999809E+01 0.  1.
</event>
<event>
 5   0  0.1224048E-03  0.6987743E+03  0.7818609E-02  0.9719331E-01
       -2   -1    0    0    0  501  0.00000000000E+00  0.00000000000E+00  0.41717801769E+03  0.41717801770E+03  0.25500000920E-02 0. -1.
        2   -1    0    0  501    0  0.00000000000E+00  0.00000000000E+00 -0.29261224843E+03  0.29261224845E+03  0.25500000920E-02 0.  1.
    10030    2    1    2    0    0  0.00000000000E+00  0.00000000000E+00  0.12456576926E+03  0.70979026615E+03  0.69877434916E+03 0.  0.
        3    1    3    3  502    0 -0.20170397577E+03 -0.84412350245E+02  0.33908843487E+03  0.40347356243E+03  0.10100000352E+00 0. -1.
       -3    1    3    3    0  502  0.20170397577E+03  0.84412350245E+02 -0.21452266561E+03  0.30631670372E+03  0.10100000352E+00 0.  1.
</event>
<event>
 5   0  0.1222679E-03  0.6981053E+03  0.7818609E-02  0.9720478E-01
       -2   -1    0    0    0  501  0.00000000000E+00  0.00000000000E+00  0.51623666118E+03  0.51623666119E+03  0.25500000920E-02 0. -1.
        2   -1    0    0  501    0  0.00000000000E+00  0.00000000000E+00 -0.23601143883E+03  0.23601143884E+03  0.25500000920E-02 0.  1.
    10030    2    1    2    0    0  0.00000000000E+00  0.00000000000E+00  0.28022522236E+03  0.75224810003E+03  0.69810531351E+03 0.  0.
        2    1    3    3  502    0  0.26015350580E+03 -0.13427562750E+03  0.34492768411E+03  0.45242115113E+03  0.25500000920E-02 0. -1.
       -2    1    3    3    0  502 -0.26015350580E+03  0.13427562750E+03 -0.64702461755E+02  0.29982694890E+03  0.25500000920E-02 0.  1.
</event>
<event>
 5   0  0.7013526E-04  0.6996792E+03  0.7818609E-02  0.9717781E-01
       -1   -1    0    0    0  501  0.00000000000E+00  0.00000000000E+00  0.97579534706E+02  0.97579534836E+02  0.50400001928E-02 0. -1.
        1   -1    0    0  501    0  0.00000000000E+00  0.00000000000E+00 -0.12542358121E+04  0.12542358122E+04  0.50400001928E-02 0.  1.
    10030    2    1    2    0    0  0.00000000000E+00  0.00000000000E+00 -0.11566562774E+04  0.13518153470E+04  0.69967920380E+03 0.  0.
        1    1    3    3  502    0  0.29813770869E+03  0.28109533032E+02 -0.22889129935E+03  0.37691838127E+03  0.50400001928E-02 0. -1.
       -1    1    3    3    0  502 -0.29813770869E+03 -0.28109533032E+02 -0.92776497809E+03  0.97489696573E+03  0.50400001928E-02 0.  1.
</event>
<event>
 5   0  0.1265562E-03  0.6999080E+03  0.7818609E-02  0.9717390E-01
        2   -1    0    0  501    0  0.00000000000E+00  0.00000000000E+00  0.17813250584E+04  0.17813250584E+04  0.25500000920E-02 0.  1.
       -2   -1    0    0    0  501  0.00000000000E+00  0.00000000000E+00 -0.68750951855E+02  0.68750951902E+02  0.25500000920E-02 0. -1.
    10030    2    1    2    0    0  0.00000000000E+00  0.00000000000E+00  0.17125741066E+04  0.18500760103E+04  0.69990797502E+03 0.  0.
        1    1    3    3  502    0 -0.64752755967E+02  0.18456653284E+03  0.16233493581E+04  0.16350904754E+04  0.50400001928E-02 0.  1.
       -1    1    3    3    0  502  0.64752755967E+02 -0.18456653284E+03  0.89224748502E+02  0.21498553491E+03  0.50400001928E-02 0. -1.
</event>
<event>
 5   0  0.7459843E-04  0.7002468E+03  0.7818609E-02  0.9716810E-01
        1   -1    0    0  501    0  0.00000000000E+00  0.00000000000E+00  0.28549735807E+03  0.28549735812E+03  0.50400001928E-02 0. -1.
       -1   -1    0    0    0  501  0.00000000000E+00  0.00000000000E+00 -0.42937842905E+03  0.42937842908E+03  0.50400001928E-02 0.  1.
    10030    2    1    2    0    0  0.00000000000E+00  0.00000000000E+00 -0.14388107098E+03  0.71487578720E+03  0.70024683401E+03 0.  0.
        2    1    3    3  502    0  0.23917902641E+03  0.18124409753E+03  0.11218922397E+03  0.32037860657E+03  0.25500000920E-02 0. -1.
       -2    1    3    3    0  502 -0.23917902641E+03 -0.18124409753E+03 -0.25607029495E+03  0.39449718063E+03  0.25500000920E-02 0.  1.
</event>
<event>
 5   0  0.1282546E-03  0.7007205E+03  0.7818609E-02  0.9716001E-01
        2   -1    0    0  501    0  0.00000000000E+00  0.00000000000E+00  0.16383433894E+04  0.16383433894E+04  0.25500000920E-02 0.  1.
       -2   -1    0    0    0  501  0.00000000000E+00  0.00000000000E+00 -0.74924654438E+02  0.74924654481E+02  0.25500000920E-02 0. -1.
    10030    2    1    2    0    0  0.00000000000E+00  0.00000000000E+00  0.15634187349E+04  0.17132680438E+04  0.70072052157E+03 0.  0.
        5    1    3    3  502    0 -0.28777115182E+03 -0.61453025005E+02  0.31689061790E+03  0.43247018835E+03  0.46999998093E+01 0. -1.
       -5    1    3    3    0  502  0.28777115182E+03  0.61453025005E+02  0.12465281170E+04  0.12807978555E+04  0.46999998093E+01 0.  1.
</event>
<event>
 5   0  0.7459843E-04  0.7005514E+03  0.7818609E-02  0.9716290E-01
        1   -1    0    0  501    0  0.00000000000E+00  0.00000000000E+00  0.11860276710E+04  0.11860276710E+04  0.50400001928E-02 0.  1.
       -1   -1    0    0    0  501  0.00000000000E+00  0.00000000000E+00 -0.10344873971E+03  0.10344873983E+03  0.50400001928E-02 0. -1.
    10030    2    1    2    0    0  0.00000000000E+00  0.00000000000E+00  0.10825789313E+04  0.12894764108E+04  0.70055140541E+03 0.  0.
        2    1    3    3  502    0 -0.16224699082E+03 -0.22696132947E+03  0.93113368968E+03  0.97203162458E+03  0.25500000920E-02 0.  1.
       -2    1    3    3    0  502  0.16224699082E+03  0.22696132947E+03  0.15144524157E+03  0.31744478623E+03  0.25500000920E-02 0. -1.
</event>
<event>
 5   0  0.7013526E-04  0.7001391E+03  0.7818609E-02  0.9716994E-01
       -1   -1    0    0    0  501  0.00000000000E+00  0.00000000000E+00  0.57976203790E+03  0.57976203792E+03  0.50400001928E-02 0. -1.
        1   -1    0    0  501    0  0.00000000000E+00  0.00000000000E+00 -0.21137756372E+03  0.21137756378E+03  0.50400001928E-02 0.  1.
    10030    2    1    2    0    0  0.00000000000E+00  0.00000000000E+00  0.36838447418E+03  0.79113960170E+03  0.70013909230E+03 0.  0.
        1    1    3    3  502    0 -0.16003359505E+03  0.94472080673E+02  0.51942164851E+03  0.55166527400E+03  0.50400001928E-02 0. -1.
       -1    1    3    3    0  502  0.16003359505E+03 -0.94472080673E+02 -0.15103717433E+03  0.23947432770E+03  0.50400001928E-02 0.  1.
</event>
<event>
 5   0  0.7570633E-04  0.6999572E+03  0.7818609E-02  0.9717305E-01
       -1   -1    0    0    0  501  0.00000000000E+00  0.00000000000E+00  0.17117913438E+03  0.17117913445E+03  0.50400001928E-02 0.  1.
        1   -1    0    0  501    0  0.00000000000E+00  0.00000000000E+00 -0.71553711181E+03  0.71553711183E+03  0.50400001928E-02 0. -1.
    10030    2    1    2    0    0  0.00000000000E+00  0.00000000000E+00 -0.54435797743E+03  0.88671624629E+03  0.69995720857E+03 0.  0.
        5    1    3    3  502    0 -0.24107682921E+03  0.95980772153E+01  0.48934916436E+02  0.24622525604E+03  0.46999998093E+01 0.  1.
       -5    1    3    3    0  502  0.24107682921E+03 -0.95980772153E+01 -0.59329289387E+03  0.64049099024E+03  0.46999998093E+01 0. -1.
</event>
<event>
 5   0  0.1265562E-03  0.7000703E+03  0.7818609E-02  0.9717112E-01
        2   -1    0    0  501    0  0.00000000000E+00  0.00000000000E+00  0.14123829122E+03  0.14123829124E+03  0.25500000920E-02 0.  1.
       -2   -1    0    0    0  501  0.00000000000E+00  0.00000000000E+00 -0.86750266009E+03  0.86750266009E+03  0.25500000920E-02 0. -1.
    10030    2    1    2    0    0  0.00000000000E+00  0.00000000000E+00 -0.72626436887E+03  0.10087409513E+04  0.70007026320E+03 0.  0.
        1    1    3    3  502    0 -0.17211473078E+03 -0.16829118218E+03 -0.72930350037E+03  0.76800325405E+03  0.50400001928E-02 0. -1.
       -1    1    3    3    0  502  0.17211473078E+03  0.16829118218E+03  0.30391315020E+01  0.24073769729E+03  0.50400001928E-02 0.  1.
</event>
<event>
 5   0  0.7574241E-04  0.7002069E+03  0.7818609E-02  0.9716879E-01
        1   -1    0    0  501    0  0.00000000000E+00  0.00000000000E+00  0.65264438353E+03  0.65264438355E+03  0.50400001928E-02 0. -1.
       -1   -1    0    0    0  501  0.00000000000E+00  0.00000000000E+00 -0.18780888062E+03  0.18780888068E+03  0.50400001928E-02 0.  1.
    10030    2    1    2    0    0  0.00000000000E+00  0.00000000000E+00  0.46483550291E+03  0.84045326423E+03  0.70020685843E+03 0.  0.
        3    1    3    3  502    0  0.34020445224E+03  0.50849760712E+02  0.15419002211E+03  0.37696066188E+03  0.10100000352E+00 0.  1.
       -3    1    3    3    0  502 -0.34020445224E+03 -0.50849760712E+02  0.31064548080E+03  0.46349260235E+03  0.10100000352E+00 0. -1.
</event>
<event>
 5   0  0.1222679E-03  0.7000420E+03  0.7818609E-02  0.9717160E-01
       -2   -1    0    0    0  501  0.00000000000E+00  0.00000000000E+00  0.10897534862E+03  0.10897534865E+03  0.25500000920E-02 0. -1.
        2   -1    0    0  501    0  0.00000000000E+00  0.00000000000E+00 -0.11242423930E+04  0.11242423930E+04  0.25500000920E-02 0.  1.
    10030    2    1    2    0    0  0.00000000000E+00  0.00000000000E+00 -0.10152670444E+04  0.12332177417E+04  0.70004201799E+03 0.  0.
        2    1    3    3  502    0 -0.35532978680E+02 -0.99134819179E+02 -0.10956720906E+04  0.11007214157E+04  0.25500000920E-02 0.  1.
       -2    1    3    3    0  502  0.35532978680E+02  0.99134819179E+02  0.80405046147E+02  0.13249632599E+03  0.25500000920E-02 0. -1.
</event>
<event>
 5   0  0.7572415E-04  0.7006544E+03  0.7818609E-02  0.9716114E-01
       -1   -1    0    0    0  501  0.00000000000E+00  0.00000000000E+00  0.16593914863E+03  0.16593914871E+03  0.50400001928E-02 0.  1.
        1   -1    0    0  501    0  0.00000000000E+00  0.00000000000E+00 -0.73960329100E+03  0.73960329102E+03  0.50400001928E-02 0. -1.
    10030    2    1    2    0    0  0.00000000000E+00  0.00000000000E+00 -0.57366414237E+03  0.90554243973E+03  0.70065438121E+03 0.  0.
        4    1    3    3  502    0 -0.16196053231E+03  0.20574962850E+03 -0.58761829542E+03  0.64332029166E+03  0.12699999809E+01 0. -1.
       -4    1    3    3    0  502  0.16196053231E+03 -0.20574962850E+03  0.13954153048E+02  0.26222214807E+03  0.12699999809E+01 0.  1.
</event>
<event>
 5   0  0.7570633E-04  0.7002009E+03  0.7818609E-02  0.9716889E-01
       -1   -1    0    0    0  501  0.00000000000E+00  0.00000000000E+00  0.29373500826E+03  0.29373500830E+03  0.50400001928E-02 0.  1.
        1   -1    0    0  501    0  0.00000000000E+00  0.00000000000E+00 -0.41728201172E+03  0.41728201175E+03  0.50400001928E-02 0. -1.
    10030    2    1    2    0    0  0.00000000000E+00  0.00000000000E+00 -0.12354700345E+03  0.71101702005E+03  0.70020092883E+03 0.  0.
        5    1    3    3  502    0 -0.77487043474E+02 -0.20243968001E+03  0.21735844959E+03  0.30700627283E+03  0.46999998093E+01 0.  1.
       -5    1    3    3    0  502  0.77487043474E+02  0.20243968001E+03 -0.34090545305E+03  0.40401074722E+03  0.46999998093E+01 0. -1.
</event>
<event>
 5   0  0.1282546E-03  0.7008451E+03  0.7818609E-02  0.9715788E-01
       -2   -1    0    0    0  501  0.00000000000E+00  0.00000000000E+00  0.87788866650E+02  0.87788866687E+02  0.25500000920E-02 0. -1.
        2   -1    0    0  501    0  0.00000000000E+00  0.00000000000E+00 -0.13987644709E+04  0.13987644709E+04  0.25500000920E-02 0.  1.
    10030    2    1    2    0    0  0.00000000000E+00  0.00000000000E+00 -0.13109756043E+04  0.14865533376E+04  0.70084505461E+03 0.  0.
        5    1    3    3  502    0  0.28686420542E+03  0.19427936598E+03 -0.54449366312E+03  0.64539211614E+03  0.46999998093E+01 0. -1.
       -5    1    3    3    0  502 -0.28686420542E+03 -0.19427936598E+03 -0.76648194115E+03  0.84116122147E+03  0.46999998093E+01 0.  1.
</event>
<event>
 5   0  0.7570633E-04  0.6999571E+03  0.7818609E-02  0.9717305E-01
        1   -1    0    0  501    0  0.00000000000E+00  0.00000000000E+00  0.84620315561E+03  0.84620315563E+03  0.50400001928E-02 0.  1.
       -1   -1    0    0    0  501  0.00000000000E+00  0.00000000000E+00 -0.14474656746E+03  0.14474656755E+03  0.50400001928E-02 0. -1.
    10030    2    1    2    0    0  0.00000000000E+00  0.00000000000E+00  0.70145658815E+03  0.99094972317E+03  0.69995714783E+03 0.  0.
        5    1    3    3  502    0 -0.22029107519E+03  0.96283743209E+02  0.71073625641E+03  0.75031115757E+03  0.46999998093E+01 0.  1.
       -5    1    3    3    0  502  0.22029107519E+03 -0.96283743209E+02 -0.92796682559E+01  0.24063856560E+03  0.46999998093E+01 0. -1.
</event>
<event>
 5   0  0.4936000E-04  0.7001616E+03  0.7818609E-02  0.9716956E-01
        4   -1    0    0  501    0  0.00000000000E+00  0.00000000000E+00  0.28737298732E+03  0.28737579359E+03  0.12699999809E+01 0. -1.
       -4   -1    0    0    0  501  0.00000000000E+00  0.00000000000E+00 -0.42646623795E+03  0.42646812895E+03  0.12699999809E+01 0.  1.
    10030    2    1    2    0    0  0.00000000000E+00  0.00000000000E+00 -0.13909325063E+03  0.71384392254E+03  0.70016156234E+03 0.  0.
        5    1    3    3  502    0 -0.26208738151E+03 -0.33397008072E+02 -0.30366259323E+03  0.40253970763E+03  0.46999998093E+01 0.  1.
       -5    1    3    3    0  502  0.26208738151E+03  0.33397008072E+02  0.16456934261E+03  0.31130421491E+03  0.46999998093E+01 0. -1.
</event>
<event>
 5   0  0.1265562E-03  0.6996285E+03  0.7818609E-02  0.9717868E-01
       -2   -1    0    0    0  501  0.00000000000E+00  0.00000000000E+00  0.68753679339E+02  0.68753679386E+02  0.25500000920E-02 0. -1.
        2   -1    0    0  501    0  0.00000000000E+00  0.00000000000E+00 -0.17798321842E+04  0.17798321842E+04  0.25500000920E-02 0.  1.
    10030    2    1    2    0    0  0.00000000000E+00  0.00000000000E+00 -0.17110785048E+04  0.18485858636E+04  0.69962850517E+03 0.  0.
        1    1    3    3  502    0 -0.14080994188E+03 -0.20996109166E+03 -0.21669131896E+03  0.33296580527E+03  0.50400001928E-02 0. -1.
       -1    1    3    3    0  502  0.14080994188E+03  0.20996109166E+03 -0.14943871859E+04  0.15156200583E+04  0.50400001928E-02 0.  1.
</event>
<event>
 5   0  0.7572415E-04  0.6999006E+03  0.7818609E-02  0.9717402E-01
       -1   -1    0    0    0  501  0.00000000000E+00  0.00000000000E+00  0.32018507504E+03  0.32018507508E+03  0.50400001928E-02 0. -1.
        1   -1    0    0  501    0  0.00000000000E+00  0.00000000000E+00 -0.38248261341E+03  0.38248261344E+03  0.50400001928E-02 0.  1.
    10030    2    1    2    0    0  0.00000000000E+00  0.00000000000E+00 -0.62297538371E+02  0.70266768852E+03  0.69990063381E+03 0.  0.
        4    1    3    3  502    0 -0.84048475354E+02  0.18293130944E+03 -0.31852438769E+03  0.37681216625E+03  0.12699999809E+01 0.  1.
       -4    1    3    3    0  502  0.84048475354E+02 -0.18293130944E+03  0.25622684932E+03  0.32585552227E+03  0.12699999809E+01 0. -1.
</event>
<event>
 5   0  0.1265562E-03  0.6984599E+03  0.7818609E-02  0.9719870E-01
       -2   -1    0    0    0  501  0.00000000000E+00  0.00000000000E+00  0.32252369855E+03  0.32252369856E+03  0.25500000920E-02 0.  1.
        2   -1    0    0  501    0  0.00000000000E+00  0.00000000000E+00 -0.37814763097E+03  0.37814763098E+03  0.25500000920E-02 0. -1.
    10030    2    1    2    0    0  0.00000000000E+00  0.00000000000E+00 -0.55623932429E+02  0.70067132954E+03  0.69845994171E+03 0.  0.
        1    1    3    3  502    0  0.62464627895E+02  0.25030806287E+03  0.20831725751E+03  0.33159016252E+03  0.50400001928E-02 0.  1.
       -1    1    3    3    0  502 -0.62464627895E+02 -0.25030806287E+03 -0.26394118994E+03  0.36908116702E+03  0.50400001928E-02 0. -1.
</event>
<event>
 5   0  0.1265562E-03  0.7001464E+03  0.7818609E-02  0.9716982E-01
        2   -1    0    0  501    0  0.00000000000E+00  0.00000000000E+00  0.71165478544E+02  0.71165478590E+02  0.25500000920E-02 0. -1.
       -2   -1    0    0    0  501  0.00000000000E+00  0.00000000000E+00 -0.17220600949E+04  0.17220600949E+04  0.25500000920E-02 0.  1.
    10030    2    1    2    0    0  0.00000000000E+00  0.00000000000E+00 -0.16508946163E+04  0.17932255734E+04  0.70014635834E+03 0.  0.
        1    1    3    3  502    0 -0.13536518465E+03  0.18107730818E+03 -0.15100084939E+04  0.15268393421E+04  0.50400001928E-02 0.  1.
       -1    1    3    3    0  502  0.13536518465E+03 -0.18107730818E+03 -0.14088612237E+03  0.26638623135E+03  0.50400001928E-02 0. -1.
</event>
<event>
 5   0  0.7572415E-04  0.7013024E+03  0.7818609E-02  0.9715007E-01
       -1   -1    0    0    0  501  0.00000000000E+00  0.00000000000E+00  0.31318463997E+03  0.31318464001E+03  0.50400001928E-02 0. -1.
        1   -1    0    0  501    0  0.00000000000E+00  0.00000000000E+00 -0.39259995837E+03  0.39259995841E+03  0.50400001928E-02 0.  1.
    10030    2    1    2    0    0  0.00000000000E+00  0.00000000000E+00 -0.79415318403E+02  0.70578459842E+03  0.70130243587E+03 0.  0.
        4    1    3    3  502    0 -0.24051419985E+02  0.31725416368E+03  0.10863176980E+03  0.33620105515E+03  0.12699999809E+01 0. -1.
       -4    1    3    3    0  502  0.24051419985E+02 -0.31725416368E+03 -0.18804708820E+03  0.36958354327E+03  0.12699999809E+01 0.  1.
</event>
<event>
 5   0  0.7574241E-04  0.6999532E+03  0.7818609E-02  0.9717312E-01
        1   -1    0    0  501    0  0.00000000000E+00  0.00000000000E+00  0.10080817173E+04  0.10080817173E+04  0.50400001928E-02 0.  1.
       -1   -1    0    0    0  501  0.00000000000E+00  0.00000000000E+00 -0.12150166170E+03  0.12150166181E+03  0.50400001928E-02 0. -1.
    10030    2    1    2    0    0  0.00000000000E+00  0.00000000000E+00  0.88658005561E+03  0.11295833791E+04  0.69995315230E+03 0.  0.
        3    1    3    3  502    0  0.13787782670E+03  0.30312276657E+03  0.61702566824E+03  0.70115218903E+03  0.10100000352E+00 0.  1.
       -3    1    3    3    0  502 -0.13787782670E+03 -0.30312276657E+03  0.26955438737E+03  0.42843119011E+03  0.10100000352E+00 0. -1.
</event>
<event>
 5   0  0.4936000E-04  0.7009938E+03  0.7818609E-02  0.9715534E-01
       -3   -1    0    0    0  501  0.00000000000E+00  0.00000000000E+00  0.38899180683E+03  0.38899181994E+03  0.10100000352E+00 0.  1.
        3   -1    0    0  501    0  0.00000000000E+00  0.00000000000E+00 -0.31581146051E+03  0.31581147666E+03  0.10100000352E+00 0. -1.
    10030    2    1    2    0    0  0.00000000000E+00  0.00000000000E+00  0.73180346320E+02  0.70480329660E+03  0.70099381154E+03 0.  0.
        1    1    3    3  502    0 -0.12413245084E+03 -0.32192161859E+03 -0.25435327667E+02  0.34596148598E+03  0.50400001928E-02 0. -1.
       -1    1    3    3    0  502  0.12413245084E+03  0.32192161859E+03  0.98615673987E+02  0.35884181062E+03  0.50400001928E-02 0.  1.
</event>
<event>
 5   0  0.1243087E-03  0.6997045E+03  0.7818609E-02  0.9717738E-01
       -2   -1    0    0    0  501  0.00000000000E+00  0.00000000000E+00  0.55296378927E+03  0.55296378928E+03  0.25500000920E-02 0. -1.
        2   -1    0    0  501    0  0.00000000000E+00  0.00000000000E+00 -0.22134646990E+03  0.22134646992E+03  0.25500000920E-02 0.  1.
    10030    2    1    2    0    0  0.00000000000E+00  0.00000000000E+00  0.33161731937E+03  0.77431025920E+03  0.69970445975E+03 0.  0.
        4    1    3    3  502    0  0.15365286109E+03 -0.29853624589E+03  0.27458417428E+03  0.43374090595E+03  0.12699999809E+01 0. -1.
       -4    1    3    3    0  502 -0.15365286109E+03  0.29853624589E+03  0.57033145090E+02  0.34056935324E+03  0.12699999809E+01 0.  1.
</event>
<event>
 5   0  0.7572415E-04  0.7000917E+03  0.7818609E-02  0.9717075E-01
        1   -1    0    0  501    0  0.00000000000E+00  0.00000000000E+00  0.87683519101E+03  0.87683519103E+03  0.50400001928E-02 0.  1.
       -1   -1    0    0    0  501  0.00000000000E+00  0.00000000000E+00 -0.13974357643E+03  0.13974357653E+03  0.50400001928E-02 0. -1.
    10030    2    1    2    0    0  0.00000000000E+00  0.00000000000E+00  0.73709161458E+03  0.10165787676E+04  0.70009166711E+03 0.  0.
        4    1    3    3  502    0  0.27765608111E+02  0.34203297332E+02  0.87279033559E+03  0.87390238434E+03  0.12699999809E+01 0.  1.
       -4    1    3    3    0  502 -0.27765608111E+02 -0.34203297332E+02 -0.13569872102E+03  0.14267638322E+03  0.12699999809E+01 0. -1.
</event>
<event>
 5   0  0.7013526E-04  0.6999379E+03  0.7818609E-02  0.9717338E-01
       -1   -1    0    0    0  501  0.00000000000E+00  0.00000000000E+00  0.20905982958E+03  0.20905982964E+03  0.50400001928E-02 0.  1.
        1   -1    0    0  501    0  0.00000000000E+00  0.00000000000E+00 -0.58585269764E+03  0.58585269766E+03  0.50400001928E-02 0. -1.
    10030    2    1    2    0    0  0.00000000000E+00  0.00000000000E+00 -0.37679286805E+03  0.79491252730E+03  0.69993789771E+03 0.  0.
        1    1    3    3  502    0 -0.57859926809E+02  0.18989142519E+03 -0.51572694449E+03  0.55261270867E+03  0.50400001928E-02 0. -1.
       -1    1    3    3    0  502  0.57859926809E+02 -0.18989142519E+03  0.13893407643E+03  0.24229981863E+03  0.50400001928E-02 0.  1.
</event>
<event>
 5   0  0.7570633E-04  0.7002058E+03  0.7818609E-02  0.9716880E-01
       -1   -1    0    0    0  501  0.00000000000E+00  0.00000000000E+00  0.18724064048E+03  0.18724064055E+03  0.50400001928E-02 0. -1.
        1   -1    0    0  501    0  0.00000000000E+00  0.00000000000E+00 -0.65462300197E+03  0.65462300199E+03  0.50400001928E-02 0.  1.
    10030    2    1    2    0    0  0.00000000000E+00  0.00000000000E+00 -0.46738236149E+03  0.84186364254E+03  0.70020577032E+03 0.  0.
        5    1    3    3  502    0  0.18736722838E+03 -0.15758926598E+03 -0.53453060420E+03  0.58795060324E+03  0.46999998093E+01 0.  1.
       -5    1    3    3    0  502 -0.18736722838E+03  0.15758926598E+03  0.67148242716E+02  0.25391303929E+03  0.46999998093E+01 0. -1.
</event>
<event>
 5   0  0.1243087E-03  0.6999463E+03  0.7818609E-02  0.9717324E-01
        2   -1    0    0  501    0  0.00000000000E+00  0.00000000000E+00  0.26061239232E+03  0.26061239234E+03  0.25500000920E-02 0. -1.
       -2   -1    0    0    0  501  0.00000000000E+00  0.00000000000E+00 -0.46997456329E+03  0.46997456329E+03  0.25500000920E-02 0.  1.
    10030    2    1    2    0    0  0.00000000000E+00  0.00000000000E+00 -0.20936217096E+03  0.73058695563E+03  0.69994627015E+03 0.  0.
        4    1    3    3  502    0  0.15910717827E+03  0.27838110585E+03  0.41702458480E+02  0.32334477298E+03  0.12699999809E+01 0. -1.
       -4    1    3    3    0  502 -0.15910717827E+03 -0.27838110585E+03 -0.25106462944E+03  0.40724218265E+03  0.12699999809E+01 0.  1.
</event>
<event>
 5   0  0.1222679E-03  0.7000707E+03  0.7818609E-02  0.9717111E-01
       -2   -1    0    0    0  501  0.00000000000E+00  0.00000000000E+00  0.67123223547E+02  0.67123223596E+02  0.25500000920E-02 0. -1.
        2   -1    0    0  501    0  0.00000000000E+00  0.00000000000E+00 -0.18253702740E+04  0.18253702740E+04  0.25500000920E-02 0.  1.
    10030    2    1    2    0    0  0.00000000000E+00  0.00000000000E+00 -0.17582470504E+04  0.18924934976E+04  0.70007067358E+03 0.  0.
        2    1    3    3  502    0 -0.26139944638E+03 -0.18683089506E+03 -0.12545721813E+04  0.12950624742E+04  0.25500000920E-02 0. -1.
       -2    1    3    3    0  502  0.26139944638E+03  0.18683089506E+03 -0.50367486910E+03  0.59743102337E+03  0.25500000920E-02 0.  1.
</event>
<event>
 5   0  0.7570633E-04  0.6999960E+03  0.7818609E-02  0.9717239E-01
       -1   -1    0    0    0  501  0.00000000000E+00  0.00000000000E+00  0.14387132845E+03  0.14387132854E+03  0.50400001928E-02 0.  1.
        1   -1    0    0  501    0  0.00000000000E+00  0.00000000000E+00 -0.85144554343E+03  0.85144554344E+03  0.50400001928E-02 0. -1.
    10030    2    1    2    0    0  0.00000000000E+00  0.00000000000E+00 -0.70757421498E+03  0.99531687198E+03  0.69999600423E+03 0.  0.
        5    1    3    3  502    0 -0.48828693324E+02 -0.34343739086E+03 -0.41961043061E+03  0.54445246460E+03  0.46999998093E+01 0. -1.
       -5    1    3    3    0  502  0.48828693324E+02  0.34343739086E+03 -0.28796378437E+03  0.45086440738E+03  0.46999998093E+01 0.  1.
</event>
<event>
 5   0  0.7013526E-04  0.6995690E+03  0.7818609E-02  0.9717969E-01
        1   -1    0    0  501    0  0.00000000000E+00  0.00000000000E+00  0.75168838532E+03  0.75168838534E+03  0.50400001928E-02 0.  1.
       -1   -1    0    0    0  501  0.00000000000E+00  0.00000000000E+00 -0.16276585876E+03  0.16276585884E+03  0.50400001928E-02 0. -1.
    10030    2    1    2    0    0  0.00000000000E+00  0.00000000000E+00  0.58892252656E+03  0.91445424417E+03  0.69956902619E+03 0.  0.
        1    1    3    3  502    0  0.29688489211E+03  0.14291404988E+03  0.14099205347E+03  0.35839060253E+03  0.50400001928E-02 0. -1.
       -1    1    3    3    0  502 -0.29688489211E+03 -0.14291404988E+03  0.44793047309E+03  0.55606364165E+03  0.50400001928E-02 0.  1.
</event>
<event>
 5   0  0.1224048E-03  0.7000735E+03  0.7818609E-02  0.9717107E-01
       -2   -1    0    0    0  501  0.00000000000E+00  0.00000000000E+00  0.10055990535E+03  0.10055990538E+03  0.25500000920E-02 0.  1.
        2   -1    0    0  501    0  0.00000000000E+00  0.00000000000E+00 -0.12184351103E+04  0.12184351103E+04  0.25500000920E-02 0. -1.
    10030    2    1    2    0    0  0.00000000000E+00  0.00000000000E+00 -0.11178752049E+04  0.13189950157E+04  0.70007348011E+03 0.  0.
        3    1    3    3  502    0  0.15637252094E+03 -0.10027145868E+03 -0.11179065603E+04  0.11332351117E+04  0.10100000352E+00 0. -1.
       -3    1    3    3    0  502 -0.15637252094E+03  0.10027145868E+03  0.31355342149E-01  0.18575990395E+03  0.10100000352E+00 0.  1.
</event>
<event>
 5   0  0.1243087E-03  0.7000550E+03  0.7818609E-02  0.9717138E-01
       -2   -1    0    0    0  501  0.00000000000E+00  0.00000000000E+00  0.96615231022E+02  0.96615231056E+02  0.25500000920E-02 0.  1.
        2   -1    0    0  501    0  0.00000000000E+00  0.00000000000E+00 -0.12681154295E+04  0.12681154295E+04  0.25500000920E-02 0. -1.
    10030    2    1    2    0    0  0.00000000000E+00  0.00000000000E+00 -0.11715001985E+04  0.13647306606E+04  0.70005504130E+03 0.  0.
        4    1    3    3  502    0  0.54122345345E+02 -0.44150654224E+02  0.82887337171E+02  0.10839941004E+03  0.12699999809E+01 0.  1.
       -4    1    3    3    0  502 -0.54122345345E+02  0.44150654224E+02 -0.12543875357E+04  0.12563312506E+04  0.12699999809E+01 0. -1.
</event>
<event>
 5   0  0.1243087E-03  0.6997499E+03  0.7818609E-02  0.9717660E-01
        2   -1    0    0  501    0  0.00000000000E+00  0.00000000000E+00  0.93088431310E+03  0.93088431311E+03  0.25500000920E-02 0.  1.
       -2   -1    0    0    0  501  0.00000000000E+00  0.00000000000E+00 -0.13150126408E+03  0.13150126411E+03  0.25500000920E-02 0. -1.
    10030    2    1    2    0    0  0.00000000000E+00  0.00000000000E+00  0.79938304902E+03  0.10623855772E+04  0.69974985217E+03 0.  0.
        4    1    3    3  502    0 -0.15996012636E+03  0.75360950568E+02 -0.58665818978E+02  0.18630567922E+03  0.12699999809E+01 0. -1.
       -4    1    3    3    0  502  0.15996012636E+03 -0.75360950568E+02  0.85804886800E+03  0.87607989799E+03  0.12699999809E+01 0.  1.
</event>
<event>
 5   0  0.7574241E-04  0.7004405E+03  0.7818609E-02  0.9716479E-01
       -1   -1    0    0    0  501  0.00000000000E+00  0.00000000000E+00  0.13005628108E+03  0.13005628118E+03  0.50400001928E-02 0.  1.
        1   -1    0    0  501    0  0.00000000000E+00  0.00000000000E+00 -0.94308571383E+03  0.94308571384E+03  0.50400001928E-02 0. -1.
    10030    2    1    2    0    0  0.00000000000E+00  0.00000000000E+00 -0.81302943275E+03  0.10731419950E+04  0.70044049209E+03 0.  0.
        3    1    3    3  502    0 -0.14945023108E+03  0.78527413074E+02  0.63597326477E+02  0.18040664154E+03  0.10100000352E+00 0.  1.
       -3    1    3    3    0  502  0.14945023108E+03 -0.78527413074E+02 -0.87662675923E+03  0.89273535349E+03  0.10100000352E+00 0. -1.
</event>
<event>
 5   0  0.7574241E-04  0.6999183E+03  0.7818609E-02  0.9717372E-01
       -1   -1    0    0    0  501  0.00000000000E+00  0.00000000000E+00  0.32041595316E+03  0.32041595320E+03  0.50400001928E-02 0. -1.
        1   -1    0    0  501    0  0.00000000000E+00  0.00000000000E+00 -0.38222634571E+03  0.38222634575E+03  0.50400001928E-02 0.  1.
    10030    2    1    2    0    0  0.00000000000E+00  0.00000000000E+00 -0.61810392557E+02  0.70264229894E+03  0.69991833497E+03 0.  0.
        3    1    3    3  502    0 -0.28214933073E+03 -0.19835983787E+03  0.28626000685E+02  0.34608427908E+03  0.10100000352E+00 0. -1.
       -3    1    3    3    0  502  0.28214933073E+03  0.19835983787E+03 -0.90436393242E+02  0.35655801987E+03  0.10100000352E+00 0.  1.
</event>
<event>
 5   0  0.7013526E-04  0.7002476E+03  0.7818609E-02  0.9716809E-01
       -1   -1    0    0    0  501  0.00000000000E+00  0.00000000000E+00  0.17656936817E+03  0.17656936824E+03  0.50400001928E-02 0.  1.
        1   -1    0    0  501    0  0.00000000000E+00  0.00000000000E+00 -0.69426911021E+03  0.69426911023E+03  0.50400001928E-02 0. -1.
    10030    2    1    2    0    0  0.00000000000E+00  0.00000000000E+00 -0.51769974204E+03  0.87083847847E+03  0.70024755099E+03 0.  0.
        1    1    3    3  502    0  0.22271250723E+03  0.15611728474E+03  0.15347366408E+02  0.27241330576E+03  0.50400001928E-02 0.  1.
       -1    1    3    3    0  502 -0.22271250723E+03 -0.15611728474E+03 -0.53304710845E+03  0.59842517271E+03  0.50400001928E-02 0. -1.
</event>
<event>
 5   0  0.4936000E-04  0.6998474E+03  0.7818609E-02  0.9717493E-01
        4   -1    0    0  501    0  0.00000000000E+00  0.00000000000E+00  0.39808170576E+03  0.39808373160E+03  0.12699999809E+01 0.  1.
       -4   -1    0    0    0  501  0.00000000000E+00  0.00000000000E+00 -0.30758748120E+03  0.30759010305E+03  0.12699999809E+01 0. -1.
    10030    2    1    2    0    0  0.00000000000E+00  0.00000000000E+00  0.90494224557E+02  0.70567383465E+03  0.69984738067E+03 0.  0.
        3    1    3    3  502    0  0.24501648779E+03  0.24951430428E+03  0.57845592431E+02  0.35445252164E+03  0.10100000352E+00 0. -1.
       -3    1    3    3    0  502 -0.24501648779E+03 -0.24951430428E+03  0.32648632126E+02  0.35122131301E+03  0.10100000352E+00 0.  1.
</event>
<event>
 5   0  0.1224048E-03  0.7002871E+03  0.7818609E-02  0.9716741E-01
       -2   -1    0    0    0  501  0.00000000000E+00  0.00000000000E+00  0.12722499999E+03  0.12722500002E+03  0.25500000920E-02 0.  1.
        2   -1    0    0  501    0  0.00000000000E+00  0.00000000000E+00 -0.96365116612E+03  0.96365116612E+03  0.25500000920E-02 0. -1.
    10030    2    1    2    0    0  0.00000000000E+00  0.00000000000E+00 -0.83642616613E+03  0.10908761661E+04  0.70028714002E+03 0.  0.
        3    1    3    3  502    0 -0.18812329506E+03 -0.97136058656E+02  0.16215642408E+02  0.21234110600E+03  0.10100000352E+00 0.  1.
       -3    1    3    3    0  502  0.18812329506E+03  0.97136058656E+02 -0.85264180854E+03  0.87853506014E+03  0.10100000352E+00 0. -1.
</event>
<event>
 5   0  0.1224048E-03  0.6996959E+03  0.7818609E-02  0.9717752E-01
        2   -1    0    0  501    0  0.00000000000E+00  0.00000000000E+00  0.12959614195E+03  0.12959614198E+03  0.25500000920E-02 0.  1.
       -2   -1    0    0    0  501  0.00000000000E+00  0.00000000000E+00 -0.94442299452E+03  0.94442299452E+03  0.25500000920E-02 0. -1.
    10030    2    1    2    0    0  0.00000000000E+00  0.00000000000E+00 -0.81482685256E+03  0.10740191365E+04  0.69969586673E+03 0.  0.
        3    1    3    3  502    0  0.60633531117E+02  0.24513153937E+03 -0.35746405102E+02  0.25503668827E+03  0.10100000352E+00 0.  1.
       -3    1    3    3    0  502 -0.60633531117E+02 -0.24513153937E+03 -0.77908044746E+03  0.81898244823E+03  0.10100000352E+00 0. -1.
</event>
<event>
 5   0  0.4936000E-04  0.6998661E+03  0.7818609E-02  0.9717461E-01
        3   -1    0    0  501    0  0.00000000000E+00  0.00000000000E+00  0.47504790805E+03  0.47504791879E+03  0.10100000352E+00 0.  1.
       -3   -1    0    0    0  501  0.00000000000E+00  0.00000000000E+00 -0.25777008493E+03  0.25777010472E+03  0.10100000352E+00 0. -1.
    10030    2    1    2    0    0  0.00000000000E+00  0.00000000000E+00  0.21727782312E+03  0.73281802351E+03  0.69986613231E+03 0.  0.
        3    1    3    3  502    0  0.19785184773E+03 -0.19354084415E+03  0.33284610840E+03  0.43288561317E+03  0.10100000352E+00 0.  1.
       -3    1    3    3    0  502 -0.19785184773E+03  0.19354084415E+03 -0.11556828528E+03  0.29993241034E+03  0.10100000352E+00 0. -1.
</event>
<event>
 5   0  0.7574241E-04  0.7003460E+03  0.7818609E-02  0.9716641E-01
       -1   -1    0    0    0  501  0.00000000000E+00  0.00000000000E+00  0.44233297783E+03  0.44233297786E+03  0.50400001928E-02 0. -1.
        1   -1    0    0  501    0  0.00000000000E+00  0.00000000000E+00 -0.27721455760E+03  0.27721455765E+03  0.50400001928E-02 0.  1.
    10030    2    1    2    0    0  0.00000000000E+00  0.00000000000E+00  0.16511842023E+03  0.71954753551E+03  0.70034603101E+03 0.  0.
        3    1    3    3  502    0 -0.22613853072E+03  0.24271363188E+03 -0.32642564030E+02  0.33333780068E+03  0.10100000352E+00 0.  1.
       -3    1    3    3    0  502  0.22613853072E+03 -0.24271363188E+03  0.19776098426E+03  0.38620973482E+03  0.10100000352E+00 0. -1.
</event>
<event>
 5   0  0.1222679E-03  0.7001326E+03  0.7818609E-02  0.9717006E-01
        2   -1    0    0  501    0  0.00000000000E+00  0.00000000000E+00  0.50354184850E+02  0.50354184914E+02  0.25500000920E-02 0. -1.
       -2   -1    0    0    0  501  0.00000000000E+00  0.00000000000E+00 -0.24336885230E+04  0.24336885230E+04  0.25500000920E-02 0.  1.
    10030    2    1    2    0    0  0.00000000000E+00  0.00000000000E+00 -0.23833343382E+04  0.24840427079E+04  0.70013256412E+03 0.  0.
        2    1    3    3  502    0 -0.32407161092E+03  0.65836771577E+02 -0.78419950482E+03  0.85107329465E+03  0.25500000920E-02 0. -1.
       -2    1    3    3    0  502  0.32407161092E+03 -0.65836771577E+02 -0.15991348334E+04  0.16329694133E+04  0.25500000920E-02 0.  1.
</event>
<event>
 5   0  0.1265562E-03  0.6995310E+03  0.7818609E-02  0.9718035E-01
       -2   -1    0    0    0  501  0.00000000000E+00  0.00000000000E+00  0.60593902659E+03  0.60593902660E+03  0.25500000920E-02 0. -1.
        2   -1    0    0  501    0  0.00000000000E+00  0.00000000000E+00 -0.20189476599E+03  0.20189476601E+03  0.25500000920E-02 0.  1.
    10030    2    1    2    0    0  0.00000000000E+00  0.00000000000E+00  0.40404426060E+03  0.80783379261E+03  0.69953103716E+03 0.  0.
        1    1    3    3  502    0  0.33051523576E+03 -0.10105594301E+03  0.14001245785E+03  0.37290228354E+03  0.50400001928E-02 0.  1.
       -1    1    3    3    0  502 -0.33051523576E+03  0.10105594301E+03  0.26403180275E+03  0.43493150907E+03  0.50400001928E-02 0. -1.
</event>
<event>
 5   0  0.1243087E-03  0.6999871E+03  0.7818609E-02  0.9717254E-01
       -2   -1    0    0    0  501  0.00000000000E+00  0.00000000000E+00  0.94432736337E+02  0.94432736371E+02  0.25500000920E-02 0.  1.
        2   -1    0    0  501    0  0.00000000000E+00  0.00000000000E+00 -0.12971718799E+04  0.12971718799E+04  0.25500000920E-02 0. -1.
    10030    2    1    2    0    0  0.00000000000E+00  0.00000000000E+00 -0.12027391435E+04  0.13916046162E+04  0.69998711457E+03 0.  0.
        4    1    3    3  502    0 -0.22675817225E+02  0.34566851870E+03 -0.70063166902E+03  0.78159277507E+03  0.12699999809E+01 0. -1.
       -4    1    3    3    0  502  0.22675817225E+02 -0.34566851870E+03 -0.50210747450E+03  0.61001184116E+03  0.12699999809E+01 0.  1.
</event>
<event>
 5   0  0.4936000E-04  0.6997648E+03  0.7818609E-02  0.9717634E-01
       -3   -1    0    0    0  501  0.00000000000E+00  0.00000000000E+00  0.68025960207E+03  0.68025960957E+03  0.10100000352E+00 0. -1.
        3   -1    0    0  501    0  0.00000000000E+00  0.00000000000E+00 -0.17995731776E+03  0.17995734611E+03  0.10100000352E+00 0.  1.
    10030    2    1    2    0    0  0.00000000000E+00  0.00000000000E+00  0.50030228431E+03  0.86021695568E+03  0.69976484275E+03 0.  0.
        3    1    3    3  502    0 -0.25815395312E+03 -0.12331902655E+03  0.49774534214E+03  0.57410929417E+03  0.10100000352E+00 0. -1.
       -3    1    3    3    0  502  0.25815395312E+03  0.12331902655E+03  0.25569421678E+01  0.28610766151E+03  0.10100000352E+00 0.  1.
</event>
<event>
 5   0  0.7570633E-04  0.7029270E+03  0.7818609E-02  0.9712240E-01
        1   -1    0    0  501    0  0.00000000000E+00  0.00000000000E+00  0.13845838482E+03  0.13845838491E+03  0.50400001928E-02 0. -1.
       -1   -1    0    0    0  501  0.00000000000E+00  0.00000000000E+00 -0.89215674256E+03  0.89215674257E+03  0.50400001928E-02 0.  1.
    10030    2    1    2    0    0  0.00000000000E+00  0.00000000000E+00 -0.75369835774E+03  0.10306151275E+04  0.70292697098E+03 0.  0.
        5    1    3    3  502    0  0.24644436530E+03 -0.18752927435E+03 -0.13325885957E+03  0.33716771432E+03  0.46999998093E+01 0. -1.
       -5    1    3    3    0  502 -0.24644436530E+03  0.18752927435E+03 -0.62043949817E+03  0.69344741316E+03  0.46999998093E+01 0.  1.
</event>
<event>
 5   0  0.1265562E-03  0.6994157E+03  0.7818609E-02  0.9718232E-01
       -2   -1    0    0    0  501  0.00000000000E+00  0.00000000000E+00  0.55129959600E+03  0.55129959600E+03  0.25500000920E-02 0. -1.
        2   -1    0    0  501    0  0.00000000000E+00  0.00000000000E+00 -0.22183144240E+03  0.22183144241E+03  0.25500000920E-02 0.  1.
    10030    2    1    2    0    0  0.00000000000E+00  0.00000000000E+00  0.32946815360E+03  0.77313103842E+03  0.69941571209E+03 0.  0.
        1    1    3    3  502    0 -0.25910326154E+03 -0.15193679345E+03  0.36270883698E+03  0.47093204371E+03  0.50400001928E-02 0. -1.
       -1    1    3    3    0  502  0.25910326154E+03  0.15193679345E+03 -0.33240683377E+02  0.30219899471E+03  0.50400001928E-02 0.  1.
</event>
<event>
 5   0  0.1224048E-03  0.6999892E+03  0.7818609E-02  0.9717251E-01
       -2   -1    0    0    0  501  0.00000000000E+00  0.00000000000E+00  0.10356432076E+03  0.10356432079E+03  0.25500000920E-02 0.  1.
        2   -1    0    0  501    0  0.00000000000E+00  0.00000000000E+00 -0.11828034072E+04  0.11828034072E+04  0.25500000920E-02 0. -1.
    10030    2    1    2    0    0  0.00000000000E+00  0.00000000000E+00 -0.10792390864E+04  0.12863677280E+04  0.69998923270E+03 0.  0.
        3    1    3    3  502    0 -0.21394471053E+02  0.20728951851E+02 -0.11804694020E+04  0.11808452193E+04  0.10100000352E+00 0. -1.
       -3    1    3    3    0  502  0.21394471053E+02 -0.20728951851E+02  0.10123031556E+03  0.10552250862E+03  0.10100000352E+00 0.  1.
</event>
<event>
 5   0  0.7572415E-04  0.7001147E+03  0.7818609E-02  0.9717036E-01
        1   -1    0    0  501    0  0.00000000000E+00  0.00000000000E+00  0.19728978890E+03  0.19728978897E+03  0.50400001928E-02 0.  1.
       -1   -1    0    0    0  501  0.00000000000E+00  0.00000000000E+00 -0.62111760271E+03  0.62111760273E+03  0.50400001928E-02 0. -1.
    10030    2    1    2    0    0  0.00000000000E+00  0.00000000000E+00 -0.42382781380E+03  0.81840739169E+03  0.70011473562E+03 0.  0.
        4    1    3    3  502    0  0.16048186653E+03 -0.25082845247E+03  0.32170114664E+01  0.29779406326E+03  0.12699999809E+01 0.  1.
       -4    1    3    3    0  502 -0.16048186653E+03  0.25082845247E+03 -0.42704482527E+03  0.52061332843E+03  0.12699999809E+01 0. -1.
</event>
<event>
 5   0  0.1282546E-03  0.6999014E+03  0.7818609E-02  0.9717401E-01
        2   -1    0    0  501    0  0.00000000000E+00  0.00000000000E+00  0.56641779824E+03  0.56641779824E+03  0.25500000920E-02 0. -1.
       -2   -1    0    0    0  501  0.00000000000E+00  0.00000000000E+00 -0.21621053720E+03  0.21621053721E+03  0.25500000920E-02 0.  1.
    10030    2    1    2    0    0  0.00000000000E+00  0.00000000000E+00  0.35020726104E+03  0.78262833546E+03  0.69990141147E+03 0.  0.
        5    1    3    3  502    0 -0.21949273632E+03  0.22987259533E+03  0.11430098087E+02  0.31807421857E+03  0.46999998093E+01 0.  1.
       -5    1    3    3    0  502  0.21949273632E+03 -0.22987259533E+03  0.33877716295E+03  0.46455411688E+03  0.46999998093E+01 0. -1.
</event>
<event>
 5   0  0.1222679E-03  0.7005956E+03  0.7818609E-02  0.9716214E-01
       -2   -1    0    0    0  501  0.00000000000E+00  0.00000000000E+00  0.15498509761E+03  0.15498509763E+03  0.25500000920E-02 0. -1.
        2   -1    0    0  501    0  0.00000000000E+00  0.00000000000E+00 -0.79174413554E+03  0.79174413554E+03  0.25500000920E-02 0.  1.
    10030    2    1    2    0    0  0.00000000000E+00  0.00000000000E+00 -0.63675903793E+03  0.94672923318E+03  0.70059558133E+03 0.  0.
        2    1    3    3  502    0  0.17448316573E+03  0.30063003931E+03 -0.37706086213E+03  0.51283300344E+03  0.25500000920E-02 0.  1.
       -2    1    3    3    0  502 -0.17448316573E+03 -0.30063003931E+03 -0.25969817580E+03  0.43389622974E+03  0.25500000920E-02 0. -1.
</event>
<event>
 5   0  0.1222679E-03  0.6999578E+03  0.7818609E-02  0.9717304E-01
        2   -1    0    0  501    0  0.00000000000E+00  0.00000000000E+00  0.44196573881E+03  0.44196573882E+03  0.25500000920E-02 0. -1.
       -2   -1    0    0    0  501  0.00000000000E+00  0.00000000000E+00 -0.27713737107E+03  0.27713737108E+03  0.25500000920E-02 0.  1.
    10030    2    1    2    0    0  0.00000000000E+00  0.00000000000E+00  0.16482836774E+03  0.71910310990E+03  0.69995777863E+03 0.  0.
        2    1    3    3  502    0  0.78445905170E+02 -0.24352389078E+03 -0.16292210106E+03  0.30331708894E+03  0.25500000920E-02 0.  1.
       -2    1    3    3    0  502 -0.78445905170E+02  0.24352389078E+03  0.32775046881E+03  0.41578602097E+03  0.25500000920E-02 0. -1.
</event>
<event>
 5   0  0.7574241E-04  0.7001146E+03  0.7818609E-02  0.9717036E-01
       -1   -1    0    0    0  501  0.00000000000E+00  0.00000000000E+00  0.76277717501E+03  0.76277717502E+03  0.50400001928E-02 0.  1.
        1   -1    0    0  501    0  0.00000000000E+00  0.00000000000E+00 -0.16064994712E+03  0.16064994720E+03  0.50400001928E-02 0. -1.
    10030    2    1    2    0    0  0.00000000000E+00  0.00000000000E+00  0.60212722789E+03  0.92342712222E+03  0.70011459882E+03 0.  0.
        3    1    3    3  502    0 -0.32598305763E+03  0.11074830526E+03  0.38458613684E+03  0.51617501667E+03  0.10100000352E+00 0.  1.
       -3    1    3    3    0  502  0.32598305763E+03 -0.11074830526E+03  0.21754109105E+03  0.40725210555E+03  0.10100000352E+00 0. -1.
</event>
<event>
 5   0  0.7459843E-04  0.6996479E+03  0.7818609E-02  0.9717834E-01
       -1   -1    0    0    0  501  0.00000000000E+00  0.00000000000E+00  0.18985331981E+03  0.18985331987E+03  0.50400001928E-02 0. -1.
        1   -1    0    0  501    0  0.00000000000E+00  0.00000000000E+00 -0.64458609920E+03  0.64458609922E+03  0.50400001928E-02 0.  1.
    10030    2    1    2    0    0  0.00000000000E+00  0.00000000000E+00 -0.45473277939E+03  0.83443941909E+03  0.69964794253E+03 0.  0.
        2    1    3    3  502    0  0.87536512357E+02  0.21761384036E+03 -0.53690233406E+03  0.58590318384E+03  0.25500000920E-02 0.  1.
       -2    1    3    3    0  502 -0.87536512357E+02 -0.21761384036E+03  0.82169554668E+02  0.24853623525E+03  0.25500000920E-02 0. -1.
</event>
<event>
 5   0  0.1265562E-03  0.7001690E+03  0.7818609E-02  0.9716943E-01
        2   -1    0    0  501    0  0.00000000000E+00  0.00000000000E+00  0.66686261768E+03  0.66686261768E+03  0.25500000920E-02 0.  1.
       -2   -1    0    0    0  501  0.00000000000E+00  0.00000000000E+00 -0.18378474214E+03  0.18378474216E+03  0.25500000920E-02 0. -1.
    10030    2    1    2    0    0  0.00000000000E+00  0.00000000000E+00  0.48307787554E+03  0.85064735984E+03  0.70016904885E+03 0.  0.
        1    1    3    3  502    0  0.19567481642E+03 -0.29001624364E+03  0.22611767845E+03  0.41656603305E+03  0.50400001928E-02 0.  1.
       -1    1    3    3    0  502 -0.19567481642E+03  0.29001624364E+03  0.25696019709E+03  0.43408132679E+03  0.50400001928E-02 0. -1.
</event>
<event>
 5   0  0.4936000E-04  0.7000061E+03  0.7818609E-02  0.9717222E-01
        4   -1    0    0  501    0  0.00000000000E+00  0.00000000000E+00  0.94141307736E+02  0.94149873724E+02  0.12699999809E+01 0. -1.
       -4   -1    0    0    0  501  0.00000000000E+00  0.00000000000E+00 -0.13011899517E+04  0.13011905714E+04  0.12699999809E+01 0.  1.
    10030    2    1    2    0    0  0.00000000000E+00  0.00000000000E+00 -0.12070486439E+04  0.13953404452E+04  0.70000609220E+03 0.  0.
        1    1    3    3  502    0  0.17702905969E+03 -0.14473246795E+03 -0.11317194819E+04  0.11545890009E+04  0.50400001928E-02 0.  1.
       -1    1    3    3    0  502 -0.17702905969E+03  0.14473246795E+03 -0.75329162074E+02  0.24075144431E+03  0.50400001928E-02 0. -1.
</event>
<event>
 5   0  0.7570633E-04  0.6991630E+03  0.7818609E-02  0.9718665E-01
        1   -1    0    0  501    0  0.00000000000E+00  0.00000000000E+00  0.86732439100E+03  0.86732439102E+03  0.50400001928E-02 0.  1.
       -1   -1    0    0    0  501  0.00000000000E+00  0.00000000000E+00 -0.14090142208E+03  0.14090142217E+03  0.50400001928E-02 0. -1.
    10030    2    1    2    0    0  0.00000000000E+00  0.00000000000E+00  0.72642296892E+03  0.10082258132E+04  0.69916304293E+03 0.  0.
        5    1    3    3  502    0  0.22483088482E+01  0.22366459103E+03 -0.24144522088E+02  0.22502433673E+03  0.46999998093E+01 0. -1.
       -5    1    3    3    0  502 -0.22483088482E+01 -0.22366459103E+03  0.75056749101E+03  0.78320147646E+03  0.46999998093E+01 0.  1.
</event>
<event>
 5   0  0.1282546E-03  0.7001423E+03  0.7818609E-02  0.9716989E-01
        2   -1    0    0  501    0  0.00000000000E+00  0.00000000000E+00  0.17110787686E+04  0.17110787686E+04  0.25500000920E-02 0. -1.
       -2   -1    0    0    0  501  0.00000000000E+00  0.00000000000E+00 -0.71621367815E+02  0.71621367861E+02  0.25500000920E-02 0.  1.
    10030    2    1    2    0    0  0.00000000000E+00  0.00000000000E+00  0.16394574008E+04  0.17827001365E+04  0.70014227666E+03 0.  0.
        5    1    3    3  502    0  0.25938257911E+03 -0.75403110213E+02  0.13865807732E+04  0.14126546931E+04  0.46999998093E+01 0. -1.
       -5    1    3    3    0  502 -0.25938257911E+03  0.75403110213E+02  0.25287662763E+03  0.37004544340E+03  0.46999998093E+01 0.  1.
</event>
<event>
 5   0  0.4936000E-04  0.7000428E+03  0.7818609E-02  0.9717159E-01
        4   -1    0    0  501    0  0.00000000000E+00  0.00000000000E+00  0.19667267097E+03  0.19667677140E+03  0.12699999809E+01 0. -1.
       -4   -1    0    0    0  501  0.00000000000E+00  0.00000000000E+00 -0.62292718173E+03  0.62292847634E+03  0.12699999809E+01 0.  1.
    10030    2    1    2    0    0  0.00000000000E+00  0.00000000000E+00 -0.42625451076E+03  0.81960524773E+03  0.70004275167E+03 0.  0.
        3    1    3    3  502    0  0.50623243602E+02 -0.30494487068E+03 -0.40536873008E+03  0.50978221279E+03  0.10100000352E+00 0.  1.
       -3    1    3    3    0  502 -0.50623243602E+02  0.30494487068E+03 -0.20885780671E+02  0.30982303494E+03  0.10100000352E+00 0. -1.
</event>
<event>
 5   0  0.7574241E-04  0.7000174E+03  0.7818609E-02  0.9717202E-01
       -1   -1    0    0    0  501  0.00000000000E+00  0.00000000000E+00  0.10939809594E+03  0.10939809605E+03  0.50400001928E-02 0. -1.
        1   -1    0    0  501    0  0.00000000000E+00  0.00000000000E+00 -0.11198193698E+04  0.11198193698E+04  0.50400001928E-02 0.  1.
    10030    2    1    2    0    0  0.00000000000E+00  0.00000000000E+00 -0.10104212738E+04  0.12292174658E+04  0.70001744814E+03 0.  0.
        3    1    3    3  502    0  0.15341530303E+03 -0.30401051129E+03 -0.36312310495E+03  0.49781225953E+03  0.10100000352E+00 0. -1.
       -3    1    3    3    0  502 -0.15341530303E+03  0.30401051129E+03 -0.64729816890E+03  0.73140520632E+03  0.10100000352E+00 0.  1.
</event>
<event>
 5   0  0.7574241E-04  0.6998537E+03  0.7818609E-02  0.9717482E-01
        1   -1    0    0  501    0  0.00000000000E+00  0.00000000000E+00  0.45740284624E+03  0.45740284627E+03  0.50400001928E-02 0. -1.
       -1   -1    0    0    0  501  0.00000000000E+00  0.00000000000E+00 -0.26770453132E+03  0.26770453137E+03  0.50400001928E-02 0.  1.
    10030    2    1    2    0    0  0.00000000000E+00  0.00000000000E+00  0.18969831492E+03  0.72510737764E+03  0.69985374074E+03 0.  0.
        3    1    3    3  502    0 -0.15257713833E+03  0.30814927514E+03  0.16209928467E+03  0.38014727041E+03  0.10100000352E+00 0. -1.
       -3    1    3    3    0  502  0.15257713833E+03 -0.30814927514E+03  0.27599030251E+02  0.34496010723E+03  0.10100000352E+00 0.  1.
</event>
<event>
 5   0  0.1222679E-03  0.6997070E+03  0.7818609E-02  0.9717733E-01
       -2   -1    0    0    0  501  0.00000000000E+00  0.00000000000E+00  0.10190804970E+03  0.10190804973E+03  0.25500000920E-02 0.  1.
        2   -1    0    0  501    0  0.00000000000E+00  0.00000000000E+00 -0.12010577667E+04  0.12010577667E+04  0.25500000920E-02 0. -1.
    10030    2    1    2    0    0  0.00000000000E+00  0.00000000000E+00 -0.10991497170E+04  0.13029658164E+04  0.69970695179E+03 0.  0.
        2    1    3    3  502    0  0.13069105359E+03 -0.13820701629E+03 -0.10963529186E+04  0.11127313481E+04  0.25500000920E-02 0. -1.
       -2    1    3    3    0  502 -0.13069105359E+03  0.13820701629E+03 -0.27967983242E+01  0.19023446829E+03  0.25500000920E-02 0.  1.
</event>
<event>
 5   0  0.1265562E-03  0.6999544E+03  0.7818609E-02  0.9717310E-01
       -2   -1    0    0    0  501  0.00000000000E+00  0.00000000000E+00  0.27423463751E+03  0.27423463752E+03  0.25500000920E-02 0.  1.
        2   -1    0    0  501    0  0.00000000000E+00  0.00000000000E+00 -0.44663956122E+03  0.44663956123E+03  0.25500000920E-02 0. -1.
    10030    2    1    2    0    0  0.00000000000E+00  0.00000000000E+00 -0.17240492371E+03  0.72087419875E+03  0.69995439330E+03 0.  0.
        1    1    3    3  502    0 -0.24358041106E+03 -0.25121726406E+03 -0.92917117481E+02  0.36204298247E+03  0.50400001928E-02 0. -1.
       -1    1    3    3    0  502  0.24358041106E+03  0.25121726406E+03 -0.79487806233E+02  0.35883121628E+03  0.50400001928E-02 0.  1.
</event>
<event>
 5   0  0.7013526E-04  0.6999625E+03  0.7818609E-02  0.9717296E-01
        1   -1    0    0  501    0  0.00000000000E+00  0.00000000000E+00  0.38776807889E+03  0.38776807893E+03  0.50400001928E-02 0.  1.
       -1   -1    0    0    0  501  0.00000000000E+00  0.00000000000E+00 -0.31587667794E+03  0.31587667798E+03  0.50400001928E-02 0. -1.
    10030    2    1    2    0    0  0.00000000000E+00  0.00000000000E+00  0.71891400951E+02  0.70364475691E+03  0.69996254928E+03 0.  0.
        1    1    3    3  502    0  0.27248142758E+03 -0.71195952319E+02 -0.17292582367E+03  0.33048197004E+03  0.50400001928E-02 0. -1.
       -1    1    3    3    0  502 -0.27248142758E+03  0.71195952319E+02  0.24481722462E+03  0.37316278687E+03  0.50400001928E-02 0.  1.
</event>
<event>
 5   0  0.1265562E-03  0.7001169E+03  0.7818609E-02  0.9717032E-01
        2   -1    0    0  501    0  0.00000000000E+00  0.00000000000E+00  0.43377304351E+03  0.43377304352E+03  0.25500000920E-02 0.  1.
       -2   -1    0    0    0  501  0.00000000000E+00  0.00000000000E+00 -0.28250009096E+03  0.28250009097E+03  0.25500000920E-02 0. -1.
    10030    2    1    2    0    0  0.00000000000E+00  0.00000000000E+00  0.15127295255E+03  0.71627313450E+03  0.70011691668E+03 0.  0.
        1    1    3    3  502    0 -0.14486791284E+03  0.51752114403E+02  0.39733819636E+03  0.42607820389E+03  0.50400001928E-02 0.  1.
       -1    1    3    3    0  502  0.14486791284E+03 -0.51752114403E+02 -0.24606524381E+03  0.29019493061E+03  0.50400001928E-02 0. -1.
</event>
<event>
 5   0  0.1265562E-03  0.7007383E+03  0.7818609E-02  0.9715970E-01
        2   -1    0    0  501    0  0.00000000000E+00  0.00000000000E+00  0.10777003028E+04  0.10777003028E+04  0.25500000920E-02 0. -1.
       -2   -1    0    0    0  501  0.00000000000E+00  0.00000000000E+00 -0.11390787348E+03  0.11390787351E+03  0.25500000920E-02 0.  1.
    10030    2    1    2    0    0  0.00000000000E+00  0.00000000000E+00  0.96379242932E+03  0.11916081763E+04  0.70073832423E+03 0.  0.
        1    1    3    3  502    0 -0.88922710624E+02 -0.12856829392E+03 -0.51318150581E+02  0.16453147805E+03  0.50400001928E-02 0.  1.
       -1    1    3    3    0  502  0.88922710624E+02  0.12856829392E+03  0.10151105799E+04  0.10270766983E+04  0.50400001928E-02 0. -1.
</event>
<event>
 5   0  0.1282546E-03  0.7006349E+03  0.7818609E-02  0.9716147E-01
       -2   -1    0    0    0  501  0.00000000000E+00  0.00000000000E+00  0.73473805420E+02  0.73473805464E+02  0.25500000920E-02 0. -1.
        2   -1    0    0  501    0  0.00000000000E+00  0.00000000000E+00 -0.16702865055E+04  0.16702865055E+04  0.25500000920E-02 0.  1.
    10030    2    1    2    0    0  0.00000000000E+00  0.00000000000E+00 -0.15968127001E+04  0.17437603110E+04  0.70063487136E+03 0.  0.
        5    1    3    3  502    0  0.89492707046E+02  0.16898241905E+03 -0.67960666110E+02  0.20298951869E+03  0.46999998093E+01 0. -1.
       -5    1    3    3    0  502 -0.89492707046E+02 -0.16898241905E+03 -0.15288520340E+04  0.15407707923E+04  0.46999998093E+01 0.  1.
</event>
<event>
 5   0  0.1224048E-03  0.7001242E+03  0.7818609E-02  0.9717020E-01
        2   -1    0    0  501    0  0.00000000000E+00  0.00000000000E+00  0.12896774927E+04  0.12896774927E+04  0.25500000920E-02 0.  1.
       -2   -1    0    0    0  501  0.00000000000E+00  0.00000000000E+00 -0.95018693614E+02  0.95018693648E+02  0.25500000920E-02 0. -1.
    10030    2    1    2    0    0  0.00000000000E+00  0.00000000000E+00  0.11946587991E+04  0.13846961864E+04  0.70012419060E+03 0.  0.
        3    1    3    3  502    0  0.20191933262E+02 -0.34088088878E+03  0.74970839627E+03  0.82381441123E+03  0.10100000352E+00 0.  1.
       -3    1    3    3    0  502 -0.20191933262E+02  0.34088088878E+03  0.44495040284E+03  0.56088177515E+03  0.10100000352E+00 0. -1.
</event>
<event>
 5   0  0.7572415E-04  0.7001697E+03  0.7818609E-02  0.9716942E-01
       -1   -1    0    0    0  501  0.00000000000E+00  0.00000000000E+00  0.56308769441E+03  0.56308769444E+03  0.50400001928E-02 0.  1.
        1   -1    0    0  501    0  0.00000000000E+00  0.00000000000E+00 -0.21765597186E+03  0.21765597192E+03  0.50400001928E-02 0. -1.
    10030    2    1    2    0    0  0.00000000000E+00  0.00000000000E+00  0.34543172255E+03  0.78074366636E+03  0.70016969201E+03 0.  0.
        4    1    3    3  502    0  0.14946469280E+03  0.28756227150E+03  0.32033646045E+03  0.45568499556E+03  0.12699999809E+01 0.  1.
       -4    1    3    3    0  502 -0.14946469280E+03 -0.28756227150E+03  0.25095262094E+02  0.32505867080E+03  0.12699999809E+01 0. -1.
</event>
<event>
 5   0  0.7013526E-04  0.6996544E+03  0.7818609E-02  0.9717823E-01
        1   -1    0    0  501    0  0.00000000000E+00  0.00000000000E+00  0.30623910431E+03  0.30623910436E+03  0.50400001928E-02 0.  1.
       -1   -1    0    0    0  501  0.00000000000E+00  0.00000000000E+00 -0.39961936957E+03  0.39961936960E+03  0.50400001928E-02 0. -1.
    10030    2    1    2    0    0  0.00000000000E+00  0.00000000000E+00 -0.93380265254E+02  0.70585847395E+03  0.69965442278E+03 0.  0.
        1    1    3    3  502    0  0.12602706601E+03 -0.32243885632E+03  0.40493777155E+01  0.34621674558E+03  0.50400001928E-02 0.  1.
       -1    1    3    3    0  502 -0.12602706601E+03  0.32243885632E+03 -0.97429642969E+02  0.35964172838E+03  0.50400001928E-02 0. -1.
</event>
<event>
 5   0  0.7013526E-04  0.7002929E+03  0.7818609E-02  0.9716731E-01
       -1   -1    0    0    0  501  0.00000000000E+00  0.00000000000E+00  0.19002904074E+03  0.19002904081E+03  0.50400001928E-02 0.  1.
        1   -1    0    0  501    0  0.00000000000E+00  0.00000000000E+00 -0.64517792714E+03  0.64517792716E+03  0.50400001928E-02 0. -1.
    10030    2    1    2    0    0  0.00000000000E+00  0.00000000000E+00 -0.45514888641E+03  0.83520696797E+03  0.70029291768E+03 0.  0.
        1    1    3    3  502    0 -0.18817491666E+01 -0.17655631797E+03 -0.58819567829E+03  0.61412525626E+03  0.50400001928E-02 0. -1.
       -1    1    3    3    0  502  0.18817491666E+01  0.17655631797E+03  0.13304679188E+03  0.22108171171E+03  0.50400001928E-02 0.  1.
</event>
<event>
 5   0  0.1282546E-03  0.7000933E+03  0.7818609E-02  0.9717073E-01
       -2   -1    0    0    0  501  0.00000000000E+00  0.00000000000E+00  0.17754097021E+03  0.17754097023E+03  0.25500000920E-02 0. -1.
        2   -1    0    0  501    0  0.00000000000E+00  0.00000000000E+00 -0.69016546115E+03  0.69016546116E+03  0.25500000920E-02 0.  1.
    10030    2    1    2    0    0  0.00000000000E+00  0.00000000000E+00 -0.51262449094E+03  0.86770643139E+03  0.70009326690E+03 0.  0.
        5    1    3    3  502    0  0.21942917449E+03 -0.24519183784E+03 -0.40422575053E+03  0.52123770714E+03  0.46999998093E+01 0.  1.
       -5    1    3    3    0  502 -0.21942917449E+03  0.24519183784E+03 -0.10839874042E+03  0.34646872425E+03  0.46999998093E+01 0. -1.
</event>
<event>
 5   0  0.1265562E-03  0.7000414E+03  0.7818609E-02  0.9717161E-01
        2   -1    0    0  501    0  0.00000000000E+00  0.00000000000E+00  0.98308140457E+03  0.98308140457E+03  0.25500000920E-02 0. -1.
       -2   -1    0    0    0  501  0.00000000000E+00  0.00000000000E+00 -0.12462294553E+03  0.12462294555E+03  0.25500000920E-02 0.  1.
    10030    2    1    2    0    0  0.00000000000E+00  0.00000000000E+00  0.85845845904E+03  0.11077043501E+04  0.70004142834E+03 0.  0.
        1    1    3    3  502    0 -0.40116433017E+02  0.28583357364E+02  0.97756960005E+03  0.97880981783E+03  0.50400001928E-02 0. -1.
       -1    1    3    3    0  502  0.40116433017E+02 -0.28583357364E+02 -0.11911114101E+03  0.12889453229E+03  0.50400001928E-02 0.  1.
</event>
<event>
 5   0  0.7574241E-04  0.7003173E+03  0.7818609E-02  0.9716690E-01
        1   -1    0    0  501    0  0.00000000000E+00  0.00000000000E+00  0.34062816920E+03  0.34062816924E+03  0.50400001928E-02 0.  1.
       -1   -1    0    0    0  501  0.00000000000E+00  0.00000000000E+00 -0.35995578800E+03  0.35995578803E+03  0.50400001928E-02 0. -1.
    10030    2    1    2    0    0  0.00000000000E+00  0.00000000000E+00 -0.19327618794E+02  0.70058395727E+03  0.70031730262E+03 0.  0.
        3    1    3    3  502    0  0.22220881652E+03  0.23751433547E+03 -0.13940996710E+03  0.35387139871E+03  0.10100000352E+00 0. -1.
       -3    1    3    3    0  502 -0.22220881652E+03 -0.23751433547E+03  0.12008234830E+03  0.34671255857E+03  0.10100000352E+00 0.  1.
</event>
<event>
 5   0  0.7574241E-04  0.6963431E+03  0.7818609E-02  0.9723506E-01
        1   -1    0    0  501    0  0.00000000000E+00  0.00000000000E+00  0.26775252594E+03  0.26775252598E+03  0.50400001928E-02 0.  1.
       -1   -1    0    0    0  501  0.00000000000E+00  0.00000000000E+00 -0.45274428657E+03  0.45274428660E+03  0.50400001928E-02 0. -1.
    10030    2    1    2    0    0  0.00000000000E+00  0.00000000000E+00 -0.18499176063E+03  0.72049681258E+03  0.69634309463E+03 0.  0.
        3    1    3    3  502    0  0.32496860647E+03 -0.10903357040E+03 -0.29299471517E+02  0.34402235959E+03  0.10100000352E+00 0.  1.
       -3    1    3    3    0  502 -0.32496860647E+03  0.10903357040E+03 -0.15569228912E+03  0.37647445299E+03  0.10100000352E+00 0. -1.
</event>
<event>
 5   0  0.1265562E-03  0.6982677E+03  0.7818609E-02  0.9720199E-01
        2   -1    0    0  501    0  0.00000000000E+00  0.00000000000E+00  0.14684985456E+04  0.14684985456E+04  0.25500000920E-02 0.  1.
       -2   -1    0    0    0  501  0.00000000000E+00  0.00000000000E+00 -0.83006176076E+02  0.83006176115E+02  0.25500000920E-02 0. -1.
    10030    2    1    2    0    0  0.00000000000E+00  0.00000000000E+00  0.13854923695E+04  0.15515047217E+04  0.69826771048E+03 0.  0.
        1    1    3    3  502    0  0.29520138425E+03  0.79376868840E+02  0.31797037892E+03  0.44107789161E+03  0.50400001928E-02 0. -1.
       -1    1    3    3    0  502 -0.29520138425E+03 -0.79376868840E+02  0.10675219906E+04  0.11104268301E+04  0.50400001928E-02 0.  1.
</event>
<event>
 5   0  0.7013526E-04  0.7003292E+03  0.7818609E-02  0.9716669E-01
        1   -1    0    0  501    0  0.00000000000E+00  0.00000000000E+00  0.32099029006E+03  0.32099029010E+03  0.50400001928E-02 0. -1.
       -1   -1    0    0    0  501  0.00000000000E+00  0.00000000000E+00 -0.38199047897E+03  0.38199047900E+03  0.50400001928E-02 0.  1.
    10030    2    1    2    0    0  0.00000000000E+00  0.00000000000E+00 -0.61000188911E+02  0.70298076910E+03  0.70032916452E+03 0.  0.
        1    1    3    3  502    0 -0.31070103012E+03 -0.14858173543E+03 -0.94013452712E+02  0.35700166882E+03  0.50400001928E-02 0. -1.
       -1    1    3    3    0  502  0.31070103012E+03  0.14858173543E+03  0.33013263801E+02  0.34597910029E+03  0.50400001928E-02 0.  1.
</event>
<event>
 5   0  0.7459843E-04  0.6999914E+03  0.7818609E-02  0.9717247E-01
       -1   -1    0    0    0  501  0.00000000000E+00  0.00000000000E+00  0.91745116925E+02  0.91745117063E+02  0.50400001928E-02 0.  1.
        1   -1    0    0  501    0  0.00000000000E+00  0.00000000000E+00 -0.13351881683E+04  0.13351881683E+04  0.50400001928E-02 0. -1.
    10030    2    1    2    0    0  0.00000000000E+00  0.00000000000E+00 -0.12434430514E+04  0.14269332854E+04  0.69999141344E+03 0.  0.
        2    1    3    3  502    0 -0.54160765759E+02  0.21776323110E+03 -0.11692508664E+04  0.11905888467E+04  0.25500000920E-02 0. -1.
       -2    1    3    3    0  502  0.54160765759E+02 -0.21776323110E+03 -0.74192184994E+02  0.23634443866E+03  0.25500000920E-02 0.  1.
</event>
<event>
 5   0  0.7572415E-04  0.6999045E+03  0.7818609E-02  0.9717395E-01
       -1   -1    0    0    0  501  0.00000000000E+00  0.00000000000E+00  0.88212731607E+02  0.88212731751E+02  0.50400001928E-02 0. -1.
        1   -1    0    0  501    0  0.00000000000E+00  0.00000000000E+00 -0.13883097281E+04  0.13883097281E+04  0.50400001928E-02 0.  1.
    10030    2    1    2    0    0  0.00000000000E+00  0.00000000000E+00 -0.13000969965E+04  0.14765224599E+04  0.69990454648E+03 0.  0.
        4    1    3    3  502    0 -0.47281538067E+02  0.20781338753E+03 -0.12356038142E+04  0.12538502089E+04  0.12699999809E+01 0.  1.
       -4    1    3    3    0  502  0.47281538067E+02 -0.20781338753E+03 -0.64493182325E+02  0.22267225096E+03  0.12699999809E+01 0. -1.
</event>
<event>
 5   0  0.7459843E-04  0.6995102E+03  0.7818609E-02  0.9718070E-01
       -1   -1    0    0    0  501  0.00000000000E+00  0.00000000000E+00  0.12751332171E+03  0.12751332181E+03  0.50400001928E-02 0.  1.
        1   -1    0    0  501    0  0.00000000000E+00  0.00000000000E+00 -0.95934005568E+03  0.95934005569E+03  0.50400001928E-02 0. -1.
    10030    2    1    2    0    0  0.00000000000E+00  0.00000000000E+00 -0.83182673397E+03  0.10868533775E+04  0.69951022070E+03 0.  0.
        2    1    3    3  502    0  0.10735448607E+03 -0.23671182855E+02  0.99971810430E+02  0.14859230620E+03  0.25500000920E-02 0.  1.
       -2    1    3    3    0  502 -0.10735448607E+03  0.23671182855E+02 -0.93179854440E+03  0.93826107130E+03  0.25500000920E-02 0. -1.
</event>
<event>
 5   0  0.7013526E-04  0.7000558E+03  0.7818609E-02  0.9717137E-01
       -1   -1    0    0    0  501  0.00000000000E+00  0.00000000000E+00  0.27970355894E+03  0.27970355898E+03  0.50400001928E-02 0.  1.
        1   -1    0    0  501    0  0.00000000000E+00  0.00000000000E+00 -0.43803354664E+03  0.43803354667E+03  0.50400001928E-02 0. -1.
    10030    2    1    2    0    0  0.00000000000E+00  0.00000000000E+00 -0.15832998770E+03  0.71773710565E+03  0.70005583193E+03 0.  0.
        1    1    3    3  502    0 -0.39999210656E+02  0.71407182459E+02 -0.42808483222E+03  0.43583889933E+03  0.50400001928E-02 0. -1.
       -1    1    3    3    0  502  0.39999210656E+02 -0.71407182459E+02  0.26975484452E+03  0.28189820632E+03  0.50400001928E-02 0.  1.
</event>
<event>
 5   0  0.7574241E-04  0.7000399E+03  0.7818609E-02  0.9717164E-01
       -1   -1    0    0    0  501  0.00000000000E+00  0.00000000000E+00  0.36979910170E+03  0.36979910174E+03  0.50400001928E-02 0.  1.
        1   -1    0    0  501    0  0.00000000000E+00  0.00000000000E+00 -0.33129873018E+03  0.33129873021E+03  0.50400001928E-02 0. -1.
    10030    2    1    2    0    0  0.00000000000E+00  0.00000000000E+00  0.38500371528E+02  0.70109783195E+03  0.70003992126E+03 0.  0.
        3    1    3    3  502    0 -0.14110213578E+03 -0.26292356123E+03 -0.16398901366E+03  0.34048644404E+03  0.10100000352E+00 0. -1.
       -3    1    3    3    0  502  0.14110213578E+03  0.26292356123E+03  0.20248938519E+03  0.36061138791E+03  0.10100000352E+00 0.  1.
</event>
<event>
 5   0  0.7572415E-04  0.7003114E+03  0.7818609E-02  0.9716700E-01
        1   -1    0    0  501    0  0.00000000000E+00  0.00000000000E+00  0.71109063304E+03  0.71109063306E+03  0.50400001928E-02 0.  1.
       -1   -1    0    0    0  501  0.00000000000E+00  0.00000000000E+00 -0.17242391476E+03  0.17242391483E+03  0.50400001928E-02 0. -1.
    10030    2    1    2    0    0  0.00000000000E+00  0.00000000000E+00  0.53866671828E+03  0.88351454789E+03  0.70031144711E+03 0.  0.
        4    1    3    3  502    0  0.10618722866E+03 -0.28798052808E+03  0.56728452663E+02  0.31213497453E+03  0.12699999809E+01 0.  1.
       -4    1    3    3    0  502 -0.10618722866E+03  0.28798052808E+03  0.48193826561E+03  0.57137957336E+03  0.12699999809E+01 0. -1.
</event>
<event>
 5   0  0.1224048E-03  0.7001461E+03  0.7818609E-02  0.9716982E-01
       -2   -1    0    0    0  501  0.00000000000E+00  0.00000000000E+00  0.38060510540E+03  0.38060510541E+03  0.25500000920E-02 0.  1.
        2   -1    0    0  501    0  0.00000000000E+00  0.00000000000E+00 -0.32199025415E+03  0.32199025416E+03  0.25500000920E-02 0. -1.
    10030    2    1    2    0    0  0.00000000000E+00  0.00000000000E+00  0.58614851246E+02  0.70259535957E+03  0.70014608369E+03 0.  0.
        3    1    3    3  502    0 -0.19121338861E+03  0.66221760197E+02  0.31596955475E+03  0.37521280793E+03  0.10100000352E+00 0.  1.
       -3    1    3    3    0  502  0.19121338861E+03 -0.66221760197E+02 -0.25735470350E+03  0.32738255164E+03  0.10100000352E+00 0. -1.
</event>
<event>
 5   0  0.7459843E-04  0.6997826E+03  0.7818609E-02  0.9717604E-01
        1   -1    0    0  501    0  0.00000000000E+00  0.00000000000E+00  0.37469643080E+03  0.37469643083E+03  0.50400001928E-02 0. -1.
       -1   -1    0    0    0  501  0.00000000000E+00  0.00000000000E+00 -0.32672826794E+03  0.32672826798E+03  0.50400001928E-02 0.  1.
    10030    2    1    2    0    0  0.00000000000E+00  0.00000000000E+00  0.47968162855E+02  0.70142469881E+03  0.69978258299E+03 0.  0.
        2    1    3    3  502    0  0.12052224500E+03  0.17679287113E+03  0.30147769824E+03  0.36968923891E+03  0.25500000920E-02 0. -1.
       -2    1    3    3    0  502 -0.12052224500E+03 -0.17679287113E+03 -0.25350953538E+03  0.33173545991E+03  0.25500000920E-02 0.  1.
</event>
<event>
 5   0  0.7574241E-04  0.7000379E+03  0.7818609E-02  0.9717167E-01
       -1   -1    0    0    0  501  0.00000000000E+00  0.00000000000E+00  0.17161052698E+03  0.17161052706E+03  0.50400001928E-02 0.  1.
        1   -1    0    0  501    0  0.00000000000E+00  0.00000000000E+00 -0.71390306333E+03  0.71390306335E+03  0.50400001928E-02 0. -1.
    10030    2    1    2    0    0  0.00000000000E+00  0.00000000000E+00 -0.54229253635E+03  0.88551359041E+03  0.70003794455E+03 0.  0.
        3    1    3    3  502    0 -0.25929501763E+03 -0.56103020303E+02 -0.55996481302E+03  0.61963058113E+03  0.10100000352E+00 0. -1.
       -3    1    3    3    0  502  0.25929501763E+03  0.56103020303E+02  0.17672276666E+02  0.26588300927E+03  0.10100000352E+00 0.  1.
</event>
<event>
 5   0  0.4936000E-04  0.6988042E+03  0.7818609E-02  0.9719279E-01
        4   -1    0    0  501    0  0.00000000000E+00  0.00000000000E+00  0.43182045081E+03  0.43182231836E+03  0.12699999809E+01 0.  1.
       -4   -1    0    0    0  501  0.00000000000E+00  0.00000000000E+00 -0.28271039370E+03  0.28271324625E+03  0.12699999809E+01 0. -1.
    10030    2    1    2    0    0  0.00000000000E+00  0.00000000000E+00  0.14911005711E+03  0.71453556461E+03  0.69880416710E+03 0.  0.
        5    1    3    3  502    0  0.22231275388E+03  0.26002603860E+03  0.20847940399E+01  0.34214461511E+03  0.46999998093E+01 0. -1.
       -5    1    3    3    0  502 -0.22231275388E+03 -0.26002603860E+03  0.14702526307E+03  0.37239094950E+03  0.46999998093E+01 0.  1.
</event>
<event>
 5   0  0.1265562E-03  0.7009339E+03  0.7818609E-02  0.9715636E-01
        2   -1    0    0  501    0  0.00000000000E+00  0.00000000000E+00  0.14488931752E+04  0.14488931752E+04  0.25500000920E-02 0. -1.
       -2   -1    0    0    0  501  0.00000000000E+00  0.00000000000E+00 -0.84773033695E+02  0.84773033734E+02  0.25500000920E-02 0.  1.
    10030    2    1    2    0    0  0.00000000000E+00  0.00000000000E+00  0.13641201415E+04  0.15336662089E+04  0.70093386276E+03 0.  0.
        1    1    3    3  502    0  0.24538218397E+02 -0.16359635135E+03  0.13580919958E+04  0.13681300228E+04  0.50400001928E-02 0. -1.
       -1    1    3    3    0  502 -0.24538218397E+02  0.16359635135E+03  0.60281456967E+01  0.16553618608E+03  0.50400001928E-02 0.  1.
</event>
<event>
 5   0  0.4936000E-04  0.6999468E+03  0.7818609E-02  0.9717323E-01
        3   -1    0    0  501    0  0.00000000000E+00  0.00000000000E+00  0.13316331493E+03  0.13316335324E+03  0.10100000352E+00 0. -1.
       -3   -1    0    0    0  501  0.00000000000E+00  0.00000000000E+00 -0.91978309202E+03  0.91978309757E+03  0.10100000352E+00 0.  1.
    10030    2    1    2    0    0  0.00000000000E+00  0.00000000000E+00 -0.78661977709E+03  0.10529464508E+04  0.69994682266E+03 0.  0.
        1    1    3    3  502    0  0.13032517664E+03  0.45870297152E+02  0.90401238469E+02  0.16510941757E+03  0.50400001928E-02 0. -1.
       -1    1    3    3    0  502 -0.13032517664E+03 -0.45870297152E+02 -0.87702101556E+03  0.88783703324E+03  0.50400001928E-02 0.  1.
</event>
<event>
 5   0  0.7013526E-04  0.7005329E+03  0.7818609E-02  0.9716321E-01
       -1   -1    0    0    0  501  0.00000000000E+00  0.00000000000E+00  0.48451997579E+02  0.48451997841E+02  0.50400001928E-02 0.  1.
        1   -1    0    0  501    0  0.00000000000E+00  0.00000000000E+00 -0.25321262186E+04  0.25321262186E+04  0.50400001928E-02 0. -1.
    10030    2    1    2    0    0  0.00000000000E+00  0.00000000000E+00 -0.24836742210E+04  0.25805782164E+04  0.70053286505E+03 0.  0.
        1    1    3    3  502    0  0.19025211265E+03  0.14446027727E+02 -0.23238904340E+04  0.23317099527E+04  0.50400001928E-02 0. -1.
       -1    1    3    3    0  502 -0.19025211265E+03 -0.14446027727E+02 -0.15978378695E+03  0.24886826371E+03  0.50400001928E-02 0.  1.
</event>
<event>
 5   0  0.1222679E-03  0.7021606E+03  0.7818609E-02  0.9713544E-01
       -2   -1    0    0    0  501  0.00000000000E+00  0.00000000000E+00  0.62693449962E+02  0.62693450014E+02  0.25500000920E-02 0.  1.
        2   -1    0    0  501    0  0.00000000000E+00  0.00000000000E+00 -0.19660326073E+04  0.19660326073E+04  0.25500000920E-02 0. -1.
    10030    2    1    2    0    0  0.00000000000E+00  0.00000000000E+00 -0.19033391574E+04  0.20287260574E+04  0.70216057123E+03 0.  0.
        2    1    3    3  502    0 -0.24272006232E+03  0.51714528251E+02 -0.23416652741E+03  0.34120577904E+03  0.25500000920E-02 0.  1.
       -2    1    3    3    0  502  0.24272006232E+03 -0.51714528251E+02 -0.16691726300E+04  0.16875202783E+04  0.25500000920E-02 0. -1.
</event>
<event>
 5   0  0.7570633E-04  0.7001491E+03  0.7818609E-02  0.9716977E-01
        1   -1    0    0  501    0  0.00000000000E+00  0.00000000000E+00  0.95603071513E+03  0.95603071514E+03  0.50400001928E-02 0. -1.
       -1   -1    0    0    0  501  0.00000000000E+00  0.00000000000E+00 -0.12818855010E+03  0.12818855020E+03  0.50400001928E-02 0.  1.
    10030    2    1    2    0    0  0.00000000000E+00  0.00000000000E+00  0.82784216503E+03  0.10842192653E+04  0.70014910208E+03 0.  0.
        5    1    3    3  502    0  0.59831603090E+02 -0.32623022909E+03  0.58722172087E+03  0.67443118445E+03  0.46999998093E+01 0. -1.
       -5    1    3    3    0  502 -0.59831603090E+02  0.32623022909E+03  0.24062044416E+03  0.40978808089E+03  0.46999998093E+01 0.  1.
</event>
<event>
 5   0  0.7572415E-04  0.7000739E+03  0.7818609E-02  0.9717106E-01
       -1   -1    0    0    0  501  0.00000000000E+00  0.00000000000E+00  0.10296910931E+03  0.10296910943E+03  0.50400001928E-02 0. -1.
        1   -1    0    0  501    0  0.00000000000E+00  0.00000000000E+00 -0.11899282633E+04  0.11899282633E+04  0.50400001928E-02 0.  1.
    10030    2    1    2    0    0  0.00000000000E+00  0.00000000000E+00 -0.10869591540E+04  0.12928973728E+04  0.70007386325E+03 0.  0.
        4    1    3    3  502    0 -0.12085498119E+03  0.23691257923E+02 -0.11485911378E+04  0.11551754918E+04  0.12699999809E+01 0.  1.
       -4    1    3    3    0  502  0.12085498119E+03 -0.23691257923E+02  0.61631983741E+02  0.13772188098E+03  0.12699999809E+01 0. -1.
</event>
<event>
 5   0  0.7574241E-04  0.7000723E+03  0.7818609E-02  0.9717109E-01
       -1   -1    0    0    0  501  0.00000000000E+00  0.00000000000E+00  0.88610075490E+02  0.88610075633E+02  0.50400001928E-02 0.  1.
        1   -1    0    0  501    0  0.00000000000E+00  0.00000000000E+00 -0.13827470204E+04  0.13827470204E+04  0.50400001928E-02 0. -1.
    10030    2    1    2    0    0  0.00000000000E+00  0.00000000000E+00 -0.12941369449E+04  0.14713570960E+04  0.70007233332E+03 0.  0.
        3    1    3    3  502    0 -0.91717354827E+01 -0.73775982077E+02 -0.13659625955E+04  0.13679842246E+04  0.10100000352E+00 0. -1.
       -3    1    3    3    0  502  0.91717354827E+01  0.73775982077E+02  0.71825650596E+02  0.10337287143E+03  0.10100000352E+00 0.  1.
</event>
<event>
 5   0  0.4936000E-04  0.6994378E+03  0.7818609E-02  0.9718194E-01
       -3   -1    0    0    0  501  0.00000000000E+00  0.00000000000E+00  0.44313540439E+03  0.44313541590E+03  0.10100000352E+00 0.  1.
        3   -1    0    0  501    0  0.00000000000E+00  0.00000000000E+00 -0.27599530264E+03  0.27599532112E+03  0.10100000352E+00 0. -1.
    10030    2    1    2    0    0  0.00000000000E+00  0.00000000000E+00  0.16714010175E+03  0.71913073702E+03  0.69943777659E+03 0.  0.
        2    1    3    3  502    0  0.12348262595E+03 -0.17574179282E+03 -0.20018997347E+03  0.29361396788E+03  0.25500000920E-02 0. -1.
       -2    1    3    3    0  502 -0.12348262595E+03  0.17574179282E+03  0.36733007522E+03  0.42551676914E+03  0.25500000920E-02 0.  1.
</event>
<event>
 5   0  0.1224048E-03  0.7004076E+03  0.7818609E-02  0.9716535E-01
       -2   -1    0    0    0  501  0.00000000000E+00  0.00000000000E+00  0.19406258061E+03  0.19406258063E+03  0.25500000920E-02 0.  1.
        2   -1    0    0  501    0  0.00000000000E+00  0.00000000000E+00 -0.63197496260E+03  0.63197496261E+03  0.25500000920E-02 0. -1.
    10030    2    1    2    0    0  0.00000000000E+00  0.00000000000E+00 -0.43791238199E+03  0.82603754324E+03  0.70040757316E+03 0.  0.
        3    1    3    3  502    0 -0.45337714589E+02 -0.28278781278E+03 -0.45664538157E+03  0.53902640949E+03  0.10100000352E+00 0. -1.
       -3    1    3    3    0  502  0.45337714589E+02  0.28278781278E+03  0.18732999578E+02  0.28701113374E+03  0.10100000352E+00 0.  1.
</event>
<event>
 5   0  0.1243087E-03  0.7001976E+03  0.7818609E-02  0.9716894E-01
        2   -1    0    0  501    0  0.00000000000E+00  0.00000000000E+00  0.76628453963E+03  0.76628453964E+03  0.25500000920E-02 0.  1.
       -2   -1    0    0    0  501  0.00000000000E+00  0.00000000000E+00 -0.15995255434E+03  0.15995255436E+03  0.25500000920E-02 0. -1.
    10030    2    1    2    0    0  0.00000000000E+00  0.00000000000E+00  0.60633198529E+03  0.92623709400E+03  0.70019759919E+03 0.  0.
        4    1    3    3  502    0  0.44268889350E+02 -0.22655702933E+03 -0.45014679692E+02  0.23519301944E+03  0.12699999809E+01 0. -1.
       -4    1    3    3    0  502 -0.44268889350E+02  0.22655702933E+03  0.65134666498E+03  0.69104407456E+03  0.12699999809E+01 0.  1.
</event>
<event>
 5   0  0.7572415E-04  0.6983967E+03  0.7818609E-02  0.9719978E-01
        1   -1    0    0  501    0  0.00000000000E+00  0.00000000000E+00  0.16408623058E+04  0.16408623058E+04  0.50400001928E-02 0. -1.
       -1   -1    0    0    0  501  0.00000000000E+00  0.00000000000E+00 -0.74314274603E+02  0.74314274774E+02  0.50400001928E-02 0.  1.
    10030    2    1    2    0    0  0.00000000000E+00  0.00000000000E+00  0.15665480312E+04  0.17151765806E+04  0.69839671286E+03 0.  0.
        4    1    3    3  502    0 -0.72459257302E+02  0.33618616208E+03  0.63456867873E+03  0.72176900769E+03  0.12699999809E+01 0.  1.
       -4    1    3    3    0  502  0.72459257302E+02 -0.33618616208E+03  0.93197935251E+03  0.99340757293E+03  0.12699999809E+01 0. -1.
</event>
<event>
 5   0  0.7570633E-04  0.7000589E+03  0.7818609E-02  0.9717132E-01
        1   -1    0    0  501    0  0.00000000000E+00  0.00000000000E+00  0.18816357267E+03  0.18816357274E+03  0.50400001928E-02 0.  1.
       -1   -1    0    0    0  501  0.00000000000E+00  0.00000000000E+00 -0.65113882287E+03  0.65113882289E+03  0.50400001928E-02 0. -1.
    10030    2    1    2    0    0  0.00000000000E+00  0.00000000000E+00 -0.46297525020E+03  0.83930239563E+03  0.70005887540E+03 0.  0.
        5    1    3    3  502    0  0.18108149677E+03 -0.15495855802E+03 -0.53878077436E+03  0.58915997487E+03  0.46999998093E+01 0. -1.
       -5    1    3    3    0  502 -0.18108149677E+03  0.15495855802E+03  0.75805524161E+02  0.25014242076E+03  0.46999998093E+01 0.  1.
</event>
<event>
 5   0  0.1224048E-03  0.7005049E+03  0.7818609E-02  0.9716369E-01
        2   -1    0    0  501    0  0.00000000000E+00  0.00000000000E+00  0.58484007045E+03  0.58484007046E+03  0.25500000920E-02 0.  1.
       -2   -1    0    0    0  501  0.00000000000E+00  0.00000000000E+00 -0.20976122395E+03  0.20976122397E+03  0.25500000920E-02 0. -1.
    10030    2    1    2    0    0  0.00000000000E+00  0.00000000000E+00  0.37507884650E+03  0.79460129442E+03  0.70050487222E+03 0.  0.
        3    1    3    3  502    0 -0.19791399399E+03  0.93349345147E+02  0.49775795737E+03  0.54373435020E+03  0.10100000352E+00 0.  1.
       -3    1    3    3    0  502  0.19791399399E+03 -0.93349345147E+02 -0.12267911087E+03  0.25086694422E+03  0.10100000352E+00 0. -1.
</event>
<event>
 5   0  0.7572415E-04  0.6999832E+03  0.7818609E-02  0.9717261E-01
       -1   -1    0    0    0  501  0.00000000000E+00  0.00000000000E+00  0.27304035594E+03  0.27304035598E+03  0.50400001928E-02 0. -1.
        1   -1    0    0  501    0  0.00000000000E+00  0.00000000000E+00 -0.44863014677E+03  0.44863014679E+03  0.50400001928E-02 0.  1.
    10030    2    1    2    0    0  0.00000000000E+00  0.00000000000E+00 -0.17558979083E+03  0.72167050278E+03  0.69998324261E+03 0.  0.
        4    1    3    3  502    0 -0.19041570183E+03  0.21025605187E+03  0.12356098962E+03  0.30941020977E+03  0.12699999809E+01 0. -1.
       -4    1    3    3    0  502  0.19041570183E+03 -0.21025605187E+03 -0.29915078045E+03  0.41226029301E+03  0.12699999809E+01 0.  1.
</event>
<event>
 5   0  0.1224048E-03  0.6995943E+03  0.7818609E-02  0.9717926E-01
        2   -1    0    0  501    0  0.00000000000E+00  0.00000000000E+00  0.13334612383E+04  0.13334612383E+04  0.25500000920E-02 0. -1.
       -2   -1    0    0    0  501  0.00000000000E+00  0.00000000000E+00 -0.91759720484E+02  0.91759720519E+02  0.25500000920E-02 0.  1.
    10030    2    1    2    0    0  0.00000000000E+00  0.00000000000E+00  0.12417015178E+04  0.14252209588E+04  0.69959425534E+03 0.  0.
        3    1    3    3  502    0 -0.77521327807E+01 -0.29512333926E+03  0.23863538013E+03  0.37961129566E+03  0.10100000352E+00 0. -1.
       -3    1    3    3    0  502  0.77521327807E+01  0.29512333926E+03  0.10030661377E+04  0.10456096631E+04  0.10100000352E+00 0.  1.
</event>
<event>
 5   0  0.7570633E-04  0.7000776E+03  0.7818609E-02  0.9717099E-01
       -1   -1    0    0    0  501  0.00000000000E+00  0.00000000000E+00  0.11079343423E+03  0.11079343434E+03  0.50400001928E-02 0.  1.
        1   -1    0    0  501    0  0.00000000000E+00  0.00000000000E+00 -0.11059063739E+04  0.11059063739E+04  0.50400001928E-02 0. -1.
    10030    2    1    2    0    0  0.00000000000E+00  0.00000000000E+00 -0.99511293965E+03  0.12166998082E+04  0.70007761048E+03 0.  0.
        5    1    3    3  502    0  0.19058103420E+03 -0.15098295613E+03 -0.93511997162E+03  0.96622380169E+03  0.46999998093E+01 0. -1.
       -5    1    3    3    0  502 -0.19058103420E+03  0.15098295613E+03 -0.59992968030E+02  0.25047600654E+03  0.46999998093E+01 0.  1.
</event>
<event>
 5   0  0.7459843E-04  0.6998712E+03  0.7818609E-02  0.9717453E-01
        1   -1    0    0  501    0  0.00000000000E+00  0.00000000000E+00  0.14113041577E+03  0.14113041586E+03  0.50400001928E-02 0.  1.
       -1   -1    0    0    0  501  0.00000000000E+00  0.00000000000E+00 -0.86767198562E+03  0.86767198563E+03  0.50400001928E-02 0. -1.
    10030    2    1    2    0    0  0.00000000000E+00  0.00000000000E+00 -0.72654156985E+03  0.10088024015E+04  0.69987115423E+03 0.  0.
        2    1    3    3  502    0  0.74168741733E+02  0.19217158395E+03  0.44483101584E+02  0.21073601083E+03  0.25500000920E-02 0.  1.
       -2    1    3    3    0  502 -0.74168741733E+02 -0.19217158395E+03 -0.77102467143E+03  0.79806639066E+03  0.25500000920E-02 0. -1.
</event>
<event>
 5   0  0.1282546E-03  0.7000502E+03  0.7818609E-02  0.9717146E-01
        2   -1    0    0  501    0  0.00000000000E+00  0.00000000000E+00  0.88494965845E+03  0.88494965845E+03  0.25500000920E-02 0. -1.
       -2   -1    0    0    0  501  0.00000000000E+00  0.00000000000E+00 -0.13844580326E+03  0.13844580329E+03  0.25500000920E-02 0.  1.
    10030    2    1    2    0    0  0.00000000000E+00  0.00000000000E+00  0.74650385518E+03  0.10233954617E+04  0.70005018770E+03 0.  0.
        5    1    3    3  502    0 -0.37112302522E+02 -0.17316678795E+03  0.81456660504E+03  0.83360956298E+03  0.46999998093E+01 0. -1.
       -5    1    3    3    0  502  0.37112302522E+02  0.17316678795E+03 -0.68062749862E+02  0.18978589875E+03  0.46999998093E+01 0.  1.
</event>
<event>
 5   0  0.7013526E-04  0.7000652E+03  0.7818609E-02  0.9717121E-01
       -1   -1    0    0    0  501  0.00000000000E+00  0.00000000000E+00  0.49702809567E+03  0.49702809569E+03  0.50400001928E-02 0. -1.
        1   -1    0    0  501    0  0.00000000000E+00  0.00000000000E+00 -0.24651084928E+03  0.24651084933E+03  0.50400001928E-02 0.  1.
    10030    2    1    2    0    0  0.00000000000E+00  0.00000000000E+00  0.25051724638E+03  0.74353894502E+03  0.70006519127E+03 0.  0.
        1    1    3    3  502    0  0.11798816098E+03 -0.18668407241E+03  0.41369379603E+03  0.46895064338E+03  0.50400001928E-02 0. -1.
       -1    1    3    3    0  502 -0.11798816098E+03  0.18668407241E+03 -0.16317654965E+03  0.27458830165E+03  0.50400001928E-02 0.  1.
</event>
<event>
 5   0  0.7013526E-04  0.7002194E+03  0.7818609E-02  0.9716857E-01
        1   -1    0    0  501    0  0.00000000000E+00  0.00000000000E+00  0.44704336719E+03  0.44704336721E+03  0.50400001928E-02 0. -1.
       -1   -1    0    0    0  501  0.00000000000E+00  0.00000000000E+00 -0.27419445871E+03  0.27419445876E+03  0.50400001928E-02 0.  1.
    10030    2    1    2    0    0  0.00000000000E+00  0.00000000000E+00  0.17284890847E+03  0.72123782597E+03  0.70021943450E+03 0.  0.
        1    1    3    3  502    0 -0.70945100393E+02 -0.17678282827E+03 -0.21614716507E+03  0.28810583582E+03  0.50400001928E-02 0.  1.
       -1    1    3    3    0  502  0.70945100393E+02  0.17678282827E+03  0.38899607354E+03  0.43313199016E+03  0.50400001928E-02 0. -1.
</event>
<event>
 5   0  0.1224048E-03  0.7000115E+03  0.7818609E-02  0.9717213E-01
       -2   -1    0    0    0  501  0.00000000000E+00  0.00000000000E+00  0.12394701426E+03  0.12394701428E+03  0.25500000920E-02 0. -1.
        2   -1    0    0  501    0  0.00000000000E+00  0.00000000000E+00 -0.98835801630E+03  0.98835801630E+03  0.25500000920E-02 0.  1.
    10030    2    1    2    0    0  0.00000000000E+00  0.00000000000E+00 -0.86441100204E+03  0.11123050306E+04  0.70001150035E+03 0.  0.
        3    1    3    3  502    0 -0.28631981165E+03 -0.15250416735E+02 -0.75116116799E+03  0.80402407940E+03  0.10100000352E+00 0.  1.
       -3    1    3    3    0  502  0.28631981165E+03  0.15250416735E+02 -0.11324983405E+03  0.30828095119E+03  0.10100000352E+00 0. -1.
</event>
<event>
 5   0  0.7572415E-04  0.6996865E+03  0.7818609E-02  0.9717768E-01
       -1   -1    0    0    0  501  0.00000000000E+00  0.00000000000E+00  0.33341644688E+03  0.33341644691E+03  0.50400001928E-02 0.  1.
        1   -1    0    0  501    0  0.00000000000E+00  0.00000000000E+00 -0.36707938278E+03  0.36707938282E+03  0.50400001928E-02 0. -1.
    10030    2    1    2    0    0  0.00000000000E+00  0.00000000000E+00 -0.33662935908E+02  0.70049582973E+03  0.69968651139E+03 0.  0.
        4    1    3    3  502    0  0.14741585094E+03 -0.61568052146E+02  0.29476258023E+03  0.33527399207E+03  0.12699999809E+01 0.  1.
       -4    1    3    3    0  502 -0.14741585094E+03  0.61568052146E+02 -0.32842551614E+03  0.36522183766E+03  0.12699999809E+01 0. -1.
</event>
<event>
 5   0  0.7013526E-04  0.6998517E+03  0.7818609E-02  0.9717486E-01
       -1   -1    0    0    0  501  0.00000000000E+00  0.00000000000E+00  0.98317025496E+03  0.98317025497E+03  0.50400001928E-02 0.  1.
        1   -1    0    0  501    0  0.00000000000E+00  0.00000000000E+00 -0.12454415283E+03  0.12454415294E+03  0.50400001928E-02 0. -1.
    10030    2    1    2    0    0  0.00000000000E+00  0.00000000000E+00  0.85862610212E+03  0.11077144079E+04  0.69985171732E+03 0.  0.
        1    1    3    3  502    0 -0.24246485534E+03  0.33098083732E+02  0.33416240300E+02  0.24698448203E+03  0.50400001928E-02 0. -1.
       -1    1    3    3    0  502  0.24246485534E+03 -0.33098083732E+02  0.82520986182E+03  0.86072992587E+03  0.50400001928E-02 0.  1.
</event>
<event>
 5   0  0.1282546E-03  0.6997389E+03  0.7818609E-02  0.9717679E-01
       -2   -1    0    0    0  501  0.00000000000E+00  0.00000000000E+00  0.33810049357E+03  0.33810049358E+03  0.25500000920E-02 0.  1.
        2   -1    0    0  501    0  0.00000000000E+00  0.00000000000E+00 -0.36204812134E+03  0.36204812135E+03  0.25500000920E-02 0. -1.
    10030    2    1    2    0    0  0.00000000000E+00  0.00000000000E+00 -0.23947627773E+02  0.70014861493E+03  0.69973894712E+03 0.  0.
        5    1    3    3  502    0  0.99939177041E+02 -0.19947561370E+03 -0.28159065676E+03  0.35929618359E+03  0.46999998093E+01 0. -1.
       -5    1    3    3    0  502 -0.99939177041E+02  0.19947561370E+03  0.25764302899E+03  0.34085243134E+03  0.46999998093E+01 0.  1.
</event>
<event>
 5   0  0.7570633E-04  0.7001232E+03  0.7818609E-02  0.9717022E-01
       -1   -1    0    0    0  501  0.00000000000E+00  0.00000000000E+00  0.29035479046E+03  0.29035479051E+03  0.50400001928E-02 0. -1.
        1   -1    0    0  501    0  0.00000000000E+00  0.00000000000E+00 -0.42204609998E+03  0.42204610001E+03  0.50400001928E-02 0.  1.
    10030    2    1    2    0    0  0.00000000000E+00  0.00000000000E+00 -0.13169130951E+03  0.71240089051E+03  0.70012315188E+03 0.  0.
        5    1    3    3  502    0  0.41314081757E+02 -0.19679124679E+02  0.28726576258E+03  0.29092581468E+03  0.46999998093E+01 0. -1.
       -5    1    3    3    0  502 -0.41314081757E+02  0.19679124679E+02 -0.41895707209E+03  0.42147507584E+03  0.46999998093E+01 0.  1.
</event>
<event>
 5   0  0.1224048E-03  0.7000081E+03  0.7818609E-02  0.9717218E-01
        2   -1    0    0  501    0  0.00000000000E+00  0.00000000000E+00  0.51225110018E+03  0.51225110019E+03  0.25500000920E-02 0. -1.
       -2   -1    0    0    0  501  0.00000000000E+00  0.00000000000E+00 -0.23914607766E+03  0.23914607767E+03  0.25500000920E-02 0.  1.
    10030    2    1    2    0    0  0.00000000000E+00  0.00000000000E+00  0.27310502252E+03  0.75139717786E+03  0.70000811821E+03 0.  0.
        3    1    3    3  502    0  0.58609740329E+02 -0.24074266278E+02  0.50604359190E+03  0.50999490102E+03  0.10100000352E+00 0. -1.
       -3    1    3    3    0  502 -0.58609740329E+02  0.24074266278E+02 -0.23293856938E+03  0.24140227684E+03  0.10100000352E+00 0.  1.
</event>
<event>
 5   0  0.7459843E-04  0.6996715E+03  0.7818609E-02  0.9717794E-01
        1   -1    0    0  501    0  0.00000000000E+00  0.00000000000E+00  0.12679562462E+04  0.12679562462E+04  0.50400001928E-02 0. -1.
       -1   -1    0    0    0  501  0.00000000000E+00  0.00000000000E+00 -0.96521522089E+02  0.96521522220E+02  0.50400001928E-02 0.  1.
    10030    2    1    2    0    0  0.00000000000E+00  0.00000000000E+00  0.11714347241E+04  0.13644777684E+04  0.69967154271E+03 0.  0.
        2    1    3    3  502    0 -0.11879468667E+02  0.31930799469E+02 -0.93278644442E+02  0.99305605310E+02  0.25500000920E-02 0.  1.
       -2    1    3    3    0  502  0.11879468667E+02 -0.31930799469E+02  0.12647133685E+04  0.12651721631E+04  0.25500000920E-02 0. -1.
</event>
<event>
 5   0  0.7572415E-04  0.7000422E+03  0.7818609E-02  0.9717160E-01
       -1   -1    0    0    0  501  0.00000000000E+00  0.00000000000E+00  0.23725116901E+04  0.23725116901E+04  0.50400001928E-02 0. -1.
        1   -1    0    0  501    0  0.00000000000E+00  0.00000000000E+00 -0.51639271300E+02  0.51639271546E+02  0.50400001928E-02 0.  1.
    10030    2    1    2    0    0  0.00000000000E+00  0.00000000000E+00  0.23208724188E+04  0.24241509616E+04  0.70004221338E+03 0.  0.
        4    1    3    3  502    0  0.19706588958E+03  0.12736431985E+03  0.20598249007E+04  0.20731466106E+04  0.12699999809E+01 0. -1.
       -4    1    3    3    0  502 -0.19706588958E+03 -0.12736431985E+03  0.26104751806E+03  0.35100435096E+03  0.12699999809E+01 0.  1.
</event>
<event>
 5   0  0.7013526E-04  0.6999700E+03  0.7818609E-02  0.9717284E-01
        1   -1    0    0  501    0  0.00000000000E+00  0.00000000000E+00  0.16798440956E+04  0.16798440956E+04  0.50400001928E-02 0.  1.
       -1   -1    0    0    0  501  0.00000000000E+00  0.00000000000E+00 -0.72917175059E+02  0.72917175233E+02  0.50400001928E-02 0. -1.
    10030    2    1    2    0    0  0.00000000000E+00  0.00000000000E+00  0.16069269206E+04  0.17527612709E+04  0.69996995979E+03 0.  0.
        1    1    3    3  502    0 -0.12865558397E+03 -0.32046126265E+03  0.94603632498E+03  0.10070910626E+04  0.50400001928E-02 0.  1.
       -1    1    3    3    0  502  0.12865558397E+03  0.32046126265E+03  0.66089059558E+03  0.74567020827E+03  0.50400001928E-02 0. -1.
</event>
<event>
 5   0  0.7572415E-04  0.7004737E+03  0.7818609E-02  0.9716422E-01
       -1   -1    0    0    0  501  0.00000000000E+00  0.00000000000E+00  0.10775129285E+03  0.10775129297E+03  0.50400001928E-02 0.  1.
        1   -1    0    0  501    0  0.00000000000E+00  0.00000000000E+00 -0.11384165825E+04  0.11384165825E+04  0.50400001928E-02 0. -1.
    10030    2    1    2    0    0  0.00000000000E+00  0.00000000000E+00 -0.10306652896E+04  0.12461678755E+04  0.70047372156E+03 0.  0.
        4    1    3    3  502    0  0.31920517489E+03 -0.11663655761E+03 -0.36471001326E+03  0.49850881328E+03  0.12699999809E+01 0.  1.
       -4    1    3    3    0  502 -0.31920517489E+03  0.11663655761E+03 -0.66595527638E+03  0.74765906219E+03  0.12699999809E+01 0. -1.
</event>
<event>
 5   0  0.1222679E-03  0.7013908E+03  0.7818609E-02  0.9714857E-01
       -2   -1    0    0    0  501  0.00000000000E+00  0.00000000000E+00  0.11061512263E+03  0.11061512266E+03  0.25500000920E-02 0. -1.
        2   -1    0    0  501    0  0.00000000000E+00  0.00000000000E+00 -0.11118485828E+04  0.11118485828E+04  0.25500000920E-02 0.  1.
    10030    2    1    2    0    0  0.00000000000E+00  0.00000000000E+00 -0.10012334602E+04  0.12224637055E+04  0.70139081075E+03 0.  0.
        2    1    3    3  502    0 -0.19486936780E+02 -0.20927727976E+03 -0.11324777852E+02  0.21048746074E+03  0.25500000920E-02 0. -1.
       -2    1    3    3    0  502  0.19486936780E+02  0.20927727976E+03 -0.98990868235E+03  0.10119762447E+04  0.25500000920E-02 0.  1.
</event>
<event>
 5   0  0.1265562E-03  0.6999230E+03  0.7818609E-02  0.9717364E-01
       -2   -1    0    0    0  501  0.00000000000E+00  0.00000000000E+00  0.14656452401E+03  0.14656452403E+03  0.25500000920E-02 0. -1.
        2   -1    0    0  501    0  0.00000000000E+00  0.00000000000E+00 -0.83562552072E+03  0.83562552073E+03  0.25500000920E-02 0.  1.
    10030    2    1    2    0    0  0.00000000000E+00  0.00000000000E+00 -0.68906099671E+03  0.98219004476E+03  0.69992301493E+03 0.  0.
        1    1    3    3  502    0 -0.23689058066E+03 -0.11616686880E+03 -0.21893899065E+02  0.26474748621E+03  0.50400001928E-02 0. -1.
       -1    1    3    3    0  502  0.23689058066E+03  0.11616686880E+03 -0.66716709765E+03  0.71744255855E+03  0.50400001928E-02 0.  1.
</event>
<event>
 5   0  0.1224048E-03  0.7000415E+03  0.7818609E-02  0.9717161E-01
        2   -1    0    0  501    0  0.00000000000E+00  0.00000000000E+00  0.37755211879E+03  0.37755211880E+03  0.25500000920E-02 0.  1.
       -2   -1    0    0    0  501  0.00000000000E+00  0.00000000000E+00 -0.32449702613E+03  0.32449702614E+03  0.25500000920E-02 0. -1.
    10030    2    1    2    0    0  0.00000000000E+00  0.00000000000E+00  0.53055092662E+02  0.70204914494E+03  0.70004154095E+03 0.  0.
        3    1    3    3  502    0  0.17887173687E+03  0.72679479590E+02 -0.26626370643E+03  0.32889782087E+03  0.10100000352E+00 0. -1.
       -3    1    3    3    0  502 -0.17887173687E+03 -0.72679479590E+02  0.31931879909E+03  0.37315132408E+03  0.10100000352E+00 0.  1.
</event>
<event>
 5   0  0.1265562E-03  0.7000001E+03  0.7818609E-02  0.9717232E-01
        2   -1    0    0  501    0  0.00000000000E+00  0.00000000000E+00  0.68149182030E+03  0.68149182031E+03  0.25500000920E-02 0.  1.
       -2   -1    0    0    0  501  0.00000000000E+00  0.00000000000E+00 -0.17975276837E+03  0.17975276839E+03  0.25500000920E-02 0. -1.
    10030    2    1    2    0    0  0.00000000000E+00  0.00000000000E+00  0.50173905193E+03  0.86124458870E+03  0.70000011809E+03 0.  0.
        1    1    3    3  502    0 -0.86741310551E+02  0.29559299655E+03  0.46465725499E+02  0.31154187236E+03  0.50400001928E-02 0.  1.
       -1    1    3    3    0  502  0.86741310551E+02 -0.29559299655E+03  0.45527332643E+03  0.54970271634E+03  0.50400001928E-02 0. -1.
</event>
<event>
 5   0  0.1243087E-03  0.7001785E+03  0.7818609E-02  0.9716927E-01
       -2   -1    0    0    0  501  0.00000000000E+00  0.00000000000E+00  0.17998101811E+03  0.17998101813E+03  0.25500000920E-02 0. -1.
        2   -1    0    0  501    0  0.00000000000E+00  0.00000000000E+00 -0.68097449883E+03  0.68097449883E+03  0.25500000920E-02 0.  1.
    10030    2    1    2    0    0  0.00000000000E+00  0.00000000000E+00 -0.50099348072E+03  0.86095551696E+03  0.70017850186E+03 0.  0.
        4    1    3    3  502    0  0.94194224760E+02  0.33647317510E+03 -0.27727094750E+03  0.44605777738E+03  0.12699999809E+01 0.  1.
       -4    1    3    3    0  502 -0.94194224760E+02 -0.33647317510E+03 -0.22372253322E+03  0.41489773958E+03  0.12699999809E+01 0. -1.
</event>
<event>
 5   0  0.7574241E-04  0.6998509E+03  0.7818609E-02  0.9717487E-01
       -1   -1    0    0    0  501  0.00000000000E+00  0.00000000000E+00  0.23163227901E+03  0.23163227907E+03  0.50400001928E-02 0.  1.
        1   -1    0    0  501    0  0.00000000000E+00  0.00000000000E+00 -0.52863020181E+03  0.52863020184E+03  0.50400001928E-02 0. -1.
    10030    2    1    2    0    0  0.00000000000E+00  0.00000000000E+00 -0.29699792280E+03  0.76026248091E+03  0.69985089392E+03 0.  0.
        3    1    3    3  502    0  0.13455873211E+03  0.23697237641E+03  0.89962275867E+02  0.28697592381E+03  0.10100000352E+00 0.  1.
       -3    1    3    3    0  502 -0.13455873211E+03 -0.23697237641E+03 -0.38696019867E+03  0.47328655709E+03  0.10100000352E+00 0. -1.
</event>
<event>
 5   0  0.7013526E-04  0.7001516E+03  0.7818609E-02  0.9716973E-01
       -1   -1    0    0    0  501  0.00000000000E+00  0.00000000000E+00  0.64694418358E+02  0.64694418554E+02  0.50400001928E-02 0.  1.
        1   -1    0    0  501    0  0.00000000000E+00  0.00000000000E+00 -0.18943374113E+04  0.18943374113E+04  0.50400001928E-02 0. -1.
    10030    2    1    2    0    0  0.00000000000E+00  0.00000000000E+00 -0.18296429930E+04  0.19590318299E+04  0.70015157558E+03 0.  0.
        1    1    3    3  502    0 -0.26783114865E+03  0.22247616751E+03 -0.10166278834E+04  0.10745982610E+04  0.50400001928E-02 0.  1.
       -1    1    3    3    0  502  0.26783114865E+03 -0.22247616751E+03 -0.81301510960E+03  0.88443356888E+03  0.50400001928E-02 0. -1.
</event>
<event>
 5   0  0.7570633E-04  0.6998502E+03  0.7818609E-02  0.9717488E-01
        1   -1    0    0  501    0  0.00000000000E+00  0.00000000000E+00  0.73183470600E+03  0.73183470601E+03  0.50400001928E-02 0.  1.
       -1   -1    0    0    0  501  0.00000000000E+00  0.00000000000E+00 -0.16731587473E+03  0.16731587480E+03  0.50400001928E-02 0. -1.
    10030    2    1    2    0    0  0.00000000000E+00  0.00000000000E+00  0.56451883127E+03  0.89915058082E+03  0.69985016691E+03 0.  0.
        5    1    3    3  502    0 -0.16123870707E+03  0.30917478174E+02 -0.11471690504E+03  0.20033938558E+03  0.46999998093E+01 0. -1.
       -5    1    3    3    0  502  0.16123870707E+03 -0.30917478174E+02  0.67923573631E+03  0.69881119524E+03  0.46999998093E+01 0.  1.
</event>
<event>
 5   0  0.7013526E-04  0.6997832E+03  0.7818609E-02  0.9717603E-01
        1   -1    0    0  501    0  0.00000000000E+00  0.00000000000E+00  0.13948198823E+03  0.13948198832E+03  0.50400001928E-02 0.  1.
       -1   -1    0    0    0  501  0.00000000000E+00  0.00000000000E+00 -0.87770570227E+03  0.87770570228E+03  0.50400001928E-02 0. -1.
    10030    2    1    2    0    0  0.00000000000E+00  0.00000000000E+00 -0.73822371404E+03  0.10171876906E+04  0.69978321353E+03 0.  0.
        1    1    3    3  502    0 -0.15918903767E+03 -0.13742298818E+03 -0.77558807951E+03  0.80359386291E+03  0.50400001928E-02 0. -1.
       -1    1    3    3    0  502  0.15918903767E+03  0.13742298818E+03  0.37364365473E+02  0.21359382769E+03  0.50400001928E-02 0.  1.
</event>
<event>
 5   0  0.7572415E-04  0.6994847E+03  0.7818609E-02  0.9718114E-01
        1   -1    0    0  501    0  0.00000000000E+00  0.00000000000E+00  0.44422941616E+03  0.44422941619E+03  0.50400001928E-02 0. -1.
       -1   -1    0    0    0  501  0.00000000000E+00  0.00000000000E+00 -0.27535254632E+03  0.27535254637E+03  0.50400001928E-02 0.  1.
    10030    2    1    2    0    0  0.00000000000E+00  0.00000000000E+00  0.16887686984E+03  0.71958196256E+03  0.69948467008E+03 0.  0.
        4    1    3    3  502    0  0.10862653235E+02  0.14319374786E+03 -0.24362153249E+03  0.28279941770E+03  0.12699999809E+01 0.  1.
       -4    1    3    3    0  502 -0.10862653235E+02 -0.14319374786E+03  0.41249840234E+03  0.43678254485E+03  0.12699999809E+01 0. -1.
</event>
<event>
 5   0  0.7574241E-04  0.7000701E+03  0.7818609E-02  0.9717112E-01
       -1   -1    0    0    0  501  0.00000000000E+00  0.00000000000E+00  0.64189339700E+03  0.64189339702E+03  0.50400001928E-02 0. -1.
        1   -1    0    0  501    0  0.00000000000E+00  0.00000000000E+00 -0.19087985737E+03  0.19087985744E+03  0.50400001928E-02 0.  1.
    10030    2    1    2    0    0  0.00000000000E+00  0.00000000000E+00  0.45101353963E+03  0.83277325446E+03  0.70007005393E+03 0.  0.
        3    1    3    3  502    0  0.18512120522E+03  0.17898537704E+03 -0.56543408424E+02  0.26363382380E+03  0.10100000352E+00 0.  1.
       -3    1    3    3    0  502 -0.18512120522E+03 -0.17898537704E+03  0.50755694806E+03  0.56913943066E+03  0.10100000352E+00 0. -1.
</event>
<event>
 5   0  0.1243087E-03  0.6996726E+03  0.7818609E-02  0.9717792E-01
        2   -1    0    0  501    0  0.00000000000E+00  0.00000000000E+00  0.15664655384E+04  0.15664655384E+04  0.25500000920E-02 0. -1.
       -2   -1    0    0    0  501  0.00000000000E+00  0.00000000000E+00 -0.78128395265E+02  0.78128395306E+02  0.25500000920E-02 0.  1.
    10030    2    1    2    0    0  0.00000000000E+00  0.00000000000E+00  0.14883371432E+04  0.16445939337E+04  0.69967260570E+03 0.  0.
        4    1    3    3  502    0 -0.39567168019E+02 -0.10480993231E+03 -0.34818984094E+02  0.11732287607E+03  0.12699999809E+01 0.  1.
       -4    1    3    3    0  502  0.39567168019E+02  0.10480993231E+03  0.15231561273E+04  0.15272710577E+04  0.12699999809E+01 0. -1.
</event>
<event>
 5   0  0.7459843E-04  0.6998054E+03  0.7818609E-02  0.9717565E-01
        1   -1    0    0  501    0  0.00000000000E+00  0.00000000000E+00  0.62069902116E+03  0.62069902118E+03  0.50400001928E-02 0. -1.
       -1   -1    0    0    0  501  0.00000000000E+00  0.00000000000E+00 -0.19724841382E+03  0.19724841388E+03  0.50400001928E-02 0.  1.
    10030    2    1    2    0    0  0.00000000000E+00  0.00000000000E+00  0.42345060734E+03  0.81794743506E+03  0.69980539414E+03 0.  0.
        2    1    3    3  502    0 -0.14531075963E+03 -0.29562440121E+03  0.34964073652E+03  0.48037240563E+03  0.25500000920E-02 0. -1.
       -2    1    3    3    0  502  0.14531075963E+03  0.29562440121E+03  0.73809870822E+02  0.33757502943E+03  0.25500000920E-02 0.  1.
</event>
<event>
 5   0  0.7574241E-04  0.6996849E+03  0.7818609E-02  0.9717771E-01
        1   -1    0    0  501    0  0.00000000000E+00  0.00000000000E+00  0.22842267223E+03  0.22842267229E+03  0.50400001928E-02 0.  1.
       -1   -1    0    0    0  501  0.00000000000E+00  0.00000000000E+00 -0.53580377276E+03  0.53580377278E+03  0.50400001928E-02 0. -1.
    10030    2    1    2    0    0  0.00000000000E+00  0.00000000000E+00 -0.30738110053E+03  0.76422644507E+03  0.69968487077E+03 0.  0.
        3    1    3    3  502    0  0.27116253171E+03  0.22063042782E+03 -0.13892241618E+03  0.37617330076E+03  0.10100000352E+00 0.  1.
       -3    1    3    3    0  502 -0.27116253171E+03 -0.22063042782E+03 -0.16845868434E+03  0.38805314432E+03  0.10100000352E+00 0. -1.
</event>
<event>
 5   0  0.1282546E-03  0.6999646E+03  0.7818609E-02  0.9717293E-01
        2   -1    0    0  501    0  0.00000000000E+00  0.00000000000E+00  0.94535210184E+03  0.94535210184E+03  0.25500000920E-02 0.  1.
       -2   -1    0    0    0  501  0.00000000000E+00  0.00000000000E+00 -0.12956823723E+03  0.12956823725E+03  0.25500000920E-02 0. -1.
    10030    2    1    2    0    0  0.00000000000E+00  0.00000000000E+00  0.81578386461E+03  0.10749203391E+04  0.69996458599E+03 0.  0.
        5    1    3    3  502    0  0.27718813985E+03 -0.75657634012E+02  0.10110904153E+03  0.30463497950E+03  0.46999998093E+01 0. -1.
       -5    1    3    3    0  502 -0.27718813985E+03  0.75657634012E+02  0.71467482308E+03  0.77028535959E+03  0.46999998093E+01 0.  1.
</event>
<event>
 5   0  0.7459843E-04  0.7002370E+03  0.7818609E-02  0.9716827E-01
       -1   -1    0    0    0  501  0.00000000000E+00  0.00000000000E+00  0.58578234250E+03  0.58578234252E+03  0.50400001928E-02 0. -1.
        1   -1    0    0  501    0  0.00000000000E+00  0.00000000000E+00 -0.20926366696E+03  0.20926366702E+03  0.50400001928E-02 0.  1.
    10030    2    1    2    0    0  0.00000000000E+00  0.00000000000E+00  0.37651867553E+03  0.79504600954E+03  0.70023699150E+03 0.  0.
        2    1    3    3  502    0  0.24659568288E+03  0.93265162847E+02  0.44983226064E+03  0.52139896829E+03  0.25500000920E-02 0. -1.
       -2    1    3    3    0  502 -0.24659568288E+03 -0.93265162847E+02 -0.73313585109E+02  0.27364704125E+03  0.25500000920E-02 0.  1.
</event>
<event>
 5   0  0.7574241E-04  0.7001634E+03  0.7818609E-02  0.9716953E-01
        1   -1    0    0  501    0  0.00000000000E+00  0.00000000000E+00  0.42492602633E+03  0.42492602635E+03  0.50400001928E-02 0. -1.
       -1   -1    0    0    0  501  0.00000000000E+00  0.00000000000E+00 -0.28842011066E+03  0.28842011070E+03  0.50400001928E-02 0.  1.
    10030    2    1    2    0    0  0.00000000000E+00  0.00000000000E+00  0.13650591567E+03  0.71334613706E+03  0.70016344252E+03 0.  0.
        3    1    3    3  502    0  0.33143224013E+03  0.11114217500E+03  0.48994992511E+02  0.35298786431E+03  0.10100000352E+00 0.  1.
       -3    1    3    3    0  502 -0.33143224013E+03 -0.11114217500E+03  0.87510923157E+02  0.36035827274E+03  0.10100000352E+00 0. -1.
</event>
<event>
 5   0  0.7570633E-04  0.7004905E+03  0.7818609E-02  0.9716394E-01
       -1   -1    0    0    0  501  0.00000000000E+00  0.00000000000E+00  0.57518171336E+03  0.57518171338E+03  0.50400001928E-02 0.  1.
        1   -1    0    0  501    0  0.00000000000E+00  0.00000000000E+00 -0.21327475127E+03  0.21327475133E+03  0.50400001928E-02 0. -1.
    10030    2    1    2    0    0  0.00000000000E+00  0.00000000000E+00  0.36190696209E+03  0.78845646471E+03  0.70049050496E+03 0.  0.
        5    1    3    3  502    0 -0.11759285342E+03 -0.23502943822E+03 -0.79594605158E+02  0.27463486154E+03  0.46999998093E+01 0. -1.
       -5    1    3    3    0  502  0.11759285342E+03  0.23502943822E+03  0.44150156725E+03  0.51382160317E+03  0.46999998093E+01 0.  1.
</event>
<event>
 5   0  0.1222679E-03  0.6997147E+03  0.7818609E-02  0.9717720E-01
        2   -1    0    0  501    0  0.00000000000E+00  0.00000000000E+00  0.15499560350E+04  0.15499560350E+04  0.25500000920E-02 0.  1.
       -2   -1    0    0    0  501  0.00000000000E+00  0.00000000000E+00 -0.78970085445E+02  0.78970085486E+02  0.25500000920E-02 0. -1.
    10030    2    1    2    0    0  0.00000000000E+00  0.00000000000E+00  0.14709859495E+04  0.16289261205E+04  0.69971468629E+03 0.  0.
        2    1    3    3  502    0 -0.34513799894E+02 -0.33420124899E+03  0.96261762686E+03  0.10195657766E+04  0.25500000920E-02 0.  1.
       -2    1    3    3    0  502  0.34513799894E+02  0.33420124899E+03  0.50836832269E+03  0.60936034391E+03  0.25500000920E-02 0. -1.
</event>
<event>
 5   0  0.1222679E-03  0.6999540E+03  0.7818609E-02  0.9717311E-01
       -2   -1    0    0    0  501  0.00000000000E+00  0.00000000000E+00  0.94457925955E+03  0.94457925955E+03  0.25500000920E-02 0. -1.
        2   -1    0    0  501    0  0.00000000000E+00  0.00000000000E+00 -0.12967030795E+03  0.12967030797E+03  0.25500000920E-02 0.  1.
    10030    2    1    2    0    0  0.00000000000E+00  0.00000000000E+00  0.81490895160E+03  0.10742495675E+04  0.69995395129E+03 0.  0.
        2    1    3    3  502    0  0.42888721092E+02 -0.12386244975E+03  0.90548404702E+03  0.91492224165E+03  0.25500000920E-02 0. -1.
       -2    1    3    3    0  502 -0.42888721092E+02  0.12386244975E+03 -0.90575095415E+02  0.15932732588E+03  0.25500000920E-02 0.  1.
</event>
<event>
 5   0  0.1282546E-03  0.7003613E+03  0.7818609E-02  0.9716615E-01
       -2   -1    0    0    0  501  0.00000000000E+00  0.00000000000E+00  0.23548737713E+03  0.23548737715E+03  0.25500000920E-02 0. -1.
        2   -1    0    0  501    0  0.00000000000E+00  0.00000000000E+00 -0.52073481936E+03  0.52073481937E+03  0.25500000920E-02 0.  1.
    10030    2    1    2    0    0  0.00000000000E+00  0.00000000000E+00 -0.28524744223E+03  0.75622219651E+03  0.70036126906E+03 0.  0.
        5    1    3    3  502    0  0.47881744386E+02 -0.71182062391E+02 -0.50917778855E+03  0.51637550078E+03  0.46999998093E+01 0.  1.
       -5    1    3    3    0  502 -0.47881744386E+02  0.71182062391E+02  0.22393034632E+03  0.23984669573E+03  0.46999998093E+01 0. -1.
</event>
<event>
 5   0  0.1243087E-03  0.6999352E+03  0.7818609E-02  0.9717343E-01
        2   -1    0    0  501    0  0.00000000000E+00  0.00000000000E+00  0.12257961453E+04  0.12257961453E+04  0.25500000920E-02 0.  1.
       -2   -1    0    0    0  501  0.00000000000E+00  0.00000000000E+00 -0.99916552244E+02  0.99916552277E+02  0.25500000920E-02 0. -1.
    10030    2    1    2    0    0  0.00000000000E+00  0.00000000000E+00  0.11258795930E+04  0.13257126975E+04  0.69993521018E+03 0.  0.
        4    1    3    3  502    0 -0.21891959422E+03  0.10837049891E+03  0.10376092728E+04  0.10659758767E+04  0.12699999809E+01 0.  1.
       -4    1    3    3    0  502  0.21891959422E+03 -0.10837049891E+03  0.88270320189E+02  0.25973682083E+03  0.12699999809E+01 0. -1.
</event>
<event>
 5   0  0.7013526E-04  0.6997409E+03  0.7818609E-02  0.9717675E-01
       -1   -1    0    0    0  501  0.00000000000E+00  0.00000000000E+00  0.16442897110E+03  0.16442897118E+03  0.50400001928E-02 0.  1.
        1   -1    0    0  501    0  0.00000000000E+00  0.00000000000E+00 -0.74445104720E+03  0.74445104722E+03  0.50400001928E-02 0. -1.
    10030    2    1    2    0    0  0.00000000000E+00  0.00000000000E+00 -0.58002207610E+03  0.90888001840E+03  0.69974086566E+03 0.  0.
        1    1    3    3  502    0  0.33861738863E+03  0.15659395722E+01 -0.17570117063E+03  0.38149061513E+03  0.50400001928E-02 0.  1.
       -1    1    3    3    0  502 -0.33861738863E+03 -0.15659395722E+01 -0.40432090547E+03  0.52738940326E+03  0.50400001928E-02 0. -1.
</event>
<event>
 5   0  0.1243087E-03  0.6996779E+03  0.7818609E-02  0.9717783E-01
       -2   -1    0    0    0  501  0.00000000000E+00  0.00000000000E+00  0.12997266466E+03  0.12997266468E+03  0.25500000920E-02 0. -1.
        2   -1    0    0  501    0  0.00000000000E+00  0.00000000000E+00 -0.94163881382E+03  0.94163881383E+03  0.25500000920E-02 0.  1.
    10030    2    1    2    0    0  0.00000000000E+00  0.00000000000E+00 -0.81166614917E+03  0.10716114785E+04  0.69967794246E+03 0.  0.
        4    1    3    3  502    0 -0.70159531518E+02 -0.19361080144E+03 -0.83896975254E+03  0.86387462103E+03  0.12699999809E+01 0.  1.
       -4    1    3    3    0  502  0.70159531518E+02  0.19361080144E+03  0.27303603368E+02  0.20773685747E+03  0.12699999809E+01 0. -1.
</event>
<event>
 5   0  0.7572415E-04  0.7019972E+03  0.7818609E-02  0.9713823E-01
        1   -1    0    0  501    0  0.00000000000E+00  0.00000000000E+00  0.72693327317E+02  0.72693327492E+02  0.50400001928E-02 0. -1.
       -1   -1    0    0    0  501  0.00000000000E+00  0.00000000000E+00 -0.16947912818E+04  0.16947912818E+04  0.50400001928E-02 0.  1.
    10030    2    1    2    0    0  0.00000000000E+00  0.00000000000E+00 -0.16220979545E+04  0.17674846093E+04  0.70199720098E+03 0.  0.
        4    1    3    3  502    0  0.22496696614E+03  0.18795895534E+03 -0.12970530812E+04  0.13297695339E+04  0.12699999809E+01 0.  1.
       -4    1    3    3    0  502 -0.22496696614E+03 -0.18795895534E+03 -0.32504487329E+03  0.43771507547E+03  0.12699999809E+01 0. -1.
</event>
<event>
 5   0  0.1265562E-03  0.7004063E+03  0.7818609E-02  0.9716538E-01
        2   -1    0    0  501    0  0.00000000000E+00  0.00000000000E+00  0.15501676453E+03  0.15501676455E+03  0.25500000920E-02 0. -1.
       -2   -1    0    0    0  501  0.00000000000E+00  0.00000000000E+00 -0.79115473333E+03  0.79115473334E+03  0.25500000920E-02 0.  1.
    10030    2    1    2    0    0  0.00000000000E+00  0.00000000000E+00 -0.63613796881E+03  0.94617149789E+03  0.70040630213E+03 0.  0.
        1    1    3    3  502    0  0.23599393485E+03  0.13673634602E+03 -0.61481079491E+03  0.67259369546E+03  0.50400001928E-02 0.  1.
       -1    1    3    3    0  502 -0.23599393485E+03 -0.13673634602E+03 -0.21327173896E+02  0.27357780243E+03  0.50400001928E-02 0. -1.
</event>
<event>
 5   0  0.7574241E-04  0.7031871E+03  0.7818609E-02  0.9711797E-01
       -1   -1    0    0    0  501  0.00000000000E+00  0.00000000000E+00  0.60762894148E+03  0.60762894150E+03  0.50400001928E-02 0. -1.
        1   -1    0    0  501    0  0.00000000000E+00  0.00000000000E+00 -0.20344328681E+03  0.20344328687E+03  0.50400001928E-02 0.  1.
    10030    2    1    2    0    0  0.00000000000E+00  0.00000000000E+00  0.40418565467E+03  0.81107222837E+03  0.70318711322E+03 0.  0.
        3    1    3    3  502    0 -0.11314710936E+03  0.17884192874E+03 -0.12175278223E+03  0.24415252203E+03  0.10100000352E+00 0.  1.
       -3    1    3    3    0  502  0.11314710936E+03 -0.17884192874E+03  0.52593843689E+03  0.56691970634E+03  0.10100000352E+00 0. -1.
</event>
<event>
 5   0  0.1224048E-03  0.6999818E+03  0.7818609E-02  0.9717263E-01
       -2   -1    0    0    0  501  0.00000000000E+00  0.00000000000E+00  0.17806696641E+03  0.17806696642E+03  0.25500000920E-02 0. -1.
        2   -1    0    0  501    0  0.00000000000E+00  0.00000000000E+00 -0.68790771717E+03  0.68790771718E+03  0.25500000920E-02 0.  1.
    10030    2    1    2    0    0  0.00000000000E+00  0.00000000000E+00 -0.50984075077E+03  0.86597468360E+03  0.69998182940E+03 0.  0.
        3    1    3    3  502    0  0.78598886658E+02  0.11369504953E+03  0.14287175460E+03  0.19878807242E+03  0.10100000352E+00 0. -1.
       -3    1    3    3    0  502 -0.78598886658E+02 -0.11369504953E+03 -0.65271250537E+03  0.66718661118E+03  0.10100000352E+00 0.  1.
</event>
<event>
 5   0  0.7570633E-04  0.7000322E+03  0.7818609E-02  0.9717177E-01
        1   -1    0    0  501    0  0.00000000000E+00  0.00000000000E+00  0.12665549209E+03  0.12665549219E+03  0.50400001928E-02 0.  1.
       -1   -1    0    0    0  501  0.00000000000E+00  0.00000000000E+00 -0.96727959317E+03  0.96727959319E+03  0.50400001928E-02 0. -1.
    10030    2    1    2    0    0  0.00000000000E+00  0.00000000000E+00 -0.84062410108E+03  0.10939350854E+04  0.70003220761E+03 0.  0.
        5    1    3    3  502    0 -0.39564620615E+02  0.16236813424E+03  0.60226472473E+02  0.17770224592E+03  0.46999998093E+01 0.  1.
       -5    1    3    3    0  502  0.39564620615E+02 -0.16236813424E+03 -0.90085057356E+03  0.91623283946E+03  0.46999998093E+01 0. -1.
</event>
<event>
 5   0  0.1265562E-03  0.6995455E+03  0.7818609E-02  0.9718010E-01
       -2   -1    0    0    0  501  0.00000000000E+00  0.00000000000E+00  0.33027533076E+03  0.33027533077E+03  0.25500000920E-02 0.  1.
        2   -1    0    0  501    0  0.00000000000E+00  0.00000000000E+00 -0.37042114759E+03  0.37042114760E+03  0.25500000920E-02 0. -1.
    10030    2    1    2    0    0  0.00000000000E+00  0.00000000000E+00 -0.40145816836E+02  0.70069647837E+03  0.69954547257E+03 0.  0.
        1    1    3    3  502    0  0.98939351638E+02  0.25616287270E+03 -0.23706858475E+03  0.36278082440E+03  0.50400001928E-02 0. -1.
       -1    1    3    3    0  502 -0.98939351638E+02 -0.25616287270E+03  0.19692276791E+03  0.33791565397E+03  0.50400001928E-02 0.  1.
</event>
<event>
 5   0  0.1224048E-03  0.6988131E+03  0.7818609E-02  0.9719264E-01
        2   -1    0    0  501    0  0.00000000000E+00  0.00000000000E+00  0.52002423649E+03  0.52002423650E+03  0.25500000920E-02 0.  1.
       -2   -1    0    0    0  501  0.00000000000E+00  0.00000000000E+00 -0.23476781370E+03  0.23476781372E+03  0.25500000920E-02 0. -1.
    10030    2    1    2    0    0  0.00000000000E+00  0.00000000000E+00  0.28525642279E+03  0.75479205022E+03  0.69881314550E+03 0.  0.
        3    1    3    3  502    0 -0.24113280030E+03 -0.40910878352E+02  0.41214913527E+03  0.47925530488E+03  0.10100000352E+00 0.  1.
       -3    1    3    3    0  502  0.24113280030E+03  0.40910878352E+02 -0.12689271248E+03  0.27553674534E+03  0.10100000352E+00 0. -1.
</event>
<event>
 5   0  0.7570633E-04  0.6995629E+03  0.7818609E-02  0.9717980E-01
       -1   -1    0    0    0  501  0.00000000000E+00  0.00000000000E+00  0.10091566368E+03  0.10091566380E+03  0.50400001928E-02 0. -1.
        1   -1    0    0  501    0  0.00000000000E+00  0.00000000000E+00 -0.12123695209E+04  0.12123695209E+04  0.50400001928E-02 0.  1.
    10030    2    1    2    0    0  0.00000000000E+00  0.00000000000E+00 -0.11114538572E+04  0.13132851847E+04  0.69956293471E+03 0.  0.
        5    1    3    3  502    0  0.22058038309E+02  0.78092198497E+02  0.82939460494E+02  0.11612920660E+03  0.46999998093E+01 0. -1.
       -5    1    3    3    0  502 -0.22058038309E+02 -0.78092198497E+02 -0.11943933177E+04  0.11971559781E+04  0.46999998093E+01 0.  1.
</event>
<event>
 5   0  0.7572415E-04  0.6998820E+03  0.7818609E-02  0.9717434E-01
       -1   -1    0    0    0  501  0.00000000000E+00  0.00000000000E+00  0.29876005710E+03  0.29876005714E+03  0.50400001928E-02 0.  1.
        1   -1    0    0  501    0  0.00000000000E+00  0.00000000000E+00 -0.40988985740E+03  0.40988985743E+03  0.50400001928E-02 0. -1.
    10030    2    1    2    0    0  0.00000000000E+00  0.00000000000E+00 -0.11112980030E+03  0.70864991457E+03  0.69988203928E+03 0.  0.
        4    1    3    3  502    0  0.10739166461E+03 -0.27579867454E+03  0.13348034539E+03  0.32467906310E+03  0.12699999809E+01 0.  1.
       -4    1    3    3    0  502 -0.10739166461E+03  0.27579867454E+03 -0.24461014569E+03  0.38397085148E+03  0.12699999809E+01 0. -1.
</event>
<event>
 5   0  0.7459843E-04  0.6998128E+03  0.7818609E-02  0.9717552E-01
       -1   -1    0    0    0  501  0.00000000000E+00  0.00000000000E+00  0.11064788832E+03  0.11064788843E+03  0.50400001928E-02 0.  1.
        1   -1    0    0  501    0  0.00000000000E+00  0.00000000000E+00 -0.11065233469E+04  0.11065233469E+04  0.50400001928E-02 0. -1.
    10030    2    1    2    0    0  0.00000000000E+00  0.00000000000E+00 -0.99587545862E+03  0.12171712354E+04  0.69981275150E+03 0.  0.
        2    1    3    3  502    0 -0.16005378332E+03  0.20334733604E+03 -0.88311616867E+02  0.27343425958E+03  0.25500000920E-02 0.  1.
       -2    1    3    3    0  502  0.16005378332E+03 -0.20334733604E+03 -0.90756384175E+03  0.94373697580E+03  0.25500000920E-02 0. -1.
</event>
<event>
 5   0  0.1243087E-03  0.6997858E+03  0.7818609E-02  0.9717599E-01
        2   -1    0    0  501    0  0.00000000000E+00  0.00000000000E+00  0.39398289480E+03  0.39398289480E+03  0.25500000920E-02 0. -1.
       -2   -1    0    0    0  501  0.00000000000E+00  0.00000000000E+00 -0.31073691865E+03  0.31073691866E+03  0.25500000920E-02 0.  1.
    10030    2    1    2    0    0  0.00000000000E+00  0.00000000000E+00  0.83245976149E+02  0.70471981346E+03  0.69978576932E+03 0.  0.
        4    1    3    3  502    0 -0.32802484004E+02 -0.56874790790E+02  0.38772141443E+03  0.39324324901E+03  0.12699999809E+01 0. -1.
       -4    1    3    3    0  502  0.32802484004E+02  0.56874790790E+02 -0.30447543828E+03  0.31147656445E+03  0.12699999809E+01 0.  1.
</event>
<event>
 5   0  0.1265562E-03  0.6998813E+03  0.7818609E-02  0.9717435E-01
       -2   -1    0    0    0  501  0.00000000000E+00  0.00000000000E+00  0.10557628848E+03  0.10557628851E+03  0.25500000920E-02 0.  1.
        2   -1    0    0  501    0  0.00000000000E+00  0.00000000000E+00 -0.11599050241E+04  0.11599050241E+04  0.25500000920E-02 0. -1.
    10030    2    1    2    0    0  0.00000000000E+00  0.00000000000E+00 -0.10543287356E+04  0.12654813126E+04  0.69988132552E+03 0.  0.
        1    1    3    3  502    0 -0.76823664862E+01 -0.34335303240E+03 -0.40576114621E+03  0.53159423569E+03  0.50400001928E-02 0.  1.
       -1    1    3    3    0  502  0.76823664862E+01  0.34335303240E+03 -0.64856758940E+03  0.73388707692E+03  0.50400001928E-02 0. -1.
</event>
<event>
 5   0  0.7013526E-04  0.7006649E+03  0.7818609E-02  0.9716096E-01
        1   -1    0    0  501    0  0.00000000000E+00  0.00000000000E+00  0.73730405228E+03  0.73730405230E+03  0.50400001928E-02 0. -1.
       -1   -1    0    0    0  501  0.00000000000E+00  0.00000000000E+00 -0.16646159988E+03  0.16646159996E+03  0.50400001928E-02 0.  1.
    10030    2    1    2    0    0  0.00000000000E+00  0.00000000000E+00  0.57084245240E+03  0.90376565226E+03  0.70066486193E+03 0.  0.
        1    1    3    3  502    0  0.11342150916E+03  0.72925203825E+02 -0.13164796560E+03  0.18845081843E+03  0.50400001928E-02 0.  1.
       -1    1    3    3    0  502 -0.11342150916E+03 -0.72925203825E+02  0.70249041800E+03  0.71531483383E+03  0.50400001928E-02 0. -1.
</event>
<event>
 5   0  0.1282546E-03  0.7013354E+03  0.7818609E-02  0.9714951E-01
        2   -1    0    0  501    0  0.00000000000E+00  0.00000000000E+00  0.62860270360E+03  0.62860270361E+03  0.25500000920E-02 0.  1.
       -2   -1    0    0    0  501  0.00000000000E+00  0.00000000000E+00 -0.19562089553E+03  0.19562089554E+03  0.25500000920E-02 0. -1.
    10030    2    1    2    0    0  0.00000000000E+00  0.00000000000E+00  0.43298180808E+03  0.82422359915E+03  0.70133536576E+03 0.  0.
        5    1    3    3  502    0 -0.55399413268E+02  0.34032121144E+03  0.14162547573E+03  0.37278343219E+03  0.46999998093E+01 0. -1.
       -5    1    3    3    0  502  0.55399413268E+02 -0.34032121144E+03  0.29135633235E+03  0.45144016696E+03  0.46999998093E+01 0.  1.
</event>
<event>
 5   0  0.7572415E-04  0.7013788E+03  0.7818609E-02  0.9714877E-01
       -1   -1    0    0    0  501  0.00000000000E+00  0.00000000000E+00  0.28638249709E+03  0.28638249714E+03  0.50400001928E-02 0.  1.
        1   -1    0    0  501    0  0.00000000000E+00  0.00000000000E+00 -0.42943637582E+03  0.42943637585E+03  0.50400001928E-02 0. -1.
    10030    2    1    2    0    0  0.00000000000E+00  0.00000000000E+00 -0.14305387873E+03  0.71581887299E+03  0.70137881826E+03 0.  0.
        4    1    3    3  502    0 -0.15300360036E+03 -0.28019952985E+03  0.76579947636E+02  0.32831079716E+03  0.12699999809E+01 0. -1.
       -4    1    3    3    0  502  0.15300360036E+03  0.28019952985E+03 -0.21963382637E+03  0.38750807583E+03  0.12699999809E+01 0.  1.
</event>
<event>
 5   0  0.7574241E-04  0.6999584E+03  0.7818609E-02  0.9717303E-01
       -1   -1    0    0    0  501  0.00000000000E+00  0.00000000000E+00  0.12983432143E+03  0.12983432152E+03  0.50400001928E-02 0. -1.
        1   -1    0    0  501    0  0.00000000000E+00  0.00000000000E+00 -0.94339788609E+03  0.94339788610E+03  0.50400001928E-02 0.  1.
    10030    2    1    2    0    0  0.00000000000E+00  0.00000000000E+00 -0.81356356466E+03  0.10732322076E+04  0.69995835429E+03 0.  0.
        3    1    3    3  502    0  0.27152778199E+03  0.77491785863E+02 -0.72381539250E+03  0.77694339941E+03  0.10100000352E+00 0.  1.
       -3    1    3    3    0  502 -0.27152778199E+03 -0.77491785863E+02 -0.89748172168E+02  0.29628880822E+03  0.10100000352E+00 0. -1.
</event>
<event>
 5   0  0.4936000E-04  0.7003321E+03  0.7818609E-02  0.9716664E-01
       -3   -1    0    0    0  501  0.00000000000E+00  0.00000000000E+00  0.26902166540E+03  0.26902168436E+03  0.10100000352E+00 0.  1.
        3   -1    0    0  501    0  0.00000000000E+00  0.00000000000E+00 -0.45578578344E+03  0.45578579463E+03  0.10100000352E+00 0. -1.
    10030    2    1    2    0    0  0.00000000000E+00  0.00000000000E+00 -0.18676411804E+03  0.72480747899E+03  0.70033209680E+03 0.  0.
        4    1    3    3  502    0  0.15919295078E+03 -0.25320979723E+03 -0.28183659167E+03  0.41096359242E+03  0.12699999809E+01 0. -1.
       -4    1    3    3    0  502 -0.15919295078E+03  0.25320979723E+03  0.95072473635E+02  0.31384388657E+03  0.12699999809E+01 0.  1.
</event>
<event>
 5   0  0.7459843E-04  0.6997726E+03  0.7818609E-02  0.9717621E-01
        1   -1    0    0  501    0  0.00000000000E+00  0.00000000000E+00  0.11909774440E+04  0.11909774440E+04  0.50400001928E-02 0.  1.
       -1   -1    0    0    0  501  0.00000000000E+00  0.00000000000E+00 -0.10278987337E+03  0.10278987349E+03  0.50400001928E-02 0. -1.
    10030    2    1    2    0    0  0.00000000000E+00  0.00000000000E+00  0.10881875706E+04  0.12937673175E+04  0.69977259376E+03 0.  0.
        2    1    3    3  502    0 -0.46152075704E+00  0.34777517201E+03  0.61504293084E+03  0.70655897847E+03  0.25500000920E-02 0.  1.
       -2    1    3    3    0  502  0.46152075704E+00 -0.34777517201E+03  0.47314463980E+03  0.58720833905E+03  0.25500000920E-02 0. -1.
</event>
<event>
 5   0  0.4936000E-04  0.7006253E+03  0.7818609E-02  0.9716163E-01
       -3   -1    0    0    0  501  0.00000000000E+00  0.00000000000E+00  0.66178074476E+03  0.66178075247E+03  0.10100000352E+00 0.  1.
        3   -1    0    0  501    0  0.00000000000E+00  0.00000000000E+00 -0.18543747192E+03  0.18543749943E+03  0.10100000352E+00 0. -1.
    10030    2    1    2    0    0  0.00000000000E+00  0.00000000000E+00  0.47634327284E+03  0.84721825190E+03  0.70062532981E+03 0.  0.
        1    1    3    3  502    0  0.17609694963E+03  0.74074782031E+02  0.59324483803E+03  0.62324685870E+03  0.50400001928E-02 0.  1.
       -1    1    3    3    0  502 -0.17609694963E+03 -0.74074782031E+02 -0.11690156519E+03  0.22397139320E+03  0.50400001928E-02 0. -1.
</event>
<event>
 5   0  0.1243087E-03  0.7000361E+03  0.7818609E-02  0.9717170E-01
       -2   -1    0    0    0  501  0.00000000000E+00  0.00000000000E+00  0.14352873174E+03  0.14352873177E+03  0.25500000920E-02 0.  1.
        2   -1    0    0  501    0  0.00000000000E+00  0.00000000000E+00 -0.85357575579E+03  0.85357575579E+03  0.25500000920E-02 0. -1.
    10030    2    1    2    0    0  0.00000000000E+00  0.00000000000E+00 -0.71004702405E+03  0.99710448756E+03  0.70003612960E+03 0.  0.
        4    1    3    3  502    0 -0.15765904491E+03 -0.14248205584E+03  0.41127037211E+02  0.21644989436E+03  0.12699999809E+01 0.  1.
       -4    1    3    3    0  502  0.15765904491E+03  0.14248205584E+03 -0.75117406126E+03  0.78065459320E+03  0.12699999809E+01 0. -1.
</event>
<event>
 5   0  0.7013526E-04  0.6998032E+03  0.7818609E-02  0.9717569E-01
       -1   -1    0    0    0  501  0.00000000000E+00  0.00000000000E+00  0.27133154688E+03  0.27133154693E+03  0.50400001928E-02 0. -1.
        1   -1    0    0  501    0  0.00000000000E+00  0.00000000000E+00 -0.45122341004E+03  0.45122341006E+03  0.50400001928E-02 0.  1.
    10030    2    1    2    0    0  0.00000000000E+00  0.00000000000E+00 -0.17989186316E+03  0.72255495699E+03  0.69980324624E+03 0.  0.
        1    1    3    3  502    0 -0.11992216947E+03  0.25557763310E+03 -0.30337856971E+03  0.41441502127E+03  0.50400001928E-02 0.  1.
       -1    1    3    3    0  502  0.11992216947E+03 -0.25557763310E+03  0.12348670655E+03  0.30813993573E+03  0.50400001928E-02 0. -1.
</event>
<event>
 5   0  0.7574241E-04  0.6999236E+03  0.7818609E-02  0.9717363E-01
       -1   -1    0    0    0  501  0.00000000000E+00  0.00000000000E+00  0.59868528399E+03  0.59868528401E+03  0.50400001928E-02 0.  1.
        1   -1    0    0  501    0  0.00000000000E+00  0.00000000000E+00 -0.20457036312E+03  0.20457036319E+03  0.50400001928E-02 0. -1.
    10030    2    1    2    0    0  0.00000000000E+00  0.00000000000E+00  0.39411492087E+03  0.80325564720E+03  0.69992361291E+03 0.  0.
        3    1    3    3  502    0 -0.20466142886E+03 -0.23496206660E+03  0.14227615553E+02  0.31192292069E+03  0.10100000352E+00 0. -1.
       -3    1    3    3    0  502  0.20466142886E+03  0.23496206660E+03  0.37988730532E+03  0.49133272652E+03  0.10100000352E+00 0.  1.
</event>
<event>
 5   0  0.1222679E-03  0.6998634E+03  0.7818609E-02  0.9717466E-01
       -2   -1    0    0    0  501  0.00000000000E+00  0.00000000000E+00  0.13843406697E+03  0.13843406700E+03  0.25500000920E-02 0. -1.
        2   -1    0    0  501    0  0.00000000000E+00  0.00000000000E+00 -0.88455243809E+03  0.88455243810E+03  0.25500000920E-02 0.  1.
    10030    2    1    2    0    0  0.00000000000E+00  0.00000000000E+00 -0.74611837112E+03  0.10229865051E+04  0.69986339087E+03 0.  0.
        2    1    3    3  502    0  0.11521162948E+03 -0.29957457684E+03 -0.57682561762E+03  0.66011092993E+03  0.25500000920E-02 0.  1.
       -2    1    3    3    0  502 -0.11521162948E+03  0.29957457684E+03 -0.16929275350E+03  0.36287557517E+03  0.25500000920E-02 0. -1.
</event>
<event>
 5   0  0.1243087E-03  0.6999467E+03  0.7818609E-02  0.9717323E-01
        2   -1    0    0  501    0  0.00000000000E+00  0.00000000000E+00  0.19262016805E+04  0.19262016805E+04  0.25500000920E-02 0.  1.
       -2   -1    0    0    0  501  0.00000000000E+00  0.00000000000E+00 -0.63586979061E+02  0.63586979112E+02  0.25500000920E-02 0. -1.
    10030    2    1    2    0    0  0.00000000000E+00  0.00000000000E+00  0.18626147014E+04  0.19897886596E+04  0.69994670076E+03 0.  0.
        4    1    3    3  502    0  0.11203364399E+03 -0.20053569459E+03  0.16818939940E+04  0.16975085043E+04  0.12699999809E+01 0.  1.
       -4    1    3    3    0  502 -0.11203364399E+03  0.20053569459E+03  0.18072070741E+03  0.29228015529E+03  0.12699999809E+01 0. -1.
</event>
<event>
 5   0  0.7570633E-04  0.7001266E+03  0.7818609E-02  0.9717016E-01
        1   -1    0    0  501    0  0.00000000000E+00  0.00000000000E+00  0.82253010834E+03  0.82253010836E+03  0.50400001928E-02 0. -1.
       -1   -1    0    0    0  501  0.00000000000E+00  0.00000000000E+00 -0.14898459916E+03  0.14898459925E+03  0.50400001928E-02 0.  1.
    10030    2    1    2    0    0  0.00000000000E+00  0.00000000000E+00  0.67354550918E+03  0.97151470760E+03  0.70012661294E+03 0.  0.
        5    1    3    3  502    0  0.15234049045E+03 -0.63960218873E+02  0.76497141647E+03  0.78262500129E+03  0.46999998093E+01 0. -1.
       -5    1    3    3    0  502 -0.15234049045E+03  0.63960218873E+02 -0.91425907289E+02  0.18888970631E+03  0.46999998093E+01 0.  1.
</event>
<event>
 5   0  0.1243087E-03  0.6999617E+03  0.7818609E-02  0.9717298E-01
       -2   -1    0    0    0  501  0.00000000000E+00  0.00000000000E+00  0.17301312245E+03  0.17301312247E+03  0.25500000920E-02 0.  1.
        2   -1    0    0  501    0  0.00000000000E+00  0.00000000000E+00 -0.70796120634E+03  0.70796120634E+03  0.25500000920E-02 0. -1.
    10030    2    1    2    0    0  0.00000000000E+00  0.00000000000E+00 -0.53494808388E+03  0.88097432882E+03  0.69996165294E+03 0.  0.
        4    1    3    3  502    0  0.87025113793E+02  0.32669300960E+03 -0.15361893214E+03  0.37135169606E+03  0.12699999809E+01 0.  1.
       -4    1    3    3    0  502 -0.87025113793E+02 -0.32669300960E+03 -0.38132915174E+03  0.50962263276E+03  0.12699999809E+01 0. -1.
</event>
<event>
 5   0  0.7459843E-04  0.6970057E+03  0.7818609E-02  0.9722367E-01
       -1   -1    0    0    0  501  0.00000000000E+00  0.00000000000E+00  0.47724236686E+02  0.47724236952E+02  0.50400001928E-02 0.  1.
        1   -1    0    0  501    0  0.00000000000E+00  0.00000000000E+00 -0.25449175403E+04  0.25449175403E+04  0.50400001928E-02 0. -1.
    10030    2    1    2    0    0  0.00000000000E+00  0.00000000000E+00 -0.24971933037E+04  0.25926417773E+04  0.69700573138E+03 0.  0.
        2    1    3    3  502    0 -0.24039158857E+03 -0.17818820534E+03 -0.19131108069E+04  0.19363708612E+04  0.25500000920E-02 0. -1.
       -2    1    3    3    0  502  0.24039158857E+03  0.17818820534E+03 -0.58408249673E+03  0.65627091614E+03  0.25500000920E-02 0.  1.
</event>
<event>
 5   0  0.1282546E-03  0.7000983E+03  0.7818609E-02  0.9717064E-01
       -2   -1    0    0    0  501  0.00000000000E+00  0.00000000000E+00  0.10782197941E+03  0.10782197944E+03  0.25500000920E-02 0. -1.
        2   -1    0    0  501    0  0.00000000000E+00  0.00000000000E+00 -0.11364511105E+04  0.11364511105E+04  0.25500000920E-02 0.  1.
    10030    2    1    2    0    0  0.00000000000E+00  0.00000000000E+00 -0.10286291311E+04  0.12442730899E+04  0.70009830239E+03 0.  0.
        5    1    3    3  502    0  0.11876403715E+03 -0.25027000231E+03 -0.89455498306E+03  0.93647780448E+03  0.46999998093E+01 0.  1.
       -5    1    3    3    0  502 -0.11876403715E+03  0.25027000231E+03 -0.13407414803E+03  0.30779528545E+03  0.46999998093E+01 0. -1.
</event>
<event>
 5   0  0.7459843E-04  0.6999147E+03  0.7818609E-02  0.9717378E-01
        1   -1    0    0  501    0  0.00000000000E+00  0.00000000000E+00  0.52280858422E+03  0.52280858425E+03  0.50400001928E-02 0. -1.
       -1   -1    0    0    0  501  0.00000000000E+00  0.00000000000E+00 -0.23425430898E+03  0.23425430904E+03  0.50400001928E-02 0.  1.
    10030    2    1    2    0    0  0.00000000000E+00  0.00000000000E+00  0.28855427524E+03  0.75706289329E+03  0.69991474812E+03 0.  0.
        2    1    3    3  502    0  0.13461282326E+03 -0.30892614490E+03  0.24640111512E+03  0.41745596741E+03  0.25500000920E-02 0. -1.
       -2    1    3    3    0  502 -0.13461282326E+03  0.30892614490E+03  0.42153160125E+02  0.33960692588E+03  0.25500000920E-02 0.  1.
</event>
<event>
 5   0  0.1224048E-03  0.6998602E+03  0.7818609E-02  0.9717471E-01
        2   -1    0    0  501    0  0.00000000000E+00  0.00000000000E+00  0.11584202171E+04  0.11584202171E+04  0.25500000920E-02 0. -1.
       -2   -1    0    0    0  501  0.00000000000E+00  0.00000000000E+00 -0.10570523886E+03  0.10570523889E+03  0.25500000920E-02 0.  1.
    10030    2    1    2    0    0  0.00000000000E+00  0.00000000000E+00  0.10527149783E+04  0.12641254560E+04  0.69986023110E+03 0.  0.
        3    1    3    3  502    0  0.12419986033E+03  0.31775709571E+03  0.66691956130E+03  0.74911740644E+03  0.10100000352E+00 0. -1.
       -3    1    3    3    0  502 -0.12419986033E+03 -0.31775709571E+03  0.38579541696E+03  0.51500804958E+03  0.10100000352E+00 0.  1.
</event>
<event>
 5   0  0.4936000E-04  0.6998857E+03  0.7818609E-02  0.9717428E-01
        4   -1    0    0  501    0  0.00000000000E+00  0.00000000000E+00  0.11826242419E+03  0.11826924315E+03  0.12699999809E+01 0.  1.
       -4   -1    0    0    0  501  0.00000000000E+00  0.00000000000E+00 -0.10354565262E+04  0.10354573050E+04  0.12699999809E+01 0. -1.
    10030    2    1    2    0    0  0.00000000000E+00  0.00000000000E+00 -0.91719410199E+03  0.11537265482E+04  0.69988565297E+03 0.  0.
        4    1    3    3  502    0 -0.25331797351E+03  0.13390510150E+03 -0.78975830693E+03  0.84013116129E+03  0.12699999809E+01 0. -1.
       -4    1    3    3    0  502  0.25331797351E+03 -0.13390510150E+03 -0.12743579507E+03  0.31359538689E+03  0.12699999809E+01 0.  1.
</event>
<event>
 5   0  0.1222679E-03  0.7000708E+03  0.7818609E-02  0.9717111E-01
        2   -1    0    0  501    0  0.00000000000E+00  0.00000000000E+00  0.14334656194E+03  0.14334656196E+03  0.25500000920E-02 0.  1.
       -2   -1    0    0    0  501  0.00000000000E+00  0.00000000000E+00 -0.85474515477E+03  0.85474515477E+03  0.25500000920E-02 0. -1.
    10030    2    1    2    0    0  0.00000000000E+00  0.00000000000E+00 -0.71139859283E+03  0.99809171674E+03  0.70007079438E+03 0.  0.
        2    1    3    3  502    0 -0.15932161223E+03  0.20889112768E+03 -0.25915488963E+02  0.26398956783E+03  0.25500000920E-02 0.  1.
       -2    1    3    3    0  502  0.15932161223E+03 -0.20889112768E+03 -0.68548310386E+03  0.73410214891E+03  0.25500000920E-02 0. -1.
</event>
<event>
 5   0  0.7570633E-04  0.6996187E+03  0.7818609E-02  0.9717884E-01
       -1   -1    0    0    0  501  0.00000000000E+00  0.00000000000E+00  0.12787544460E+03  0.12787544470E+03  0.50400001928E-02 0.  1.
        1   -1    0    0  501    0  0.00000000000E+00  0.00000000000E+00 -0.95692018554E+03  0.95692018556E+03  0.50400001928E-02 0. -1.
    10030    2    1    2    0    0  0.00000000000E+00  0.00000000000E+00 -0.82904474094E+03  0.10847956303E+04  0.69961873684E+03 0.  0.
        5    1    3    3  502    0 -0.29474415630E+03  0.17552065723E+03 -0.30864238618E+03  0.46148004435E+03  0.46999998093E+01 0.  1.
       -5    1    3    3    0  502  0.29474415630E+03 -0.17552065723E+03 -0.52040235476E+03  0.62331558591E+03  0.46999998093E+01 0. -1.
</event>
<event>
 5   0  0.1243087E-03  0.7001914E+03  0.7818609E-02  0.9716905E-01
       -2   -1    0    0    0  501  0.00000000000E+00  0.00000000000E+00  0.23099179797E+03  0.23099179798E+03  0.25500000920E-02 0. -1.
        2   -1    0    0  501    0  0.00000000000E+00  0.00000000000E+00 -0.53061190352E+03  0.53061190353E+03  0.25500000920E-02 0.  1.
    10030    2    1    2    0    0  0.00000000000E+00  0.00000000000E+00 -0.29962010555E+03  0.76160370151E+03  0.70019139562E+03 0.  0.
        4    1    3    3  502    0 -0.11052106907E+03 -0.24812673270E+02 -0.51012682891E+03  0.52255293506E+03  0.12699999809E+01 0.  1.
       -4    1    3    3    0  502  0.11052106907E+03  0.24812673270E+02  0.21050672336E+03  0.23905076645E+03  0.12699999809E+01 0. -1.
</event>
<event>
 5   0  0.1282546E-03  0.6998246E+03  0.7818609E-02  0.9717532E-01
       -2   -1    0    0    0  501  0.00000000000E+00  0.00000000000E+00  0.16039555752E+03  0.16039555754E+03  0.25500000920E-02 0. -1.
        2   -1    0    0  501    0  0.00000000000E+00  0.00000000000E+00 -0.76335406589E+03  0.76335406589E+03  0.25500000920E-02 0.  1.
    10030    2    1    2    0    0  0.00000000000E+00  0.00000000000E+00 -0.60295850837E+03  0.92374962343E+03  0.69982455228E+03 0.  0.
        5    1    3    3  502    0  0.41165244770E+01 -0.33542614316E+03 -0.17021744593E+03  0.37619637450E+03  0.46999998093E+01 0. -1.
       -5    1    3    3    0  502 -0.41165244770E+01  0.33542614316E+03 -0.43274106244E+03  0.54755324893E+03  0.46999998093E+01 0.  1.
</event>
<event>
 5   0  0.7572415E-04  0.6999982E+03  0.7818609E-02  0.9717235E-01
       -1   -1    0    0    0  501  0.00000000000E+00  0.00000000000E+00  0.80519720256E+03  0.80519720257E+03  0.50400001928E-02 0.  1.
        1   -1    0    0  501    0  0.00000000000E+00  0.00000000000E+00 -0.15213587418E+03  0.15213587427E+03  0.50400001928E-02 0. -1.
    10030    2    1    2    0    0  0.00000000000E+00  0.00000000000E+00  0.65306132837E+03  0.95733307684E+03  0.69999822957E+03 0.  0.
        4    1    3    3  502    0  0.45089699812E+02  0.10107566200E+03  0.78063146170E+03  0.78843925725E+03  0.12699999809E+01 0.  1.
       -4    1    3    3    0  502 -0.45089699812E+02 -0.10107566200E+03 -0.12757013333E+03  0.16889381959E+03  0.12699999809E+01 0. -1.
</event>
<event>
 5   0  0.4936000E-04  0.7001320E+03  0.7818609E-02  0.9717006E-01
       -4   -1    0    0    0  501  0.00000000000E+00  0.00000000000E+00  0.72811519664E+03  0.72811630422E+03  0.12699999809E+01 0.  1.
        4   -1    0    0  501    0  0.00000000000E+00  0.00000000000E+00 -0.16830245473E+03  0.16830724634E+03  0.12699999809E+01 0. -1.
    10030    2    1    2    0    0  0.00000000000E+00  0.00000000000E+00  0.55981274191E+03  0.89642355056E+03  0.70013204183E+03 0.  0.
        1    1    3    3  502    0 -0.29536441601E+03 -0.18530165372E+03  0.31977027706E+03  0.47310661720E+03  0.50400001928E-02 0. -1.
       -1    1    3    3    0  502  0.29536441601E+03  0.18530165372E+03  0.24004246484E+03  0.42331693336E+03  0.50400001928E-02 0.  1.
</event>
<event>
 5   0  0.1282546E-03  0.6996227E+03  0.7818609E-02  0.9717878E-01
       -2   -1    0    0    0  501  0.00000000000E+00  0.00000000000E+00  0.89805197344E+02  0.89805197380E+02  0.25500000920E-02 0. -1.
        2   -1    0    0  501    0  0.00000000000E+00  0.00000000000E+00 -0.13625934477E+04  0.13625934477E+04  0.25500000920E-02 0.  1.
    10030    2    1    2    0    0  0.00000000000E+00  0.00000000000E+00 -0.12727882503E+04  0.14523986450E+04  0.69962267972E+03 0.  0.
        5    1    3    3  502    0 -0.54732062497E+02  0.16200881489E+03 -0.12698331168E+04  0.12813042922E+04  0.46999998093E+01 0.  1.
       -5    1    3    3    0  502  0.54732062497E+02 -0.16200881489E+03 -0.29551335577E+01  0.17109435285E+03  0.46999998093E+01 0. -1.
</event>
<event>
 5   0  0.7574241E-04  0.7002221E+03  0.7818609E-02  0.9716852E-01
        1   -1    0    0  501    0  0.00000000000E+00  0.00000000000E+00  0.32410006739E+03  0.32410006743E+03  0.50400001928E-02 0. -1.
       -1   -1    0    0    0  501  0.00000000000E+00  0.00000000000E+00 -0.37820955485E+03  0.37820955488E+03  0.50400001928E-02 0.  1.
    10030    2    1    2    0    0  0.00000000000E+00  0.00000000000E+00 -0.54109487456E+02  0.70230962231E+03  0.70022208545E+03 0.  0.
        3    1    3    3  502    0 -0.16904350330E+03  0.78491290286E+02 -0.32431839246E+03  0.37405750700E+03  0.10100000352E+00 0.  1.
       -3    1    3    3    0  502  0.16904350330E+03 -0.78491290286E+02  0.27020890500E+03  0.32825211530E+03  0.10100000352E+00 0. -1.
</event>
<event>
 5   0  0.1265562E-03  0.6998272E+03  0.7818609E-02  0.9717528E-01
       -2   -1    0    0    0  501  0.00000000000E+00  0.00000000000E+00  0.31323262049E+03  0.31323262050E+03  0.25500000920E-02 0. -1.
        2   -1    0    0  501    0  0.00000000000E+00  0.00000000000E+00 -0.39089004276E+03  0.39089004277E+03  0.25500000920E-02 0.  1.
    10030    2    1    2    0    0  0.00000000000E+00  0.00000000000E+00 -0.77657422270E+02  0.70412266327E+03  0.69982715701E+03 0.  0.
        1    1    3    3  502    0 -0.45306722154E+02 -0.32618905028E+03 -0.15782347244E+03  0.36518521886E+03  0.50400001928E-02 0.  1.
       -1    1    3    3    0  502  0.45306722154E+02  0.32618905028E+03  0.80166050168E+02  0.33893744441E+03  0.50400001928E-02 0. -1.
</event>
<event>
 5   0  0.7013526E-04  0.7004855E+03  0.7818609E-02  0.9716402E-01
       -1   -1    0    0    0  501  0.00000000000E+00  0.00000000000E+00  0.77875598027E+02  0.77875598190E+02  0.50400001928E-02 0.  1.
        1   -1    0    0  501    0  0.00000000000E+00  0.00000000000E+00 -0.15752042349E+04  0.15752042349E+04  0.50400001928E-02 0. -1.
    10030    2    1    2    0    0  0.00000000000E+00  0.00000000000E+00 -0.14973286369E+04  0.16530798331E+04  0.70048546580E+03 0.  0.
        1    1    3    3  502    0  0.70277348376E+02  0.14197706782E+03 -0.11505924061E+02  0.15883570063E+03  0.50400001928E-02 0.  1.
       -1    1    3    3    0  502 -0.70277348376E+02 -0.14197706782E+03 -0.14858227128E+04  0.14942441325E+04  0.50400001928E-02 0. -1.
</event>
<event>
 5   0  0.1265562E-03  0.6981430E+03  0.7818609E-02  0.9720413E-01
        2   -1    0    0  501    0  0.00000000000E+00  0.00000000000E+00  0.45186971765E+03  0.45186971766E+03  0.25500000920E-02 0.  1.
       -2   -1    0    0    0  501  0.00000000000E+00  0.00000000000E+00 -0.26965937609E+03  0.26965937610E+03  0.25500000920E-02 0. -1.
    10030    2    1    2    0    0  0.00000000000E+00  0.00000000000E+00  0.18221034156E+03  0.72152909376E+03  0.69814298290E+03 0.  0.
        1    1    3    3  502    0 -0.28178415614E+03 -0.15737753033E+03  0.22852890884E+03  0.39546865856E+03  0.50400001928E-02 0.  1.
       -1    1    3    3    0  502  0.28178415614E+03  0.15737753033E+03 -0.46318567284E+02  0.32606043520E+03  0.50400001928E-02 0. -1.
</event>
<event>
 5   0  0.1265562E-03  0.7000566E+03  0.7818609E-02  0.9717135E-01
       -2   -1    0    0    0  501  0.00000000000E+00  0.00000000000E+00  0.50541449191E+02  0.50541449256E+02  0.25500000920E-02 0. -1.
        2   -1    0    0  501    0  0.00000000000E+00  0.00000000000E+00 -0.24241449906E+04  0.24241449906E+04  0.25500000920E-02 0.  1.
    10030    2    1    2    0    0  0.00000000000E+00  0.00000000000E+00 -0.23736035414E+04  0.24746864399E+04  0.70005657188E+03 0.  0.
        1    1    3    3  502    0  0.10396867804E+02 -0.32225569183E+03 -0.70517476201E+03  0.77538910927E+03  0.50400001928E-02 0. -1.
       -1    1    3    3    0  502 -0.10396867804E+02  0.32225569183E+03 -0.16684287794E+04  0.16992973306E+04  0.50400001928E-02 0.  1.
</event>
<event>
 5   0  0.1282546E-03  0.6997874E+03  0.7818609E-02  0.9717596E-01
       -2   -1    0    0    0  501  0.00000000000E+00  0.00000000000E+00  0.22615080702E+03  0.22615080703E+03  0.25500000920E-02 0. -1.
        2   -1    0    0  501    0  0.00000000000E+00  0.00000000000E+00 -0.54134493474E+03  0.54134493474E+03  0.25500000920E-02 0.  1.
    10030    2    1    2    0    0  0.00000000000E+00  0.00000000000E+00 -0.31519412772E+03  0.76749574178E+03  0.69978737878E+03 0.  0.
        5    1    3    3  502    0  0.84578029377E+01  0.24203921848E+01  0.22599485907E+03  0.22621485153E+03  0.46999998093E+01 0. -1.
       -5    1    3    3    0  502 -0.84578029377E+01 -0.24203921848E+01 -0.54118898679E+03  0.54128089025E+03  0.46999998093E+01 0.  1.
</event>
<event>
 5   0  0.1224048E-03  0.7003964E+03  0.7818609E-02  0.9716554E-01
       -2   -1    0    0    0  501  0.00000000000E+00  0.00000000000E+00  0.14096274442E+03  0.14096274444E+03  0.25500000920E-02 0. -1.
        2   -1    0    0  501    0  0.00000000000E+00  0.00000000000E+00 -0.87000851566E+03  0.87000851566E+03  0.25500000920E-02 0.  1.
    10030    2    1    2    0    0  0.00000000000E+00  0.00000000000E+00 -0.72904577124E+03  0.10109712601E+04  0.70039642504E+03 0.  0.
        3    1    3    3  502    0 -0.29095486796E+03 -0.16503130513E+03 -0.21487413967E+03  0.39756882796E+03  0.10100000352E+00 0. -1.
       -3    1    3    3    0  502  0.29095486796E+03  0.16503130513E+03 -0.51417163156E+03  0.61340243215E+03  0.10100000352E+00 0.  1.
</event>
<event>
 5   0  0.7459843E-04  0.6998337E+03  0.7818609E-02  0.9717517E-01
        1   -1    0    0  501    0  0.00000000000E+00  0.00000000000E+00  0.77088952484E+03  0.77088952485E+03  0.50400001928E-02 0. -1.
       -1   -1    0    0    0  501  0.00000000000E+00  0.00000000000E+00 -0.15883182611E+03  0.15883182619E+03  0.50400001928E-02 0.  1.
    10030    2    1    2    0    0  0.00000000000E+00  0.00000000000E+00  0.61205769872E+03  0.92972135105E+03  0.69983366883E+03 0.  0.
        2    1    3    3  502    0 -0.33867288591E+02  0.24948565769E+03 -0.16801377009E+02  0.25233385207E+03  0.25500000920E-02 0.  1.
       -2    1    3    3    0  502  0.33867288591E+02 -0.24948565769E+03  0.62885907573E+03  0.67738749897E+03  0.25500000920E-02 0. -1.
</event>
<event>
 5   0  0.7574241E-04  0.6998267E+03  0.7818609E-02  0.9717529E-01
       -1   -1    0    0    0  501  0.00000000000E+00  0.00000000000E+00  0.11517432891E+03  0.11517432902E+03  0.50400001928E-02 0.  1.
        1   -1    0    0  501    0  0.00000000000E+00  0.00000000000E+00 -0.10630784471E+04  0.10630784471E+04  0.50400001928E-02 0. -1.
    10030    2    1    2    0    0  0.00000000000E+00  0.00000000000E+00 -0.94790411818E+03  0.11782527761E+04  0.69982668367E+03 0.  0.
        3    1    3    3  502    0  0.19784378629E+03  0.28687667946E+03 -0.52716514657E+03  0.63193630609E+03  0.10100000352E+00 0. -1.
       -3    1    3    3    0  502 -0.19784378629E+03 -0.28687667946E+03 -0.42073897161E+03  0.54631647003E+03  0.10100000352E+00 0.  1.
</event>
<event>
 5   0  0.7570633E-04  0.7000692E+03  0.7818609E-02  0.9717114E-01
        1   -1    0    0  501    0  0.00000000000E+00  0.00000000000E+00  0.21892761724E+03  0.21892761730E+03  0.50400001928E-02 0. -1.
       -1   -1    0    0    0  501  0.00000000000E+00  0.00000000000E+00 -0.55965623190E+03  0.55965623193E+03  0.50400001928E-02 0.  1.
    10030    2    1    2    0    0  0.00000000000E+00  0.00000000000E+00 -0.34072861467E+03  0.77858384922E+03  0.70006915474E+03 0.  0.
        5    1    3    3  502    0  0.94971951196E+02 -0.14714748884E+03 -0.50738524499E+03  0.53678108370E+03  0.46999998093E+01 0.  1.
       -5    1    3    3    0  502 -0.94971951196E+02  0.14714748884E+03  0.16665663032E+03  0.24180276552E+03  0.46999998093E+01 0. -1.
</event>
<event>
 5   0  0.4936000E-04  0.6997495E+03  0.7818609E-02  0.9717661E-01
       -3   -1    0    0    0  501  0.00000000000E+00  0.00000000000E+00  0.41363453581E+03  0.41363454814E+03  0.10100000352E+00 0.  1.
        3   -1    0    0  501    0  0.00000000000E+00  0.00000000000E+00 -0.29594320843E+03  0.29594322567E+03  0.10100000352E+00 0. -1.
    10030    2    1    2    0    0  0.00000000000E+00  0.00000000000E+00  0.11769132738E+03  0.70957777381E+03  0.69974950414E+03 0.  0.
        1    1    3    3  502    0  0.21806276345E+03  0.23796366730E+03  0.19577659167E+03  0.37750039686E+03  0.50400001928E-02 0.  1.
       -1    1    3    3    0  502 -0.21806276345E+03 -0.23796366730E+03 -0.78085264294E+02  0.33207737695E+03  0.50400001928E-02 0. -1.
</event>
<event>
 5   0  0.7459843E-04  0.7000287E+03  0.7818609E-02  0.9717183E-01
        1   -1    0    0  501    0  0.00000000000E+00  0.00000000000E+00  0.37219804777E+03  0.37219804781E+03  0.50400001928E-02 0.  1.
       -1   -1    0    0    0  501  0.00000000000E+00  0.00000000000E+00 -0.32915285042E+03  0.32915285046E+03  0.50400001928E-02 0. -1.
    10030    2    1    2    0    0  0.00000000000E+00  0.00000000000E+00  0.43045197358E+02  0.70135089826E+03  0.70002870904E+03 0.  0.
        2    1    3    3  502    0 -0.30572808372E+02  0.30300946758E+03  0.19436108412E+03  0.36128335843E+03  0.25500000920E-02 0.  1.
       -2    1    3    3    0  502  0.30572808372E+02 -0.30300946758E+03 -0.15131588676E+03  0.34006753983E+03  0.25500000920E-02 0. -1.
</event>
<event>
 5   0  0.7013526E-04  0.7004165E+03  0.7818609E-02  0.9716520E-01
        1   -1    0    0  501    0  0.00000000000E+00  0.00000000000E+00  0.12756477938E+04  0.12756477938E+04  0.50400001928E-02 0. -1.
       -1   -1    0    0    0  501  0.00000000000E+00  0.00000000000E+00 -0.96143940958E+02  0.96143941090E+02  0.50400001928E-02 0.  1.
    10030    2    1    2    0    0  0.00000000000E+00  0.00000000000E+00  0.11795038528E+04  0.13717917349E+04  0.70041646544E+03 0.  0.
        1    1    3    3  502    0  0.21495800342E+03 -0.11269306604E+03  0.10842162029E+04  0.11110497041E+04  0.50400001928E-02 0. -1.
       -1    1    3    3    0  502 -0.21495800342E+03  0.11269306604E+03  0.95287649976E+02  0.26074203081E+03  0.50400001928E-02 0.  1.
</event>
<event>
 5   0  0.1265562E-03  0.6998041E+03  0.7818609E-02  0.9717567E-01
        2   -1    0    0  501    0  0.00000000000E+00  0.00000000000E+00  0.40225374500E+03  0.40225374501E+03  0.25500000920E-02 0.  1.
       -2   -1    0    0    0  501  0.00000000000E+00  0.00000000000E+00 -0.30436374113E+03  0.30436374114E+03  0.25500000920E-02 0. -1.
    10030    2    1    2    0    0  0.00000000000E+00  0.00000000000E+00  0.97890003870E+02  0.70661748615E+03  0.69980412893E+03 0.  0.
        1    1    3    3  502    0 -0.19325523769E+03  0.27013063851E+03 -0.62187021763E+02  0.33791326470E+03  0.50400001928E-02 0.  1.
       -1    1    3    3    0  502  0.19325523769E+03 -0.27013063851E+03  0.16007702563E+03  0.36870422145E+03  0.50400001928E-02 0. -1.
</event>
<event>
 5   0  0.7574241E-04  0.7001140E+03  0.7818609E-02  0.9717037E-01
       -1   -1    0    0    0  501  0.00000000000E+00  0.00000000000E+00  0.16590332774E+03  0.16590332782E+03  0.50400001928E-02 0. -1.
        1   -1    0    0  501    0  0.00000000000E+00  0.00000000000E+00 -0.73862240306E+03  0.73862240308E+03  0.50400001928E-02 0.  1.
    10030    2    1    2    0    0  0.00000000000E+00  0.00000000000E+00 -0.57271907532E+03  0.90452573090E+03  0.70011403259E+03 0.  0.
        3    1    3    3  502    0  0.29902356667E+03 -0.92624204132E+02 -0.48877266972E+03  0.58042490426E+03  0.10100000352E+00 0.  1.
       -3    1    3    3    0  502 -0.29902356667E+03  0.92624204132E+02 -0.83946405599E+02  0.32410082664E+03  0.10100000352E+00 0. -1.
</event>
<event>
 5   0  0.1222679E-03  0.7005995E+03  0.7818609E-02  0.9716208E-01
        2   -1    0    0  501    0  0.00000000000E+00  0.00000000000E+00  0.58289388774E+03  0.58289388775E+03  0.25500000920E-02 0.  1.
       -2   -1    0    0    0  501  0.00000000000E+00  0.00000000000E+00 -0.21051844531E+03  0.21051844533E+03  0.25500000920E-02 0. -1.
    10030    2    1    2    0    0  0.00000000000E+00  0.00000000000E+00  0.37237544243E+03  0.79341233308E+03  0.70059950054E+03 0.  0.
        2    1    3    3  502    0 -0.25016922929E+03  0.20410292455E+03  0.34008482569E+03  0.46893532152E+03  0.25500000920E-02 0.  1.
       -2    1    3    3    0  502  0.25016922929E+03 -0.20410292455E+03  0.32290616743E+02  0.32447701156E+03  0.25500000920E-02 0. -1.
</event>
<event>
 5   0  0.7570633E-04  0.7002593E+03  0.7818609E-02  0.9716789E-01
        1   -1    0    0  501    0  0.00000000000E+00  0.00000000000E+00  0.11880534274E+04  0.11880534274E+04  0.50400001928E-02 0. -1.
       -1   -1    0    0    0  501  0.00000000000E+00  0.00000000000E+00 -0.10318624624E+03  0.10318624636E+03  0.50400001928E-02 0.  1.
    10030    2    1    2    0    0  0.00000000000E+00  0.00000000000E+00  0.10848671812E+04  0.12912396738E+04  0.70025930509E+03 0.  0.
        5    1    3    3  502    0  0.21176574572E+03 -0.13793388699E+03  0.95687924978E+02  0.27027533595E+03  0.46999998093E+01 0.  1.
       -5    1    3    3    0  502 -0.21176574572E+03  0.13793388699E+03  0.98917925620E+03  0.10209643378E+04  0.46999998093E+01 0. -1.
</event>
<event>
 5   0  0.1243087E-03  0.7000513E+03  0.7818609E-02  0.9717144E-01
       -2   -1    0    0    0  501  0.00000000000E+00  0.00000000000E+00  0.11531783288E+03  0.11531783291E+03  0.25500000920E-02 0. -1.
        2   -1    0    0  501    0  0.00000000000E+00  0.00000000000E+00 -0.10624372573E+04  0.10624372573E+04  0.25500000920E-02 0.  1.
    10030    2    1    2    0    0  0.00000000000E+00  0.00000000000E+00 -0.94711942438E+03  0.11777550902E+04  0.70005131840E+03 0.  0.
        4    1    3    3  502    0 -0.30244729501E+03 -0.15819228423E+03 -0.34305633109E+03  0.48393018530E+03  0.12699999809E+01 0. -1.
       -4    1    3    3    0  502  0.30244729501E+03  0.15819228423E+03 -0.60406309329E+03  0.69382490487E+03  0.12699999809E+01 0.  1.
</event>
<event>
 5   0  0.1265562E-03  0.6998885E+03  0.7818609E-02  0.9717423E-01
        2   -1    0    0  501    0  0.00000000000E+00  0.00000000000E+00  0.16244846292E+03  0.16244846294E+03  0.25500000920E-02 0. -1.
       -2   -1    0    0    0  501  0.00000000000E+00  0.00000000000E+00 -0.75384506347E+03  0.75384506347E+03  0.25500000920E-02 0.  1.
    10030    2    1    2    0    0  0.00000000000E+00  0.00000000000E+00 -0.59139660055E+03  0.91629352641E+03  0.69988848212E+03 0.  0.
        1    1    3    3  502    0  0.18788169169E+03 -0.18429170019E+03 -0.59766111798E+03  0.65304040671E+03  0.50400001928E-02 0.  1.
       -1    1    3    3    0  502 -0.18788169169E+03  0.18429170019E+03  0.62645174296E+01  0.26325311970E+03  0.50400001928E-02 0. -1.
</event>
<event>
 5   0  0.1265562E-03  0.7001922E+03  0.7818609E-02  0.9716904E-01
        2   -1    0    0  501    0  0.00000000000E+00  0.00000000000E+00  0.59107310620E+02  0.59107310675E+02  0.25500000920E-02 0.  1.
       -2   -1    0    0    0  501  0.00000000000E+00  0.00000000000E+00 -0.20736398123E+04  0.20736398123E+04  0.25500000920E-02 0. -1.
    10030    2    1    2    0    0  0.00000000000E+00  0.00000000000E+00 -0.20145325017E+04  0.21327471230E+04  0.70019218093E+03 0.  0.
        1    1    3    3  502    0  0.36122544198E+02  0.51859979104E+02  0.41587582546E+02  0.75655949398E+02  0.50400001928E-02 0.  1.
       -1    1    3    3    0  502 -0.36122544198E+02 -0.51859979104E+02 -0.20561200842E+04  0.20570911736E+04  0.50400001928E-02 0. -1.
</event>
<event>
 5   0  0.7572415E-04  0.6999142E+03  0.7818609E-02  0.9717379E-01
       -1   -1    0    0    0  501  0.00000000000E+00  0.00000000000E+00  0.60354297613E+03  0.60354297615E+03  0.50400001928E-02 0.  1.
        1   -1    0    0  501    0  0.00000000000E+00  0.00000000000E+00 -0.20291839817E+03  0.20291839824E+03  0.50400001928E-02 0. -1.
    10030    2    1    2    0    0  0.00000000000E+00  0.00000000000E+00  0.40062457796E+03  0.80646137439E+03  0.69991420611E+03 0.  0.
        4    1    3    3  502    0 -0.33334497001E+03  0.24952911866E+02  0.31964918851E+03  0.46251349543E+03  0.12699999809E+01 0.  1.
       -4    1    3    3    0  502  0.33334497001E+03 -0.24952911866E+02  0.80975389444E+02  0.34394787896E+03  0.12699999809E+01 0. -1.
</event>
<event>
 5   0  0.1243087E-03  0.7002921E+03  0.7818609E-02  0.9716733E-01
        2   -1    0    0  501    0  0.00000000000E+00  0.00000000000E+00  0.67535162232E+03  0.67535162233E+03  0.25500000920E-02 0. -1.
       -2   -1    0    0    0  501  0.00000000000E+00  0.00000000000E+00 -0.18153841789E+03  0.18153841791E+03  0.25500000920E-02 0.  1.
    10030    2    1    2    0    0  0.00000000000E+00  0.00000000000E+00  0.49381320444E+03  0.85689004024E+03  0.70029212489E+03 0.  0.
        4    1    3    3  502    0  0.15303800776E+03 -0.21294770810E+03 -0.36997278852E+02  0.26483536348E+03  0.12699999809E+01 0.  1.
       -4    1    3    3    0  502 -0.15303800776E+03  0.21294770810E+03  0.53081048329E+03  0.59205467676E+03  0.12699999809E+01 0. -1.
</event>
<event>
 5   0  0.1243087E-03  0.7004204E+03  0.7818609E-02  0.9716514E-01
        2   -1    0    0  501    0  0.00000000000E+00  0.00000000000E+00  0.94117431918E+03  0.94117431918E+03  0.25500000920E-02 0.  1.
       -2   -1    0    0    0  501  0.00000000000E+00  0.00000000000E+00 -0.13031292557E+03  0.13031292559E+03  0.25500000920E-02 0. -1.
    10030    2    1    2    0    0  0.00000000000E+00  0.00000000000E+00  0.81086139361E+03  0.10714872448E+04  0.70042038525E+03 0.  0.
        4    1    3    3  502    0  0.18448755381E+03 -0.17127184907E+03  0.77788000193E+03  0.81759929923E+03  0.12699999809E+01 0.  1.
       -4    1    3    3    0  502 -0.18448755381E+03  0.17127184907E+03  0.32981391677E+02  0.25388794554E+03  0.12699999809E+01 0. -1.
</event>
<event>
 5   0  0.4936000E-04  0.7001970E+03  0.7818609E-02  0.9716895E-01
        4   -1    0    0  501    0  0.00000000000E+00  0.00000000000E+00  0.37156583800E+03  0.37156800841E+03  0.12699999809E+01 0. -1.
       -4   -1    0    0    0  501  0.00000000000E+00  0.00000000000E+00 -0.32986711728E+03  0.32986956205E+03  0.12699999809E+01 0.  1.
    10030    2    1    2    0    0  0.00000000000E+00  0.00000000000E+00  0.41698720720E+02  0.70143757045E+03  0.70019703080E+03 0.  0.
        3    1    3    3  502    0 -0.27603420045E+03  0.20420265161E+03  0.89347089389E+02  0.35479080502E+03  0.10100000352E+00 0. -1.
       -3    1    3    3    0  502  0.27603420045E+03 -0.20420265161E+03 -0.47648368670E+02  0.34664676543E+03  0.10100000352E+00 0.  1.
</event>
<event>
 5   0  0.1265562E-03  0.7002613E+03  0.7818609E-02  0.9716785E-01
       -2   -1    0    0    0  501  0.00000000000E+00  0.00000000000E+00  0.14555871248E+03  0.14555871250E+03  0.25500000920E-02 0.  1.
        2   -1    0    0  501    0  0.00000000000E+00  0.00000000000E+00 -0.84221327204E+03  0.84221327204E+03  0.25500000920E-02 0. -1.
    10030    2    1    2    0    0  0.00000000000E+00  0.00000000000E+00 -0.69665455955E+03  0.98777198455E+03  0.70026132130E+03 0.  0.
        1    1    3    3  502    0 -0.14298645677E+03  0.30196259867E+03 -0.49603382105E+03  0.59806027244E+03  0.50400001928E-02 0. -1.
       -1    1    3    3    0  502  0.14298645677E+03 -0.30196259867E+03 -0.20062073850E+03  0.38971171211E+03  0.50400001928E-02 0.  1.
</event>
<event>
 5   0  0.7574241E-04  0.7029608E+03  0.7818609E-02  0.9712182E-01
        1   -1    0    0  501    0  0.00000000000E+00  0.00000000000E+00  0.47849140963E+03  0.47849140966E+03  0.50400001928E-02 0.  1.
       -1   -1    0    0    0  501  0.00000000000E+00  0.00000000000E+00 -0.25818327148E+03  0.25818327153E+03  0.50400001928E-02 0. -1.
    10030    2    1    2    0    0  0.00000000000E+00  0.00000000000E+00  0.22030813814E+03  0.73667468119E+03  0.70296081695E+03 0.  0.
        3    1    3    3  502    0  0.40998024490E+02 -0.32270109396E+03 -0.29353091158E+02  0.32661666862E+03  0.10100000352E+00 0. -1.
       -3    1    3    3    0  502 -0.40998024490E+02  0.32270109396E+03  0.24966122930E+03  0.41005801257E+03  0.10100000352E+00 0.  1.
</event>
<event>
 5   0  0.7570633E-04  0.7005661E+03  0.7818609E-02  0.9716265E-01
        1   -1    0    0  501    0  0.00000000000E+00  0.00000000000E+00  0.29815184040E+03  0.29815184045E+03  0.50400001928E-02 0.  1.
       -1   -1    0    0    0  501  0.00000000000E+00  0.00000000000E+00 -0.41152930258E+03  0.41152930261E+03  0.50400001928E-02 0. -1.
    10030    2    1    2    0    0  0.00000000000E+00  0.00000000000E+00 -0.11337746218E+03  0.70968114306E+03  0.70056611100E+03 0.  0.
        5    1    3    3  502    0  0.20317157650E+03 -0.18371758914E+03 -0.27780673947E+03  0.39016601152E+03  0.46999998093E+01 0. -1.
       -5    1    3    3    0  502 -0.20317157650E+03  0.18371758914E+03  0.16442927729E+03  0.31951513154E+03  0.46999998093E+01 0.  1.
</event>
<event>
 5   0  0.7574241E-04  0.7002303E+03  0.7818609E-02  0.9716838E-01
        1   -1    0    0  501    0  0.00000000000E+00  0.00000000000E+00  0.51067594859E+03  0.51067594862E+03  0.50400001928E-02 0. -1.
       -1   -1    0    0    0  501  0.00000000000E+00  0.00000000000E+00 -0.24003598782E+03  0.24003598788E+03  0.50400001928E-02 0.  1.
    10030    2    1    2    0    0  0.00000000000E+00  0.00000000000E+00  0.27063996077E+03  0.75071193649E+03  0.70023026443E+03 0.  0.
        3    1    3    3  502    0  0.22298268937E+03 -0.18243409104E+03  0.34860213938E+03  0.45224654682E+03  0.10100000352E+00 0. -1.
       -3    1    3    3    0  502 -0.22298268937E+03  0.18243409104E+03 -0.77962178611E+02  0.29846538967E+03  0.10100000352E+00 0.  1.
</event>
<event>
 5   0  0.4936000E-04  0.7001875E+03  0.7818609E-02  0.9716912E-01
       -4   -1    0    0    0  501  0.00000000000E+00  0.00000000000E+00  0.46615385292E+03  0.46615558293E+03  0.12699999809E+01 0.  1.
        4   -1    0    0  501    0  0.00000000000E+00  0.00000000000E+00 -0.26292582930E+03  0.26292889650E+03  0.12699999809E+01 0. -1.
    10030    2    1    2    0    0  0.00000000000E+00  0.00000000000E+00  0.20322802362E+03  0.72908447942E+03  0.70018750957E+03 0.  0.
        5    1    3    3  502    0  0.27541854089E+03  0.17207412447E+03 -0.34464803447E+02  0.32661106786E+03  0.46999998093E+01 0. -1.
       -5    1    3    3    0  502 -0.27541854089E+03 -0.17207412447E+03  0.23769282706E+03  0.40247341156E+03  0.46999998093E+01 0.  1.
</event>
<event>
 5   0  0.1224048E-03  0.6995843E+03  0.7818609E-02  0.9717943E-01
       -2   -1    0    0    0  501  0.00000000000E+00  0.00000000000E+00  0.42480126497E+02  0.42480126574E+02  0.25500000920E-02 0.  1.
        2   -1    0    0  501    0  0.00000000000E+00  0.00000000000E+00 -0.28802773159E+04  0.28802773159E+04  0.25500000920E-02 0. -1.
    10030    2    1    2    0    0  0.00000000000E+00  0.00000000000E+00 -0.28377971894E+04  0.29227574424E+04  0.69958429038E+03 0.  0.
        3    1    3    3  502    0  0.12792023445E+03 -0.17811304465E+03 -0.25574424539E+04  0.25668267877E+04  0.10100000352E+00 0. -1.
       -3    1    3    3    0  502 -0.12792023445E+03  0.17811304465E+03 -0.28035473548E+03  0.35593065471E+03  0.10100000352E+00 0.  1.
</event>
<event>
 5   0  0.1282546E-03  0.7000944E+03  0.7818609E-02  0.9717071E-01
        2   -1    0    0  501    0  0.00000000000E+00  0.00000000000E+00  0.86493831596E+03  0.86493831597E+03  0.25500000920E-02 0. -1.
       -2   -1    0    0    0  501  0.00000000000E+00  0.00000000000E+00 -0.14166677865E+03  0.14166677867E+03  0.25500000920E-02 0.  1.
    10030    2    1    2    0    0  0.00000000000E+00  0.00000000000E+00  0.72327153731E+03  0.10066050946E+04  0.70009435069E+03 0.  0.
        5    1    3    3  502    0  0.17388482026E+02 -0.33656298659E+03  0.22573438909E+03  0.40565392598E+03  0.46999998093E+01 0.  1.
       -5    1    3    3    0  502 -0.17388482026E+02  0.33656298659E+03  0.49753714822E+03  0.60095116865E+03  0.46999998093E+01 0. -1.
</event>
<event>
 5   0  0.1222679E-03  0.7015251E+03  0.7818609E-02  0.9714628E-01
       -2   -1    0    0    0  501  0.00000000000E+00  0.00000000000E+00  0.82972925197E+02  0.82972925236E+02  0.25500000920E-02 0. -1.
        2   -1    0    0  501    0  0.00000000000E+00  0.00000000000E+00 -0.14828252921E+04  0.14828252921E+04  0.25500000920E-02 0.  1.
    10030    2    1    2    0    0  0.00000000000E+00  0.00000000000E+00 -0.13998523669E+04  0.15657982173E+04  0.70152505891E+03 0.  0.
        2    1    3    3  502    0  0.15099393851E+03  0.54612650119E+02 -0.13959807826E+04  0.14051847054E+04  0.25500000920E-02 0.  1.
       -2    1    3    3    0  502 -0.15099393851E+03 -0.54612650119E+02 -0.38715842660E+01  0.16061351186E+03  0.25500000920E-02 0. -1.
</event>
<event>
 5   0  0.7459843E-04  0.6998999E+03  0.7818609E-02  0.9717403E-01
       -1   -1    0    0    0  501  0.00000000000E+00  0.00000000000E+00  0.18918209690E+03  0.18918209697E+03  0.50400001928E-02 0. -1.
        1   -1    0    0  501    0  0.00000000000E+00  0.00000000000E+00 -0.64733905266E+03  0.64733905268E+03  0.50400001928E-02 0.  1.
    10030    2    1    2    0    0  0.00000000000E+00  0.00000000000E+00 -0.45815695576E+03  0.83652114965E+03  0.69989987691E+03 0.  0.
        2    1    3    3  502    0  0.78432516325E+02  0.20717088454E+03  0.94716329762E+02  0.24092035644E+03  0.25500000920E-02 0. -1.
       -2    1    3    3    0  502 -0.78432516325E+02 -0.20717088454E+03 -0.55287328552E+03  0.59560079321E+03  0.25500000920E-02 0.  1.
</event>
<event>
 5   0  0.1265562E-03  0.6999249E+03  0.7818609E-02  0.9717361E-01
        2   -1    0    0  501    0  0.00000000000E+00  0.00000000000E+00  0.81370192174E+03  0.81370192174E+03  0.25500000920E-02 0. -1.
       -2   -1    0    0    0  501  0.00000000000E+00  0.00000000000E+00 -0.15051424505E+03  0.15051424507E+03  0.25500000920E-02 0.  1.
    10030    2    1    2    0    0  0.00000000000E+00  0.00000000000E+00  0.66318767669E+03  0.96421616681E+03  0.69992494014E+03 0.  0.
        1    1    3    3  502    0  0.32136624868E+03 -0.96836888622E+02  0.46810887479E+03  0.57600309675E+03  0.50400001928E-02 0. -1.
       -1    1    3    3    0  502 -0.32136624868E+03  0.96836888622E+02  0.19507880190E+03  0.38821307006E+03  0.50400001928E-02 0.  1.
</event>
<event>
 5   0  0.4936000E-04  0.7002186E+03  0.7818609E-02  0.9716858E-01
       -3   -1    0    0    0  501  0.00000000000E+00  0.00000000000E+00  0.16018639729E+03  0.16018642913E+03  0.10100000352E+00 0.  1.
        3   -1    0    0  501    0  0.00000000000E+00  0.00000000000E+00 -0.76521173344E+03  0.76521174011E+03  0.10100000352E+00 0. -1.
    10030    2    1    2    0    0  0.00000000000E+00  0.00000000000E+00 -0.60502533616E+03  0.92539816924E+03  0.70021861889E+03 0.  0.
        2    1    3    3  502    0  0.18089099082E+03 -0.14771909704E+03  0.42200705147E+02  0.23732547632E+03  0.25500000920E-02 0.  1.
       -2    1    3    3    0  502 -0.18089099082E+03  0.14771909704E+03 -0.64722604130E+03  0.68807269292E+03  0.25500000920E-02 0. -1.
</event>
<event>
 5   0  0.4936000E-04  0.7001160E+03  0.7818609E-02  0.9717034E-01
        4   -1    0    0  501    0  0.00000000000E+00  0.00000000000E+00  0.12558507167E+03  0.12559149305E+03  0.12699999809E+01 0. -1.
       -4   -1    0    0    0  501  0.00000000000E+00  0.00000000000E+00 -0.97572598757E+03  0.97572681408E+03  0.12699999809E+01 0.  1.
    10030    2    1    2    0    0  0.00000000000E+00  0.00000000000E+00 -0.85014091590E+03  0.11013183071E+04  0.70011601662E+03 0.  0.
        1    1    3    3  502    0 -0.11467606285E+03 -0.18265658233E+03  0.86656522319E+01  0.21584512970E+03  0.50400001928E-02 0. -1.
       -1    1    3    3    0  502  0.11467606285E+03  0.18265658233E+03 -0.85880656813E+03  0.88547317743E+03  0.50400001928E-02 0.  1.
</event>
<event>
 5   0  0.7013526E-04  0.6999804E+03  0.7818609E-02  0.9717266E-01
       -1   -1    0    0    0  501  0.00000000000E+00  0.00000000000E+00  0.33878468210E+03  0.33878468214E+03  0.50400001928E-02 0. -1.
        1   -1    0    0  501    0  0.00000000000E+00  0.00000000000E+00 -0.36156637821E+03  0.36156637824E+03  0.50400001928E-02 0.  1.
    10030    2    1    2    0    0  0.00000000000E+00  0.00000000000E+00 -0.22781696106E+02  0.70035106038E+03  0.69998042979E+03 0.  0.
        1    1    3    3  502    0 -0.19675823994E+03 -0.15211260077E+03  0.23499368182E+03  0.34216089610E+03  0.50400001928E-02 0. -1.
       -1    1    3    3    0  502  0.19675823994E+03  0.15211260077E+03 -0.25777537793E+03  0.35819016428E+03  0.50400001928E-02 0.  1.
</event>
<event>
 5   0  0.4936000E-04  0.7000246E+03  0.7818609E-02  0.9717190E-01
       -3   -1    0    0    0  501  0.00000000000E+00  0.00000000000E+00  0.16586088373E+04  0.16586088404E+04  0.10100000352E+00 0.  1.
        3   -1    0    0  501    0  0.00000000000E+00  0.00000000000E+00 -0.73862225889E+02  0.73862294943E+02  0.10100000352E+00 0. -1.
    10030    2    1    2    0    0  0.00000000000E+00  0.00000000000E+00  0.15847466114E+04  0.17324711353E+04  0.70002457981E+03 0.  0.
        3    1    3    3  502    0  0.18523970877E+02 -0.29615531846E+03  0.33296960257E+03  0.44600434593E+03  0.10100000352E+00 0. -1.
       -3    1    3    3    0  502 -0.18523970877E+02  0.29615531846E+03  0.12517770089E+04  0.12864667894E+04  0.10100000352E+00 0.  1.
</event>
<event>
 5   0  0.7574241E-04  0.6999996E+03  0.7818609E-02  0.9717233E-01
       -1   -1    0    0    0  501  0.00000000000E+00  0.00000000000E+00  0.26505122950E+03  0.26505122955E+03  0.50400001928E-02 0.  1.
        1   -1    0    0  501    0  0.00000000000E+00  0.00000000000E+00 -0.46217432056E+03  0.46217432058E+03  0.50400001928E-02 0. -1.
    10030    2    1    2    0    0  0.00000000000E+00  0.00000000000E+00 -0.19712309105E+03  0.72722555014E+03  0.69999963410E+03 0.  0.
        3    1    3    3  502    0 -0.70091750349E+02  0.15512349117E+03 -0.41627249386E+03  0.44973208727E+03  0.10100000352E+00 0. -1.
       -3    1    3    3    0  502  0.70091750349E+02 -0.15512349117E+03  0.21914940281E+03  0.27749346286E+03  0.10100000352E+00 0.  1.
</event>
<event>
 5   0  0.7459843E-04  0.6995119E+03  0.7818609E-02  0.9718067E-01
        1   -1    0    0  501    0  0.00000000000E+00  0.00000000000E+00  0.69812797804E+03  0.69812797805E+03  0.50400001928E-02 0. -1.
       -1   -1    0    0    0  501  0.00000000000E+00  0.00000000000E+00 -0.17522465513E+03  0.17522465520E+03  0.50400001928E-02 0.  1.
    10030    2    1    2    0    0  0.00000000000E+00  0.00000000000E+00  0.52290332291E+03  0.87335263325E+03  0.69951192763E+03 0.  0.
        2    1    3    3  502    0  0.62707306561E+02 -0.28625607819E+02 -0.16665975566E+03  0.18035272629E+03  0.25500000920E-02 0.  1.
       -2    1    3    3    0  502 -0.62707306561E+02  0.28625607819E+02  0.68956307857E+03  0.69299990696E+03  0.25500000920E-02 0. -1.
</event>
<event>
 5   0  0.7574241E-04  0.6995436E+03  0.7818609E-02  0.9718013E-01
        1   -1    0    0  501    0  0.00000000000E+00  0.00000000000E+00  0.55490498538E+03  0.55490498541E+03  0.50400001928E-02 0.  1.
       -1   -1    0    0    0  501  0.00000000000E+00  0.00000000000E+00 -0.22047076578E+03  0.22047076584E+03  0.50400001928E-02 0. -1.
    10030    2    1    2    0    0  0.00000000000E+00  0.00000000000E+00  0.33443421960E+03  0.77537575124E+03  0.69954364294E+03 0.  0.
        3    1    3    3  502    0 -0.26013917964E+03 -0.96197144219E+02  0.40342393309E+03  0.48956834388E+03  0.10100000352E+00 0.  1.
       -3    1    3    3    0  502  0.26013917964E+03  0.96197144219E+02 -0.68989713483E+02  0.28580740737E+03  0.10100000352E+00 0. -1.
</event>
<event>
 5   0  0.7572415E-04  0.7001302E+03  0.7818609E-02  0.9717010E-01
        1   -1    0    0  501    0  0.00000000000E+00  0.00000000000E+00  0.39374373132E+03  0.39374373135E+03  0.50400001928E-02 0.  1.
       -1   -1    0    0    0  501  0.00000000000E+00  0.00000000000E+00 -0.31123178989E+03  0.31123178993E+03  0.50400001928E-02 0. -1.
    10030    2    1    2    0    0  0.00000000000E+00  0.00000000000E+00  0.82511941432E+02  0.70497552128E+03  0.70013017727E+03 0.  0.
        4    1    3    3  502    0  0.31881335730E+03  0.50643755260E+02 -0.95096128853E+02  0.33652880020E+03  0.12699999809E+01 0. -1.
       -4    1    3    3    0  502 -0.31881335730E+03 -0.50643755260E+02  0.17760807028E+03  0.36844672108E+03  0.12699999809E+01 0.  1.
</event>
<event>
 5   0  0.4936000E-04  0.7000283E+03  0.7818609E-02  0.9717184E-01
        4   -1    0    0  501    0  0.00000000000E+00  0.00000000000E+00  0.12286035762E+04  0.12286042326E+04  0.12699999809E+01 0. -1.
       -4   -1    0    0    0  501  0.00000000000E+00  0.00000000000E+00 -0.99710031704E+02  0.99718119328E+02  0.12699999809E+01 0.  1.
    10030    2    1    2    0    0  0.00000000000E+00  0.00000000000E+00  0.11288935445E+04  0.13283223519E+04  0.70002831072E+03 0.  0.
        5    1    3    3  502    0  0.19730104908E+03 -0.26623326893E+03  0.77811839285E+03  0.84575302586E+03  0.46999998093E+01 0. -1.
       -5    1    3    3    0  502 -0.19730104908E+03  0.26623326893E+03  0.35077515165E+03  0.48256932607E+03  0.46999998093E+01 0.  1.
</event>
<event>
 5   0  0.1222679E-03  0.6997742E+03  0.7818609E-02  0.9717618E-01
       -2   -1    0    0    0  501  0.00000000000E+00  0.00000000000E+00  0.21608020446E+03  0.21608020447E+03  0.25500000920E-02 0.  1.
        2   -1    0    0  501    0  0.00000000000E+00  0.00000000000E+00 -0.56655339004E+03  0.56655339005E+03  0.25500000920E-02 0. -1.
    10030    2    1    2    0    0  0.00000000000E+00  0.00000000000E+00 -0.35047318559E+03  0.78263359452E+03  0.69977417033E+03 0.  0.
        2    1    3    3  502    0  0.34625245977E+03  0.27639594308E+02 -0.12823335154E+03  0.37026815354E+03  0.25500000920E-02 0. -1.
       -2    1    3    3    0  502 -0.34625245977E+03 -0.27639594308E+02 -0.22223983404E+03  0.41236544098E+03  0.25500000920E-02 0.  1.
</event>
<event>
 5   0  0.7459843E-04  0.6998957E+03  0.7818609E-02  0.9717411E-01
       -1   -1    0    0    0  501  0.00000000000E+00  0.00000000000E+00  0.21684814312E+03  0.21684814317E+03  0.50400001928E-02 0.  1.
        1   -1    0    0  501    0  0.00000000000E+00  0.00000000000E+00 -0.56474305823E+03  0.56474305825E+03  0.50400001928E-02 0. -1.
    10030    2    1    2    0    0  0.00000000000E+00  0.00000000000E+00 -0.34789491512E+03  0.78159120143E+03  0.69989565950E+03 0.  0.
        2    1    3    3  502    0  0.15865047445E+02 -0.28653824497E+03  0.49697853107E+02  0.29124859171E+03  0.25500000920E-02 0.  1.
       -2    1    3    3    0  502 -0.15865047445E+02  0.28653824497E+03 -0.39759276822E+03  0.49034260972E+03  0.25500000920E-02 0. -1.
</event>
<event>
 5   0  0.7570633E-04  0.7002868E+03  0.7818609E-02  0.9716742E-01
        1   -1    0    0  501    0  0.00000000000E+00  0.00000000000E+00  0.11710411266E+03  0.11710411276E+03  0.50400001928E-02 0. -1.
       -1   -1    0    0    0  501  0.00000000000E+00  0.00000000000E+00 -0.10469350267E+04  0.10469350267E+04  0.50400001928E-02 0.  1.
    10030    2    1    2    0    0  0.00000000000E+00  0.00000000000E+00 -0.92983091402E+03  0.11640391394E+04  0.70028679090E+03 0.  0.
        5    1    3    3  502    0  0.36471563923E+02 -0.10300968451E+02  0.11363209267E+03  0.11987755173E+03  0.46999998093E+01 0. -1.
       -5    1    3    3    0  502 -0.36471563923E+02  0.10300968451E+02 -0.10434630067E+04  0.10441615877E+04  0.46999998093E+01 0.  1.
</event>
<event>
 5   0  0.7570633E-04  0.6999283E+03  0.7818609E-02  0.9717355E-01
        1   -1    0    0  501    0  0.00000000000E+00  0.00000000000E+00  0.55756092221E+03  0.55756092223E+03  0.50400001928E-02 0. -1.
       -1   -1    0    0    0  501  0.00000000000E+00  0.00000000000E+00 -0.21966190045E+03  0.21966190051E+03  0.50400001928E-02 0.  1.
    10030    2    1    2    0    0  0.00000000000E+00  0.00000000000E+00  0.33789902176E+03  0.77722282274E+03  0.69992825866E+03 0.  0.
        5    1    3    3  502    0  0.27032498677E+03 -0.83779289518E+02  0.39748883549E+03  0.48796929428E+03  0.46999998093E+01 0. -1.
       -5    1    3    3    0  502 -0.27032498677E+03  0.83779289518E+02 -0.59589813726E+02  0.28925352846E+03  0.46999998093E+01 0.  1.
</event>
<event>
 5   0  0.1224048E-03  0.6993679E+03  0.7818609E-02  0.9718314E-01
        2   -1    0    0  501    0  0.00000000000E+00  0.00000000000E+00  0.78114857500E+03  0.78114857501E+03  0.25500000920E-02 0. -1.
       -2   -1    0    0    0  501  0.00000000000E+00  0.00000000000E+00 -0.15653725929E+03  0.15653725931E+03  0.25500000920E-02 0.  1.
    10030    2    1    2    0    0  0.00000000000E+00  0.00000000000E+00  0.62461131571E+03  0.93768583432E+03  0.69936787757E+03 0.  0.
        3    1    3    3  502    0  0.31189058649E+03 -0.21218136394E+02  0.10221677678E+03  0.32889850548E+03  0.10100000352E+00 0.  1.
       -3    1    3    3    0  502 -0.31189058649E+03  0.21218136394E+02  0.52239453893E+03  0.60878732884E+03  0.10100000352E+00 0. -1.
</event>
<event>
 5   0  0.1224048E-03  0.7000769E+03  0.7818609E-02  0.9717101E-01
        2   -1    0    0  501    0  0.00000000000E+00  0.00000000000E+00  0.24248689557E+03  0.24248689558E+03  0.25500000920E-02 0.  1.
       -2   -1    0    0    0  501  0.00000000000E+00  0.00000000000E+00 -0.50529300362E+03  0.50529300362E+03  0.25500000920E-02 0. -1.
    10030    2    1    2    0    0  0.00000000000E+00  0.00000000000E+00 -0.26280610805E+03  0.74777989920E+03  0.70007694379E+03 0.  0.
        3    1    3    3  502    0 -0.41878812750E+02 -0.12825543155E+03 -0.47640326366E+03  0.49513974846E+03  0.10100000352E+00 0. -1.
       -3    1    3    3    0  502  0.41878812750E+02  0.12825543155E+03  0.21359715561E+03  0.25264015074E+03  0.10100000352E+00 0.  1.
</event>
<event>
 5   0  0.1243087E-03  0.7000210E+03  0.7818609E-02  0.9717196E-01
        2   -1    0    0  501    0  0.00000000000E+00  0.00000000000E+00  0.12132584834E+03  0.12132584837E+03  0.25500000920E-02 0.  1.
       -2   -1    0    0    0  501  0.00000000000E+00  0.00000000000E+00 -0.10097383568E+04  0.10097383568E+04  0.25500000920E-02 0. -1.
    10030    2    1    2    0    0  0.00000000000E+00  0.00000000000E+00 -0.88841250842E+03  0.11310642051E+04  0.70002103613E+03 0.  0.
        4    1    3    3  502    0  0.31711889117E+03 -0.46109260120E+02 -0.67165127667E+03  0.74418244091E+03  0.12699999809E+01 0.  1.
       -4    1    3    3    0  502 -0.31711889117E+03  0.46109260120E+02 -0.21676123175E+03  0.38688176423E+03  0.12699999809E+01 0. -1.
</event>
<event>
 5   0  0.1224048E-03  0.7016434E+03  0.7818609E-02  0.9714426E-01
        2   -1    0    0  501    0  0.00000000000E+00  0.00000000000E+00  0.11091901986E+04  0.11091901986E+04  0.25500000920E-02 0.  1.
       -2   -1    0    0    0  501  0.00000000000E+00  0.00000000000E+00 -0.11096012413E+03  0.11096012416E+03  0.25500000920E-02 0. -1.
    10030    2    1    2    0    0  0.00000000000E+00  0.00000000000E+00  0.99823007442E+03  0.12201503227E+04  0.70164344830E+03 0.  0.
        3    1    3    3  502    0 -0.20942147668E+03  0.28101910046E+03  0.52643334502E+03  0.63242483084E+03  0.10100000352E+00 0. -1.
       -3    1    3    3    0  502  0.20942147668E+03 -0.28101910046E+03  0.47179672941E+03  0.58772549187E+03  0.10100000352E+00 0.  1.
</event>
<event>
 5   0  0.1265562E-03  0.6996578E+03  0.7818609E-02  0.9717818E-01
       -2   -1    0    0    0  501  0.00000000000E+00  0.00000000000E+00  0.81612793322E+02  0.81612793362E+02  0.25500000920E-02 0. -1.
        2   -1    0    0  501    0  0.00000000000E+00  0.00000000000E+00 -0.14995229955E+04  0.14995229955E+04  0.25500000920E-02 0.  1.
    10030    2    1    2    0    0  0.00000000000E+00  0.00000000000E+00 -0.14179102021E+04  0.15811357888E+04  0.69965780306E+03 0.  0.
        1    1    3    3  502    0  0.31545255184E+03 -0.19273958197E+02 -0.10479240417E+04  0.10945440124E+04  0.50400001928E-02 0.  1.
       -1    1    3    3    0  502 -0.31545255184E+03  0.19273958197E+02 -0.36998616047E+03  0.48659177643E+03  0.50400001928E-02 0. -1.
</event>
<event>
 5   0  0.1224048E-03  0.7000368E+03  0.7818609E-02  0.9717169E-01
        2   -1    0    0  501    0  0.00000000000E+00  0.00000000000E+00  0.46411370829E+03  0.46411370830E+03  0.25500000920E-02 0.  1.
       -2   -1    0    0    0  501  0.00000000000E+00  0.00000000000E+00 -0.26397172756E+03  0.26397172757E+03  0.25500000920E-02 0. -1.
    10030    2    1    2    0    0  0.00000000000E+00  0.00000000000E+00  0.20014198073E+03  0.72808543588E+03  0.70003684866E+03 0.  0.
        3    1    3    3  502    0  0.82174365161E+01  0.34817590752E+03  0.13638257350E+03  0.37402433797E+03  0.10100000352E+00 0. -1.
       -3    1    3    3    0  502 -0.82174365161E+01 -0.34817590752E+03  0.63759407230E+02  0.35406109791E+03  0.10100000352E+00 0.  1.
</event>
<event>
 5   0  0.1282546E-03  0.6998251E+03  0.7818609E-02  0.9717531E-01
        2   -1    0    0  501    0  0.00000000000E+00  0.00000000000E+00  0.40803743441E+03  0.40803743442E+03  0.25500000920E-02 0.  1.
       -2   -1    0    0    0  501  0.00000000000E+00  0.00000000000E+00 -0.30006753358E+03  0.30006753359E+03  0.25500000920E-02 0. -1.
    10030    2    1    2    0    0  0.00000000000E+00  0.00000000000E+00  0.10796990084E+03  0.70810496801E+03  0.69982508259E+03 0.  0.
        5    1    3    3  502    0  0.88146812918E+02  0.33822722583E+03  0.69957138444E+02  0.35648787937E+03  0.46999998093E+01 0.  1.
       -5    1    3    3    0  502 -0.88146812918E+02 -0.33822722583E+03  0.38012762393E+02  0.35161708864E+03  0.46999998093E+01 0. -1.
</event>
<event>
 5   0  0.7574241E-04  0.6999752E+03  0.7818609E-02  0.9717275E-01
        1   -1    0    0  501    0  0.00000000000E+00  0.00000000000E+00  0.96087885249E+03  0.96087885250E+03  0.50400001928E-02 0. -1.
       -1   -1    0    0    0  501  0.00000000000E+00  0.00000000000E+00 -0.12747841822E+03  0.12747841832E+03  0.50400001928E-02 0.  1.
    10030    2    1    2    0    0  0.00000000000E+00  0.00000000000E+00  0.83340043427E+03  0.10883572708E+04  0.69997518892E+03 0.  0.
        3    1    3    3  502    0  0.20472538014E+03 -0.22539265501E+03  0.68500544259E+03  0.74963110714E+03  0.10100000352E+00 0. -1.
       -3    1    3    3    0  502 -0.20472538014E+03  0.22539265501E+03  0.14839499167E+03  0.33872616368E+03  0.10100000352E+00 0.  1.
</event>
<event>
 5   0  0.4936000E-04  0.6990876E+03  0.7818609E-02  0.9718794E-01
        3   -1    0    0  501    0  0.00000000000E+00  0.00000000000E+00  0.51276328224E+03  0.51276329218E+03  0.10100000352E+00 0. -1.
       -3   -1    0    0    0  501  0.00000000000E+00  0.00000000000E+00 -0.23827928237E+03  0.23827930377E+03  0.10100000352E+00 0.  1.
    10030    2    1    2    0    0  0.00000000000E+00  0.00000000000E+00  0.27448399987E+03  0.75104259596E+03  0.69908763024E+03 0.  0.
        3    1    3    3  502    0 -0.33264232317E+03 -0.43056552898E+02  0.31564428548E+02  0.33689925091E+03  0.10100000352E+00 0.  1.
       -3    1    3    3    0  502  0.33264232317E+03  0.43056552898E+02  0.24291957132E+03  0.41414334505E+03  0.10100000352E+00 0. -1.
</event>
<event>
 5   0  0.7013526E-04  0.7000585E+03  0.7818609E-02  0.9717132E-01
        1   -1    0    0  501    0  0.00000000000E+00  0.00000000000E+00  0.22627448787E+03  0.22627448792E+03  0.50400001928E-02 0.  1.
       -1   -1    0    0    0  501  0.00000000000E+00  0.00000000000E+00 -0.54146833243E+03  0.54146833245E+03  0.50400001928E-02 0. -1.
    10030    2    1    2    0    0  0.00000000000E+00  0.00000000000E+00 -0.31519384456E+03  0.76774282038E+03  0.70005848227E+03 0.  0.
        1    1    3    3  502    0 -0.20671890771E+03  0.16089244907E+03  0.97016558721E+02  0.27934083065E+03  0.50400001928E-02 0.  1.
       -1    1    3    3    0  502  0.20671890771E+03 -0.16089244907E+03 -0.41221040328E+03  0.48840198973E+03  0.50400001928E-02 0. -1.
</event>
<event>
 5   0  0.7574241E-04  0.7002569E+03  0.7818609E-02  0.9716793E-01
       -1   -1    0    0    0  501  0.00000000000E+00  0.00000000000E+00  0.23554254409E+03  0.23554254415E+03  0.50400001928E-02 0. -1.
        1   -1    0    0  501    0  0.00000000000E+00  0.00000000000E+00 -0.52045775706E+03  0.52045775708E+03  0.50400001928E-02 0.  1.
    10030    2    1    2    0    0  0.00000000000E+00  0.00000000000E+00 -0.28491521296E+03  0.75600030123E+03  0.70025693633E+03 0.  0.
        3    1    3    3  502    0 -0.23230478019E+03 -0.25562208658E+03 -0.80610590574E+02  0.35469175288E+03  0.10100000352E+00 0. -1.
       -3    1    3    3    0  502  0.23230478019E+03  0.25562208658E+03 -0.20430462239E+03  0.40130854835E+03  0.10100000352E+00 0.  1.
</event>
<event>
 5   0  0.7572415E-04  0.7000146E+03  0.7818609E-02  0.9717207E-01
       -1   -1    0    0    0  501  0.00000000000E+00  0.00000000000E+00  0.13281167256E+03  0.13281167266E+03  0.50400001928E-02 0.  1.
        1   -1    0    0  501    0  0.00000000000E+00  0.00000000000E+00 -0.92239711351E+03  0.92239711352E+03  0.50400001928E-02 0. -1.
    10030    2    1    2    0    0  0.00000000000E+00  0.00000000000E+00 -0.78958544095E+03  0.10552087862E+04  0.70001458118E+03 0.  0.
        4    1    3    3  502    0  0.36722106906E+00 -0.11199445494E+03 -0.89465441646E+03  0.90163797091E+03  0.12699999809E+01 0. -1.
       -4    1    3    3    0  502 -0.36722106906E+00  0.11199445494E+03  0.10506897551E+03  0.15357081527E+03  0.12699999809E+01 0.  1.
</event>
<event>
 5   0  0.7572415E-04  0.7013743E+03  0.7818609E-02  0.9714885E-01
       -1   -1    0    0    0  501  0.00000000000E+00  0.00000000000E+00  0.31981749157E+03  0.31981749161E+03  0.50400001928E-02 0. -1.
        1   -1    0    0  501    0  0.00000000000E+00  0.00000000000E+00 -0.38453648277E+03  0.38453648280E+03  0.50400001928E-02 0.  1.
    10030    2    1    2    0    0  0.00000000000E+00  0.00000000000E+00 -0.64718991201E+02  0.70435397441E+03  0.70137434616E+03 0.  0.
        4    1    3    3  502    0 -0.34538804871E+02 -0.31601683155E+03  0.11632458584E+03  0.33851527149E+03  0.12699999809E+01 0. -1.
       -4    1    3    3    0  502  0.34538804871E+02  0.31601683155E+03 -0.18104357705E+03  0.36583870292E+03  0.12699999809E+01 0.  1.
</event>
<event>
 5   0  0.1243087E-03  0.6997931E+03  0.7818609E-02  0.9717586E-01
       -2   -1    0    0    0  501  0.00000000000E+00  0.00000000000E+00  0.17478986019E+03  0.17478986021E+03  0.25500000920E-02 0. -1.
        2   -1    0    0  501    0  0.00000000000E+00  0.00000000000E+00 -0.70042724572E+03  0.70042724573E+03  0.25500000920E-02 0.  1.
    10030    2    1    2    0    0  0.00000000000E+00  0.00000000000E+00 -0.52563738553E+03  0.87521710593E+03  0.69979305616E+03 0.  0.
        4    1    3    3  502    0 -0.79227967118E+02 -0.16610181126E+03  0.10936961764E+03  0.21407991181E+03  0.12699999809E+01 0. -1.
       -4    1    3    3    0  502  0.79227967118E+02  0.16610181126E+03 -0.63500700317E+03  0.66113719412E+03  0.12699999809E+01 0.  1.
</event>
<event>
 5   0  0.1282546E-03  0.7004258E+03  0.7818609E-02  0.9716504E-01
        2   -1    0    0  501    0  0.00000000000E+00  0.00000000000E+00  0.20303708797E+04  0.20303708797E+04  0.25500000920E-02 0.  1.
       -2   -1    0    0    0  501  0.00000000000E+00  0.00000000000E+00 -0.60407221110E+02  0.60407221163E+02  0.25500000920E-02 0. -1.
    10030    2    1    2    0    0  0.00000000000E+00  0.00000000000E+00  0.19699636586E+04  0.20907781009E+04  0.70042576402E+03 0.  0.
        5    1    3    3  502    0 -0.70840179171E+02 -0.23864043358E+03  0.24979988539E+03  0.35268918365E+03  0.46999998093E+01 0. -1.
       -5    1    3    3    0  502  0.70840179171E+02  0.23864043358E+03  0.17201637732E+04  0.17380889173E+04  0.46999998093E+01 0.  1.
</event>
<event>
 5   0  0.7572415E-04  0.7007887E+03  0.7818609E-02  0.9715884E-01
       -1   -1    0    0    0  501  0.00000000000E+00  0.00000000000E+00  0.29592504596E+03  0.29592504600E+03  0.50400001928E-02 0. -1.
        1   -1    0    0  501    0  0.00000000000E+00  0.00000000000E+00 -0.41488950737E+03  0.41488950740E+03  0.50400001928E-02 0.  1.
    10030    2    1    2    0    0  0.00000000000E+00  0.00000000000E+00 -0.11896446141E+03  0.71081455340E+03  0.70078868873E+03 0.  0.
        4    1    3    3  502    0  0.28239048483E+03  0.20722928519E+03 -0.50063855313E+02  0.35383098377E+03  0.12699999809E+01 0.  1.
       -4    1    3    3    0  502 -0.28239048483E+03 -0.20722928519E+03 -0.68900606100E+02  0.35698356963E+03  0.12699999809E+01 0. -1.
</event>
<event>
 5   0  0.1224048E-03  0.6999094E+03  0.7818609E-02  0.9717387E-01
        2   -1    0    0  501    0  0.00000000000E+00  0.00000000000E+00  0.95067956191E+03  0.95067956191E+03  0.25500000920E-02 0.  1.
       -2   -1    0    0    0  501  0.00000000000E+00  0.00000000000E+00 -0.12882183580E+03  0.12882183582E+03  0.25500000920E-02 0. -1.
    10030    2    1    2    0    0  0.00000000000E+00  0.00000000000E+00  0.82185772611E+03  0.10795013977E+04  0.69990938395E+03 0.  0.
        3    1    3    3  502    0  0.32223813573E+03 -0.13343755128E+03  0.45523685417E+03  0.57348373979E+03  0.10100000352E+00 0. -1.
       -3    1    3    3    0  502 -0.32223813573E+03  0.13343755128E+03  0.36662087194E+03  0.50601765794E+03  0.10100000352E+00 0.  1.
</event>
<event>
 5   0  0.1265562E-03  0.7006846E+03  0.7818609E-02  0.9716062E-01
        2   -1    0    0  501    0  0.00000000000E+00  0.00000000000E+00  0.49771978741E+03  0.49771978742E+03  0.25500000920E-02 0.  1.
       -2   -1    0    0    0  501  0.00000000000E+00  0.00000000000E+00 -0.24660404897E+03  0.24660404899E+03  0.25500000920E-02 0. -1.
    10030    2    1    2    0    0  0.00000000000E+00  0.00000000000E+00  0.25111573844E+03  0.74432383641E+03  0.70068456480E+03 0.  0.
        1    1    3    3  502    0  0.10113601255E+03  0.31450677861E+03  0.16906859928E+01  0.33037231311E+03  0.50400001928E-02 0. -1.
       -1    1    3    3    0  502 -0.10113601255E+03 -0.31450677861E+03  0.24942505245E+03  0.41395152330E+03  0.50400001928E-02 0.  1.
</event>
<event>
 5   0  0.4936000E-04  0.7002044E+03  0.7818609E-02  0.9716883E-01
        3   -1    0    0  501    0  0.00000000000E+00  0.00000000000E+00  0.24138062349E+03  0.24138064462E+03  0.10100000352E+00 0.  1.
       -3   -1    0    0    0  501  0.00000000000E+00  0.00000000000E+00 -0.50779363351E+03  0.50779364355E+03  0.10100000352E+00 0. -1.
    10030    2    1    2    0    0  0.00000000000E+00  0.00000000000E+00 -0.26641301002E+03  0.74917428817E+03  0.70020441455E+03 0.  0.
        5    1    3    3  502    0 -0.35898873080E+02 -0.97358857659E+02 -0.49092709339E+03  0.50179575255E+03  0.46999998093E+01 0. -1.
       -5    1    3    3    0  502  0.35898873080E+02  0.97358857659E+02  0.22451408337E+03  0.24737853562E+03  0.46999998093E+01 0.  1.
</event>
<event>
 5   0  0.1222679E-03  0.6992624E+03  0.7818609E-02  0.9718494E-01
        2   -1    0    0  501    0  0.00000000000E+00  0.00000000000E+00  0.16026635173E+04  0.16026635173E+04  0.25500000920E-02 0.  1.
       -2   -1    0    0    0  501  0.00000000000E+00  0.00000000000E+00 -0.76274252095E+02  0.76274252138E+02  0.25500000920E-02 0. -1.
    10030    2    1    2    0    0  0.00000000000E+00  0.00000000000E+00  0.15263892652E+04  0.16789377694E+04  0.69926235757E+03 0.  0.
        2    1    3    3  502    0 -0.12836071983E+01 -0.32052314724E+03  0.10985227248E+04  0.11443290228E+04  0.25500000920E-02 0.  1.
       -2    1    3    3    0  502  0.12836071983E+01  0.32052314724E+03  0.42786654044E+03  0.53460874665E+03  0.25500000920E-02 0. -1.
</event>
<event>
 5   0  0.4936000E-04  0.6999479E+03  0.7818609E-02  0.9717321E-01
       -4   -1    0    0    0  501  0.00000000000E+00  0.00000000000E+00  0.41154381863E+03  0.41154577820E+03  0.12699999809E+01 0.  1.
        4   -1    0    0  501    0  0.00000000000E+00  0.00000000000E+00 -0.29761132355E+03  0.29761403328E+03  0.12699999809E+01 0. -1.
    10030    2    1    2    0    0  0.00000000000E+00  0.00000000000E+00  0.11393249508E+03  0.70915981148E+03  0.69994787290E+03 0.  0.
        1    1    3    3  502    0  0.34813433564E+03 -0.35220025703E+02  0.63670763389E+02  0.35565704266E+03  0.50400001928E-02 0.  1.
       -1    1    3    3    0  502 -0.34813433564E+03  0.35220025703E+02  0.50261731694E+02  0.35350276881E+03  0.50400001928E-02 0. -1.
</event>
<event>
 5   0  0.7572415E-04  0.6997799E+03  0.7818609E-02  0.9717609E-01
        1   -1    0    0  501    0  0.00000000000E+00  0.00000000000E+00  0.69277076653E+02  0.69277076836E+02  0.50400001928E-02 0. -1.
       -1   -1    0    0    0  501  0.00000000000E+00  0.00000000000E+00 -0.17671499150E+04  0.17671499150E+04  0.50400001928E-02 0.  1.
    10030    2    1    2    0    0  0.00000000000E+00  0.00000000000E+00 -0.16978728383E+04  0.18364269918E+04  0.69977990909E+03 0.  0.
        4    1    3    3  502    0 -0.74278377125E+02  0.24398875012E+03 -0.22034539926E+03  0.33704820927E+03  0.12699999809E+01 0. -1.
       -4    1    3    3    0  502  0.74278377125E+02 -0.24398875012E+03 -0.14775274391E+04  0.14993787826E+04  0.12699999809E+01 0.  1.
</event>
<event>
 5   0  0.1282546E-03  0.6999619E+03  0.7818609E-02  0.9717297E-01
       -2   -1    0    0    0  501  0.00000000000E+00  0.00000000000E+00  0.36945783230E+03  0.36945783231E+03  0.25500000920E-02 0. -1.
        2   -1    0    0  501    0  0.00000000000E+00  0.00000000000E+00 -0.33153084593E+03  0.33153084594E+03  0.25500000920E-02 0.  1.
    10030    2    1    2    0    0  0.00000000000E+00  0.00000000000E+00  0.37926986366E+02  0.70098867825E+03  0.69996190663E+03 0.  0.
        5    1    3    3  502    0  0.23634820999E+03  0.99492177153E+02  0.25744177719E+03  0.36339720461E+03  0.46999998093E+01 0. -1.
       -5    1    3    3    0  502 -0.23634820999E+03 -0.99492177153E+02 -0.21951479082E+03  0.33759147363E+03  0.46999998093E+01 0.  1.
</event>
<event>
 5   0  0.4936000E-04  0.6998225E+03  0.7818609E-02  0.9717536E-01
        4   -1    0    0  501    0  0.00000000000E+00  0.00000000000E+00  0.52771776860E+03  0.52771929679E+03  0.12699999809E+01 0. -1.
       -4   -1    0    0    0  501  0.00000000000E+00  0.00000000000E+00 -0.23201034009E+03  0.23201381599E+03  0.12699999809E+01 0.  1.
    10030    2    1    2    0    0  0.00000000000E+00  0.00000000000E+00  0.29570742851E+03  0.75973311277E+03  0.69982249133E+03 0.  0.
        4    1    3    3  502    0 -0.12289273588E+03 -0.25533133670E+03 -0.74999093853E+02  0.29312658189E+03  0.12699999809E+01 0.  1.
       -4    1    3    3    0  502  0.12289273588E+03  0.25533133670E+03  0.37070652237E+03  0.46660653088E+03  0.12699999809E+01 0. -1.
</event>
<event>
 5   0  0.7570633E-04  0.7002384E+03  0.7818609E-02  0.9716825E-01
       -1   -1    0    0    0  501  0.00000000000E+00  0.00000000000E+00  0.65855621796E+03  0.65855621797E+03  0.50400001928E-02 0.  1.
        1   -1    0    0  501    0  0.00000000000E+00  0.00000000000E+00 -0.18613971069E+03  0.18613971075E+03  0.50400001928E-02 0. -1.
    10030    2    1    2    0    0  0.00000000000E+00  0.00000000000E+00  0.47241650727E+03  0.84469592873E+03  0.70023842773E+03 0.  0.
        5    1    3    3  502    0 -0.29906240234E+03  0.76786942290E+02  0.37162502204E+02  0.31102684219E+03  0.46999998093E+01 0. -1.
       -5    1    3    3    0  502  0.29906240234E+03 -0.76786942290E+02  0.43525400507E+03  0.53366908653E+03  0.46999998093E+01 0.  1.
</event>
<event>
 5   0  0.7572415E-04  0.7008552E+03  0.7818609E-02  0.9715771E-01
       -1   -1    0    0    0  501  0.00000000000E+00  0.00000000000E+00  0.79528333468E+03  0.79528333470E+03  0.50400001928E-02 0.  1.
        1   -1    0    0  501    0  0.00000000000E+00  0.00000000000E+00 -0.15440974637E+03  0.15440974645E+03  0.50400001928E-02 0. -1.
    10030    2    1    2    0    0  0.00000000000E+00  0.00000000000E+00  0.64087358831E+03  0.94969308115E+03  0.70085518631E+03 0.  0.
        4    1    3    3  502    0  0.42013703492E+02  0.21778250755E+03 -0.47187543394E+02  0.22676562576E+03  0.12699999809E+01 0. -1.
       -4    1    3    3    0  502 -0.42013703492E+02 -0.21778250755E+03  0.68806113171E+03  0.72292745538E+03  0.12699999809E+01 0.  1.
</event>
<event>
 5   0  0.7574241E-04  0.6988008E+03  0.7818609E-02  0.9719285E-01
       -1   -1    0    0    0  501  0.00000000000E+00  0.00000000000E+00  0.18643353166E+03  0.18643353172E+03  0.50400001928E-02 0.  1.
        1   -1    0    0  501    0  0.00000000000E+00  0.00000000000E+00 -0.65482123687E+03  0.65482123689E+03  0.50400001928E-02 0. -1.
    10030    2    1    2    0    0  0.00000000000E+00  0.00000000000E+00 -0.46838770522E+03  0.84125476861E+03  0.69880078944E+03 0.  0.
        3    1    3    3  502    0 -0.13394449049E+03 -0.60428087722E+02 -0.61581385964E+03  0.63310299339E+03  0.10100000352E+00 0. -1.
       -3    1    3    3    0  502  0.13394449049E+03  0.60428087722E+02  0.14742615443E+03  0.20815177522E+03  0.10100000352E+00 0.  1.
</event>
<event>
 5   0  0.4936000E-04  0.7004672E+03  0.7818609E-02  0.9716434E-01
        3   -1    0    0  501    0  0.00000000000E+00  0.00000000000E+00  0.12782488289E+04  0.12782488329E+04  0.10100000352E+00 0. -1.
       -3   -1    0    0    0  501  0.00000000000E+00  0.00000000000E+00 -0.95962177074E+02  0.95962230225E+02  0.10100000352E+00 0.  1.
    10030    2    1    2    0    0  0.00000000000E+00  0.00000000000E+00  0.11822866519E+04  0.13742110632E+04  0.70046721473E+03 0.  0.
        5    1    3    3  502    0  0.21458143349E+03 -0.17301530244E+03  0.10149300206E+04  0.10517055306E+04  0.46999998093E+01 0. -1.
       -5    1    3    3    0  502 -0.21458143349E+03  0.17301530244E+03  0.16735663128E+03  0.32250553252E+03  0.46999998093E+01 0.  1.
</event>
<event>
 5   0  0.4936000E-04  0.7006874E+03  0.7818609E-02  0.9716057E-01
       -3   -1    0    0    0  501  0.00000000000E+00  0.00000000000E+00  0.27228448382E+03  0.27228450255E+03  0.10100000352E+00 0. -1.
        3   -1    0    0  501    0  0.00000000000E+00  0.00000000000E+00 -0.45078108402E+03  0.45078109533E+03  0.10100000352E+00 0.  1.
    10030    2    1    2    0    0  0.00000000000E+00  0.00000000000E+00 -0.17849660020E+03  0.72306559789E+03  0.70068739290E+03 0.  0.
        4    1    3    3  502    0 -0.42559102656E+02  0.13496917571E+03  0.24147299827E+03  0.27989065258E+03  0.12699999809E+01 0. -1.
       -4    1    3    3    0  502  0.42559102656E+02 -0.13496917571E+03 -0.41996959847E+03  0.44317494531E+03  0.12699999809E+01 0.  1.
</event>
<event>
 5   0  0.7570633E-04  0.7000029E+03  0.7818609E-02  0.9717227E-01
        1   -1    0    0  501    0  0.00000000000E+00  0.00000000000E+00  0.66597395839E+03  0.66597395841E+03  0.50400001928E-02 0.  1.
       -1   -1    0    0    0  501  0.00000000000E+00  0.00000000000E+00 -0.18394264582E+03  0.18394264588E+03  0.50400001928E-02 0. -1.
    10030    2    1    2    0    0  0.00000000000E+00  0.00000000000E+00  0.48203131257E+03  0.84991660429E+03  0.70000289139E+03 0.  0.
        5    1    3    3  502    0 -0.15236344142E+03 -0.48636083597E+00 -0.14152052028E+03  0.20800240981E+03  0.46999998093E+01 0. -1.
       -5    1    3    3    0  502  0.15236344142E+03  0.48636083597E+00  0.62355183285E+03  0.64191419448E+03  0.46999998093E+01 0.  1.
</event>
<event>
 5   0  0.7572415E-04  0.6998449E+03  0.7818609E-02  0.9717497E-01
        1   -1    0    0  501    0  0.00000000000E+00  0.00000000000E+00  0.25600477628E+03  0.25600477633E+03  0.50400001928E-02 0.  1.
       -1   -1    0    0    0  501  0.00000000000E+00  0.00000000000E+00 -0.47829467070E+03  0.47829467073E+03  0.50400001928E-02 0. -1.
    10030    2    1    2    0    0  0.00000000000E+00  0.00000000000E+00 -0.22228989442E+03  0.73429944705E+03  0.69984489766E+03 0.  0.
        4    1    3    3  502    0  0.62560298188E+02 -0.23956491412E+03  0.14829118048E+03  0.28861224176E+03  0.12699999809E+01 0.  1.
       -4    1    3    3    0  502 -0.62560298188E+02  0.23956491412E+03 -0.37058107490E+03  0.44568720529E+03  0.12699999809E+01 0. -1.
</event>
<event>
 5   0  0.7570633E-04  0.7005810E+03  0.7818609E-02  0.9716239E-01
        1   -1    0    0  501    0  0.00000000000E+00  0.00000000000E+00  0.81752843577E+03  0.81752843578E+03  0.50400001928E-02 0. -1.
       -1   -1    0    0    0  501  0.00000000000E+00  0.00000000000E+00 -0.15009073164E+03  0.15009073172E+03  0.50400001928E-02 0.  1.
    10030    2    1    2    0    0  0.00000000000E+00  0.00000000000E+00  0.66743770413E+03  0.96761916751E+03  0.70058101918E+03 0.  0.
        5    1    3    3  502    0 -0.14323892183E+03 -0.31961940772E+03  0.33747516638E+03  0.48640058844E+03  0.46999998093E+01 0. -1.
       -5    1    3    3    0  502  0.14323892183E+03  0.31961940772E+03  0.32996253775E+03  0.48121857906E+03  0.46999998093E+01 0.  1.
</event>
<event>
 5   0  0.1265562E-03  0.7005648E+03  0.7818609E-02  0.9716267E-01
        2   -1    0    0  501    0  0.00000000000E+00  0.00000000000E+00  0.24797853403E+03  0.24797853404E+03  0.25500000920E-02 0.  1.
       -2   -1    0    0    0  501  0.00000000000E+00  0.00000000000E+00 -0.49479181510E+03  0.49479181511E+03  0.25500000920E-02 0. -1.
    10030    2    1    2    0    0  0.00000000000E+00  0.00000000000E+00 -0.24681328107E+03  0.74277034915E+03  0.70056476921E+03 0.  0.
        1    1    3    3  502    0  0.74610211742E+02  0.31178794918E+03 -0.27304527543E+03  0.42110821817E+03  0.50400001928E-02 0. -1.
       -1    1    3    3    0  502 -0.74610211742E+02 -0.31178794918E+03  0.26231994355E+02  0.32166213098E+03  0.50400001928E-02 0.  1.
</event>
<event>
 5   0  0.7013526E-04  0.6991256E+03  0.7818609E-02  0.9718729E-01
        1   -1    0    0  501    0  0.00000000000E+00  0.00000000000E+00  0.32803866714E+03  0.32803866718E+03  0.50400001928E-02 0. -1.
       -1   -1    0    0    0  501  0.00000000000E+00  0.00000000000E+00 -0.37249921477E+03  0.37249921480E+03  0.50400001928E-02 0.  1.
    10030    2    1    2    0    0  0.00000000000E+00  0.00000000000E+00 -0.44460547623E+02  0.70053788198E+03  0.69912558514E+03 0.  0.
        1    1    3    3  502    0  0.24291673095E+02  0.63098003189E+02 -0.36588475072E+03  0.37207941924E+03  0.50400001928E-02 0.  1.
       -1    1    3    3    0  502 -0.24291673095E+02 -0.63098003189E+02  0.32142420309E+03  0.32845846274E+03  0.50400001928E-02 0. -1.
</event>
<event>
 5   0  0.1243087E-03  0.6997409E+03  0.7818609E-02  0.9717675E-01
       -2   -1    0    0    0  501  0.00000000000E+00  0.00000000000E+00  0.58245760536E+02  0.58245760591E+02  0.25500000920E-02 0. -1.
        2   -1    0    0  501    0  0.00000000000E+00  0.00000000000E+00 -0.21016006315E+04  0.21016006315E+04  0.25500000920E-02 0.  1.
    10030    2    1    2    0    0  0.00000000000E+00  0.00000000000E+00 -0.20433548710E+04  0.21598463921E+04  0.69974088686E+03 0.  0.
        4    1    3    3  502    0 -0.24471685418E+03 -0.21919955986E+03 -0.13930106720E+04  0.14312285391E+04  0.12699999809E+01 0.  1.
       -4    1    3    3    0  502  0.24471685418E+03  0.21919955986E+03 -0.65034419897E+03  0.72861785305E+03  0.12699999809E+01 0. -1.
</event>
<event>
 5   0  0.1282546E-03  0.6998890E+03  0.7818609E-02  0.9717422E-01
        2   -1    0    0  501    0  0.00000000000E+00  0.00000000000E+00  0.21604227252E+04  0.21604227252E+04  0.25500000920E-02 0.  1.
       -2   -1    0    0    0  501  0.00000000000E+00  0.00000000000E+00 -0.56683881657E+02  0.56683881715E+02  0.25500000920E-02 0. -1.
    10030    2    1    2    0    0  0.00000000000E+00  0.00000000000E+00  0.21037388435E+04  0.22171066069E+04  0.69988898019E+03 0.  0.
        5    1    3    3  502    0 -0.15047862430E+03 -0.23981401612E+03  0.40046919627E+03  0.49046125827E+03  0.46999998093E+01 0. -1.
       -5    1    3    3    0  502  0.15047862430E+03  0.23981401612E+03  0.17032696472E+04  0.17266453486E+04  0.46999998093E+01 0.  1.
</event>
<event>
 5   0  0.4936000E-04  0.7001500E+03  0.7818609E-02  0.9716976E-01
       -4   -1    0    0    0  501  0.00000000000E+00  0.00000000000E+00  0.83203604467E+03  0.83203701392E+03  0.12699999809E+01 0.  1.
        4   -1    0    0  501    0  0.00000000000E+00  0.00000000000E+00 -0.14728849698E+03  0.14729397219E+03  0.12699999809E+01 0. -1.
    10030    2    1    2    0    0  0.00000000000E+00  0.00000000000E+00  0.68474754769E+03  0.97933098610E+03  0.70014996699E+03 0.  0.
        5    1    3    3  502    0 -0.26429713378E+03 -0.21768274449E+03  0.24062385848E+03  0.41852202265E+03  0.46999998093E+01 0. -1.
       -5    1    3    3    0  502  0.26429713378E+03  0.21768274449E+03  0.44412368921E+03  0.56080896346E+03  0.46999998093E+01 0.  1.
</event>
<event>
 5   0  0.7013526E-04  0.6995077E+03  0.7818609E-02  0.9718074E-01
       -1   -1    0    0    0  501  0.00000000000E+00  0.00000000000E+00  0.98027064738E+02  0.98027064868E+02  0.50400001928E-02 0.  1.
        1   -1    0    0  501    0  0.00000000000E+00  0.00000000000E+00 -0.12478978146E+04  0.12478978146E+04  0.50400001928E-02 0. -1.
    10030    2    1    2    0    0  0.00000000000E+00  0.00000000000E+00 -0.11498707499E+04  0.13459248795E+04  0.69950771248E+03 0.  0.
        1    1    3    3  502    0 -0.32864487668E+03 -0.23671384492E+02 -0.80063823668E+03  0.86578829714E+03  0.50400001928E-02 0. -1.
       -1    1    3    3    0  502  0.32864487668E+03  0.23671384492E+02 -0.34923251319E+03  0.48013658235E+03  0.50400001928E-02 0.  1.
</event>
<event>
 5   0  0.1222679E-03  0.6997484E+03  0.7818609E-02  0.9717663E-01
        2   -1    0    0  501    0  0.00000000000E+00  0.00000000000E+00  0.84225224199E+03  0.84225224200E+03  0.25500000920E-02 0. -1.
       -2   -1    0    0    0  501  0.00000000000E+00  0.00000000000E+00 -0.14533884343E+03  0.14533884346E+03  0.25500000920E-02 0.  1.
    10030    2    1    2    0    0  0.00000000000E+00  0.00000000000E+00  0.69691339856E+03  0.98759108545E+03  0.69974843120E+03 0.  0.
        2    1    3    3  502    0 -0.43751821833E+02 -0.25117314379E+03  0.10292029636E+02  0.25516288123E+03  0.25500000920E-02 0.  1.
       -2    1    3    3    0  502  0.43751821833E+02  0.25117314379E+03  0.68662136893E+03  0.73242820423E+03  0.25500000920E-02 0. -1.
</event>
<event>
 5   0  0.7574241E-04  0.7000831E+03  0.7818609E-02  0.9717090E-01
        1   -1    0    0  501    0  0.00000000000E+00  0.00000000000E+00  0.71985733132E+03  0.71985733134E+03  0.50400001928E-02 0.  1.
       -1   -1    0    0    0  501  0.00000000000E+00  0.00000000000E+00 -0.17021302455E+03  0.17021302462E+03  0.50400001928E-02 0. -1.
    10030    2    1    2    0    0  0.00000000000E+00  0.00000000000E+00  0.54964430677E+03  0.89007035597E+03  0.70008311978E+03 0.  0.
        3    1    3    3  502    0 -0.83219452307E+02 -0.15153207670E+03 -0.11214832876E+03  0.20606966141E+03  0.10100000352E+00 0. -1.
       -3    1    3    3    0  502  0.83219452307E+02  0.15153207670E+03  0.66179263553E+03  0.68400069456E+03  0.10100000352E+00 0.  1.
</event>
<event>
 5   0  0.7574241E-04  0.6998676E+03  0.7818609E-02  0.9717459E-01
        1   -1    0    0  501    0  0.00000000000E+00  0.00000000000E+00  0.24743925211E+03  0.24743925216E+03  0.50400001928E-02 0. -1.
       -1   -1    0    0    0  501  0.00000000000E+00  0.00000000000E+00 -0.49488379099E+03  0.49488379102E+03  0.50400001928E-02 0.  1.
    10030    2    1    2    0    0  0.00000000000E+00  0.00000000000E+00 -0.24744453888E+03  0.74232304318E+03  0.69986763078E+03 0.  0.
        3    1    3    3  502    0  0.22882738482E+03  0.86329408510E+01 -0.40438147808E+03  0.46471592368E+03  0.10100000352E+00 0.  1.
       -3    1    3    3    0  502 -0.22882738482E+03 -0.86329408510E+01  0.15693693919E+03  0.27760711950E+03  0.10100000352E+00 0. -1.
</event>
<event>
 5   0  0.1222679E-03  0.7000167E+03  0.7818609E-02  0.9717204E-01
       -2   -1    0    0    0  501  0.00000000000E+00  0.00000000000E+00  0.57860859703E+03  0.57860859704E+03  0.25500000920E-02 0. -1.
        2   -1    0    0  501    0  0.00000000000E+00  0.00000000000E+00 -0.21172486803E+03  0.21172486805E+03  0.25500000920E-02 0.  1.
    10030    2    1    2    0    0  0.00000000000E+00  0.00000000000E+00  0.36688372900E+03  0.79033346508E+03  0.70001665368E+03 0.  0.
        2    1    3    3  502    0  0.51640736528E+02  0.94847113074E+02  0.55932800102E+03  0.56965827761E+03  0.25500000920E-02 0. -1.
       -2    1    3    3    0  502 -0.51640736528E+02 -0.94847113074E+02 -0.19244427201E+03  0.22067518747E+03  0.25500000920E-02 0.  1.
</event>
<event>
 5   0  0.7574241E-04  0.6998044E+03  0.7818609E-02  0.9717567E-01
       -1   -1    0    0    0  501  0.00000000000E+00  0.00000000000E+00  0.31534725573E+03  0.31534725577E+03  0.50400001928E-02 0.  1.
        1   -1    0    0  501    0  0.00000000000E+00  0.00000000000E+00 -0.38824353172E+03  0.38824353175E+03  0.50400001928E-02 0. -1.
    10030    2    1    2    0    0  0.00000000000E+00  0.00000000000E+00 -0.72896275986E+02  0.70359078752E+03  0.69980435068E+03 0.  0.
        3    1    3    3  502    0 -0.19928412676E+02 -0.70967848052E+02 -0.38034849217E+03  0.38742555773E+03  0.10100000352E+00 0. -1.
       -3    1    3    3    0  502  0.19928412676E+02  0.70967848052E+02  0.30745221618E+03  0.31616522978E+03  0.10100000352E+00 0.  1.
</event>
<event>
 5   0  0.1224048E-03  0.7006332E+03  0.7818609E-02  0.9716150E-01
       -2   -1    0    0    0  501  0.00000000000E+00  0.00000000000E+00  0.41563721833E+03  0.41563721834E+03  0.25500000920E-02 0. -1.
        2   -1    0    0  501    0  0.00000000000E+00  0.00000000000E+00 -0.29526160734E+03  0.29526160735E+03  0.25500000920E-02 0.  1.
    10030    2    1    2    0    0  0.00000000000E+00  0.00000000000E+00  0.12037561099E+03  0.71089882568E+03  0.70063317980E+03 0.  0.
        3    1    3    3  502    0 -0.21781630775E+03 -0.18157237235E+03 -0.14851806775E+03  0.32010950778E+03  0.10100000352E+00 0.  1.
       -3    1    3    3    0  502  0.21781630775E+03  0.18157237235E+03  0.26889367874E+03  0.39078931790E+03  0.10100000352E+00 0. -1.
</event>
<event>
 5   0  0.1224048E-03  0.7024268E+03  0.7818609E-02  0.9713091E-01
        2   -1    0    0  501    0  0.00000000000E+00  0.00000000000E+00  0.49855168038E+03  0.49855168039E+03  0.25500000920E-02 0. -1.
       -2   -1    0    0    0  501  0.00000000000E+00  0.00000000000E+00 -0.24741839935E+03  0.24741839936E+03  0.25500000920E-02 0.  1.
    10030    2    1    2    0    0  0.00000000000E+00  0.00000000000E+00  0.25113328103E+03  0.74597007975E+03  0.70242681828E+03 0.  0.
        3    1    3    3  502    0 -0.20913162977E+03  0.21289974099E+03  0.32221694931E+03  0.43918801316E+03  0.10100000352E+00 0. -1.
       -3    1    3    3    0  502  0.20913162977E+03 -0.21289974099E+03 -0.71083668273E+02  0.30678206659E+03  0.10100000352E+00 0.  1.
</event>
<event>
 5   0  0.1222679E-03  0.7011745E+03  0.7818609E-02  0.9715226E-01
       -2   -1    0    0    0  501  0.00000000000E+00  0.00000000000E+00  0.26285649148E+03  0.26285649150E+03  0.25500000920E-02 0. -1.
        2   -1    0    0  501    0  0.00000000000E+00  0.00000000000E+00 -0.46759892561E+03  0.46759892562E+03  0.25500000920E-02 0.  1.
    10030    2    1    2    0    0  0.00000000000E+00  0.00000000000E+00 -0.20474243413E+03  0.73045541712E+03  0.70117448047E+03 0.  0.
        2    1    3    3  502    0  0.11532623931E+03 -0.29400389053E+03  0.56212499833E+02  0.32077760873E+03  0.25500000920E-02 0. -1.
       -2    1    3    3    0  502 -0.11532623931E+03  0.29400389053E+03 -0.26095493396E+03  0.40967780839E+03  0.25500000920E-02 0.  1.
</event>
<event>
 5   0  0.7572415E-04  0.6994615E+03  0.7818609E-02  0.9718154E-01
        1   -1    0    0  501    0  0.00000000000E+00  0.00000000000E+00  0.24509178005E+04  0.24509178005E+04  0.50400001928E-02 0. -1.
       -1   -1    0    0    0  501  0.00000000000E+00  0.00000000000E+00 -0.49904402602E+02  0.49904402857E+02  0.50400001928E-02 0.  1.
    10030    2    1    2    0    0  0.00000000000E+00  0.00000000000E+00  0.24010133979E+04  0.25008222034E+04  0.69946147567E+03 0.  0.
        4    1    3    3  502    0 -0.13272554538E+03 -0.98106980237E+02  0.23029044304E+04  0.23088117027E+04  0.12699999809E+01 0. -1.
       -4    1    3    3    0  502  0.13272554538E+03  0.98106980237E+02  0.98108967482E+02  0.19201050067E+03  0.12699999809E+01 0.  1.
</event>
<event>
 5   0  0.1265562E-03  0.6996314E+03  0.7818609E-02  0.9717863E-01
       -2   -1    0    0    0  501  0.00000000000E+00  0.00000000000E+00  0.16731720162E+03  0.16731720164E+03  0.25500000920E-02 0.  1.
        2   -1    0    0  501    0  0.00000000000E+00  0.00000000000E+00 -0.73137154712E+03  0.73137154713E+03  0.25500000920E-02 0. -1.
    10030    2    1    2    0    0  0.00000000000E+00  0.00000000000E+00 -0.56405434551E+03  0.89868874876E+03  0.69963144760E+03 0.  0.
        1    1    3    3  502    0 -0.52992633835E+00  0.32664451897E+03 -0.44284401797E+03  0.55027969876E+03  0.50400001928E-02 0. -1.
       -1    1    3    3    0  502  0.52992633835E+00 -0.32664451897E+03 -0.12121032753E+03  0.34840905000E+03  0.50400001928E-02 0.  1.
</event>
<event>
 5   0  0.1222679E-03  0.7002177E+03  0.7818609E-02  0.9716860E-01
        2   -1    0    0  501    0  0.00000000000E+00  0.00000000000E+00  0.12568367908E+03  0.12568367910E+03  0.25500000920E-02 0.  1.
       -2   -1    0    0    0  501  0.00000000000E+00  0.00000000000E+00 -0.97527553549E+03  0.97527553550E+03  0.25500000920E-02 0. -1.
    10030    2    1    2    0    0  0.00000000000E+00  0.00000000000E+00 -0.84959185642E+03  0.11009592146E+04  0.70021773023E+03 0.  0.
        2    1    3    3  502    0 -0.13152331157E+03  0.31336013324E+03 -0.55712485977E+03  0.65259563588E+03  0.25500000920E-02 0. -1.
       -2    1    3    3    0  502  0.13152331157E+03 -0.31336013324E+03 -0.29246699665E+03  0.44836357872E+03  0.25500000920E-02 0.  1.
</event>
<event>
 5   0  0.1265562E-03  0.7001305E+03  0.7818609E-02  0.9717009E-01
       -2   -1    0    0    0  501  0.00000000000E+00  0.00000000000E+00  0.18376656180E+03  0.18376656182E+03  0.25500000920E-02 0. -1.
        2   -1    0    0  501    0  0.00000000000E+00  0.00000000000E+00 -0.66685516703E+03  0.66685516703E+03  0.25500000920E-02 0.  1.
    10030    2    1    2    0    0  0.00000000000E+00  0.00000000000E+00 -0.48308860523E+03  0.85062172886E+03  0.70013050576E+03 0.  0.
        1    1    3    3  502    0 -0.32691771731E+03  0.46912242557E+02 -0.10053852813E+03  0.34523028265E+03  0.50400001928E-02 0.  1.
       -1    1    3    3    0  502  0.32691771731E+03 -0.46912242557E+02 -0.38255007710E+03  0.50539144621E+03  0.50400001928E-02 0. -1.
</event>
<event>
 5   0  0.1224048E-03  0.6979081E+03  0.7818609E-02  0.9720816E-01
        2   -1    0    0  501    0  0.00000000000E+00  0.00000000000E+00  0.19169325008E+04  0.19169325008E+04  0.25500000920E-02 0.  1.
       -2   -1    0    0    0  501  0.00000000000E+00  0.00000000000E+00 -0.63522801941E+02  0.63522801992E+02  0.25500000920E-02 0. -1.
    10030    2    1    2    0    0  0.00000000000E+00  0.00000000000E+00  0.18534096988E+04  0.19804553028E+04  0.69790808459E+03 0.  0.
        3    1    3    3  502    0  0.13260699479E+03 -0.90178906101E+01  0.18422892579E+04  0.18470775991E+04  0.10100000352E+00 0.  1.
       -3    1    3    3    0  502 -0.13260699479E+03  0.90178906101E+01  0.11120440982E+02  0.13337770364E+03  0.10100000352E+00 0. -1.
</event>
<event>
 5   0  0.4936000E-04  0.7000776E+03  0.7818609E-02  0.9717099E-01
       -4   -1    0    0    0  501  0.00000000000E+00  0.00000000000E+00  0.98316744798E+03  0.98316826824E+03  0.12699999809E+01 0. -1.
        4   -1    0    0  501    0  0.00000000000E+00  0.00000000000E+00 -0.12462081713E+03  0.12462728819E+03  0.12699999809E+01 0.  1.
    10030    2    1    2    0    0  0.00000000000E+00  0.00000000000E+00  0.85854663085E+03  0.11077955564E+04  0.70007762249E+03 0.  0.
        5    1    3    3  502    0  0.24968994651E+03  0.17740818552E+03  0.69728333890E+03  0.76160677411E+03  0.46999998093E+01 0. -1.
       -5    1    3    3    0  502 -0.24968994651E+03 -0.17740818552E+03  0.16126329196E+03  0.34618878232E+03  0.46999998093E+01 0.  1.
</event>
<event>
 5   0  0.1265562E-03  0.7000266E+03  0.7818609E-02  0.9717187E-01
        2   -1    0    0  501    0  0.00000000000E+00  0.00000000000E+00  0.17536800070E+03  0.17536800072E+03  0.25500000920E-02 0. -1.
       -2   -1    0    0    0  501  0.00000000000E+00  0.00000000000E+00 -0.69858414670E+03  0.69858414670E+03  0.25500000920E-02 0.  1.
    10030    2    1    2    0    0  0.00000000000E+00  0.00000000000E+00 -0.52321614599E+03  0.87395214742E+03  0.70002658561E+03 0.  0.
        1    1    3    3  502    0  0.12715115778E+03 -0.72440356253E+02 -0.65855863214E+03  0.67462174152E+03  0.50400001928E-02 0.  1.
       -1    1    3    3    0  502 -0.12715115778E+03  0.72440356253E+02  0.13534248614E+03  0.19933040591E+03  0.50400001928E-02 0. -1.
</event>
<event>
 5   0  0.1243087E-03  0.6978899E+03  0.7818609E-02  0.9720848E-01
        2   -1    0    0  501    0  0.00000000000E+00  0.00000000000E+00  0.26578149345E+03  0.26578149346E+03  0.25500000920E-02 0. -1.
       -2   -1    0    0    0  501  0.00000000000E+00  0.00000000000E+00 -0.45813039887E+03  0.45813039888E+03  0.25500000920E-02 0.  1.
    10030    2    1    2    0    0  0.00000000000E+00  0.00000000000E+00 -0.19234890542E+03  0.72391189234E+03  0.69788990998E+03 0.  0.
        4    1    3    3  502    0 -0.25286570741E+03 -0.11759422678E+03  0.12138761610E+03  0.30414804684E+03  0.12699999809E+01 0. -1.
       -4    1    3    3    0  502  0.25286570741E+03  0.11759422678E+03 -0.31373652152E+03  0.41976384550E+03  0.12699999809E+01 0.  1.
</event>
<event>
 5   0  0.7013526E-04  0.7008042E+03  0.7818609E-02  0.9715858E-01
       -1   -1    0    0    0  501  0.00000000000E+00  0.00000000000E+00  0.19620818388E+03  0.19620818394E+03  0.50400001928E-02 0. -1.
        1   -1    0    0  501    0  0.00000000000E+00  0.00000000000E+00 -0.62577230162E+03  0.62577230164E+03  0.50400001928E-02 0.  1.
    10030    2    1    2    0    0  0.00000000000E+00  0.00000000000E+00 -0.42956411774E+03  0.82198048559E+03  0.70080424330E+03 0.  0.
        1    1    3    3  502    0 -0.80189942347E+02 -0.57463152682E+02 -0.60914722098E+03  0.61708409283E+03  0.50400001928E-02 0.  1.
       -1    1    3    3    0  502  0.80189942347E+02  0.57463152682E+02  0.17958310324E+03  0.20489639276E+03  0.50400001928E-02 0. -1.
</event>
<event>
 5   0  0.7459843E-04  0.7003561E+03  0.7818609E-02  0.9716623E-01
       -1   -1    0    0    0  501  0.00000000000E+00  0.00000000000E+00  0.98880426518E+02  0.98880426647E+02  0.50400001928E-02 0. -1.
        1   -1    0    0  501    0  0.00000000000E+00  0.00000000000E+00 -0.12401307931E+04  0.12401307931E+04  0.50400001928E-02 0.  1.
    10030    2    1    2    0    0  0.00000000000E+00  0.00000000000E+00 -0.11412503666E+04  0.13390112198E+04  0.70035608615E+03 0.  0.
        2    1    3    3  502    0  0.79000893052E+02 -0.17320730650E+03 -0.11325507874E+04  0.11484394621E+04  0.25500000920E-02 0.  1.
       -2    1    3    3    0  502 -0.79000893052E+02  0.17320730650E+03 -0.86995792012E+01  0.19057175765E+03  0.25500000920E-02 0. -1.
</event>
<event>
 5   0  0.7570633E-04  0.6998206E+03  0.7818609E-02  0.9717539E-01
        1   -1    0    0  501    0  0.00000000000E+00  0.00000000000E+00  0.40965067433E+03  0.40965067436E+03  0.50400001928E-02 0.  1.
       -1   -1    0    0    0  501  0.00000000000E+00  0.00000000000E+00 -0.29888197533E+03  0.29888197537E+03  0.50400001928E-02 0. -1.
    10030    2    1    2    0    0  0.00000000000E+00  0.00000000000E+00  0.11076869900E+03  0.70853264973E+03  0.69982055632E+03 0.  0.
        5    1    3    3  502    0 -0.62597534838E+02 -0.39377821100E+02  0.40161534837E+03  0.40839446887E+03  0.46999998093E+01 0.  1.
       -5    1    3    3    0  502  0.62597534838E+02  0.39377821100E+02 -0.29084664937E+03  0.30013818086E+03  0.46999998093E+01 0. -1.
</event>
<event>
 5   0  0.7570633E-04  0.6964593E+03  0.7818609E-02  0.9723306E-01
        1   -1    0    0  501    0  0.00000000000E+00  0.00000000000E+00  0.16617052536E+03  0.16617052543E+03  0.50400001928E-02 0. -1.
       -1   -1    0    0    0  501  0.00000000000E+00  0.00000000000E+00 -0.72975575909E+03  0.72975575911E+03  0.50400001928E-02 0.  1.
    10030    2    1    2    0    0  0.00000000000E+00  0.00000000000E+00 -0.56358523374E+03  0.89592628454E+03  0.69645932519E+03 0.  0.
        5    1    3    3  502    0 -0.22847346845E+03 -0.55336705560E+02  0.48638648038E+02  0.24010432076E+03  0.46999998093E+01 0. -1.
       -5    1    3    3    0  502  0.22847346845E+03  0.55336705560E+02 -0.61222388177E+03  0.65582196378E+03  0.46999998093E+01 0.  1.
</event>
<event>
 5   0  0.7013526E-04  0.7000042E+03  0.7818609E-02  0.9717225E-01
        1   -1    0    0  501    0  0.00000000000E+00  0.00000000000E+00  0.13204101353E+04  0.13204101353E+04  0.50400001928E-02 0. -1.
       -1   -1    0    0    0  501  0.00000000000E+00  0.00000000000E+00 -0.92775316989E+02  0.92775317126E+02  0.50400001928E-02 0.  1.
    10030    2    1    2    0    0  0.00000000000E+00  0.00000000000E+00  0.12276348183E+04  0.14131854524E+04  0.70000419701E+03 0.  0.
        1    1    3    3  502    0 -0.25309748979E+03  0.46996432832E+02  0.10925574997E+04  0.11224744515E+04  0.50400001928E-02 0. -1.
       -1    1    3    3    0  502  0.25309748979E+03 -0.46996432832E+02  0.13507731856E+03  0.29071100091E+03  0.50400001928E-02 0.  1.
</event>
<event>
 5   0  0.1243087E-03  0.6989982E+03  0.7818609E-02  0.9718947E-01
        2   -1    0    0  501    0  0.00000000000E+00  0.00000000000E+00  0.10545878161E+04  0.10545878161E+04  0.25500000920E-02 0. -1.
       -2   -1    0    0    0  501  0.00000000000E+00  0.00000000000E+00 -0.11582688276E+03  0.11582688279E+03  0.25500000920E-02 0.  1.
    10030    2    1    2    0    0  0.00000000000E+00  0.00000000000E+00  0.93876093338E+03  0.11704146989E+04  0.69899819558E+03 0.  0.
        4    1    3    3  502    0  0.10470902033E+03 -0.30382233055E+03  0.23933222654E+03  0.40069129644E+03  0.12699999809E+01 0. -1.
       -4    1    3    3    0  502 -0.10470902033E+03  0.30382233055E+03  0.69942870684E+03  0.76972340249E+03  0.12699999809E+01 0.  1.
</event>
<event>
 5   0  0.7013526E-04  0.7008186E+03  0.7818609E-02  0.9715833E-01
       -1   -1    0    0    0  501  0.00000000000E+00  0.00000000000E+00  0.65028337874E+03  0.65028337876E+03  0.50400001928E-02 0.  1.
        1   -1    0    0  501    0  0.00000000000E+00  0.00000000000E+00 -0.18882024210E+03  0.18882024217E+03  0.50400001928E-02 0. -1.
    10030    2    1    2    0    0  0.00000000000E+00  0.00000000000E+00  0.46146313664E+03  0.83910362093E+03  0.70081856438E+03 0.  0.
        1    1    3    3  502    0 -0.99976419719E+02 -0.18950006319E+02  0.63220379080E+03  0.64034055030E+03  0.50400001928E-02 0.  1.
       -1    1    3    3    0  502  0.99976419719E+02  0.18950006319E+02 -0.17074065415E+03  0.19876307063E+03  0.50400001928E-02 0. -1.
</event>
<event>
 5   0  0.1282546E-03  0.7000605E+03  0.7818609E-02  0.9717129E-01
       -2   -1    0    0    0  501  0.00000000000E+00  0.00000000000E+00  0.16374933270E+03  0.16374933272E+03  0.25500000920E-02 0.  1.
        2   -1    0    0  501    0  0.00000000000E+00  0.00000000000E+00 -0.74822400127E+03  0.74822400127E+03  0.25500000920E-02 0. -1.
    10030    2    1    2    0    0  0.00000000000E+00  0.00000000000E+00 -0.58447466857E+03  0.91197333399E+03  0.70006051432E+03 0.  0.
        5    1    3    3  502    0 -0.13664261095E+03 -0.22015046910E+03 -0.59875189073E+03  0.65242880748E+03  0.46999998093E+01 0. -1.
       -5    1    3    3    0  502  0.13664261095E+03  0.22015046910E+03  0.14277222159E+02  0.25954452651E+03  0.46999998093E+01 0.  1.
</event>
<event>
 5   0  0.1282546E-03  0.7000186E+03  0.7818609E-02  0.9717200E-01
       -2   -1    0    0    0  501  0.00000000000E+00  0.00000000000E+00  0.25381078877E+03  0.25381078879E+03  0.25500000920E-02 0.  1.
        2   -1    0    0  501    0  0.00000000000E+00  0.00000000000E+00 -0.48266868658E+03  0.48266868659E+03  0.25500000920E-02 0. -1.
    10030    2    1    2    0    0  0.00000000000E+00  0.00000000000E+00 -0.22885789781E+03  0.73647947538E+03  0.70001862851E+03 0.  0.
        5    1    3    3  502    0  0.12772240799E+03  0.18145059665E+03 -0.39916749353E+03  0.45672104223E+03  0.46999998093E+01 0. -1.
       -5    1    3    3    0  502 -0.12772240799E+03 -0.18145059665E+03  0.17030959572E+03  0.27975843315E+03  0.46999998093E+01 0.  1.
</event>
<event>
 5   0  0.1282546E-03  0.6999641E+03  0.7818609E-02  0.9717294E-01
       -2   -1    0    0    0  501  0.00000000000E+00  0.00000000000E+00  0.99362774221E+02  0.99362774254E+02  0.25500000920E-02 0. -1.
        2   -1    0    0  501    0  0.00000000000E+00  0.00000000000E+00 -0.12327296500E+04  0.12327296500E+04  0.25500000920E-02 0.  1.
    10030    2    1    2    0    0  0.00000000000E+00  0.00000000000E+00 -0.11333668758E+04  0.13320924242E+04  0.69996410740E+03 0.  0.
        5    1    3    3  502    0  0.14391448269E+02  0.20026308475E+03 -0.11121524943E+04  0.11301405565E+04  0.46999998093E+01 0.  1.
       -5    1    3    3    0  502 -0.14391448269E+02 -0.20026308475E+03 -0.21214381458E+02  0.20195186772E+03  0.46999998093E+01 0. -1.
</event>
<event>
 5   0  0.1222679E-03  0.7001050E+03  0.7818609E-02  0.9717053E-01
        2   -1    0    0  501    0  0.00000000000E+00  0.00000000000E+00  0.29437505946E+03  0.29437505948E+03  0.25500000920E-02 0. -1.
       -2   -1    0    0    0  501  0.00000000000E+00  0.00000000000E+00 -0.41626070373E+03  0.41626070374E+03  0.25500000920E-02 0.  1.
    10030    2    1    2    0    0  0.00000000000E+00  0.00000000000E+00 -0.12188564426E+03  0.71063576321E+03  0.70010504760E+03 0.  0.
        2    1    3    3  502    0  0.34856762627E+03  0.22426129164E+02 -0.84408689098E+02  0.35934266119E+03  0.25500000920E-02 0.  1.
       -2    1    3    3    0  502 -0.34856762627E+03 -0.22426129164E+02 -0.37476955167E+02  0.35129310202E+03  0.25500000920E-02 0. -1.
</event>
<event>
 5   0  0.7572415E-04  0.6999194E+03  0.7818609E-02  0.9717370E-01
        1   -1    0    0  501    0  0.00000000000E+00  0.00000000000E+00  0.15161876553E+04  0.15161876553E+04  0.50400001928E-02 0. -1.
       -1   -1    0    0    0  501  0.00000000000E+00  0.00000000000E+00 -0.80776150357E+02  0.80776150515E+02  0.50400001928E-02 0.  1.
    10030    2    1    2    0    0  0.00000000000E+00  0.00000000000E+00  0.14354115049E+04  0.15969638058E+04  0.69991943007E+03 0.  0.
        4    1    3    3  502    0  0.33115362801E+03 -0.56799285141E+02  0.94104207382E+03  0.99922504059E+03  0.12699999809E+01 0. -1.
       -4    1    3    3    0  502 -0.33115362801E+03  0.56799285141E+02  0.49436943111E+03  0.59773876522E+03  0.12699999809E+01 0.  1.
</event>
<event>
 5   0  0.1265562E-03  0.6998331E+03  0.7818609E-02  0.9717518E-01
       -2   -1    0    0    0  501  0.00000000000E+00  0.00000000000E+00  0.42352809438E+03  0.42352809439E+03  0.25500000920E-02 0.  1.
        2   -1    0    0  501    0  0.00000000000E+00  0.00000000000E+00 -0.28909912033E+03  0.28909912034E+03  0.25500000920E-02 0. -1.
    10030    2    1    2    0    0  0.00000000000E+00  0.00000000000E+00  0.13442897406E+03  0.71262721473E+03  0.69983312161E+03 0.  0.
        1    1    3    3  502    0  0.15038160336E+03 -0.31117146773E+03  0.11447500146E+02  0.34579380307E+03  0.50400001928E-02 0. -1.
       -1    1    3    3    0  502 -0.15038160336E+03  0.31117146773E+03  0.12298147391E+03  0.36683341166E+03  0.50400001928E-02 0.  1.
</event>
<event>
 5   0  0.1282546E-03  0.7008578E+03  0.7818609E-02  0.9715766E-01
        2   -1    0    0  501    0  0.00000000000E+00  0.00000000000E+00  0.11122951788E+04  0.11122951788E+04  0.25500000920E-02 0.  1.
       -2   -1    0    0    0  501  0.00000000000E+00  0.00000000000E+00 -0.11040272029E+03  0.11040272032E+03  0.25500000920E-02 0. -1.
    10030    2    1    2    0    0  0.00000000000E+00  0.00000000000E+00  0.10018924585E+04  0.12226978992E+04  0.70085779878E+03 0.  0.
        5    1    3    3  502    0  0.27572533101E+03 -0.85319007686E+02  0.15433091077E+03  0.32732844552E+03  0.46999998093E+01 0. -1.
       -5    1    3    3    0  502 -0.27572533101E+03  0.85319007686E+02  0.84756154778E+03  0.89536945363E+03  0.46999998093E+01 0.  1.
</event>
<event>
 5   0  0.1243087E-03  0.7001422E+03  0.7818609E-02  0.9716989E-01
        2   -1    0    0  501    0  0.00000000000E+00  0.00000000000E+00  0.24543891115E+03  0.24543891116E+03  0.25500000920E-02 0. -1.
       -2   -1    0    0    0  501  0.00000000000E+00  0.00000000000E+00 -0.49930862676E+03  0.49930862676E+03  0.25500000920E-02 0.  1.
    10030    2    1    2    0    0  0.00000000000E+00  0.00000000000E+00 -0.25386971561E+03  0.74474753792E+03  0.70014217323E+03 0.  0.
        4    1    3    3  502    0 -0.32798055590E+03 -0.49020543855E+02 -0.76575754146E+01  0.33171450093E+03  0.12699999809E+01 0.  1.
       -4    1    3    3    0  502  0.32798055590E+03  0.49020543855E+02 -0.24621214020E+03  0.41303303699E+03  0.12699999809E+01 0. -1.
</event>
<event>
 5   0  0.1224048E-03  0.7000863E+03  0.7818609E-02  0.9717085E-01
        2   -1    0    0  501    0  0.00000000000E+00  0.00000000000E+00  0.23916191524E+03  0.23916191525E+03  0.25500000920E-02 0. -1.
       -2   -1    0    0    0  501  0.00000000000E+00  0.00000000000E+00 -0.51233161821E+03  0.51233161821E+03  0.25500000920E-02 0.  1.
    10030    2    1    2    0    0  0.00000000000E+00  0.00000000000E+00 -0.27316970297E+03  0.75149353346E+03  0.70008631198E+03 0.  0.
        3    1    3    3  502    0  0.24018078984E+03 -0.23116387754E+03 -0.21940481004E+02  0.33407326292E+03  0.10100000352E+00 0. -1.
       -3    1    3    3    0  502 -0.24018078984E+03  0.23116387754E+03 -0.25122922197E+03  0.41742027054E+03  0.10100000352E+00 0.  1.
</event>
<event>
 5   0  0.1282546E-03  0.6996792E+03  0.7818609E-02  0.9717781E-01
        2   -1    0    0  501    0  0.00000000000E+00  0.00000000000E+00  0.29222861436E+03  0.29222861437E+03  0.25500000920E-02 0.  1.
       -2   -1    0    0    0  501  0.00000000000E+00  0.00000000000E+00 -0.41880816001E+03  0.41880816002E+03  0.25500000920E-02 0. -1.
    10030    2    1    2    0    0  0.00000000000E+00  0.00000000000E+00 -0.12657954565E+03  0.71103677439E+03  0.69967915015E+03 0.  0.
        5    1    3    3  502    0  0.18092692033E+03  0.75999384438E+02  0.23098842079E+03  0.30313066073E+03  0.46999998093E+01 0.  1.
       -5    1    3    3    0  502 -0.18092692033E+03 -0.75999384438E+02 -0.35756796645E+03  0.40790611366E+03  0.46999998093E+01 0. -1.
</event>
<event>
 5   0  0.7572415E-04  0.7015002E+03  0.7818609E-02  0.9714670E-01
        1   -1    0    0  501    0  0.00000000000E+00  0.00000000000E+00  0.47369184273E+03  0.47369184275E+03  0.50400001928E-02 0. -1.
       -1   -1    0    0    0  501  0.00000000000E+00  0.00000000000E+00 -0.25971661992E+03  0.25971661997E+03  0.50400001928E-02 0.  1.
    10030    2    1    2    0    0  0.00000000000E+00  0.00000000000E+00  0.21397522281E+03  0.73340846272E+03  0.70150023323E+03 0.  0.
        4    1    3    3  502    0  0.16752819755E+03  0.27883716693E+03 -0.30159108622E+02  0.32669105799E+03  0.12699999809E+01 0.  1.
       -4    1    3    3    0  502 -0.16752819755E+03 -0.27883716693E+03  0.24413433143E+03  0.40671740474E+03  0.12699999809E+01 0. -1.
</event>
<event>
 5   0  0.7574241E-04  0.7003290E+03  0.7818609E-02  0.9716670E-01
       -1   -1    0    0    0  501  0.00000000000E+00  0.00000000000E+00  0.69267069285E+03  0.69267069287E+03  0.50400001928E-02 0.  1.
        1   -1    0    0  501    0  0.00000000000E+00  0.00000000000E+00 -0.17701801170E+03  0.17701801177E+03  0.50400001928E-02 0. -1.
    10030    2    1    2    0    0  0.00000000000E+00  0.00000000000E+00  0.51565268115E+03  0.86968870464E+03  0.70032903368E+03 0.  0.
        3    1    3    3  502    0  0.10645303140E+03 -0.33160598327E+03  0.21270158254E+03  0.40808914400E+03  0.10100000352E+00 0.  1.
       -3    1    3    3    0  502 -0.10645303140E+03  0.33160598327E+03  0.30295109861E+03  0.46159956064E+03  0.10100000352E+00 0. -1.
</event>
<event>
 5   0  0.7570633E-04  0.6998392E+03  0.7818609E-02  0.9717507E-01
       -1   -1    0    0    0  501  0.00000000000E+00  0.00000000000E+00  0.87980263011E+02  0.87980263156E+02  0.50400001928E-02 0. -1.
        1   -1    0    0  501    0  0.00000000000E+00  0.00000000000E+00 -0.13917180469E+04  0.13917180469E+04  0.50400001928E-02 0.  1.
    10030    2    1    2    0    0  0.00000000000E+00  0.00000000000E+00 -0.13037377839E+04  0.14796983100E+04  0.69983918128E+03 0.  0.
        5    1    3    3  502    0 -0.25025279578E+03 -0.67456145817E+02 -0.15490965082E+03  0.30198656149E+03  0.46999998093E+01 0. -1.
       -5    1    3    3    0  502  0.25025279578E+03  0.67456145817E+02 -0.11488281330E+04  0.11777117485E+04  0.46999998093E+01 0.  1.
</event>
<event>
 5   0  0.1265562E-03  0.7001222E+03  0.7818609E-02  0.9717023E-01
       -2   -1    0    0    0  501  0.00000000000E+00  0.00000000000E+00  0.23184964070E+03  0.23184964071E+03  0.25500000920E-02 0.  1.
        2   -1    0    0  501    0  0.00000000000E+00  0.00000000000E+00 -0.52854412815E+03  0.52854412816E+03  0.25500000920E-02 0. -1.
    10030    2    1    2    0    0  0.00000000000E+00  0.00000000000E+00 -0.29669448745E+03  0.76039376887E+03  0.70012217852E+03 0.  0.
        1    1    3    3  502    0  0.31483663427E+03 -0.29164879016E+02 -0.31151380630E+03  0.44386208217E+03  0.50400001928E-02 0. -1.
       -1    1    3    3    0  502 -0.31483663427E+03  0.29164879016E+02  0.14819318844E+02  0.31653168670E+03  0.50400001928E-02 0.  1.
</event>
<event>
 5   0  0.1282546E-03  0.6999575E+03  0.7818609E-02  0.9717305E-01
       -2   -1    0    0    0  501  0.00000000000E+00  0.00000000000E+00  0.27520273848E+03  0.27520273850E+03  0.25500000920E-02 0. -1.
        2   -1    0    0  501    0  0.00000000000E+00  0.00000000000E+00 -0.44507230841E+03  0.44507230842E+03  0.25500000920E-02 0.  1.
    10030    2    1    2    0    0  0.00000000000E+00  0.00000000000E+00 -0.16986956993E+03  0.72027504691E+03  0.69995747901E+03 0.  0.
        5    1    3    3  502    0  0.11717998624E+03 -0.32430940087E+03 -0.14629181289E+03  0.37460795665E+03  0.46999998093E+01 0. -1.
       -5    1    3    3    0  502 -0.11717998624E+03  0.32430940087E+03 -0.23577757041E+02  0.34566709027E+03  0.46999998093E+01 0.  1.
</event>
<event>
 5   0  0.7570633E-04  0.6997291E+03  0.7818609E-02  0.9717696E-01
        1   -1    0    0  501    0  0.00000000000E+00  0.00000000000E+00  0.11356398961E+04  0.11356398961E+04  0.50400001928E-02 0. -1.
       -1   -1    0    0    0  501  0.00000000000E+00  0.00000000000E+00 -0.10778522872E+03  0.10778522884E+03  0.50400001928E-02 0.  1.
    10030    2    1    2    0    0  0.00000000000E+00  0.00000000000E+00  0.10278546674E+04  0.12434251249E+04  0.69972910765E+03 0.  0.
        5    1    3    3  502    0 -0.91891014736E+02 -0.17456037421E+03  0.10273195359E+04  0.10460988489E+04  0.46999998093E+01 0. -1.
       -5    1    3    3    0  502  0.91891014736E+02  0.17456037421E+03  0.53513142058E+00  0.19732627599E+03  0.46999998093E+01 0.  1.
</event>
<event>
 5   0  0.7013526E-04  0.7002193E+03  0.7818609E-02  0.9716857E-01
        1   -1    0    0  501    0  0.00000000000E+00  0.00000000000E+00  0.24989476040E+04  0.24989476040E+04  0.50400001928E-02 0.  1.
       -1   -1    0    0    0  501  0.00000000000E+00  0.00000000000E+00 -0.49051355234E+02  0.49051355493E+02  0.50400001928E-02 0. -1.
    10030    2    1    2    0    0  0.00000000000E+00  0.00000000000E+00  0.24498962487E+04  0.25479989595E+04  0.70021929985E+03 0.  0.
        1    1    3    3  502    0 -0.12053543634E+03 -0.11916335521E+03  0.23396990535E+04  0.23458304196E+04  0.50400001928E-02 0.  1.
       -1    1    3    3    0  502  0.12053543634E+03  0.11916335521E+03  0.11019719522E+03  0.20216853983E+03  0.50400001928E-02 0. -1.
</event>
<event>
 5   0  0.1243087E-03  0.6997844E+03  0.7818609E-02  0.9717601E-01
       -2   -1    0    0    0  501  0.00000000000E+00  0.00000000000E+00  0.10657715189E+03  0.10657715192E+03  0.25500000920E-02 0. -1.
        2   -1    0    0  501    0  0.00000000000E+00  0.00000000000E+00 -0.11486942428E+04  0.11486942428E+04  0.25500000920E-02 0.  1.
    10030    2    1    2    0    0  0.00000000000E+00  0.00000000000E+00 -0.10421170909E+04  0.12552713947E+04  0.69978442627E+03 0.  0.
        4    1    3    3  502    0  0.47590428943E+02  0.34134465517E+03 -0.62931128109E+03  0.71750632328E+03  0.12699999809E+01 0.  1.
       -4    1    3    3    0  502 -0.47590428943E+02 -0.34134465517E+03 -0.41280580979E+03  0.53776507142E+03  0.12699999809E+01 0. -1.
</event>
<event>
 5   0  0.7572415E-04  0.7001148E+03  0.7818609E-02  0.9717036E-01
       -1   -1    0    0    0  501  0.00000000000E+00  0.00000000000E+00  0.49037950649E+02  0.49037950908E+02  0.50400001928E-02 0.  1.
        1   -1    0    0  501    0  0.00000000000E+00  0.00000000000E+00 -0.24988844561E+04  0.24988844561E+04  0.50400001928E-02 0. -1.
    10030    2    1    2    0    0  0.00000000000E+00  0.00000000000E+00 -0.24498465055E+04  0.25479224070E+04  0.70011477052E+03 0.  0.
        4    1    3    3  502    0  0.22183048213E+03 -0.12901994760E+03 -0.20913779557E+04  0.21070638994E+04  0.12699999809E+01 0. -1.
       -4    1    3    3    0  502 -0.22183048213E+03  0.12901994760E+03 -0.35846854979E+03  0.44085850765E+03  0.12699999809E+01 0.  1.
</event>
<event>
 5   0  0.1243087E-03  0.6998124E+03  0.7818609E-02  0.9717553E-01
       -2   -1    0    0    0  501  0.00000000000E+00  0.00000000000E+00  0.29780062415E+03  0.29780062417E+03  0.25500000920E-02 0. -1.
        2   -1    0    0  501    0  0.00000000000E+00  0.00000000000E+00 -0.41112857860E+03  0.41112857861E+03  0.25500000920E-02 0.  1.
    10030    2    1    2    0    0  0.00000000000E+00  0.00000000000E+00 -0.11332795445E+03  0.70892920277E+03  0.69981239578E+03 0.  0.
        4    1    3    3  502    0 -0.13182126831E+03  0.31613750954E+03 -0.12910049226E+03  0.36604415269E+03  0.12699999809E+01 0.  1.
       -4    1    3    3    0  502  0.13182126831E+03 -0.31613750954E+03  0.15772537815E+02  0.34288505008E+03  0.12699999809E+01 0. -1.
</event>
<event>
 5   0  0.1265562E-03  0.6995814E+03  0.7818609E-02  0.9717948E-01
       -2   -1    0    0    0  501  0.00000000000E+00  0.00000000000E+00  0.12474381187E+03  0.12474381190E+03  0.25500000920E-02 0. -1.
        2   -1    0    0  501    0  0.00000000000E+00  0.00000000000E+00 -0.98083844621E+03  0.98083844622E+03  0.25500000920E-02 0.  1.
    10030    2    1    2    0    0  0.00000000000E+00  0.00000000000E+00 -0.85609463434E+03  0.11055822581E+04  0.69958137947E+03 0.  0.
        1    1    3    3  502    0 -0.39625633010E+02 -0.55137256585E+02 -0.97032380078E+03  0.97269655404E+03  0.50400001928E-02 0.  1.
       -1    1    3    3    0  502  0.39625633010E+02  0.55137256585E+02  0.11422916644E+03  0.13288570407E+03  0.50400001928E-02 0. -1.
</event>
<event>
 5   0  0.4936000E-04  0.7001721E+03  0.7818609E-02  0.9716938E-01
       -4   -1    0    0    0  501  0.00000000000E+00  0.00000000000E+00  0.51860567343E+03  0.51860722847E+03  0.12699999809E+01 0.  1.
        4   -1    0    0  501    0  0.00000000000E+00  0.00000000000E+00 -0.23632282199E+03  0.23632623446E+03  0.12699999809E+01 0. -1.
    10030    2    1    2    0    0  0.00000000000E+00  0.00000000000E+00  0.28228285144E+03  0.75493346293E+03  0.70017206830E+03 0.  0.
        4    1    3    3  502    0 -0.10685029908E+03  0.12834852693E+03 -0.19060492587E+03  0.25342095699E+03  0.12699999809E+01 0. -1.
       -4    1    3    3    0  502  0.10685029908E+03 -0.12834852693E+03  0.47288777731E+03  0.50151250593E+03  0.12699999809E+01 0.  1.
</event>
<event>
 5   0  0.7013526E-04  0.7000394E+03  0.7818609E-02  0.9717165E-01
       -1   -1    0    0    0  501  0.00000000000E+00  0.00000000000E+00  0.11995905110E+03  0.11995905120E+03  0.50400001928E-02 0.  1.
        1   -1    0    0  501    0  0.00000000000E+00  0.00000000000E+00 -0.10212968775E+04  0.10212968775E+04  0.50400001928E-02 0. -1.
    10030    2    1    2    0    0  0.00000000000E+00  0.00000000000E+00 -0.90133782639E+03  0.11412559287E+04  0.70003943997E+03 0.  0.
        1    1    3    3  502    0  0.89842017580E+02 -0.32229391414E+03 -0.61826905718E+03  0.70299472424E+03  0.50400001928E-02 0.  1.
       -1    1    3    3    0  502 -0.89842017580E+02  0.32229391414E+03 -0.28306876921E+03  0.43826120447E+03  0.50400001928E-02 0. -1.
</event>
<event>
 5   0  0.7570633E-04  0.6999494E+03  0.7818609E-02  0.9717319E-01
        1   -1    0    0  501    0  0.00000000000E+00  0.00000000000E+00  0.22607166633E+04  0.22607166633E+04  0.50400001928E-02 0. -1.
       -1   -1    0    0    0  501  0.00000000000E+00  0.00000000000E+00 -0.54178526302E+02  0.54178526537E+02  0.50400001928E-02 0.  1.
    10030    2    1    2    0    0  0.00000000000E+00  0.00000000000E+00  0.22065381370E+04  0.23148951898E+04  0.69994941955E+03 0.  0.
        5    1    3    3  502    0 -0.91591219182E+02  0.32697491590E+03  0.13830902305E+04  0.14241707141E+04  0.46999998093E+01 0. -1.
       -5    1    3    3    0  502  0.91591219182E+02 -0.32697491590E+03  0.82344790645E+03  0.89072447575E+03  0.46999998093E+01 0.  1.
</event>
<event>
 5   0  0.1243087E-03  0.6997696E+03  0.7818609E-02  0.9717626E-01
        2   -1    0    0  501    0  0.00000000000E+00  0.00000000000E+00  0.35046017075E+03  0.35046017076E+03  0.25500000920E-02 0. -1.
       -2   -1    0    0    0  501  0.00000000000E+00  0.00000000000E+00 -0.34931041612E+03  0.34931041613E+03  0.25500000920E-02 0.  1.
    10030    2    1    2    0    0  0.00000000000E+00  0.00000000000E+00  0.11497546249E+01  0.69977058689E+03  0.69976964234E+03 0.  0.
        4    1    3    3  502    0 -0.20874576467E+03 -0.64321039667E+02  0.27389883610E+03  0.35033437703E+03  0.12699999809E+01 0. -1.
       -4    1    3    3    0  502  0.20874576467E+03  0.64321039667E+02 -0.27274908148E+03  0.34943620986E+03  0.12699999809E+01 0.  1.
</event>
<event>
 5   0  0.4936000E-04  0.7000249E+03  0.7818609E-02  0.9717190E-01
       -3   -1    0    0    0  501  0.00000000000E+00  0.00000000000E+00  0.30650640667E+03  0.30650642331E+03  0.10100000352E+00 0.  1.
        3   -1    0    0  501    0  0.00000000000E+00  0.00000000000E+00 -0.39969377071E+03  0.39969378347E+03  0.10100000352E+00 0. -1.
    10030    2    1    2    0    0  0.00000000000E+00  0.00000000000E+00 -0.93187364042E+02  0.70620020678E+03  0.70002489044E+03 0.  0.
        3    1    3    3  502    0  0.57837575651E+02 -0.34123458297E+03 -0.99231317863E+02  0.36004595598E+03  0.10100000352E+00 0. -1.
       -3    1    3    3    0  502 -0.57837575651E+02  0.34123458297E+03  0.60439538212E+01  0.34615425080E+03  0.10100000352E+00 0.  1.
</event>
<event>
 5   0  0.7572415E-04  0.7000155E+03  0.7818609E-02  0.9717206E-01
        1   -1    0    0  501    0  0.00000000000E+00  0.00000000000E+00  0.63209567508E+03  0.63209567510E+03  0.50400001928E-02 0.  1.
       -1   -1    0    0    0  501  0.00000000000E+00  0.00000000000E+00 -0.19380833099E+03  0.19380833106E+03  0.50400001928E-02 0. -1.
    10030    2    1    2    0    0  0.00000000000E+00  0.00000000000E+00  0.43828734408E+03  0.82590400616E+03  0.70001545083E+03 0.  0.
        4    1    3    3  502    0  0.11468076621E+03  0.29107236841E+03  0.40430286358E+03  0.51121152197E+03  0.12699999809E+01 0. -1.
       -4    1    3    3    0  502 -0.11468076621E+03 -0.29107236841E+03  0.33984480497E+02  0.31469248419E+03  0.12699999809E+01 0.  1.
</event>
<event>
 5   0  0.1243087E-03  0.6998652E+03  0.7818609E-02  0.9717463E-01
       -2   -1    0    0    0  501  0.00000000000E+00  0.00000000000E+00  0.27418130820E+03  0.27418130822E+03  0.25500000920E-02 0.  1.
        2   -1    0    0  501    0  0.00000000000E+00  0.00000000000E+00 -0.44661253377E+03  0.44661253378E+03  0.25500000920E-02 0. -1.
    10030    2    1    2    0    0  0.00000000000E+00  0.00000000000E+00 -0.17243122557E+03  0.72079384199E+03  0.69986515494E+03 0.  0.
        4    1    3    3  502    0 -0.12018972537E+02  0.26856009181E+03 -0.31692837538E+03  0.41558896356E+03  0.12699999809E+01 0. -1.
       -4    1    3    3    0  502  0.12018972537E+02 -0.26856009181E+03  0.14449714981E+03  0.30520487843E+03  0.12699999809E+01 0.  1.
</event>
<event>
 5   0  0.4936000E-04  0.6998322E+03  0.7818609E-02  0.9717519E-01
        4   -1    0    0  501    0  0.00000000000E+00  0.00000000000E+00  0.16963351775E+03  0.16963827176E+03  0.12699999809E+01 0. -1.
       -4   -1    0    0    0  501  0.00000000000E+00  0.00000000000E+00 -0.72178342368E+03  0.72178454098E+03  0.12699999809E+01 0.  1.
    10030    2    1    2    0    0  0.00000000000E+00  0.00000000000E+00 -0.55214990592E+03  0.89142281274E+03  0.69983220307E+03 0.  0.
        5    1    3    3  502    0  0.22117828642E+03 -0.27017760235E+03 -0.24749551219E+03  0.42800921689E+03  0.46999998093E+01 0. -1.
       -5    1    3    3    0  502 -0.22117828642E+03  0.27017760235E+03 -0.30465439373E+03  0.46341359584E+03  0.46999998093E+01 0.  1.
</event>
<event>
 5   0  0.1265562E-03  0.7000730E+03  0.7818609E-02  0.9717107E-01
       -2   -1    0    0    0  501  0.00000000000E+00  0.00000000000E+00  0.23615314303E+03  0.23615314304E+03  0.25500000920E-02 0. -1.
        2   -1    0    0  501    0  0.00000000000E+00  0.00000000000E+00 -0.51883934735E+03  0.51883934735E+03  0.25500000920E-02 0.  1.
    10030    2    1    2    0    0  0.00000000000E+00  0.00000000000E+00 -0.28268620432E+03  0.75499249040E+03  0.70007297508E+03 0.  0.
        1    1    3    3  502    0 -0.56199288705E+02  0.33261845602E+03 -0.24211972363E+03  0.41522928357E+03  0.50400001928E-02 0.  1.
       -1    1    3    3    0  502  0.56199288705E+02 -0.33261845602E+03 -0.40566480691E+02  0.33976320683E+03  0.50400001928E-02 0. -1.
</event>
<event>
 5   0  0.7013526E-04  0.7000635E+03  0.7818609E-02  0.9717124E-01
        1   -1    0    0  501    0  0.00000000000E+00  0.00000000000E+00  0.18737841419E+03  0.18737841426E+03  0.50400001928E-02 0.  1.
       -1   -1    0    0    0  501  0.00000000000E+00  0.00000000000E+00 -0.65387592791E+03  0.65387592792E+03  0.50400001928E-02 0. -1.
    10030    2    1    2    0    0  0.00000000000E+00  0.00000000000E+00 -0.46649751372E+03  0.84125434218E+03  0.70006352421E+03 0.  0.
        1    1    3    3  502    0 -0.36219925002E+02  0.12475312383E+02 -0.65134929758E+03  0.65247484539E+03  0.50400001928E-02 0. -1.
       -1    1    3    3    0  502  0.36219925002E+02 -0.12475312383E+02  0.18485178386E+03  0.18877949679E+03  0.50400001928E-02 0.  1.
</event>
<event>
 5   0  0.7013526E-04  0.6999353E+03  0.7818609E-02  0.9717343E-01
       -1   -1    0    0    0  501  0.00000000000E+00  0.00000000000E+00  0.11622973391E+03  0.11622973402E+03  0.50400001928E-02 0.  1.
        1   -1    0    0  501    0  0.00000000000E+00  0.00000000000E+00 -0.10537523387E+04  0.10537523388E+04  0.50400001928E-02 0. -1.
    10030    2    1    2    0    0  0.00000000000E+00  0.00000000000E+00 -0.93752260484E+03  0.11699820728E+04  0.69993529417E+03 0.  0.
        1    1    3    3  502    0  0.73058237817E+02 -0.29189668937E+03 -0.76748022468E+03  0.82435858623E+03  0.50400001928E-02 0. -1.
       -1    1    3    3    0  502 -0.73058237817E+02  0.29189668937E+03 -0.17004238016E+03  0.34562348655E+03  0.50400001928E-02 0.  1.
</event>
<event>
 5   0  0.7574241E-04  0.6993525E+03  0.7818609E-02  0.9718340E-01
       -1   -1    0    0    0  501  0.00000000000E+00  0.00000000000E+00  0.20734866815E+03  0.20734866821E+03  0.50400001928E-02 0. -1.
        1   -1    0    0  501    0  0.00000000000E+00  0.00000000000E+00 -0.58969993751E+03  0.58969993753E+03  0.50400001928E-02 0.  1.
    10030    2    1    2    0    0  0.00000000000E+00  0.00000000000E+00 -0.38235126936E+03  0.79704860575E+03  0.69935254825E+03 0.  0.
        3    1    3    3  502    0  0.73076674030E+02  0.12783512670E+03  0.17029183147E+03  0.22512516069E+03  0.10100000352E+00 0. -1.
       -3    1    3    3    0  502 -0.73076674030E+02 -0.12783512670E+03 -0.55264310084E+03  0.57192344506E+03  0.10100000352E+00 0.  1.
</event>
<event>
 5   0  0.1224048E-03  0.7002516E+03  0.7818609E-02  0.9716802E-01
        2   -1    0    0  501    0  0.00000000000E+00  0.00000000000E+00  0.14080881378E+04  0.14080881378E+04  0.25500000920E-02 0. -1.
       -2   -1    0    0    0  501  0.00000000000E+00  0.00000000000E+00 -0.87059954756E+02  0.87059954793E+02  0.25500000920E-02 0.  1.
    10030    2    1    2    0    0  0.00000000000E+00  0.00000000000E+00  0.13210281831E+04  0.14951480926E+04  0.70025163934E+03 0.  0.
        3    1    3    3  502    0  0.28017526610E+03  0.20973695333E+03  0.68189875191E+03  0.76646832119E+03  0.10100000352E+00 0. -1.
       -3    1    3    3    0  502 -0.28017526610E+03 -0.20973695333E+03  0.63912943116E+03  0.72867977143E+03  0.10100000352E+00 0.  1.
</event>
<event>
 5   0  0.1222679E-03  0.7005594E+03  0.7818609E-02  0.9716276E-01
        2   -1    0    0  501    0  0.00000000000E+00  0.00000000000E+00  0.23716964243E+04  0.23716964243E+04  0.25500000920E-02 0. -1.
       -2   -1    0    0    0  501  0.00000000000E+00  0.00000000000E+00 -0.51733385162E+02  0.51733385225E+02  0.25500000920E-02 0.  1.
    10030    2    1    2    0    0  0.00000000000E+00  0.00000000000E+00  0.23199630391E+04  0.24234298095E+04  0.70055944697E+03 0.  0.
        2    1    3    3  502    0  0.19606102647E+02  0.17249684713E+03  0.22124000799E+04  0.22192011344E+04  0.25500000920E-02 0. -1.
       -2    1    3    3    0  502 -0.19606102647E+02 -0.17249684713E+03  0.10756295927E+03  0.20422867513E+03  0.25500000920E-02 0.  1.
</event>
<event>
 5   0  0.7459843E-04  0.6999993E+03  0.7818609E-02  0.9717233E-01
       -1   -1    0    0    0  501  0.00000000000E+00  0.00000000000E+00  0.74681483722E+02  0.74681483892E+02  0.50400001928E-02 0.  1.
        1   -1    0    0  501    0  0.00000000000E+00  0.00000000000E+00 -0.16402963116E+04  0.16402963116E+04  0.50400001928E-02 0. -1.
    10030    2    1    2    0    0  0.00000000000E+00  0.00000000000E+00 -0.15656148279E+04  0.17149777955E+04  0.69999932128E+03 0.  0.
        2    1    3    3  502    0 -0.34466672458E+03 -0.58090789617E+02 -0.73829666092E+03  0.81685473029E+03  0.25500000920E-02 0. -1.
       -2    1    3    3    0  502  0.34466672458E+03  0.58090789617E+02 -0.82731816697E+03  0.89812306522E+03  0.25500000920E-02 0.  1.
</event>
<event>
 5   0  0.1265562E-03  0.6998566E+03  0.7818609E-02  0.9717477E-01
       -2   -1    0    0    0  501  0.00000000000E+00  0.00000000000E+00  0.10900442339E+03  0.10900442342E+03  0.25500000920E-02 0.  1.
        2   -1    0    0  501    0  0.00000000000E+00  0.00000000000E+00 -0.11233473643E+04  0.11233473643E+04  0.25500000920E-02 0. -1.
    10030    2    1    2    0    0  0.00000000000E+00  0.00000000000E+00 -0.10143429409E+04  0.12323517877E+04  0.69985664742E+03 0.  0.
        1    1    3    3  502    0 -0.27722061037E+03  0.88204795767E+02 -0.16473687353E+03  0.33431959311E+03  0.50400001928E-02 0.  1.
       -1    1    3    3    0  502  0.27722061037E+03 -0.88204795767E+02 -0.84960606738E+03  0.89803219461E+03  0.50400001928E-02 0. -1.
</event>
<event>
 5   0  0.1282546E-03  0.6992844E+03  0.7818609E-02  0.9718457E-01
       -2   -1    0    0    0  501  0.00000000000E+00  0.00000000000E+00  0.66922156046E+03  0.66922156047E+03  0.25500000920E-02 0. -1.
        2   -1    0    0  501    0  0.00000000000E+00  0.00000000000E+00 -0.18267445525E+03  0.18267445527E+03  0.25500000920E-02 0.  1.
    10030    2    1    2    0    0  0.00000000000E+00  0.00000000000E+00  0.48654710522E+03  0.85189601574E+03  0.69928444572E+03 0.  0.
        5    1    3    3  502    0 -0.59863189614E+02 -0.25431710645E+03 -0.39732719069E+02  0.26431339554E+03  0.46999998093E+01 0.  1.
       -5    1    3    3    0  502  0.59863189614E+02  0.25431710645E+03  0.52627982429E+03  0.58758262019E+03  0.46999998093E+01 0. -1.
</event>
<event>
 5   0  0.7572415E-04  0.7007245E+03  0.7818609E-02  0.9715994E-01
        1   -1    0    0  501    0  0.00000000000E+00  0.00000000000E+00  0.49877348568E+03  0.49877348571E+03  0.50400001928E-02 0.  1.
       -1   -1    0    0    0  501  0.00000000000E+00  0.00000000000E+00 -0.24611114014E+03  0.24611114019E+03  0.50400001928E-02 0. -1.
    10030    2    1    2    0    0  0.00000000000E+00  0.00000000000E+00  0.25266234554E+03  0.74488462590E+03  0.70072451437E+03 0.  0.
        4    1    3    3  502    0  0.41849693664E+02 -0.11552221983E+03  0.47511749371E+03  0.49074945324E+03  0.12699999809E+01 0.  1.
       -4    1    3    3    0  502 -0.41849693664E+02  0.11552221983E+03 -0.22245514817E+03  0.25413517265E+03  0.12699999809E+01 0. -1.
</event>
<event>
 5   0  0.1265562E-03  0.6996306E+03  0.7818609E-02  0.9717864E-01
        2   -1    0    0  501    0  0.00000000000E+00  0.00000000000E+00  0.11956206361E+04  0.11956206361E+04  0.25500000920E-02 0. -1.
       -2   -1    0    0    0  501  0.00000000000E+00  0.00000000000E+00 -0.10234914728E+03  0.10234914732E+03  0.25500000920E-02 0.  1.
    10030    2    1    2    0    0  0.00000000000E+00  0.00000000000E+00  0.10932714888E+04  0.12979697834E+04  0.69963062425E+03 0.  0.
        1    1    3    3  502    0 -0.18895009613E+03  0.29254982626E+03  0.60769516546E+03  0.70041484410E+03  0.50400001928E-02 0.  1.
       -1    1    3    3    0  502  0.18895009613E+03 -0.29254982626E+03  0.48557632330E+03  0.59755493928E+03  0.50400001928E-02 0. -1.
</event>
<event>
 5   0  0.7013526E-04  0.6999469E+03  0.7818609E-02  0.9717323E-01
       -1   -1    0    0    0  501  0.00000000000E+00  0.00000000000E+00  0.13775668164E+03  0.13775668173E+03  0.50400001928E-02 0.  1.
        1   -1    0    0  501    0  0.00000000000E+00  0.00000000000E+00 -0.88911403653E+03  0.88911403654E+03  0.50400001928E-02 0. -1.
    10030    2    1    2    0    0  0.00000000000E+00  0.00000000000E+00 -0.75135735489E+03  0.10268707183E+04  0.69994685319E+03 0.  0.
        1    1    3    3  502    0 -0.14688301711E+03  0.31371427366E+03 -0.44888725758E+03  0.56700179564E+03  0.50400001928E-02 0. -1.
       -1    1    3    3    0  502  0.14688301711E+03 -0.31371427366E+03 -0.30247009731E+03  0.45986892263E+03  0.50400001928E-02 0.  1.
</event>
<event>
 5   0  0.1265562E-03  0.6993648E+03  0.7818609E-02  0.9718319E-01
        2   -1    0    0  501    0  0.00000000000E+00  0.00000000000E+00  0.24056982529E+03  0.24056982530E+03  0.25500000920E-02 0. -1.
       -2   -1    0    0    0  501  0.00000000000E+00  0.00000000000E+00 -0.50828399138E+03  0.50828399139E+03  0.25500000920E-02 0.  1.
    10030    2    1    2    0    0  0.00000000000E+00  0.00000000000E+00 -0.26771416609E+03  0.74885381669E+03  0.69936482900E+03 0.  0.
        1    1    3    3  502    0  0.10914423798E+03  0.25985811895E+03 -0.35547932776E+03  0.45365654317E+03  0.50400001928E-02 0.  1.
       -1    1    3    3    0  502 -0.10914423798E+03 -0.25985811895E+03  0.87765161663E+02  0.29519727353E+03  0.50400001928E-02 0. -1.
</event>
<event>
 5   0  0.7572415E-04  0.7005308E+03  0.7818609E-02  0.9716325E-01
        1   -1    0    0  501    0  0.00000000000E+00  0.00000000000E+00  0.16335546419E+03  0.16335546427E+03  0.50400001928E-02 0. -1.
       -1   -1    0    0    0  501  0.00000000000E+00  0.00000000000E+00 -0.75103610167E+03  0.75103610169E+03  0.50400001928E-02 0.  1.
    10030    2    1    2    0    0  0.00000000000E+00  0.00000000000E+00 -0.58768063748E+03  0.91439156596E+03  0.70053080177E+03 0.  0.
        4    1    3    3  502    0 -0.26208326640E+03 -0.55484675525E+02 -0.58837799718E+03  0.64649552837E+03  0.12699999809E+01 0.  1.
       -4    1    3    3    0  502  0.26208326640E+03  0.55484675525E+02  0.69735969841E+00  0.26789603759E+03  0.12699999809E+01 0. -1.
</event>
<event>
 5   0  0.1222679E-03  0.7003666E+03  0.7818609E-02  0.9716606E-01
        2   -1    0    0  501    0  0.00000000000E+00  0.00000000000E+00  0.37152123503E+03  0.37152123503E+03  0.25500000920E-02 0.  1.
       -2   -1    0    0    0  501  0.00000000000E+00  0.00000000000E+00 -0.33007084974E+03  0.33007084975E+03  0.25500000920E-02 0. -1.
    10030    2    1    2    0    0  0.00000000000E+00  0.00000000000E+00  0.41450385288E+02  0.70159208478E+03  0.70036656044E+03 0.  0.
        2    1    3    3  502    0 -0.24458396856E+03 -0.37718286930E+02 -0.22746698192E+03  0.33613273378E+03  0.25500000920E-02 0. -1.
       -2    1    3    3    0  502  0.24458396856E+03  0.37718286930E+02  0.26891736721E+03  0.36545935101E+03  0.25500000920E-02 0.  1.
</event>
<event>
 5   0  0.1222679E-03  0.6998787E+03  0.7818609E-02  0.9717440E-01
        2   -1    0    0  501    0  0.00000000000E+00  0.00000000000E+00  0.31749770136E+03  0.31749770137E+03  0.25500000920E-02 0.  1.
       -2   -1    0    0    0  501  0.00000000000E+00  0.00000000000E+00 -0.38569584032E+03  0.38569584033E+03  0.25500000920E-02 0. -1.
    10030    2    1    2    0    0  0.00000000000E+00  0.00000000000E+00 -0.68198138963E+02  0.70319354170E+03  0.69987868301E+03 0.  0.
        2    1    3    3  502    0  0.23003045658E+03  0.51884890087E+02 -0.29388023026E+03  0.37679124528E+03  0.25500000920E-02 0. -1.
       -2    1    3    3    0  502 -0.23003045658E+03 -0.51884890087E+02  0.22568209129E+03  0.32640229642E+03  0.25500000920E-02 0.  1.
</event>
<event>
 5   0  0.7572415E-04  0.6994513E+03  0.7818609E-02  0.9718171E-01
       -1   -1    0    0    0  501  0.00000000000E+00  0.00000000000E+00  0.44881320320E+03  0.44881320323E+03  0.50400001928E-02 0. -1.
        1   -1    0    0  501    0  0.00000000000E+00  0.00000000000E+00 -0.27251430868E+03  0.27251430873E+03  0.50400001928E-02 0.  1.
    10030    2    1    2    0    0  0.00000000000E+00  0.00000000000E+00  0.17629889453E+03  0.72132751196E+03  0.69945127014E+03 0.  0.
        4    1    3    3  502    0 -0.24607010796E+03 -0.24814931325E+03  0.74397184509E+02  0.35730257998E+03  0.12699999809E+01 0.  1.
       -4    1    3    3    0  502  0.24607010796E+03  0.24814931325E+03  0.10190171002E+03  0.36402493198E+03  0.12699999809E+01 0. -1.
</event>
<event>
 5   0  0.7570633E-04  0.7000553E+03  0.7818609E-02  0.9717138E-01
       -1   -1    0    0    0  501  0.00000000000E+00  0.00000000000E+00  0.67890237615E+02  0.67890237802E+02  0.50400001928E-02 0. -1.
        1   -1    0    0  501    0  0.00000000000E+00  0.00000000000E+00 -0.18046680578E+04  0.18046680578E+04  0.50400001928E-02 0.  1.
    10030    2    1    2    0    0  0.00000000000E+00  0.00000000000E+00 -0.17367778202E+04  0.18725582956E+04  0.70005526479E+03 0.  0.
        5    1    3    3  502    0 -0.15380957269E+03 -0.12534026593E+03 -0.97163922567E+02  0.22097620859E+03  0.46999998093E+01 0. -1.
       -5    1    3    3    0  502  0.15380957269E+03  0.12534026593E+03 -0.16396138976E+04  0.16515820870E+04  0.46999998093E+01 0.  1.
</event>
<event>
 5   0  0.4936000E-04  0.7009830E+03  0.7818609E-02  0.9715553E-01
        4   -1    0    0  501    0  0.00000000000E+00  0.00000000000E+00  0.29101418842E+03  0.29101695958E+03  0.12699999809E+01 0. -1.
       -4   -1    0    0    0  501  0.00000000000E+00  0.00000000000E+00 -0.42211897025E+03  0.42212088073E+03  0.12699999809E+01 0.  1.
    10030    2    1    2    0    0  0.00000000000E+00  0.00000000000E+00 -0.13110478183E+03  0.71313784030E+03  0.70098296374E+03 0.  0.
        3    1    3    3  502    0 -0.19060909336E+03 -0.97798710204E+02  0.21665233066E+03  0.30468780213E+03  0.10100000352E+00 0. -1.
       -3    1    3    3    0  502  0.19060909336E+03  0.97798710204E+02 -0.34775711249E+03  0.40845003817E+03  0.10100000352E+00 0.  1.
</event>
<event>
 5   0  0.1224048E-03  0.7005871E+03  0.7818609E-02  0.9716229E-01
        2   -1    0    0  501    0  0.00000000000E+00  0.00000000000E+00  0.68128929784E+03  0.68128929784E+03  0.25500000920E-02 0.  1.
       -2   -1    0    0    0  501  0.00000000000E+00  0.00000000000E+00 -0.18010788549E+03  0.18010788551E+03  0.25500000920E-02 0. -1.
    10030    2    1    2    0    0  0.00000000000E+00  0.00000000000E+00  0.50118141235E+03  0.86139718335E+03  0.70058711050E+03 0.  0.
        3    1    3    3  502    0  0.20604748193E+03 -0.76706563722E+02 -0.84705636411E+02  0.23561518790E+03  0.10100000352E+00 0. -1.
       -3    1    3    3    0  502 -0.20604748193E+03  0.76706563722E+02  0.58588704876E+03  0.62578199545E+03  0.10100000352E+00 0.  1.
</event>
<event>
 5   0  0.7459843E-04  0.6998703E+03  0.7818609E-02  0.9717454E-01
        1   -1    0    0  501    0  0.00000000000E+00  0.00000000000E+00  0.15116904999E+04  0.15116904999E+04  0.50400001928E-02 0. -1.
       -1   -1    0    0    0  501  0.00000000000E+00  0.00000000000E+00 -0.81005077323E+02  0.81005077480E+02  0.50400001928E-02 0.  1.
    10030    2    1    2    0    0  0.00000000000E+00  0.00000000000E+00  0.14306854225E+04  0.15926955774E+04  0.69987029073E+03 0.  0.
        2    1    3    3  502    0 -0.18885455248E+03  0.27744844487E+03  0.48993426761E+03  0.59386805617E+03  0.25500000920E-02 0.  1.
       -2    1    3    3    0  502  0.18885455248E+03 -0.27744844487E+03  0.94075115493E+03  0.99882752118E+03  0.25500000920E-02 0. -1.
</event>
<event>
 5   0  0.7013526E-04  0.6998738E+03  0.7818609E-02  0.9717448E-01
       -1   -1    0    0    0  501  0.00000000000E+00  0.00000000000E+00  0.18207463885E+03  0.18207463892E+03  0.50400001928E-02 0.  1.
        1   -1    0    0  501    0  0.00000000000E+00  0.00000000000E+00 -0.67255849886E+03  0.67255849888E+03  0.50400001928E-02 0. -1.
    10030    2    1    2    0    0  0.00000000000E+00  0.00000000000E+00 -0.49048386001E+03  0.85463313779E+03  0.69987383383E+03 0.  0.
        1    1    3    3  502    0  0.26256911891E+02  0.16106412095E+03  0.13276421734E+03  0.21037446116E+03  0.50400001928E-02 0.  1.
       -1    1    3    3    0  502 -0.26256911891E+02 -0.16106412095E+03 -0.62324807734E+03  0.64425867663E+03  0.50400001928E-02 0. -1.
</event>
<event>
 5   0  0.1265562E-03  0.6999662E+03  0.7818609E-02  0.9717290E-01
       -2   -1    0    0    0  501  0.00000000000E+00  0.00000000000E+00  0.32496123500E+03  0.32496123501E+03  0.25500000920E-02 0.  1.
        2   -1    0    0  501    0  0.00000000000E+00  0.00000000000E+00 -0.37693162742E+03  0.37693162743E+03  0.25500000920E-02 0. -1.
    10030    2    1    2    0    0  0.00000000000E+00  0.00000000000E+00 -0.51970392416E+02  0.70189286244E+03  0.69996619108E+03 0.  0.
        1    1    3    3  502    0  0.21363693156E+02  0.81398061616E+02 -0.36663502389E+03  0.37616923397E+03  0.50400001928E-02 0. -1.
       -1    1    3    3    0  502 -0.21363693156E+02 -0.81398061616E+02  0.31466463147E+03  0.32572362847E+03  0.50400001928E-02 0.  1.
</event>
<event>
 5   0  0.7570633E-04  0.6998291E+03  0.7818609E-02  0.9717524E-01
        1   -1    0    0  501    0  0.00000000000E+00  0.00000000000E+00  0.17153830926E+04  0.17153830926E+04  0.50400001928E-02 0. -1.
       -1   -1    0    0    0  501  0.00000000000E+00  0.00000000000E+00 -0.71377756763E+02  0.71377756941E+02  0.50400001928E-02 0.  1.
    10030    2    1    2    0    0  0.00000000000E+00  0.00000000000E+00  0.16440053358E+04  0.17867608495E+04  0.69982911429E+03 0.  0.
        5    1    3    3  502    0 -0.21711755023E+03  0.66417386288E+02  0.15016691546E+04  0.15187440995E+04  0.46999998093E+01 0. -1.
       -5    1    3    3    0  502  0.21711755023E+03 -0.66417386288E+02  0.14233618120E+03  0.26801675003E+03  0.46999998093E+01 0.  1.
</event>
<event>
 5   0  0.7570633E-04  0.7001979E+03  0.7818609E-02  0.9716894E-01
       -1   -1    0    0    0  501  0.00000000000E+00  0.00000000000E+00  0.81438870852E+02  0.81438871008E+02  0.50400001928E-02 0.  1.
        1   -1    0    0  501    0  0.00000000000E+00  0.00000000000E+00 -0.15050464332E+04  0.15050464333E+04  0.50400001928E-02 0. -1.
    10030    2    1    2    0    0  0.00000000000E+00  0.00000000000E+00 -0.14236075624E+04  0.15864853043E+04  0.70019792126E+03 0.  0.
        5    1    3    3  502    0 -0.60024641202E+02  0.31351214662E+03 -0.10374313735E+04  0.10854394356E+04  0.46999998093E+01 0. -1.
       -5    1    3    3    0  502  0.60024641202E+02 -0.31351214662E+03 -0.38617618886E+03  0.50104586863E+03  0.46999998093E+01 0.  1.
</event>
<event>
 5   0  0.1222679E-03  0.7000077E+03  0.7818609E-02  0.9717219E-01
        2   -1    0    0  501    0  0.00000000000E+00  0.00000000000E+00  0.11619057207E+04  0.11619057207E+04  0.25500000920E-02 0.  1.
       -2   -1    0    0    0  501  0.00000000000E+00  0.00000000000E+00 -0.10543254977E+03  0.10543254981E+03  0.25500000920E-02 0. -1.
    10030    2    1    2    0    0  0.00000000000E+00  0.00000000000E+00  0.10564731709E+04  0.12673382705E+04  0.70000766497E+03 0.  0.
        2    1    3    3  502    0 -0.12615317395E+03  0.15116324552E+03  0.43342277352E+01  0.19693586679E+03  0.25500000920E-02 0. -1.
       -2    1    3    3    0  502  0.12615317395E+03 -0.15116324552E+03  0.10521389432E+04  0.10704024037E+04  0.25500000920E-02 0.  1.
</event>
<event>
 5   0  0.1222679E-03  0.6999981E+03  0.7818609E-02  0.9717235E-01
        2   -1    0    0  501    0  0.00000000000E+00  0.00000000000E+00  0.44626112517E+03  0.44626112518E+03  0.25500000920E-02 0. -1.
       -2   -1    0    0    0  501  0.00000000000E+00  0.00000000000E+00 -0.27450150389E+03  0.27450150390E+03  0.25500000920E-02 0.  1.
    10030    2    1    2    0    0  0.00000000000E+00  0.00000000000E+00  0.17175962128E+03  0.72076262907E+03  0.69999814283E+03 0.  0.
        2    1    3    3  502    0 -0.31797592593E+03 -0.94242376881E+02  0.20104130065E+03  0.38782459907E+03  0.25500000920E-02 0. -1.
       -2    1    3    3    0  502  0.31797592593E+03  0.94242376881E+02 -0.29281679371E+02  0.33293803000E+03  0.25500000920E-02 0.  1.
</event>
<event>
 5   0  0.7013526E-04  0.7038627E+03  0.7818609E-02  0.9710649E-01
        1   -1    0    0  501    0  0.00000000000E+00  0.00000000000E+00  0.78130656563E+03  0.78130656564E+03  0.50400001928E-02 0. -1.
       -1   -1    0    0    0  501  0.00000000000E+00  0.00000000000E+00 -0.15852380450E+03  0.15852380458E+03  0.50400001928E-02 0.  1.
    10030    2    1    2    0    0  0.00000000000E+00  0.00000000000E+00  0.62278276113E+03  0.93983037022E+03  0.70386274033E+03 0.  0.
        1    1    3    3  502    0  0.14429779029E+03  0.25393248295E+03  0.49219750680E+02  0.29618599235E+03  0.50400001928E-02 0.  1.
       -1    1    3    3    0  502 -0.14429779029E+03 -0.25393248295E+03  0.57356301045E+03  0.64364437787E+03  0.50400001928E-02 0. -1.
</event>
<event>
 5   0  0.1282546E-03  0.7000459E+03  0.7818609E-02  0.9717154E-01
       -2   -1    0    0    0  501  0.00000000000E+00  0.00000000000E+00  0.15122333175E+03  0.15122333177E+03  0.25500000920E-02 0.  1.
        2   -1    0    0  501    0  0.00000000000E+00  0.00000000000E+00 -0.81016636606E+03  0.81016636607E+03  0.25500000920E-02 0. -1.
    10030    2    1    2    0    0  0.00000000000E+00  0.00000000000E+00 -0.65894303431E+03  0.96138969784E+03  0.70004587610E+03 0.  0.
        5    1    3    3  502    0 -0.32162737971E+03  0.98687111504E+02 -0.19695715254E+03  0.38986860259E+03  0.46999998093E+01 0.  1.
       -5    1    3    3    0  502  0.32162737971E+03 -0.98687111504E+02 -0.46198588178E+03  0.57152109525E+03  0.46999998093E+01 0. -1.
</event>
<event>
 5   0  0.7572415E-04  0.6999154E+03  0.7818609E-02  0.9717377E-01
       -1   -1    0    0    0  501  0.00000000000E+00  0.00000000000E+00  0.94825666134E+02  0.94825666268E+02  0.50400001928E-02 0. -1.
        1   -1    0    0  501    0  0.00000000000E+00  0.00000000000E+00 -0.12915321655E+04  0.12915321655E+04  0.50400001928E-02 0.  1.
    10030    2    1    2    0    0  0.00000000000E+00  0.00000000000E+00 -0.11967064994E+04  0.13863578318E+04  0.69991541782E+03 0.  0.
        4    1    3    3  502    0  0.11419749537E+03  0.31505711444E+03 -0.39863375262E+03  0.52078069754E+03  0.12699999809E+01 0.  1.
       -4    1    3    3    0  502 -0.11419749537E+03 -0.31505711444E+03 -0.79807274674E+03  0.86557713423E+03  0.12699999809E+01 0. -1.
</event>
<event>
 5   0  0.1222679E-03  0.7001298E+03  0.7818609E-02  0.9717010E-01
        2   -1    0    0  501    0  0.00000000000E+00  0.00000000000E+00  0.54714330984E+03  0.54714330984E+03  0.25500000920E-02 0.  1.
       -2   -1    0    0    0  501  0.00000000000E+00  0.00000000000E+00 -0.22397318623E+03  0.22397318624E+03  0.25500000920E-02 0. -1.
    10030    2    1    2    0    0  0.00000000000E+00  0.00000000000E+00  0.32317012361E+03  0.77111649609E+03  0.70012978921E+03 0.  0.
        2    1    3    3  502    0  0.26895508008E+03 -0.21626096797E+03  0.96988806384E+02  0.35848635948E+03  0.25500000920E-02 0. -1.
       -2    1    3    3    0  502 -0.26895508008E+03  0.21626096797E+03  0.22618131722E+03  0.41263013660E+03  0.25500000920E-02 0.  1.
</event>
<event>
 5   0  0.7574241E-04  0.7001007E+03  0.7818609E-02  0.9717060E-01
       -1   -1    0    0    0  501  0.00000000000E+00  0.00000000000E+00  0.79136347315E+03  0.79136347316E+03  0.50400001928E-02 0.  1.
        1   -1    0    0  501    0  0.00000000000E+00  0.00000000000E+00 -0.15484065197E+03  0.15484065205E+03  0.50400001928E-02 0. -1.
    10030    2    1    2    0    0  0.00000000000E+00  0.00000000000E+00  0.63652282118E+03  0.94620412521E+03  0.70010066754E+03 0.  0.
        3    1    3    3  502    0 -0.23413097296E+03  0.13871753363E+03  0.61582847731E+03  0.67327898401E+03  0.10100000352E+00 0.  1.
       -3    1    3    3    0  502  0.23413097296E+03 -0.13871753363E+03  0.20694343866E+02  0.27292514121E+03  0.10100000352E+00 0. -1.
</event>
<event>
 5   0  0.7570633E-04  0.7001613E+03  0.7818609E-02  0.9716956E-01
        1   -1    0    0  501    0  0.00000000000E+00  0.00000000000E+00  0.14000392991E+04  0.14000392991E+04  0.50400001928E-02 0. -1.
       -1   -1    0    0    0  501  0.00000000000E+00  0.00000000000E+00 -0.87537880472E+02  0.87537880617E+02  0.50400001928E-02 0.  1.
    10030    2    1    2    0    0  0.00000000000E+00  0.00000000000E+00  0.13125014186E+04  0.14875771797E+04  0.70016133265E+03 0.  0.
        5    1    3    3  502    0  0.24678965001E+03 -0.86921654928E+02  0.11503055299E+04  0.11796971678E+04  0.46999998093E+01 0. -1.
       -5    1    3    3    0  502 -0.24678965001E+03  0.86921654928E+02  0.16219588866E+03  0.30788001193E+03  0.46999998093E+01 0.  1.
</event>
<event>
 5   0  0.7459843E-04  0.7001528E+03  0.7818609E-02  0.9716971E-01
       -1   -1    0    0    0  501  0.00000000000E+00  0.00000000000E+00  0.17976227255E+03  0.17976227262E+03  0.50400001928E-02 0. -1.
        1   -1    0    0  501    0  0.00000000000E+00  0.00000000000E+00 -0.68175317421E+03  0.68175317423E+03  0.50400001928E-02 0.  1.
    10030    2    1    2    0    0  0.00000000000E+00  0.00000000000E+00 -0.50199090166E+03  0.86151544685E+03  0.70015284033E+03 0.  0.
        2    1    3    3  502    0 -0.70522806058E+02  0.31949816087E+03 -0.97798720173E+02  0.34149250452E+03  0.25500000920E-02 0. -1.
       -2    1    3    3    0  502  0.70522806058E+02 -0.31949816087E+03 -0.40419218148E+03  0.52002294233E+03  0.25500000920E-02 0.  1.
</event>
<event>
 5   0  0.7570633E-04  0.7000560E+03  0.7818609E-02  0.9717136E-01
        1   -1    0    0  501    0  0.00000000000E+00  0.00000000000E+00  0.99007976799E+03  0.99007976800E+03  0.50400001928E-02 0.  1.
       -1   -1    0    0    0  501  0.00000000000E+00  0.00000000000E+00 -0.12374719950E+03  0.12374719961E+03  0.50400001928E-02 0. -1.
    10030    2    1    2    0    0  0.00000000000E+00  0.00000000000E+00  0.86633256848E+03  0.11138269676E+04  0.70005599387E+03 0.  0.
        5    1    3    3  502    0 -0.26929585331E+03 -0.42547347195E+02  0.83978021158E+02  0.28531549449E+03  0.46999998093E+01 0. -1.
       -5    1    3    3    0  502  0.26929585331E+03  0.42547347195E+02  0.78235454733E+03  0.82851147311E+03  0.46999998093E+01 0.  1.
</event>
<event>
 5   0  0.1222679E-03  0.6994512E+03  0.7818609E-02  0.9718171E-01
       -2   -1    0    0    0  501  0.00000000000E+00  0.00000000000E+00  0.53761107323E+02  0.53761107384E+02  0.25500000920E-02 0.  1.
        2   -1    0    0  501    0  0.00000000000E+00  0.00000000000E+00 -0.22750275260E+04  0.22750275260E+04  0.25500000920E-02 0. -1.
    10030    2    1    2    0    0  0.00000000000E+00  0.00000000000E+00 -0.22212664186E+04  0.23287886334E+04  0.69945121076E+03 0.  0.
        2    1    3    3  502    0  0.30618977517E+03  0.13205416837E+03 -0.14616893325E+04  0.14992418706E+04  0.25500000920E-02 0. -1.
       -2    1    3    3    0  502 -0.30618977517E+03 -0.13205416837E+03 -0.75957708619E+03  0.82954676280E+03  0.25500000920E-02 0.  1.
</event>
<event>
 5   0  0.1222679E-03  0.7000948E+03  0.7818609E-02  0.9717070E-01
       -2   -1    0    0    0  501  0.00000000000E+00  0.00000000000E+00  0.24614170637E+03  0.24614170638E+03  0.25500000920E-02 0.  1.
        2   -1    0    0  501    0  0.00000000000E+00  0.00000000000E+00 -0.49781566129E+03  0.49781566130E+03  0.25500000920E-02 0. -1.
    10030    2    1    2    0    0  0.00000000000E+00  0.00000000000E+00 -0.25167395492E+03  0.74395736768E+03  0.70009484025E+03 0.  0.
        2    1    3    3  502    0 -0.20857401925E+03 -0.26966954041E+03 -0.21023869001E+03  0.40053100918E+03  0.25500000920E-02 0. -1.
       -2    1    3    3    0  502  0.20857401925E+03  0.26966954041E+03 -0.41435264911E+02  0.34342635850E+03  0.25500000920E-02 0.  1.
</event>
<event>
 5   0  0.7459843E-04  0.7001591E+03  0.7818609E-02  0.9716960E-01
       -1   -1    0    0    0  501  0.00000000000E+00  0.00000000000E+00  0.10783985038E+04  0.10783985038E+04  0.50400001928E-02 0.  1.
        1   -1    0    0  501    0  0.00000000000E+00  0.00000000000E+00 -0.11364599819E+03  0.11364599830E+03  0.50400001928E-02 0. -1.
    10030    2    1    2    0    0  0.00000000000E+00  0.00000000000E+00  0.96475250557E+03  0.11920445021E+04  0.70015905188E+03 0.  0.
        2    1    3    3  502    0  0.31350393268E+03 -0.40454910834E+02  0.22623480515E+03  0.38872033994E+03  0.25500000920E-02 0. -1.
       -2    1    3    3    0  502 -0.31350393268E+03  0.40454910834E+02  0.73851770042E+03  0.80332416213E+03  0.25500000920E-02 0.  1.
</event>
<event>
 5   0  0.1243087E-03  0.6986159E+03  0.7818609E-02  0.9719602E-01
        2   -1    0    0  501    0  0.00000000000E+00  0.00000000000E+00  0.49199376588E+03  0.49199376589E+03  0.25500000920E-02 0.  1.
       -2   -1    0    0    0  501  0.00000000000E+00  0.00000000000E+00 -0.24800324987E+03  0.24800324988E+03  0.25500000920E-02 0. -1.
    10030    2    1    2    0    0  0.00000000000E+00  0.00000000000E+00  0.24399051602E+03  0.73999701577E+03  0.69861592556E+03 0.  0.
        4    1    3    3  502    0 -0.49250080894E+02  0.22175277601E+03 -0.15908009872E+03  0.27732283506E+03  0.12699999809E+01 0. -1.
       -4    1    3    3    0  502  0.49250080894E+02 -0.22175277601E+03  0.40307061473E+03  0.46267418071E+03  0.12699999809E+01 0.  1.
</event>
<event>
 5   0  0.7570633E-04  0.6999824E+03  0.7818609E-02  0.9717262E-01
        1   -1    0    0  501    0  0.00000000000E+00  0.00000000000E+00  0.81003638266E+03  0.81003638267E+03  0.50400001928E-02 0.  1.
       -1   -1    0    0    0  501  0.00000000000E+00  0.00000000000E+00 -0.15122018243E+03  0.15122018251E+03  0.50400001928E-02 0. -1.
    10030    2    1    2    0    0  0.00000000000E+00  0.00000000000E+00  0.65881620023E+03  0.96125656519E+03  0.69998242723E+03 0.  0.
        5    1    3    3  502    0  0.26672211284E+03 -0.22134104455E+03  0.39582633904E+03  0.52614933637E+03  0.46999998093E+01 0.  1.
       -5    1    3    3    0  502 -0.26672211284E+03  0.22134104455E+03  0.26298986119E+03  0.43510722882E+03  0.46999998093E+01 0. -1.
</event>
<event>
 5   0  0.7570633E-04  0.6962199E+03  0.7818609E-02  0.9723719E-01
       -1   -1    0    0    0  501  0.00000000000E+00  0.00000000000E+00  0.81580051718E+02  0.81580051874E+02  0.50400001928E-02 0. -1.
        1   -1    0    0  501    0  0.00000000000E+00  0.00000000000E+00 -0.14854188405E+04  0.14854188405E+04  0.50400001928E-02 0.  1.
    10030    2    1    2    0    0  0.00000000000E+00  0.00000000000E+00 -0.14038387888E+04  0.15669988924E+04  0.69621992490E+03 0.  0.
        5    1    3    3  502    0  0.12604578127E+03  0.31708407881E+02  0.24843161746E+02  0.13240934555E+03  0.46999998093E+01 0. -1.
       -5    1    3    3    0  502 -0.12604578127E+03 -0.31708407881E+02 -0.14286819505E+04  0.14345895468E+04  0.46999998093E+01 0.  1.
</event>
<event>
 5   0  0.7574241E-04  0.6995455E+03  0.7818609E-02  0.9718010E-01
       -1   -1    0    0    0  501  0.00000000000E+00  0.00000000000E+00  0.48191680973E+03  0.48191680975E+03  0.50400001928E-02 0.  1.
        1   -1    0    0  501    0  0.00000000000E+00  0.00000000000E+00 -0.25386325339E+03  0.25386325344E+03  0.50400001928E-02 0. -1.
    10030    2    1    2    0    0  0.00000000000E+00  0.00000000000E+00  0.22805355634E+03  0.73578006319E+03  0.69954547874E+03 0.  0.
        3    1    3    3  502    0 -0.79361698197E+01 -0.29101826710E+03  0.31794080757E+03  0.43109277643E+03  0.10100000352E+00 0.  1.
       -3    1    3    3    0  502  0.79361698197E+01  0.29101826710E+03 -0.89887251230E+02  0.30468728675E+03  0.10100000352E+00 0. -1.
</event>
<event>
 5   0  0.1222679E-03  0.7001525E+03  0.7818609E-02  0.9716972E-01
       -2   -1    0    0    0  501  0.00000000000E+00  0.00000000000E+00  0.92702212591E+02  0.92702212627E+02  0.25500000920E-02 0. -1.
        2   -1    0    0  501    0  0.00000000000E+00  0.00000000000E+00 -0.13220112324E+04  0.13220112324E+04  0.25500000920E-02 0.  1.
    10030    2    1    2    0    0  0.00000000000E+00  0.00000000000E+00 -0.12293090198E+04  0.14147134450E+04  0.70015245866E+03 0.  0.
        2    1    3    3  502    0  0.10464244971E+02  0.27074838774E+03 -0.16674549901E+03  0.31814815941E+03  0.25500000920E-02 0. -1.
       -2    1    3    3    0  502 -0.10464244971E+02 -0.27074838774E+03 -0.10625635208E+04  0.10965652856E+04  0.25500000920E-02 0.  1.
</event>
<event>
 5   0  0.7013526E-04  0.6999893E+03  0.7818609E-02  0.9717250E-01
       -1   -1    0    0    0  501  0.00000000000E+00  0.00000000000E+00  0.54522505911E+03  0.54522505913E+03  0.50400001928E-02 0. -1.
        1   -1    0    0  501    0  0.00000000000E+00  0.00000000000E+00 -0.22467099527E+03  0.22467099533E+03  0.50400001928E-02 0.  1.
    10030    2    1    2    0    0  0.00000000000E+00  0.00000000000E+00  0.32055406383E+03  0.76989605446E+03  0.69998930480E+03 0.  0.
        1    1    3    3  502    0  0.60282127471E+02 -0.27399125632E+03 -0.69884999754E+02  0.28911772109E+03  0.50400001928E-02 0.  1.
       -1    1    3    3    0  502 -0.60282127471E+02  0.27399125632E+03  0.39043906359E+03  0.48077833337E+03  0.50400001928E-02 0. -1.
</event>
<event>
 5   0  0.1222679E-03  0.7001525E+03  0.7818609E-02  0.9716971E-01
       -2   -1    0    0    0  501  0.00000000000E+00  0.00000000000E+00  0.86420488256E+02  0.86420488294E+02  0.25500000920E-02 0. -1.
        2   -1    0    0  501    0  0.00000000000E+00  0.00000000000E+00 -0.14181054954E+04  0.14181054954E+04  0.25500000920E-02 0.  1.
    10030    2    1    2    0    0  0.00000000000E+00  0.00000000000E+00 -0.13316850072E+04  0.15045259837E+04  0.70015246724E+03 0.  0.
        2    1    3    3  502    0  0.27271227238E+02  0.35036464648E+02 -0.14120308853E+04  0.14127287407E+04  0.25500000920E-02 0.  1.
       -2    1    3    3    0  502 -0.27271227238E+02 -0.35036464648E+02  0.80345878134E+02  0.91797243040E+02  0.25500000920E-02 0. -1.
</event>
<event>
 5   0  0.1222679E-03  0.7000764E+03  0.7818609E-02  0.9717101E-01
       -2   -1    0    0    0  501  0.00000000000E+00  0.00000000000E+00  0.33382990238E+03  0.33382990239E+03  0.25500000920E-02 0.  1.
        2   -1    0    0  501    0  0.00000000000E+00  0.00000000000E+00 -0.36703348567E+03  0.36703348568E+03  0.25500000920E-02 0. -1.
    10030    2    1    2    0    0  0.00000000000E+00  0.00000000000E+00 -0.33203583291E+02  0.70086338806E+03  0.70007643210E+03 0.  0.
        2    1    3    3  502    0  0.49841332644E+02  0.26709257451E+03 -0.23754003892E+03  0.36089870033E+03  0.25500000920E-02 0. -1.
       -2    1    3    3    0  502 -0.49841332644E+02 -0.26709257451E+03  0.20433645563E+03  0.33996468773E+03  0.25500000920E-02 0.  1.
</event>
<event>
 5   0  0.7574241E-04  0.6996523E+03  0.7818609E-02  0.9717827E-01
        1   -1    0    0  501    0  0.00000000000E+00  0.00000000000E+00  0.10280326827E+04  0.10280326827E+04  0.50400001928E-02 0. -1.
       -1   -1    0    0    0  501  0.00000000000E+00  0.00000000000E+00 -0.11904128844E+03  0.11904128855E+03  0.50400001928E-02 0.  1.
    10030    2    1    2    0    0  0.00000000000E+00  0.00000000000E+00  0.90899139422E+03  0.11470739712E+04  0.69965229986E+03 0.  0.
        3    1    3    3  502    0 -0.18844108410E+02  0.63876186036E+02 -0.10855221180E+03  0.12735328991E+03  0.10100000352E+00 0.  1.
       -3    1    3    3    0  502  0.18844108410E+02 -0.63876186036E+02  0.10175436060E+04  0.10197206813E+04  0.10100000352E+00 0. -1.
</event>
<event>
 5   0  0.7013526E-04  0.7001109E+03  0.7818609E-02  0.9717042E-01
        1   -1    0    0  501    0  0.00000000000E+00  0.00000000000E+00  0.58419042326E+03  0.58419042328E+03  0.50400001928E-02 0.  1.
       -1   -1    0    0    0  501  0.00000000000E+00  0.00000000000E+00 -0.20975837613E+03  0.20975837619E+03  0.50400001928E-02 0. -1.
    10030    2    1    2    0    0  0.00000000000E+00  0.00000000000E+00  0.37443204713E+03  0.79394879948E+03  0.70011094712E+03 0.  0.
        1    1    3    3  502    0  0.11076071141E+03 -0.30472237496E+03  0.37561609370E+02  0.32639628600E+03  0.50400001928E-02 0. -1.
       -1    1    3    3    0  502 -0.11076071141E+03  0.30472237496E+03  0.33687043776E+03  0.46755251347E+03  0.50400001928E-02 0.  1.
</event>
<event>
 5   0  0.7574241E-04  0.6999224E+03  0.7818609E-02  0.9717365E-01
       -1   -1    0    0    0  501  0.00000000000E+00  0.00000000000E+00  0.20162019795E+03  0.20162019801E+03  0.50400001928E-02 0. -1.
        1   -1    0    0  501    0  0.00000000000E+00  0.00000000000E+00 -0.60744336003E+03  0.60744336005E+03  0.50400001928E-02 0.  1.
    10030    2    1    2    0    0  0.00000000000E+00  0.00000000000E+00 -0.40582316208E+03  0.80906355806E+03  0.69992242577E+03 0.  0.
        3    1    3    3  502    0 -0.27371999986E+03  0.18267281710E+03 -0.34056397521E+03  0.47357768935E+03  0.10100000352E+00 0.  1.
       -3    1    3    3    0  502  0.27371999986E+03 -0.18267281710E+03 -0.65259186868E+02  0.33548586871E+03  0.10100000352E+00 0. -1.
</event>
<event>
 5   0  0.7570633E-04  0.6997989E+03  0.7818609E-02  0.9717576E-01
       -1   -1    0    0    0  501  0.00000000000E+00  0.00000000000E+00  0.27070751552E+03  0.27070751556E+03  0.50400001928E-02 0.  1.
        1   -1    0    0  501    0  0.00000000000E+00  0.00000000000E+00 -0.45225797804E+03  0.45225797807E+03  0.50400001928E-02 0. -1.
    10030    2    1    2    0    0  0.00000000000E+00  0.00000000000E+00 -0.18155046253E+03  0.72296549364E+03  0.69979892437E+03 0.  0.
        5    1    3    3  502    0 -0.18357539544E+03 -0.27500113335E+03  0.27387706421E+02  0.33180977324E+03  0.46999998093E+01 0.  1.
       -5    1    3    3    0  502  0.18357539544E+03  0.27500113335E+03 -0.20893816895E+03  0.39115572040E+03  0.46999998093E+01 0. -1.
</event>
<event>
 5   0  0.7572415E-04  0.7000057E+03  0.7818609E-02  0.9717223E-01
        1   -1    0    0  501    0  0.00000000000E+00  0.00000000000E+00  0.28219692395E+03  0.28219692400E+03  0.50400001928E-02 0. -1.
       -1   -1    0    0    0  501  0.00000000000E+00  0.00000000000E+00 -0.43410105016E+03  0.43410105019E+03  0.50400001928E-02 0.  1.
    10030    2    1    2    0    0  0.00000000000E+00  0.00000000000E+00 -0.15190412621E+03  0.71629797419E+03  0.70000566017E+03 0.  0.
        4    1    3    3  502    0 -0.20389585921E+03 -0.24624594857E+03  0.69805411701E+02  0.32723844058E+03  0.12699999809E+01 0. -1.
       -4    1    3    3    0  502  0.20389585921E+03  0.24624594857E+03 -0.22170953791E+03  0.38905953361E+03  0.12699999809E+01 0.  1.
</event>
<event>
 5   0  0.7572415E-04  0.7000151E+03  0.7818609E-02  0.9717206E-01
       -1   -1    0    0    0  501  0.00000000000E+00  0.00000000000E+00  0.24532034287E+03  0.24532034292E+03  0.50400001928E-02 0.  1.
        1   -1    0    0  501    0  0.00000000000E+00  0.00000000000E+00 -0.49936862772E+03  0.49936862774E+03  0.50400001928E-02 0. -1.
    10030    2    1    2    0    0  0.00000000000E+00  0.00000000000E+00 -0.25404828484E+03  0.74468897067E+03  0.70001509412E+03 0.  0.
        4    1    3    3  502    0 -0.11134502967E+03  0.91708160507E+01  0.22583956265E+03  0.25196614943E+03  0.12699999809E+01 0.  1.
       -4    1    3    3    0  502  0.11134502967E+03 -0.91708160507E+01 -0.47988784750E+03  0.49272282124E+03  0.12699999809E+01 0. -1.
</event>
<event>
 5   0  0.1265562E-03  0.7003132E+03  0.7818609E-02  0.9716697E-01
       -2   -1    0    0    0  501  0.00000000000E+00  0.00000000000E+00  0.89372908953E+02  0.89372908990E+02  0.25500000920E-02 0.  1.
        2   -1    0    0  501    0  0.00000000000E+00  0.00000000000E+00 -0.13718881727E+04  0.13718881727E+04  0.25500000920E-02 0. -1.
    10030    2    1    2    0    0  0.00000000000E+00  0.00000000000E+00 -0.12825152637E+04  0.14612610817E+04  0.70031317789E+03 0.  0.
        1    1    3    3  502    0  0.59096356478E+01  0.73489489136E+02  0.72993869162E+02  0.10374841574E+03  0.50400001928E-02 0.  1.
       -1    1    3    3    0  502 -0.59096356478E+01 -0.73489489136E+02 -0.13555091329E+04  0.13575126660E+04  0.50400001928E-02 0. -1.
</event>
<event>
 5   0  0.1224048E-03  0.7001162E+03  0.7818609E-02  0.9717033E-01
       -2   -1    0    0    0  501  0.00000000000E+00  0.00000000000E+00  0.10596962594E+03  0.10596962597E+03  0.25500000920E-02 0.  1.
        2   -1    0    0  501    0  0.00000000000E+00  0.00000000000E+00 -0.11563754950E+04  0.11563754950E+04  0.25500000920E-02 0. -1.
    10030    2    1    2    0    0  0.00000000000E+00  0.00000000000E+00 -0.10504058690E+04  0.12623451210E+04  0.70011621513E+03 0.  0.
        3    1    3    3  502    0 -0.26543036266E+03 -0.38832308604E+02 -0.93070679216E+03  0.96859504892E+03  0.10100000352E+00 0. -1.
       -3    1    3    3    0  502  0.26543036266E+03  0.38832308604E+02 -0.11969907687E+03  0.29375007203E+03  0.10100000352E+00 0.  1.
</event>
<event>
 5   0  0.7570633E-04  0.6951099E+03  0.7818609E-02  0.9725632E-01
        1   -1    0    0  501    0  0.00000000000E+00  0.00000000000E+00  0.11522802559E+03  0.11522802570E+03  0.50400001928E-02 0.  1.
       -1   -1    0    0    0  501  0.00000000000E+00  0.00000000000E+00 -0.10483077015E+04  0.10483077015E+04  0.50400001928E-02 0. -1.
    10030    2    1    2    0    0  0.00000000000E+00  0.00000000000E+00 -0.93307967588E+03  0.11635357272E+04  0.69510985239E+03 0.  0.
        5    1    3    3  502    0  0.22623202302E+03  0.13773931817E+03 -0.89936384550E+02  0.27975648567E+03  0.46999998093E+01 0.  1.
       -5    1    3    3    0  502 -0.22623202302E+03 -0.13773931817E+03 -0.84314329133E+03  0.88377924151E+03  0.46999998093E+01 0. -1.
</event>
<event>
 5   0  0.1222679E-03  0.6995785E+03  0.7818609E-02  0.9717953E-01
       -2   -1    0    0    0  501  0.00000000000E+00  0.00000000000E+00  0.16225451665E+03  0.16225451667E+03  0.25500000920E-02 0.  1.
        2   -1    0    0  501    0  0.00000000000E+00  0.00000000000E+00 -0.75407775735E+03  0.75407775735E+03  0.25500000920E-02 0. -1.
    10030    2    1    2    0    0  0.00000000000E+00  0.00000000000E+00 -0.59182324070E+03  0.91633227402E+03  0.69957850752E+03 0.  0.
        2    1    3    3  502    0  0.16337973593E+03 -0.22053905151E+02 -0.69999769223E+03  0.71914955467E+03  0.25500000920E-02 0. -1.
       -2    1    3    3    0  502 -0.16337973593E+03  0.22053905151E+02  0.10817445153E+03  0.19718271936E+03  0.25500000920E-02 0.  1.
</event>
<event>
 5   0  0.1243087E-03  0.7001191E+03  0.7818609E-02  0.9717029E-01
       -2   -1    0    0    0  501  0.00000000000E+00  0.00000000000E+00  0.82873960697E+02  0.82873960736E+02  0.25500000920E-02 0.  1.
        2   -1    0    0  501    0  0.00000000000E+00  0.00000000000E+00 -0.14786513720E+04  0.14786513720E+04  0.25500000920E-02 0. -1.
    10030    2    1    2    0    0  0.00000000000E+00  0.00000000000E+00 -0.13957774113E+04  0.15615253328E+04  0.70011912050E+03 0.  0.
        4    1    3    3  502    0 -0.11896486713E+03  0.33583596203E+02 -0.14283465417E+04  0.14336861420E+04  0.12699999809E+01 0. -1.
       -4    1    3    3    0  502  0.11896486713E+03 -0.33583596203E+02  0.32569130395E+02  0.12783919079E+03  0.12699999809E+01 0.  1.
</event>
<event>
 5   0  0.7572415E-04  0.6996238E+03  0.7818609E-02  0.9717876E-01
        1   -1    0    0  501    0  0.00000000000E+00  0.00000000000E+00  0.11653390844E+04  0.11653390844E+04  0.50400001928E-02 0.  1.
       -1   -1    0    0    0  501  0.00000000000E+00  0.00000000000E+00 -0.10500666059E+03  0.10500666071E+03  0.50400001928E-02 0. -1.
    10030    2    1    2    0    0  0.00000000000E+00  0.00000000000E+00  0.10603324238E+04  0.12703457451E+04  0.69962380117E+03 0.  0.
        4    1    3    3  502    0  0.34699852501E+03 -0.42196465171E+02  0.50592503594E+03  0.61493924328E+03  0.12699999809E+01 0.  1.
       -4    1    3    3    0  502 -0.34699852501E+03  0.42196465171E+02  0.55440738786E+03  0.65540650183E+03  0.12699999809E+01 0. -1.
</event>
<event>
 5   0  0.1282546E-03  0.7000934E+03  0.7818609E-02  0.9717073E-01
       -2   -1    0    0    0  501  0.00000000000E+00  0.00000000000E+00  0.56829394014E+02  0.56829394071E+02  0.25500000920E-02 0.  1.
        2   -1    0    0  501    0  0.00000000000E+00  0.00000000000E+00 -0.21561495961E+04  0.21561495961E+04  0.25500000920E-02 0. -1.
    10030    2    1    2    0    0  0.00000000000E+00  0.00000000000E+00 -0.20993202020E+04  0.22129789901E+04  0.70009335095E+03 0.  0.
        5    1    3    3  502    0  0.34524997572E+02  0.12407672844E+03 -0.20891613351E+02  0.13055864392E+03  0.46999998093E+01 0.  1.
       -5    1    3    3    0  502 -0.34524997572E+02 -0.12407672844E+03 -0.20784285887E+04  0.20824203462E+04  0.46999998093E+01 0. -1.
</event>
<event>
 5   0  0.1224048E-03  0.7000701E+03  0.7818609E-02  0.9717112E-01
       -2   -1    0    0    0  501  0.00000000000E+00  0.00000000000E+00  0.37713950045E+03  0.37713950046E+03  0.25500000920E-02 0.  1.
        2   -1    0    0  501    0  0.00000000000E+00  0.00000000000E+00 -0.32487859916E+03  0.32487859917E+03  0.25500000920E-02 0. -1.
    10030    2    1    2    0    0  0.00000000000E+00  0.00000000000E+00  0.52260901297E+02  0.70201809963E+03  0.70007014677E+03 0.  0.
        3    1    3    3  502    0  0.25589479026E+03 -0.60756673507E+02  0.25775155942E+03  0.36825180739E+03  0.10100000352E+00 0.  1.
       -3    1    3    3    0  502 -0.25589479026E+03  0.60756673507E+02 -0.20549065813E+03  0.33376629224E+03  0.10100000352E+00 0. -1.
</event>
<event>
 5   0  0.7572415E-04  0.6996665E+03  0.7818609E-02  0.9717803E-01
        1   -1    0    0  501    0  0.00000000000E+00  0.00000000000E+00  0.10526805782E+04  0.10526805782E+04  0.50400001928E-02 0.  1.
       -1   -1    0    0    0  501  0.00000000000E+00  0.00000000000E+00 -0.11625872639E+03  0.11625872650E+03  0.50400001928E-02 0. -1.
    10030    2    1    2    0    0  0.00000000000E+00  0.00000000000E+00  0.93642185177E+03  0.11689393047E+04  0.69966650166E+03 0.  0.
        4    1    3    3  502    0  0.63788944203E+02  0.30535721651E+03  0.20368097297E+03  0.37255819777E+03  0.12699999809E+01 0. -1.
       -4    1    3    3    0  502 -0.63788944203E+02 -0.30535721651E+03  0.73274087879E+03  0.79638110690E+03  0.12699999809E+01 0.  1.
</event>
<event>
 5   0  0.4936000E-04  0.7000761E+03  0.7818609E-02  0.9717102E-01
       -3   -1    0    0    0  501  0.00000000000E+00  0.00000000000E+00  0.32868109379E+03  0.32868110931E+03  0.10100000352E+00 0. -1.
        3   -1    0    0  501    0  0.00000000000E+00  0.00000000000E+00 -0.37278265855E+03  0.37278267224E+03  0.10100000352E+00 0.  1.
    10030    2    1    2    0    0  0.00000000000E+00  0.00000000000E+00 -0.44101564766E+02  0.70146378154E+03  0.70007605930E+03 0.  0.
        1    1    3    3  502    0 -0.49022513869E+02 -0.14164830239E+03  0.29489755802E+03  0.33080510605E+03  0.50400001928E-02 0. -1.
       -1    1    3    3    0  502  0.49022513869E+02  0.14164830239E+03 -0.33899912279E+03  0.37065867549E+03  0.50400001928E-02 0.  1.
</event>
<event>
 5   0  0.7013526E-04  0.7001473E+03  0.7818609E-02  0.9716980E-01
       -1   -1    0    0    0  501  0.00000000000E+00  0.00000000000E+00  0.10215454498E+03  0.10215454511E+03  0.50400001928E-02 0.  1.
        1   -1    0    0  501    0  0.00000000000E+00  0.00000000000E+00 -0.11996680600E+04  0.11996680600E+04  0.50400001928E-02 0. -1.
    10030    2    1    2    0    0  0.00000000000E+00  0.00000000000E+00 -0.10975135150E+04  0.13018226051E+04  0.70014725560E+03 0.  0.
        1    1    3    3  502    0  0.22829824515E+03 -0.25551101043E+03 -0.41538017941E+03  0.53846695224E+03  0.50400001928E-02 0. -1.
       -1    1    3    3    0  502 -0.22829824515E+03  0.25551101043E+03 -0.68213333556E+03  0.76335565283E+03  0.50400001928E-02 0.  1.
</event>
<event>
 5   0  0.1243087E-03  0.6998699E+03  0.7818609E-02  0.9717455E-01
        2   -1    0    0  501    0  0.00000000000E+00  0.00000000000E+00  0.62702102079E+03  0.62702102080E+03  0.25500000920E-02 0. -1.
       -2   -1    0    0    0  501  0.00000000000E+00  0.00000000000E+00 -0.19529565960E+03  0.19529565962E+03  0.25500000920E-02 0.  1.
    10030    2    1    2    0    0  0.00000000000E+00  0.00000000000E+00  0.43172536119E+03  0.82231668042E+03  0.69986994178E+03 0.  0.
        4    1    3    3  502    0  0.96308327444E+02 -0.50911999397E+02 -0.17486208574E+03  0.20602351212E+03  0.12699999809E+01 0.  1.
       -4    1    3    3    0  502 -0.96308327444E+02  0.50911999397E+02  0.60658744693E+03  0.61629316830E+03  0.12699999809E+01 0. -1.
</event>
<event>
 5   0  0.1224048E-03  0.7001588E+03  0.7818609E-02  0.9716961E-01
        2   -1    0    0  501    0  0.00000000000E+00  0.00000000000E+00  0.11891609028E+04  0.11891609028E+04  0.25500000920E-02 0. -1.
       -2   -1    0    0    0  501  0.00000000000E+00  0.00000000000E+00 -0.10306054842E+03  0.10306054845E+03  0.25500000920E-02 0.  1.
    10030    2    1    2    0    0  0.00000000000E+00  0.00000000000E+00  0.10861003544E+04  0.12922214513E+04  0.70015876720E+03 0.  0.
        3    1    3    3  502    0 -0.16808669779E+03  0.15209930531E+03  0.50689351792E+02  0.23228593853E+03  0.10100000352E+00 0.  1.
       -3    1    3    3    0  502  0.16808669779E+03 -0.15209930531E+03  0.10354110026E+04  0.10599355127E+04  0.10100000352E+00 0. -1.
</event>
<event>
 5   0  0.1222679E-03  0.7008646E+03  0.7818609E-02  0.9715755E-01
        2   -1    0    0  501    0  0.00000000000E+00  0.00000000000E+00  0.23020624741E+04  0.23020624741E+04  0.25500000920E-02 0. -1.
       -2   -1    0    0    0  501  0.00000000000E+00  0.00000000000E+00 -0.53344688326E+02  0.53344688387E+02  0.25500000920E-02 0.  1.
    10030    2    1    2    0    0  0.00000000000E+00  0.00000000000E+00  0.22487177858E+04  0.23554071625E+04  0.70086462391E+03 0.  0.
        2    1    3    3  502    0 -0.26024838228E+03 -0.16807910916E+03  0.57394991507E+03  0.65222566066E+03  0.25500000920E-02 0.  1.
       -2    1    3    3    0  502  0.26024838228E+03  0.16807910916E+03  0.16747678707E+04  0.17031815018E+04  0.25500000920E-02 0. -1.
</event>
<event>
 5   0  0.1222679E-03  0.6999380E+03  0.7818609E-02  0.9717338E-01
        2   -1    0    0  501    0  0.00000000000E+00  0.00000000000E+00  0.26669717108E+04  0.26669717108E+04  0.25500000920E-02 0. -1.
       -2   -1    0    0    0  501  0.00000000000E+00  0.00000000000E+00 -0.45924102936E+02  0.45924103007E+02  0.25500000920E-02 0.  1.
    10030    2    1    2    0    0  0.00000000000E+00  0.00000000000E+00  0.26210476079E+04  0.27128958138E+04  0.69993795003E+03 0.  0.
        2    1    3    3  502    0 -0.33396444304E+02 -0.15030061984E+03  0.92398392253E+02  0.17956353114E+03  0.25500000920E-02 0.  1.
       -2    1    3    3    0  502  0.33396444304E+02  0.15030061984E+03  0.25286492156E+04  0.25333322827E+04  0.25500000920E-02 0. -1.
</event>
<event>
 5   0  0.1243087E-03  0.7000358E+03  0.7818609E-02  0.9717171E-01
        2   -1    0    0  501    0  0.00000000000E+00  0.00000000000E+00  0.18286648232E+04  0.18286648232E+04  0.25500000920E-02 0.  1.
       -2   -1    0    0    0  501  0.00000000000E+00  0.00000000000E+00 -0.66995611865E+02  0.66995611914E+02  0.25500000920E-02 0. -1.
    10030    2    1    2    0    0  0.00000000000E+00  0.00000000000E+00  0.17616692113E+04  0.18956604351E+04  0.70003576701E+03 0.  0.
        4    1    3    3  502    0 -0.13094034680E+03 -0.98806446716E+02  0.43545073449E+02  0.16972293497E+03  0.12699999809E+01 0. -1.
       -4    1    3    3    0  502  0.13094034680E+03  0.98806446716E+02  0.17181241378E+04  0.17259375001E+04  0.12699999809E+01 0.  1.
</event>
<event>
 5   0  0.1282546E-03  0.6999712E+03  0.7818609E-02  0.9717281E-01
       -2   -1    0    0    0  501  0.00000000000E+00  0.00000000000E+00  0.16374800528E+03  0.16374800530E+03  0.25500000920E-02 0. -1.
        2   -1    0    0  501    0  0.00000000000E+00  0.00000000000E+00 -0.74803920638E+03  0.74803920638E+03  0.25500000920E-02 0.  1.
    10030    2    1    2    0    0  0.00000000000E+00  0.00000000000E+00 -0.58429120110E+03  0.91178721168E+03  0.69997122205E+03 0.  0.
        5    1    3    3  502    0 -0.41081846999E+02 -0.62992731141E+02  0.15305640035E+03  0.17059939629E+03  0.46999998093E+01 0. -1.
       -5    1    3    3    0  502  0.41081846999E+02  0.62992731141E+02 -0.73734760145E+03  0.74118781539E+03  0.46999998093E+01 0.  1.
</event>
<event>
 5   0  0.1282546E-03  0.7002271E+03  0.7818609E-02  0.9716844E-01
       -2   -1    0    0    0  501  0.00000000000E+00  0.00000000000E+00  0.74758793486E+02  0.74758793529E+02  0.25500000920E-02 0. -1.
        2   -1    0    0  501    0  0.00000000000E+00  0.00000000000E+00 -0.16396668089E+04  0.16396668089E+04  0.25500000920E-02 0.  1.
    10030    2    1    2    0    0  0.00000000000E+00  0.00000000000E+00 -0.15649080154E+04  0.17144256024E+04  0.70022714140E+03 0.  0.
        5    1    3    3  502    0  0.10189506886E+03 -0.30263824779E+03 -0.43117340304E+03  0.53656789652E+03  0.46999998093E+01 0. -1.
       -5    1    3    3    0  502 -0.10189506886E+03  0.30263824779E+03 -0.11337346123E+04  0.11778577059E+04  0.46999998093E+01 0.  1.
</event>
<event>
 5   0  0.1224048E-03  0.6998228E+03  0.7818609E-02  0.9717535E-01
        2   -1    0    0  501    0  0.00000000000E+00  0.00000000000E+00  0.15356529235E+04  0.15356529235E+04  0.25500000920E-02 0.  1.
       -2   -1    0    0    0  501  0.00000000000E+00  0.00000000000E+00 -0.79730255528E+02  0.79730255569E+02  0.25500000920E-02 0. -1.
    10030    2    1    2    0    0  0.00000000000E+00  0.00000000000E+00  0.14559226679E+04  0.16153831790E+04  0.69982283479E+03 0.  0.
        3    1    3    3  502    0  0.24169388105E+03 -0.25224969859E+03  0.77367141927E+03  0.84888946145E+03  0.10100000352E+00 0. -1.
       -3    1    3    3    0  502 -0.24169388105E+03  0.25224969859E+03  0.68225124866E+03  0.76649371757E+03  0.10100000352E+00 0.  1.
</event>
<event>
 5   0  0.7572415E-04  0.7000855E+03  0.7818609E-02  0.9717086E-01
       -1   -1    0    0    0  501  0.00000000000E+00  0.00000000000E+00  0.10613509822E+03  0.10613509834E+03  0.50400001928E-02 0.  1.
        1   -1    0    0  501    0  0.00000000000E+00  0.00000000000E+00 -0.11544714695E+04  0.11544714695E+04  0.50400001928E-02 0. -1.
    10030    2    1    2    0    0  0.00000000000E+00  0.00000000000E+00 -0.10483363713E+04  0.12606065679E+04  0.70008554589E+03 0.  0.
        4    1    3    3  502    0  0.34107610320E+03  0.25221284048E+02 -0.38991059555E+03  0.51865297335E+03  0.12699999809E+01 0.  1.
       -4    1    3    3    0  502 -0.34107610320E+03 -0.25221284048E+02 -0.65842577575E+03  0.74195359452E+03  0.12699999809E+01 0. -1.
</event>
<event>
 5   0  0.7013526E-04  0.7000145E+03  0.7818609E-02  0.9717207E-01
       -1   -1    0    0    0  501  0.00000000000E+00  0.00000000000E+00  0.25439425261E+03  0.25439425266E+03  0.50400001928E-02 0.  1.
        1   -1    0    0  501    0  0.00000000000E+00  0.00000000000E+00 -0.48155596481E+03  0.48155596483E+03  0.50400001928E-02 0. -1.
    10030    2    1    2    0    0  0.00000000000E+00  0.00000000000E+00 -0.22716171220E+03  0.73595021749E+03  0.70001448495E+03 0.  0.
        1    1    3    3  502    0 -0.33561327553E+02  0.32756034510E+03 -0.23834445133E+03  0.40648520256E+03  0.50400001928E-02 0. -1.
       -1    1    3    3    0  502  0.33561327553E+02 -0.32756034510E+03  0.11182739137E+02  0.32946501494E+03  0.50400001928E-02 0.  1.
</event>
<event>
 5   0  0.1222679E-03  0.6988958E+03  0.7818609E-02  0.9719122E-01
        2   -1    0    0  501    0  0.00000000000E+00  0.00000000000E+00  0.11284133511E+04  0.11284133511E+04  0.25500000920E-02 0. -1.
       -2   -1    0    0    0  501  0.00000000000E+00  0.00000000000E+00 -0.10821730141E+03  0.10821730144E+03  0.25500000920E-02 0.  1.
    10030    2    1    2    0    0  0.00000000000E+00  0.00000000000E+00  0.10201960497E+04  0.12366306525E+04  0.69889583701E+03 0.  0.
        2    1    3    3  502    0 -0.12728020112E+03  0.18988395333E+03  0.97776277905E+03  0.10041295820E+04  0.25500000920E-02 0. -1.
       -2    1    3    3    0  502  0.12728020112E+03 -0.18988395333E+03  0.42433270606E+02  0.23250107052E+03  0.25500000920E-02 0.  1.
</event>
<event>
 5   0  0.1243087E-03  0.7004202E+03  0.7818609E-02  0.9716514E-01
        2   -1    0    0  501    0  0.00000000000E+00  0.00000000000E+00  0.15669611774E+04  0.15669611774E+04  0.25500000920E-02 0.  1.
       -2   -1    0    0    0  501  0.00000000000E+00  0.00000000000E+00 -0.78270675348E+02  0.78270675390E+02  0.25500000920E-02 0. -1.
    10030    2    1    2    0    0  0.00000000000E+00  0.00000000000E+00  0.14886905020E+04  0.16452318528E+04  0.70042018712E+03 0.  0.
        4    1    3    3  502    0 -0.24129002589E+02  0.28788902890E+03  0.12093082324E+04  0.12433383753E+04  0.12699999809E+01 0.  1.
       -4    1    3    3    0  502  0.24129002589E+02 -0.28788902890E+03  0.27938226966E+03  0.40189347747E+03  0.12699999809E+01 0. -1.
</event>
<event>
 5   0  0.7570633E-04  0.7000109E+03  0.7818609E-02  0.9717214E-01
        1   -1    0    0  501    0  0.00000000000E+00  0.00000000000E+00  0.36257693238E+03  0.36257693241E+03  0.50400001928E-02 0.  1.
       -1   -1    0    0    0  501  0.00000000000E+00  0.00000000000E+00 -0.33786983368E+03  0.33786983372E+03  0.50400001928E-02 0. -1.
    10030    2    1    2    0    0  0.00000000000E+00  0.00000000000E+00  0.24707098697E+02  0.70044676613E+03  0.70001087953E+03 0.  0.
        5    1    3    3  502    0 -0.24271273586E+03 -0.11030220673E+03  0.23922291256E+03  0.35822582382E+03  0.46999998093E+01 0.  1.
       -5    1    3    3    0  502  0.24271273586E+03  0.11030220673E+03 -0.21451581386E+03  0.34222094231E+03  0.46999998093E+01 0. -1.
</event>
<event>
 5   0  0.4936000E-04  0.6976824E+03  0.7818609E-02  0.9721204E-01
        3   -1    0    0  501    0  0.00000000000E+00  0.00000000000E+00  0.31519889650E+03  0.31519891268E+03  0.10100000352E+00 0. -1.
       -3   -1    0    0    0  501  0.00000000000E+00  0.00000000000E+00 -0.38607419076E+03  0.38607420397E+03  0.10100000352E+00 0.  1.
    10030    2    1    2    0    0  0.00000000000E+00  0.00000000000E+00 -0.70875294262E+02  0.70127311665E+03  0.69768236096E+03 0.  0.
        2    1    3    3  502    0  0.17039913591E+02 -0.33508998911E+03  0.60523648701E+02  0.34093807578E+03  0.25500000920E-02 0. -1.
       -2    1    3    3    0  502 -0.17039913591E+02  0.33508998911E+03 -0.13139894296E+03  0.36033504087E+03  0.25500000920E-02 0.  1.
</event>
<event>
 5   0  0.1265562E-03  0.7003532E+03  0.7818609E-02  0.9716628E-01
        2   -1    0    0  501    0  0.00000000000E+00  0.00000000000E+00  0.91519503979E+03  0.91519503979E+03  0.25500000920E-02 0.  1.
       -2   -1    0    0    0  501  0.00000000000E+00  0.00000000000E+00 -0.13398635659E+03  0.13398635661E+03  0.25500000920E-02 0. -1.
    10030    2    1    2    0    0  0.00000000000E+00  0.00000000000E+00  0.78120868320E+03  0.10491813964E+04  0.70035319366E+03 0.  0.
        1    1    3    3  502    0 -0.34768952069E+03 -0.15113914721E+02  0.33244477305E+03  0.48128573672E+03  0.50400001928E-02 0. -1.
       -1    1    3    3    0  502  0.34768952069E+03  0.15113914721E+02  0.44876391015E+03  0.56789565969E+03  0.50400001928E-02 0.  1.
</event>
<event>
 5   0  0.7570633E-04  0.6999798E+03  0.7818609E-02  0.9717267E-01
       -1   -1    0    0    0  501  0.00000000000E+00  0.00000000000E+00  0.17735584577E+03  0.17735584584E+03  0.50400001928E-02 0.  1.
        1   -1    0    0  501    0  0.00000000000E+00  0.00000000000E+00 -0.69066186600E+03  0.69066186602E+03  0.50400001928E-02 0. -1.
    10030    2    1    2    0    0  0.00000000000E+00  0.00000000000E+00 -0.51330602023E+03  0.86801771186E+03  0.69997976949E+03 0.  0.
        5    1    3    3  502    0 -0.23591207035E+03 -0.72012689621E+02 -0.56450426887E+03  0.61605802646E+03  0.46999998093E+01 0. -1.
       -5    1    3    3    0  502  0.23591207035E+03  0.72012689621E+02  0.51198248634E+02  0.25195968539E+03  0.46999998093E+01 0.  1.
</event>
<event>
 5   0  0.7572415E-04  0.6997160E+03  0.7818609E-02  0.9717718E-01
       -1   -1    0    0    0  501  0.00000000000E+00  0.00000000000E+00  0.59535160983E+03  0.59535160985E+03  0.50400001928E-02 0. -1.
        1   -1    0    0  501    0  0.00000000000E+00  0.00000000000E+00 -0.20559384058E+03  0.20559384065E+03  0.50400001928E-02 0.  1.
    10030    2    1    2    0    0  0.00000000000E+00  0.00000000000E+00  0.38975776925E+03  0.80094545050E+03  0.69971601095E+03 0.  0.
        4    1    3    3  502    0  0.17370143221E+03  0.30195663672E+03  0.23195306676E+03  0.41851384218E+03  0.12699999809E+01 0.  1.
       -4    1    3    3    0  502 -0.17370143221E+03 -0.30195663672E+03  0.15780470248E+03  0.38243160832E+03  0.12699999809E+01 0. -1.
</event>
<event>
 5   0  0.7572415E-04  0.6988797E+03  0.7818609E-02  0.9719150E-01
       -1   -1    0    0    0  501  0.00000000000E+00  0.00000000000E+00  0.58397335378E+02  0.58397335595E+02  0.50400001928E-02 0. -1.
        1   -1    0    0  501    0  0.00000000000E+00  0.00000000000E+00 -0.20909891749E+04  0.20909891749E+04  0.50400001928E-02 0.  1.
    10030    2    1    2    0    0  0.00000000000E+00  0.00000000000E+00 -0.20325918395E+04  0.21493865105E+04  0.69887966449E+03 0.  0.
        4    1    3    3  502    0  0.14768441951E+03 -0.18744079405E+03 -0.18013666744E+04  0.18171043579E+04  0.12699999809E+01 0.  1.
       -4    1    3    3    0  502 -0.14768441951E+03  0.18744079405E+03 -0.23122516515E+03  0.33228215261E+03  0.12699999809E+01 0. -1.
</event>
<event>
 5   0  0.7013526E-04  0.7000237E+03  0.7818609E-02  0.9717192E-01
       -1   -1    0    0    0  501  0.00000000000E+00  0.00000000000E+00  0.35638925242E+03  0.35638925245E+03  0.50400001928E-02 0. -1.
        1   -1    0    0  501    0  0.00000000000E+00  0.00000000000E+00 -0.34374852765E+03  0.34374852769E+03  0.50400001928E-02 0.  1.
    10030    2    1    2    0    0  0.00000000000E+00  0.00000000000E+00  0.12640724768E+02  0.70013778014E+03  0.70002365907E+03 0.  0.
        1    1    3    3  502    0 -0.29857780904E+03  0.31245501447E+01  0.18896943709E+03  0.35336655054E+03  0.50400001928E-02 0. -1.
       -1    1    3    3    0  502  0.29857780904E+03 -0.31245501447E+01 -0.17632871232E+03  0.34677122960E+03  0.50400001928E-02 0.  1.
</event>
<event>
 5   0  0.7013526E-04  0.6997553E+03  0.7818609E-02  0.9717651E-01
        1   -1    0    0  501    0  0.00000000000E+00  0.00000000000E+00  0.51505964390E+03  0.51505964393E+03  0.50400001928E-02 0.  1.
       -1   -1    0    0    0  501  0.00000000000E+00  0.00000000000E+00 -0.23767029572E+03  0.23767029577E+03  0.50400001928E-02 0. -1.
    10030    2    1    2    0    0  0.00000000000E+00  0.00000000000E+00  0.27738934819E+03  0.75272993970E+03  0.69975532269E+03 0.  0.
        1    1    3    3  502    0  0.18460939561E+03  0.23443486523E+03 -0.57821087892E+02  0.30394672759E+03  0.50400001928E-02 0. -1.
       -1    1    3    3    0  502 -0.18460939561E+03 -0.23443486523E+03  0.33521043608E+03  0.44878321210E+03  0.50400001928E-02 0.  1.
</event>
<event>
 5   0  0.4936000E-04  0.6999051E+03  0.7818609E-02  0.9717394E-01
        4   -1    0    0  501    0  0.00000000000E+00  0.00000000000E+00  0.96901176781E+03  0.96901260005E+03  0.12699999809E+01 0. -1.
       -4   -1    0    0    0  501  0.00000000000E+00  0.00000000000E+00 -0.12637911426E+03  0.12638549530E+03  0.12699999809E+01 0.  1.
    10030    2    1    2    0    0  0.00000000000E+00  0.00000000000E+00  0.84263265355E+03  0.10953980953E+04  0.69990513533E+03 0.  0.
        3    1    3    3  502    0  0.36150121690E+01  0.18058969030E+03  0.89042157872E+03  0.90855726436E+03  0.10100000352E+00 0. -1.
       -3    1    3    3    0  502 -0.36150121690E+01 -0.18058969030E+03 -0.47788925179E+02  0.18684083099E+03  0.10100000352E+00 0.  1.
</event>
<event>
 5   0  0.7570633E-04  0.6996816E+03  0.7818609E-02  0.9717777E-01
       -1   -1    0    0    0  501  0.00000000000E+00  0.00000000000E+00  0.29119804052E+03  0.29119804056E+03  0.50400001928E-02 0. -1.
        1   -1    0    0  501    0  0.00000000000E+00  0.00000000000E+00 -0.42029333764E+03  0.42029333767E+03  0.50400001928E-02 0.  1.
    10030    2    1    2    0    0  0.00000000000E+00  0.00000000000E+00 -0.12909529712E+03  0.71149137823E+03  0.69968163157E+03 0.  0.
        5    1    3    3  502    0 -0.23503343607E+02 -0.14758862153E+03  0.25706860563E+03  0.29739059563E+03  0.46999998093E+01 0. -1.
       -5    1    3    3    0  502  0.23503343607E+02  0.14758862153E+03 -0.38616390275E+03  0.41410078260E+03  0.46999998093E+01 0.  1.
</event>
<event>
 5   0  0.1224048E-03  0.6999996E+03  0.7818609E-02  0.9717233E-01
        2   -1    0    0  501    0  0.00000000000E+00  0.00000000000E+00  0.23243710318E+04  0.23243710318E+04  0.25500000920E-02 0.  1.
       -2   -1    0    0    0  501  0.00000000000E+00  0.00000000000E+00 -0.52702373923E+02  0.52702373985E+02  0.25500000920E-02 0. -1.
    10030    2    1    2    0    0  0.00000000000E+00  0.00000000000E+00  0.22716686579E+04  0.23770734058E+04  0.69999963237E+03 0.  0.
        3    1    3    3  502    0  0.20336589489E+03 -0.17655439288E+03  0.37672804589E+03  0.46309088915E+03  0.10100000352E+00 0. -1.
       -3    1    3    3    0  502 -0.20336589489E+03  0.17655439288E+03  0.18949406120E+04  0.19139825166E+04  0.10100000352E+00 0.  1.
</event>
<event>
 5   0  0.7574241E-04  0.7005033E+03  0.7818609E-02  0.9716372E-01
        1   -1    0    0  501    0  0.00000000000E+00  0.00000000000E+00  0.83323643474E+03  0.83323643475E+03  0.50400001928E-02 0. -1.
       -1   -1    0    0    0  501  0.00000000000E+00  0.00000000000E+00 -0.14722859575E+03  0.14722859584E+03  0.50400001928E-02 0.  1.
    10030    2    1    2    0    0  0.00000000000E+00  0.00000000000E+00  0.68600783898E+03  0.98046503059E+03  0.70050333409E+03 0.  0.
        3    1    3    3  502    0  0.56759589104E+02  0.20432447060E+02  0.82591040957E+03  0.82811059086E+03  0.10100000352E+00 0. -1.
       -3    1    3    3    0  502 -0.56759589104E+02 -0.20432447060E+02 -0.13990257059E+03  0.15235443974E+03  0.10100000352E+00 0.  1.
</event>
<event>
 5   0  0.4936000E-04  0.7004543E+03  0.7818609E-02  0.9716456E-01
       -3   -1    0    0    0  501  0.00000000000E+00  0.00000000000E+00  0.17636320648E+03  0.17636323540E+03  0.10100000352E+00 0. -1.
        3   -1    0    0  501    0  0.00000000000E+00  0.00000000000E+00 -0.69549100913E+03  0.69549101646E+03  0.10100000352E+00 0.  1.
    10030    2    1    2    0    0  0.00000000000E+00  0.00000000000E+00 -0.51912780265E+03  0.87185425187E+03  0.70045425334E+03 0.  0.
        5    1    3    3  502    0  0.16667112703E+02 -0.31852463102E+03 -0.43951309321E+03  0.54307419596E+03  0.46999998093E+01 0.  1.
       -5    1    3    3    0  502 -0.16667112703E+02  0.31852463102E+03 -0.79614709434E+02  0.32878005591E+03  0.46999998093E+01 0. -1.
</event>
<event>
 5   0  0.4936000E-04  0.6996364E+03  0.7818609E-02  0.9717854E-01
       -4   -1    0    0    0  501  0.00000000000E+00  0.00000000000E+00  0.20128500965E+03  0.20128901612E+03  0.12699999809E+01 0. -1.
        4   -1    0    0  501    0  0.00000000000E+00  0.00000000000E+00 -0.60794700077E+03  0.60794832729E+03  0.12699999809E+01 0.  1.
    10030    2    1    2    0    0  0.00000000000E+00  0.00000000000E+00 -0.40666199112E+03  0.80923734341E+03  0.69963640767E+03 0.  0.
        5    1    3    3  502    0 -0.22708222855E+03 -0.47884896433E+02 -0.50603731335E+03  0.55673616223E+03  0.46999998093E+01 0.  1.
       -5    1    3    3    0  502  0.22708222855E+03  0.47884896433E+02  0.99375322227E+02  0.25250118118E+03  0.46999998093E+01 0. -1.
</event>
<event>
 5   0  0.1282546E-03  0.6995812E+03  0.7818609E-02  0.9717949E-01
       -2   -1    0    0    0  501  0.00000000000E+00  0.00000000000E+00  0.68223708551E+02  0.68223708599E+02  0.25500000920E-02 0.  1.
        2   -1    0    0  501    0  0.00000000000E+00  0.00000000000E+00 -0.17934154651E+04  0.17934154651E+04  0.25500000920E-02 0. -1.
    10030    2    1    2    0    0  0.00000000000E+00  0.00000000000E+00 -0.17251917565E+04  0.18616391737E+04  0.69958117198E+03 0.  0.
        5    1    3    3  502    0  0.23775315843E+03  0.21846659248E+03 -0.12203810598E+04  0.12623811776E+04  0.46999998093E+01 0. -1.
       -5    1    3    3    0  502 -0.23775315843E+03 -0.21846659248E+03 -0.50481069674E+03  0.59925799612E+03  0.46999998093E+01 0.  1.
</event>
<event>
 5   0  0.1224048E-03  0.6997772E+03  0.7818609E-02  0.9717613E-01
        2   -1    0    0  501    0  0.00000000000E+00  0.00000000000E+00  0.13064775294E+04  0.13064775294E+04  0.25500000920E-02 0.  1.
       -2   -1    0    0    0  501  0.00000000000E+00  0.00000000000E+00 -0.93703888563E+02  0.93703888598E+02  0.25500000920E-02 0. -1.
    10030    2    1    2    0    0  0.00000000000E+00  0.00000000000E+00  0.12127736408E+04  0.14001814180E+04  0.69977717839E+03 0.  0.
        3    1    3    3  502    0  0.28163141361E+03 -0.20662402378E+03  0.56575954729E+03  0.66490120761E+03  0.10100000352E+00 0. -1.
       -3    1    3    3    0  502 -0.28163141361E+03  0.20662402378E+03  0.64701409354E+03  0.73528021038E+03  0.10100000352E+00 0.  1.
</event>
<event>
 5   0  0.7013526E-04  0.6999860E+03  0.7818609E-02  0.9717256E-01
       -1   -1    0    0    0  501  0.00000000000E+00  0.00000000000E+00  0.97252430720E+02  0.97252430851E+02  0.50400001928E-02 0. -1.
        1   -1    0    0  501    0  0.00000000000E+00  0.00000000000E+00 -0.12595581990E+04  0.12595581990E+04  0.50400001928E-02 0.  1.
    10030    2    1    2    0    0  0.00000000000E+00  0.00000000000E+00 -0.11623057682E+04  0.13568106298E+04  0.69998599008E+03 0.  0.
        1    1    3    3  502    0  0.93800298934E+02  0.25319227934E+03 -0.14950648073E+03  0.30863735063E+03  0.50400001928E-02 0. -1.
       -1    1    3    3    0  502 -0.93800298934E+02 -0.25319227934E+03 -0.10127992875E+04  0.10481732792E+04  0.50400001928E-02 0.  1.
</event>
<event>
 5   0  0.1243087E-03  0.7000091E+03  0.7818609E-02  0.9717217E-01
       -2   -1    0    0    0  501  0.00000000000E+00  0.00000000000E+00  0.29606361434E+03  0.29606361435E+03  0.25500000920E-02 0.  1.
        2   -1    0    0  501    0  0.00000000000E+00  0.00000000000E+00 -0.41377314537E+03  0.41377314538E+03  0.25500000920E-02 0. -1.
    10030    2    1    2    0    0  0.00000000000E+00  0.00000000000E+00 -0.11770953103E+03  0.70983675972E+03  0.70000906548E+03 0.  0.
        4    1    3    3  502    0  0.30363132269E+03  0.26405752367E+02  0.11564345818E+03  0.32598200288E+03  0.12699999809E+01 0.  1.
       -4    1    3    3    0  502 -0.30363132269E+03 -0.26405752367E+02 -0.23335298921E+03  0.38385475685E+03  0.12699999809E+01 0. -1.
</event>
<event>
 5   0  0.1265562E-03  0.6990045E+03  0.7818609E-02  0.9718936E-01
       -2   -1    0    0    0  501  0.00000000000E+00  0.00000000000E+00  0.14049003181E+03  0.14049003184E+03  0.25500000920E-02 0. -1.
        2   -1    0    0  501    0  0.00000000000E+00  0.00000000000E+00 -0.86946975289E+03  0.86946975290E+03  0.25500000920E-02 0.  1.
    10030    2    1    2    0    0  0.00000000000E+00  0.00000000000E+00 -0.72897972108E+03  0.10099597847E+04  0.69900453005E+03 0.  0.
        1    1    3    3  502    0  0.26716549651E+03  0.15910287056E+03 -0.59503677958E+03  0.67138654665E+03  0.50400001928E-02 0.  1.
       -1    1    3    3    0  502 -0.26716549651E+03 -0.15910287056E+03 -0.13394294150E+03  0.33857323808E+03  0.50400001928E-02 0. -1.
</event>
<event>
 5   0  0.1224048E-03  0.6998130E+03  0.7818609E-02  0.9717552E-01
        2   -1    0    0  501    0  0.00000000000E+00  0.00000000000E+00  0.39446864332E+03  0.39446864333E+03  0.25500000920E-02 0.  1.
       -2   -1    0    0    0  501  0.00000000000E+00  0.00000000000E+00 -0.31037847184E+03  0.31037847185E+03  0.25500000920E-02 0. -1.
    10030    2    1    2    0    0  0.00000000000E+00  0.00000000000E+00  0.84090171483E+02  0.70484711518E+03  0.69981304563E+03 0.  0.
        3    1    3    3  502    0  0.26495189594E+02  0.32635022350E+03 -0.82244793921E+02  0.33759543803E+03  0.10100000352E+00 0. -1.
       -3    1    3    3    0  502 -0.26495189594E+02 -0.32635022350E+03  0.16633496540E+03  0.36725167715E+03  0.10100000352E+00 0.  1.
</event>
<event>
 5   0  0.7570633E-04  0.6996880E+03  0.7818609E-02  0.9717766E-01
        1   -1    0    0  501    0  0.00000000000E+00  0.00000000000E+00  0.19444995457E+03  0.19444995464E+03  0.50400001928E-02 0. -1.
       -1   -1    0    0    0  501  0.00000000000E+00  0.00000000000E+00 -0.62942068314E+03  0.62942068316E+03  0.50400001928E-02 0.  1.
    10030    2    1    2    0    0  0.00000000000E+00  0.00000000000E+00 -0.43497072857E+03  0.82387063780E+03  0.69968799698E+03 0.  0.
        5    1    3    3  502    0 -0.23192661074E+03 -0.25928194788E+03 -0.17419541777E+03  0.38907995944E+03  0.46999998093E+01 0.  1.
       -5    1    3    3    0  502  0.23192661074E+03  0.25928194788E+03 -0.26077531080E+03  0.43479067836E+03  0.46999998093E+01 0. -1.
</event>
<event>
 5   0  0.7459843E-04  0.7001690E+03  0.7818609E-02  0.9716943E-01
       -1   -1    0    0    0  501  0.00000000000E+00  0.00000000000E+00  0.38397591653E+03  0.38397591657E+03  0.50400001928E-02 0.  1.
        1   -1    0    0  501    0  0.00000000000E+00  0.00000000000E+00 -0.31918452538E+03  0.31918452542E+03  0.50400001928E-02 0. -1.
    10030    2    1    2    0    0  0.00000000000E+00  0.00000000000E+00  0.64791391155E+02  0.70316044198E+03  0.70016903873E+03 0.  0.
        2    1    3    3  502    0 -0.23583158428E+03 -0.21933520469E+03  0.17022161894E+03  0.36427993044E+03  0.25500000920E-02 0.  1.
       -2    1    3    3    0  502  0.23583158428E+03  0.21933520469E+03 -0.10543022778E+03  0.33888051154E+03  0.25500000920E-02 0. -1.
</event>
<event>
 5   0  0.7013526E-04  0.6995364E+03  0.7818609E-02  0.9718025E-01
        1   -1    0    0  501    0  0.00000000000E+00  0.00000000000E+00  0.14149910156E+04  0.14149910156E+04  0.50400001928E-02 0.  1.
       -1   -1    0    0    0  501  0.00000000000E+00  0.00000000000E+00 -0.86458357740E+02  0.86458357887E+02  0.50400001928E-02 0. -1.
    10030    2    1    2    0    0  0.00000000000E+00  0.00000000000E+00  0.13285326579E+04  0.15014493735E+04  0.69953641662E+03 0.  0.
        1    1    3    3  502    0  0.27242600894E+03 -0.10250042632E+03  0.24798784137E+03  0.38238754848E+03  0.50400001928E-02 0. -1.
       -1    1    3    3    0  502 -0.27242600894E+03  0.10250042632E+03  0.10805448165E+04  0.11190618250E+04  0.50400001928E-02 0.  1.
</event>
<event>
 5   0  0.1222679E-03  0.6998095E+03  0.7818609E-02  0.9717558E-01
       -2   -1    0    0    0  501  0.00000000000E+00  0.00000000000E+00  0.62675974486E+03  0.62675974487E+03  0.25500000920E-02 0. -1.
        2   -1    0    0  501    0  0.00000000000E+00  0.00000000000E+00 -0.19534334519E+03  0.19534334520E+03  0.25500000920E-02 0.  1.
    10030    2    1    2    0    0  0.00000000000E+00  0.00000000000E+00  0.43141639968E+03  0.82210309007E+03  0.69980953179E+03 0.  0.
        2    1    3    3  502    0  0.31910657790E+03  0.72636252851E+02  0.70264942803E+02  0.33472704624E+03  0.25500000920E-02 0.  1.
       -2    1    3    3    0  502 -0.31910657790E+03 -0.72636252851E+02  0.36115145687E+03  0.48737604383E+03  0.25500000920E-02 0. -1.
</event>
<event>
 5   0  0.1243087E-03  0.7004409E+03  0.7818609E-02  0.9716478E-01
       -2   -1    0    0    0  501  0.00000000000E+00  0.00000000000E+00  0.23965618427E+03  0.23965618429E+03  0.25500000920E-02 0. -1.
        2   -1    0    0  501    0  0.00000000000E+00  0.00000000000E+00 -0.51179307316E+03  0.51179307317E+03  0.25500000920E-02 0.  1.
    10030    2    1    2    0    0  0.00000000000E+00  0.00000000000E+00 -0.27213688889E+03  0.75144925746E+03  0.70044093273E+03 0.  0.
        4    1    3    3  502    0  0.15751987409E+02 -0.22080373647E+03 -0.42721760392E+03  0.48116411872E+03  0.12699999809E+01 0.  1.
       -4    1    3    3    0  502 -0.15751987409E+02  0.22080373647E+03  0.15508071503E+03  0.27028513873E+03  0.12699999809E+01 0. -1.
</event>
<event>
 5   0  0.7459843E-04  0.6991260E+03  0.7818609E-02  0.9718728E-01
        1   -1    0    0  501    0  0.00000000000E+00  0.00000000000E+00  0.44313757331E+03  0.44313757334E+03  0.50400001928E-02 0. -1.
       -1   -1    0    0    0  501  0.00000000000E+00  0.00000000000E+00 -0.27574800665E+03  0.27574800670E+03  0.50400001928E-02 0.  1.
    10030    2    1    2    0    0  0.00000000000E+00  0.00000000000E+00  0.16738956666E+03  0.71888558004E+03  0.69912603311E+03 0.  0.
        2    1    3    3  502    0 -0.21090407848E+03  0.27710043514E+03  0.11503777525E+03  0.36674087748E+03  0.25500000920E-02 0. -1.
       -2    1    3    3    0  502  0.21090407848E+03 -0.27710043514E+03  0.52351791408E+02  0.35214470256E+03  0.25500000920E-02 0.  1.
</event>
<event>
 5   0  0.4936000E-04  0.7016234E+03  0.7818609E-02  0.9714460E-01
        3   -1    0    0  501    0  0.00000000000E+00  0.00000000000E+00  0.59314835980E+03  0.59314836840E+03  0.10100000352E+00 0. -1.
       -3   -1    0    0    0  501  0.00000000000E+00  0.00000000000E+00 -0.20748406929E+03  0.20748409387E+03  0.10100000352E+00 0.  1.
    10030    2    1    2    0    0  0.00000000000E+00  0.00000000000E+00  0.38566429051E+03  0.80063246227E+03  0.70162339945E+03 0.  0.
        3    1    3    3  502    0  0.23583174670E+03  0.55157030738E+02 -0.96772508333E+02  0.26081380209E+03  0.10100000352E+00 0.  1.
       -3    1    3    3    0  502 -0.23583174670E+03 -0.55157030738E+02  0.48243679884E+03  0.53981866017E+03  0.10100000352E+00 0. -1.
</event>
<event>
 5   0  0.7570633E-04  0.7000255E+03  0.7818609E-02  0.9717189E-01
        1   -1    0    0  501    0  0.00000000000E+00  0.00000000000E+00  0.60193812151E+03  0.60193812153E+03  0.50400001928E-02 0.  1.
       -1   -1    0    0    0  501  0.00000000000E+00  0.00000000000E+00 -0.20352409214E+03  0.20352409221E+03  0.50400001928E-02 0. -1.
    10030    2    1    2    0    0  0.00000000000E+00  0.00000000000E+00  0.39841402936E+03  0.80546221373E+03  0.70002545593E+03 0.  0.
        5    1    3    3  502    0  0.20564676919E+02 -0.32245635917E+03  0.35394620610E+03  0.47927133893E+03  0.46999998093E+01 0.  1.
       -5    1    3    3    0  502 -0.20564676919E+02  0.32245635917E+03  0.44467823260E+02  0.32619087481E+03  0.46999998093E+01 0. -1.
</event>
<event>
 5   0  0.7459843E-04  0.6998110E+03  0.7818609E-02  0.9717555E-01
       -1   -1    0    0    0  501  0.00000000000E+00  0.00000000000E+00  0.64322467666E+03  0.64322467668E+03  0.50400001928E-02 0. -1.
        1   -1    0    0  501    0  0.00000000000E+00  0.00000000000E+00 -0.19034386129E+03  0.19034386136E+03  0.50400001928E-02 0.  1.
    10030    2    1    2    0    0  0.00000000000E+00  0.00000000000E+00  0.45288081537E+03  0.83356853804E+03  0.69981102784E+03 0.  0.
        2    1    3    3  502    0 -0.10716165004E+03 -0.24410539919E+03 -0.43510562564E+02  0.27011892606E+03  0.25500000920E-02 0.  1.
       -2    1    3    3    0  502  0.10716165004E+03  0.24410539919E+03  0.49639137793E+03  0.56344961198E+03  0.25500000920E-02 0. -1.
</event>
<event>
 5   0  0.4936000E-04  0.6986120E+03  0.7818609E-02  0.9719609E-01
       -3   -1    0    0    0  501  0.00000000000E+00  0.00000000000E+00  0.59964212246E+03  0.59964213097E+03  0.10100000352E+00 0. -1.
        3   -1    0    0  501    0  0.00000000000E+00  0.00000000000E+00 -0.20347917248E+03  0.20347919754E+03  0.10100000352E+00 0.  1.
    10030    2    1    2    0    0  0.00000000000E+00  0.00000000000E+00  0.39616294998E+03  0.80312132851E+03  0.69861204210E+03 0.  0.
        2    1    3    3  502    0  0.94984020622E+01  0.18881291584E+02  0.59890636392E+03  0.59927919667E+03  0.25500000920E-02 0. -1.
       -2    1    3    3    0  502 -0.94984020622E+01 -0.18881291584E+02 -0.20274341393E+03  0.20384213184E+03  0.25500000920E-02 0.  1.
</event>
<event>
 5   0  0.1222679E-03  0.6999752E+03  0.7818609E-02  0.9717275E-01
        2   -1    0    0  501    0  0.00000000000E+00  0.00000000000E+00  0.52915896890E+03  0.52915896891E+03  0.25500000920E-02 0.  1.
       -2   -1    0    0    0  501  0.00000000000E+00  0.00000000000E+00 -0.23148304519E+03  0.23148304520E+03  0.25500000920E-02 0. -1.
    10030    2    1    2    0    0  0.00000000000E+00  0.00000000000E+00  0.29767592372E+03  0.76064201411E+03  0.69997522676E+03 0.  0.
        2    1    3    3  502    0  0.29105265998E+03  0.18523306970E+03  0.21283524100E+03  0.40536623047E+03  0.25500000920E-02 0.  1.
       -2    1    3    3    0  502 -0.29105265998E+03 -0.18523306970E+03  0.84840682713E+02  0.35527578364E+03  0.25500000920E-02 0. -1.
</event>
<event>
 5   0  0.1224048E-03  0.6995680E+03  0.7818609E-02  0.9717971E-01
       -2   -1    0    0    0  501  0.00000000000E+00  0.00000000000E+00  0.14195278329E+03  0.14195278331E+03  0.25500000920E-02 0. -1.
        2   -1    0    0  501    0  0.00000000000E+00  0.00000000000E+00 -0.86189822584E+03  0.86189822584E+03  0.25500000920E-02 0.  1.
    10030    2    1    2    0    0  0.00000000000E+00  0.00000000000E+00 -0.71994544255E+03  0.10038510092E+04  0.69956801551E+03 0.  0.
        3    1    3    3  502    0 -0.23810945123E+03 -0.24781167801E+03 -0.45343361666E+03  0.56895412245E+03  0.10100000352E+00 0.  1.
       -3    1    3    3    0  502  0.23810945123E+03  0.24781167801E+03 -0.26651182588E+03  0.43489688670E+03  0.10100000352E+00 0. -1.
</event>
<event>
 5   0  0.1222679E-03  0.7001015E+03  0.7818609E-02  0.9717059E-01
       -2   -1    0    0    0  501  0.00000000000E+00  0.00000000000E+00  0.70936657093E+03  0.70936657093E+03  0.25500000920E-02 0.  1.
        2   -1    0    0  501    0  0.00000000000E+00  0.00000000000E+00 -0.17273934215E+03  0.17273934217E+03  0.25500000920E-02 0. -1.
    10030    2    1    2    0    0  0.00000000000E+00  0.00000000000E+00  0.53662722878E+03  0.88210591310E+03  0.70010146354E+03 0.  0.
        2    1    3    3  502    0 -0.77239148874E+02 -0.31474728775E+03  0.10161745623E+03  0.33964370843E+03  0.25500000920E-02 0. -1.
       -2    1    3    3    0  502  0.77239148874E+02  0.31474728775E+03  0.43500977256E+03  0.54246220467E+03  0.25500000920E-02 0.  1.
</event>
<event>
 5   0  0.7574241E-04  0.6999622E+03  0.7818609E-02  0.9717297E-01
       -1   -1    0    0    0  501  0.00000000000E+00  0.00000000000E+00  0.76161613132E+02  0.76161613299E+02  0.50400001928E-02 0.  1.
        1   -1    0    0  501    0  0.00000000000E+00  0.00000000000E+00 -0.16082481624E+04  0.16082481624E+04  0.50400001928E-02 0. -1.
    10030    2    1    2    0    0  0.00000000000E+00  0.00000000000E+00 -0.15320865493E+04  0.16844097757E+04  0.69996221187E+03 0.  0.
        3    1    3    3  502    0  0.31657458713E+03  0.11308449125E+03 -0.10003360192E+04  0.10553102543E+04  0.10100000352E+00 0. -1.
       -3    1    3    3    0  502 -0.31657458713E+03 -0.11308449125E+03 -0.53175053007E+03  0.62909952139E+03  0.10100000352E+00 0.  1.
</event>
<event>
 5   0  0.7570633E-04  0.6999897E+03  0.7818609E-02  0.9717250E-01
        1   -1    0    0  501    0  0.00000000000E+00  0.00000000000E+00  0.82293668946E+03  0.82293668948E+03  0.50400001928E-02 0. -1.
       -1   -1    0    0    0  501  0.00000000000E+00  0.00000000000E+00 -0.14885275771E+03  0.14885275779E+03  0.50400001928E-02 0.  1.
    10030    2    1    2    0    0  0.00000000000E+00  0.00000000000E+00  0.67408393175E+03  0.97178944727E+03  0.69998970191E+03 0.  0.
        5    1    3    3  502    0  0.33796792697E+03  0.15091789292E+01  0.46313753535E+03  0.57336119848E+03  0.46999998093E+01 0.  1.
       -5    1    3    3    0  502 -0.33796792697E+03 -0.15091789292E+01  0.21094639641E+03  0.39842824879E+03  0.46999998093E+01 0. -1.
</event>
<event>
 5   0  0.1282546E-03  0.7000941E+03  0.7818609E-02  0.9717071E-01
        2   -1    0    0  501    0  0.00000000000E+00  0.00000000000E+00  0.60445447710E+03  0.60445447711E+03  0.25500000920E-02 0.  1.
       -2   -1    0    0    0  501  0.00000000000E+00  0.00000000000E+00 -0.20271657291E+03  0.20271657292E+03  0.25500000920E-02 0. -1.
    10030    2    1    2    0    0  0.00000000000E+00  0.00000000000E+00  0.40173790420E+03  0.80717105003E+03  0.70009410820E+03 0.  0.
        5    1    3    3  502    0  0.37523987852E+02  0.68395371315E+01 -0.20027694268E+03  0.20393080370E+03  0.46999998093E+01 0. -1.
       -5    1    3    3    0  502 -0.37523987852E+02 -0.68395371315E+01  0.60201484688E+03  0.60324024633E+03  0.46999998093E+01 0.  1.
</event>
<event>
 5   0  0.7570633E-04  0.7009649E+03  0.7818609E-02  0.9715584E-01
        1   -1    0    0  501    0  0.00000000000E+00  0.00000000000E+00  0.20953579354E+03  0.20953579360E+03  0.50400001928E-02 0.  1.
       -1   -1    0    0    0  501  0.00000000000E+00  0.00000000000E+00 -0.58623842083E+03  0.58623842085E+03  0.50400001928E-02 0. -1.
    10030    2    1    2    0    0  0.00000000000E+00  0.00000000000E+00 -0.37670262728E+03  0.79577421445E+03  0.70096485716E+03 0.  0.
        5    1    3    3  502    0 -0.69245462479E+02 -0.31963206135E+03 -0.33130452464E+03  0.46555812393E+03  0.46999998093E+01 0. -1.
       -5    1    3    3    0  502  0.69245462479E+02  0.31963206135E+03 -0.45398102646E+02  0.33021609052E+03  0.46999998093E+01 0.  1.
</event>
<event>
 5   0  0.7459843E-04  0.7012270E+03  0.7818609E-02  0.9715136E-01
        1   -1    0    0  501    0  0.00000000000E+00  0.00000000000E+00  0.36531668041E+03  0.36531668045E+03  0.50400001928E-02 0.  1.
       -1   -1    0    0    0  501  0.00000000000E+00  0.00000000000E+00 -0.33650209039E+03  0.33650209043E+03  0.50400001928E-02 0. -1.
    10030    2    1    2    0    0  0.00000000000E+00  0.00000000000E+00  0.28814590016E+02  0.70181877088E+03  0.70122700073E+03 0.  0.
        2    1    3    3  502    0  0.23618221158E+03 -0.21488560135E+03 -0.13053193225E+03  0.34495861213E+03  0.25500000920E-02 0. -1.
       -2    1    3    3    0  502 -0.23618221158E+03  0.21488560135E+03  0.15934652227E+03  0.35686015875E+03  0.25500000920E-02 0.  1.
</event>
<event>
 5   0  0.1282546E-03  0.6999895E+03  0.7818609E-02  0.9717250E-01
        2   -1    0    0  501    0  0.00000000000E+00  0.00000000000E+00  0.16043029793E+04  0.16043029793E+04  0.25500000920E-02 0.  1.
       -2   -1    0    0    0  501  0.00000000000E+00  0.00000000000E+00 -0.76354851907E+02  0.76354851950E+02  0.25500000920E-02 0. -1.
    10030    2    1    2    0    0  0.00000000000E+00  0.00000000000E+00  0.15279481274E+04  0.16806578312E+04  0.69998947545E+03 0.  0.
        5    1    3    3  502    0  0.78209925122E+02  0.23668788608E+03  0.13537364265E+04  0.13765036688E+04  0.46999998093E+01 0.  1.
       -5    1    3    3    0  502 -0.78209925122E+02 -0.23668788608E+03  0.17421170087E+03  0.30415416243E+03  0.46999998093E+01 0. -1.
</event>
<event>
 5   0  0.7013526E-04  0.7001546E+03  0.7818609E-02  0.9716968E-01
        1   -1    0    0  501    0  0.00000000000E+00  0.00000000000E+00  0.10419670445E+04  0.10419670445E+04  0.50400001928E-02 0.  1.
       -1   -1    0    0    0  501  0.00000000000E+00  0.00000000000E+00 -0.11761801938E+03  0.11761801949E+03  0.50400001928E-02 0. -1.
    10030    2    1    2    0    0  0.00000000000E+00  0.00000000000E+00  0.92434902515E+03  0.11595850640E+04  0.70015455468E+03 0.  0.
        1    1    3    3  502    0 -0.12054756980E+03  0.59348677354E+02  0.99756060429E+03  0.10065689948E+04  0.50400001928E-02 0.  1.
       -1    1    3    3    0  502  0.12054756980E+03 -0.59348677354E+02 -0.73211579146E+02  0.15301606920E+03  0.50400001928E-02 0. -1.
</event>
<event>
 5   0  0.1224048E-03  0.7011880E+03  0.7818609E-02  0.9715203E-01
       -2   -1    0    0    0  501  0.00000000000E+00  0.00000000000E+00  0.77942041438E+02  0.77942041480E+02  0.25500000920E-02 0.  1.
        2   -1    0    0  501    0  0.00000000000E+00  0.00000000000E+00 -0.15770199476E+04  0.15770199476E+04  0.25500000920E-02 0. -1.
    10030    2    1    2    0    0  0.00000000000E+00  0.00000000000E+00 -0.14990779062E+04  0.16549619891E+04  0.70118800373E+03 0.  0.
        3    1    3    3  502    0  0.19248930794E+02 -0.24027151929E+03 -0.14865300982E+03  0.28319366492E+03  0.10100000352E+00 0.  1.
       -3    1    3    3    0  502 -0.19248930794E+02  0.24027151929E+03 -0.13504248964E+04  0.13717683242E+04  0.10100000352E+00 0. -1.
</event>
<event>
 5   0  0.1265562E-03  0.6998337E+03  0.7818609E-02  0.9717517E-01
        2   -1    0    0  501    0  0.00000000000E+00  0.00000000000E+00  0.56518416810E+03  0.56518416810E+03  0.25500000920E-02 0. -1.
       -2   -1    0    0    0  501  0.00000000000E+00  0.00000000000E+00 -0.21664052978E+03  0.21664052980E+03  0.25500000920E-02 0.  1.
    10030    2    1    2    0    0  0.00000000000E+00  0.00000000000E+00  0.34854363831E+03  0.78182469790E+03  0.69983368770E+03 0.  0.
        1    1    3    3  502    0  0.13659826149E+03  0.15217461414E+03 -0.14294121179E+03  0.24949626908E+03  0.50400001928E-02 0.  1.
       -1    1    3    3    0  502 -0.13659826149E+03 -0.15217461414E+03  0.49148485010E+03  0.53232842882E+03  0.50400001928E-02 0. -1.
</event>
<event>
 5   0  0.1224048E-03  0.6997056E+03  0.7818609E-02  0.9717736E-01
       -2   -1    0    0    0  501  0.00000000000E+00  0.00000000000E+00  0.12268963819E+03  0.12268963821E+03  0.25500000920E-02 0. -1.
        2   -1    0    0  501    0  0.00000000000E+00  0.00000000000E+00 -0.99761479647E+03  0.99761479648E+03  0.25500000920E-02 0.  1.
    10030    2    1    2    0    0  0.00000000000E+00  0.00000000000E+00 -0.87492515829E+03  0.11203044347E+04  0.69970564796E+03 0.  0.
        3    1    3    3  502    0  0.34116115300E+03  0.24021363654E+02 -0.55543535464E+03  0.65228552154E+03  0.10100000352E+00 0.  1.
       -3    1    3    3    0  502 -0.34116115300E+03 -0.24021363654E+02 -0.31948980364E+03  0.46801891315E+03  0.10100000352E+00 0. -1.
</event>
<event>
 5   0  0.4936000E-04  0.6998075E+03  0.7818609E-02  0.9717561E-01
        4   -1    0    0  501    0  0.00000000000E+00  0.00000000000E+00  0.17805906990E+03  0.17806359896E+03  0.12699999809E+01 0. -1.
       -4   -1    0    0    0  501  0.00000000000E+00  0.00000000000E+00 -0.68758178482E+03  0.68758295769E+03  0.12699999809E+01 0.  1.
    10030    2    1    2    0    0  0.00000000000E+00  0.00000000000E+00 -0.50952271492E+03  0.86564655665E+03  0.69980751927E+03 0.  0.
        3    1    3    3  502    0  0.26523917896E+03 -0.22349242542E+03 -0.31187632729E+03  0.46644135751E+03  0.10100000352E+00 0. -1.
       -3    1    3    3    0  502 -0.26523917896E+03  0.22349242542E+03 -0.19764638763E+03  0.39920519914E+03  0.10100000352E+00 0.  1.
</event>
<event>
 5   0  0.1243087E-03  0.6998029E+03  0.7818609E-02  0.9717569E-01
       -2   -1    0    0    0  501  0.00000000000E+00  0.00000000000E+00  0.13518053845E+03  0.13518053847E+03  0.25500000920E-02 0. -1.
        2   -1    0    0  501    0  0.00000000000E+00  0.00000000000E+00 -0.90568527767E+03  0.90568527768E+03  0.25500000920E-02 0.  1.
    10030    2    1    2    0    0  0.00000000000E+00  0.00000000000E+00 -0.77050473922E+03  0.10408658162E+04  0.69980289659E+03 0.  0.
        4    1    3    3  502    0 -0.15181415630E+03 -0.13401674756E+02 -0.85372023953E+03  0.86721796754E+03  0.12699999809E+01 0.  1.
       -4    1    3    3    0  502  0.15181415630E+03  0.13401674756E+02  0.83215500304E+02  0.17364784862E+03  0.12699999809E+01 0. -1.
</event>
<event>
 5   0  0.7570633E-04  0.6999926E+03  0.7818609E-02  0.9717245E-01
       -1   -1    0    0    0  501  0.00000000000E+00  0.00000000000E+00  0.12791933154E+03  0.12791933163E+03  0.50400001928E-02 0.  1.
        1   -1    0    0  501    0  0.00000000000E+00  0.00000000000E+00 -0.95761454477E+03  0.95761454479E+03  0.50400001928E-02 0. -1.
    10030    2    1    2    0    0  0.00000000000E+00  0.00000000000E+00 -0.82969521324E+03  0.10855338764E+04  0.69999260710E+03 0.  0.
        5    1    3    3  502    0  0.19176155176E+03  0.28950346048E+03 -0.34741856087E+03  0.49122957240E+03  0.46999998093E+01 0.  1.
       -5    1    3    3    0  502 -0.19176155176E+03 -0.28950346048E+03 -0.48227665237E+03  0.59430430402E+03  0.46999998093E+01 0. -1.
</event>
<event>
 5   0  0.4936000E-04  0.6996137E+03  0.7818609E-02  0.9717893E-01
       -4   -1    0    0    0  501  0.00000000000E+00  0.00000000000E+00  0.21309194235E+03  0.21309572683E+03  0.12699999809E+01 0. -1.
        4   -1    0    0  501    0  0.00000000000E+00  0.00000000000E+00 -0.57422528115E+03  0.57422668556E+03  0.12699999809E+01 0.  1.
    10030    2    1    2    0    0  0.00000000000E+00  0.00000000000E+00 -0.36113333880E+03  0.78732241239E+03  0.69961367387E+03 0.  0.
        4    1    3    3  502    0 -0.21181214357E+03 -0.18978230378E+03 -0.40977034017E+03  0.49879359616E+03  0.12699999809E+01 0.  1.
       -4    1    3    3    0  502  0.21181214357E+03  0.18978230378E+03  0.48637001372E+02  0.28852881623E+03  0.12699999809E+01 0. -1.
</event>
<event>
 5   0  0.4936000E-04  0.6988287E+03  0.7818609E-02  0.9719237E-01
        3   -1    0    0  501    0  0.00000000000E+00  0.00000000000E+00  0.25606473763E+03  0.25606475755E+03  0.10100000352E+00 0. -1.
       -3   -1    0    0    0  501  0.00000000000E+00  0.00000000000E+00 -0.47679491061E+03  0.47679492131E+03  0.10100000352E+00 0.  1.
    10030    2    1    2    0    0  0.00000000000E+00  0.00000000000E+00 -0.22073017298E+03  0.73285967886E+03  0.69882866258E+03 0.  0.
        4    1    3    3  502    0  0.14787225457E+03 -0.31614718866E+03 -0.12770869481E+03  0.37165356476E+03  0.12699999809E+01 0.  1.
       -4    1    3    3    0  502 -0.14787225457E+03  0.31614718866E+03 -0.93021478165E+02  0.36120611410E+03  0.12699999809E+01 0. -1.
</event>
<event>
 5   0  0.4936000E-04  0.7000544E+03  0.7818609E-02  0.9717139E-01
       -3   -1    0    0    0  501  0.00000000000E+00  0.00000000000E+00  0.38258301303E+03  0.38258302636E+03  0.10100000352E+00 0. -1.
        3   -1    0    0  501    0  0.00000000000E+00  0.00000000000E+00 -0.32024172685E+03  0.32024174277E+03  0.10100000352E+00 0.  1.
    10030    2    1    2    0    0  0.00000000000E+00  0.00000000000E+00  0.62341286184E+02  0.70282476914E+03  0.70005444085E+03 0.  0.
        1    1    3    3  502    0  0.31693851376E+03  0.14777586482E+03  0.46440278635E+02  0.35276681708E+03  0.50400001928E-02 0. -1.
       -1    1    3    3    0  502 -0.31693851376E+03 -0.14777586482E+03  0.15901007549E+02  0.35005795205E+03  0.50400001928E-02 0.  1.
</event>
<event>
 5   0  0.7570633E-04  0.6998159E+03  0.7818609E-02  0.9717547E-01
       -1   -1    0    0    0  501  0.00000000000E+00  0.00000000000E+00  0.11700768850E+04  0.11700768850E+04  0.50400001928E-02 0. -1.
        1   -1    0    0  501    0  0.00000000000E+00  0.00000000000E+00 -0.10463889848E+03  0.10463889860E+03  0.50400001928E-02 0.  1.
    10030    2    1    2    0    0  0.00000000000E+00  0.00000000000E+00  0.10654379865E+04  0.12747157836E+04  0.69981585141E+03 0.  0.
        5    1    3    3  502    0  0.25562847209E+02 -0.34884774431E+03  0.51800439239E+03  0.62505907593E+03  0.46999998093E+01 0.  1.
       -5    1    3    3    0  502 -0.25562847209E+02  0.34884774431E+03  0.54743359413E+03  0.64965670769E+03  0.46999998093E+01 0. -1.
</event>
<event>
 5   0  0.4936000E-04  0.6999325E+03  0.7818609E-02  0.9717348E-01
        4   -1    0    0  501    0  0.00000000000E+00  0.00000000000E+00  0.12497014749E+04  0.12497021202E+04  0.12699999809E+01 0. -1.
       -4   -1    0    0    0  501  0.00000000000E+00  0.00000000000E+00 -0.97999721518E+02  0.98007950277E+02  0.12699999809E+01 0.  1.
    10030    2    1    2    0    0  0.00000000000E+00  0.00000000000E+00  0.11517017533E+04  0.13477100704E+04  0.69993250056E+03 0.  0.
        5    1    3    3  502    0 -0.15718024089E+03 -0.31253721935E+03  0.55983982488E+03  0.66017259949E+03  0.46999998093E+01 0. -1.
       -5    1    3    3    0  502  0.15718024089E+03  0.31253721935E+03  0.59186192846E+03  0.68753747095E+03  0.46999998093E+01 0.  1.
</event>
<event>
 5   0  0.7574241E-04  0.6998914E+03  0.7818609E-02  0.9717418E-01
       -1   -1    0    0    0  501  0.00000000000E+00  0.00000000000E+00  0.76071348992E+02  0.76071349159E+02  0.50400001928E-02 0.  1.
        1   -1    0    0  501    0  0.00000000000E+00  0.00000000000E+00 -0.16098305621E+04  0.16098305621E+04  0.50400001928E-02 0. -1.
    10030    2    1    2    0    0  0.00000000000E+00  0.00000000000E+00 -0.15337592131E+04  0.16859019113E+04  0.69989137059E+03 0.  0.
        3    1    3    3  502    0  0.23362785516E+03 -0.21374340838E+03 -0.11257329852E+04  0.11694199347E+04  0.10100000352E+00 0. -1.
       -3    1    3    3    0  502 -0.23362785516E+03  0.21374340838E+03 -0.40802622792E+03  0.51648197665E+03  0.10100000352E+00 0.  1.
</event>
<event>
 5   0  0.7570633E-04  0.6998017E+03  0.7818609E-02  0.9717571E-01
       -1   -1    0    0    0  501  0.00000000000E+00  0.00000000000E+00  0.35792484370E+03  0.35792484373E+03  0.50400001928E-02 0. -1.
        1   -1    0    0  501    0  0.00000000000E+00  0.00000000000E+00 -0.34205672067E+03  0.34205672070E+03  0.50400001928E-02 0.  1.
    10030    2    1    2    0    0  0.00000000000E+00  0.00000000000E+00  0.15868123033E+02  0.69998156444E+03  0.69980168135E+03 0.  0.
        5    1    3    3  502    0 -0.12916182328E+03  0.15645090074E+03  0.29304916556E+03  0.35645415466E+03  0.46999998093E+01 0. -1.
       -5    1    3    3    0  502  0.12916182328E+03 -0.15645090074E+03 -0.27718104253E+03  0.34352740978E+03  0.46999998093E+01 0.  1.
</event>
<event>
 5   0  0.1282546E-03  0.6998007E+03  0.7818609E-02  0.9717573E-01
       -2   -1    0    0    0  501  0.00000000000E+00  0.00000000000E+00  0.23890735600E+03  0.23890735602E+03  0.25500000920E-02 0. -1.
        2   -1    0    0  501    0  0.00000000000E+00  0.00000000000E+00 -0.51245907725E+03  0.51245907725E+03  0.25500000920E-02 0.  1.
    10030    2    1    2    0    0  0.00000000000E+00  0.00000000000E+00 -0.27355172124E+03  0.75136643327E+03  0.69980066651E+03 0.  0.
        5    1    3    3  502    0  0.26519413013E+03 -0.10674854956E+03 -0.35334394623E+03  0.45452966221E+03  0.46999998093E+01 0.  1.
       -5    1    3    3    0  502 -0.26519413013E+03  0.10674854956E+03  0.79792224991E+02  0.29683677106E+03  0.46999998093E+01 0. -1.
</event>
<event>
 5   0  0.7013526E-04  0.6996017E+03  0.7818609E-02  0.9717914E-01
       -1   -1    0    0    0  501  0.00000000000E+00  0.00000000000E+00  0.44429161728E+03  0.44429161731E+03  0.50400001928E-02 0. -1.
        1   -1    0    0  501    0  0.00000000000E+00  0.00000000000E+00 -0.27540615820E+03  0.27540615824E+03  0.50400001928E-02 0.  1.
    10030    2    1    2    0    0  0.00000000000E+00  0.00000000000E+00  0.16888545908E+03  0.71969777555E+03  0.69960173659E+03 0.  0.
        1    1    3    3  502    0  0.10513243763E+03  0.46206845555E+02  0.42434682506E+03  0.43961133969E+03  0.50400001928E-02 0. -1.
       -1    1    3    3    0  502 -0.10513243763E+03 -0.46206845555E+02 -0.25546136598E+03  0.28008643586E+03  0.50400001928E-02 0.  1.
</event>
<event>
 5   0  0.7570633E-04  0.7001361E+03  0.7818609E-02  0.9716999E-01
       -1   -1    0    0    0  501  0.00000000000E+00  0.00000000000E+00  0.25729439044E+03  0.25729439049E+03  0.50400001928E-02 0.  1.
        1   -1    0    0  501    0  0.00000000000E+00  0.00000000000E+00 -0.47629351253E+03  0.47629351256E+03  0.50400001928E-02 0. -1.
    10030    2    1    2    0    0  0.00000000000E+00  0.00000000000E+00 -0.21899912209E+03  0.73358790305E+03  0.70013612678E+03 0.  0.
        5    1    3    3  502    0 -0.28091635302E+03  0.84483969512E+02 -0.30960619768E+03  0.42653209274E+03  0.46999998093E+01 0. -1.
       -5    1    3    3    0  502  0.28091635302E+03 -0.84483969512E+02  0.90607075590E+02  0.30705581031E+03  0.46999998093E+01 0.  1.
</event>
<event>
 5   0  0.7572415E-04  0.6999462E+03  0.7818609E-02  0.9717324E-01
        1   -1    0    0  501    0  0.00000000000E+00  0.00000000000E+00  0.60313366979E+03  0.60313366981E+03  0.50400001928E-02 0. -1.
       -1   -1    0    0    0  501  0.00000000000E+00  0.00000000000E+00 -0.20307468533E+03  0.20307468539E+03  0.50400001928E-02 0.  1.
    10030    2    1    2    0    0  0.00000000000E+00  0.00000000000E+00  0.40005898446E+03  0.80620835520E+03  0.69994622719E+03 0.  0.
        4    1    3    3  502    0  0.26076966593E+03 -0.10758005323E+03  0.43861166649E+03  0.52149409719E+03  0.12699999809E+01 0. -1.
       -4    1    3    3    0  502 -0.26076966593E+03  0.10758005323E+03 -0.38552682036E+02  0.28471425801E+03  0.12699999809E+01 0.  1.
</event>
<event>
 5   0  0.7459843E-04  0.7000192E+03  0.7818609E-02  0.9717199E-01
        1   -1    0    0  501    0  0.00000000000E+00  0.00000000000E+00  0.10729637002E+04  0.10729637002E+04  0.50400001928E-02 0. -1.
       -1   -1    0    0    0  501  0.00000000000E+00  0.00000000000E+00 -0.11417600734E+03  0.11417600745E+03  0.50400001928E-02 0.  1.
    10030    2    1    2    0    0  0.00000000000E+00  0.00000000000E+00  0.95878769286E+03  0.11871397077E+04  0.70001917511E+03 0.  0.
        2    1    3    3  502    0 -0.12146793677E+03  0.30308860301E+02  0.10336951206E+04  0.10412486202E+04  0.25500000920E-02 0. -1.
       -2    1    3    3    0  502  0.12146793677E+03 -0.30308860301E+02 -0.74907427720E+02  0.14589108749E+03  0.25500000920E-02 0.  1.
</event>
<event>
 5   0  0.1222679E-03  0.7000546E+03  0.7818609E-02  0.9717139E-01
       -2   -1    0    0    0  501  0.00000000000E+00  0.00000000000E+00  0.66420891954E+02  0.66420892003E+02  0.25500000920E-02 0.  1.
        2   -1    0    0  501    0  0.00000000000E+00  0.00000000000E+00 -0.18445869063E+04  0.18445869063E+04  0.25500000920E-02 0. -1.
    10030    2    1    2    0    0  0.00000000000E+00  0.00000000000E+00 -0.17781660144E+04  0.19110077983E+04  0.70005459116E+03 0.  0.
        2    1    3    3  502    0  0.30144595218E+03 -0.19241820651E+02 -0.40629290823E+03  0.50627446808E+03  0.25500000920E-02 0.  1.
       -2    1    3    3    0  502 -0.30144595218E+03  0.19241820651E+02 -0.13718731061E+04  0.14047333302E+04  0.25500000920E-02 0. -1.
</event>
<event>
 5   0  0.1224048E-03  0.6999883E+03  0.7818609E-02  0.9717252E-01
       -2   -1    0    0    0  501  0.00000000000E+00  0.00000000000E+00  0.34303817655E+03  0.34303817656E+03  0.25500000920E-02 0. -1.
        2   -1    0    0  501    0  0.00000000000E+00  0.00000000000E+00 -0.35709117732E+03  0.35709117733E+03  0.25500000920E-02 0.  1.
    10030    2    1    2    0    0  0.00000000000E+00  0.00000000000E+00 -0.14053000765E+02  0.70012935389E+03  0.69998830372E+03 0.  0.
        3    1    3    3  502    0 -0.49619295217E+02  0.31326989709E+03 -0.15502858925E+03  0.35303537580E+03  0.10100000352E+00 0.  1.
       -3    1    3    3    0  502  0.49619295217E+02 -0.31326989709E+03  0.14097558848E+03  0.34709397809E+03  0.10100000352E+00 0. -1.
</event>
<event>
 5   0  0.1243087E-03  0.7004974E+03  0.7818609E-02  0.9716382E-01
       -2   -1    0    0    0  501  0.00000000000E+00  0.00000000000E+00  0.53101758016E+03  0.53101758017E+03  0.25500000920E-02 0. -1.
        2   -1    0    0  501    0  0.00000000000E+00  0.00000000000E+00 -0.23101710286E+03  0.23101710287E+03  0.25500000920E-02 0.  1.
    10030    2    1    2    0    0  0.00000000000E+00  0.00000000000E+00  0.30000047730E+03  0.76203468304E+03  0.70049737457E+03 0.  0.
        4    1    3    3  502    0 -0.22951364727E+03 -0.18752433521E+03 -0.53024495360E+02  0.30108985467E+03  0.12699999809E+01 0.  1.
       -4    1    3    3    0  502  0.22951364727E+03  0.18752433521E+03  0.35302497266E+03  0.46094482837E+03  0.12699999809E+01 0. -1.
</event>
<event>
 5   0  0.7574241E-04  0.6999890E+03  0.7818609E-02  0.9717251E-01
       -1   -1    0    0    0  501  0.00000000000E+00  0.00000000000E+00  0.20302696158E+03  0.20302696164E+03  0.50400001928E-02 0.  1.
        1   -1    0    0  501    0  0.00000000000E+00  0.00000000000E+00 -0.60334917922E+03  0.60334917924E+03  0.50400001928E-02 0. -1.
    10030    2    1    2    0    0  0.00000000000E+00  0.00000000000E+00 -0.40032221764E+03  0.80637614088E+03  0.69998900181E+03 0.  0.
        3    1    3    3  502    0 -0.60895979505E+02  0.28294617783E+03  0.26546537365E+02  0.29063996407E+03  0.10100000352E+00 0.  1.
       -3    1    3    3    0  502  0.60895979505E+02 -0.28294617783E+03 -0.42686875501E+03  0.51573617681E+03  0.10100000352E+00 0. -1.
</event>
<event>
 5   0  0.1265562E-03  0.6998535E+03  0.7818609E-02  0.9717483E-01
        2   -1    0    0  501    0  0.00000000000E+00  0.00000000000E+00  0.11410120944E+04  0.11410120944E+04  0.25500000920E-02 0.  1.
       -2   -1    0    0    0  501  0.00000000000E+00  0.00000000000E+00 -0.10731587655E+03  0.10731587658E+03  0.25500000920E-02 0. -1.
    10030    2    1    2    0    0  0.00000000000E+00  0.00000000000E+00  0.10336962178E+04  0.12483279709E+04  0.69985345060E+03 0.  0.
        1    1    3    3  502    0 -0.76795934474E+02  0.10653497286E+03  0.10953867180E+04  0.11032313348E+04  0.50400001928E-02 0.  1.
       -1    1    3    3    0  502  0.76795934474E+02 -0.10653497286E+03 -0.61690500187E+02  0.14509663619E+03  0.50400001928E-02 0. -1.
</event>
<event>
 5   0  0.1282546E-03  0.7000553E+03  0.7818609E-02  0.9717138E-01
       -2   -1    0    0    0  501  0.00000000000E+00  0.00000000000E+00  0.41639433639E+03  0.41639433640E+03  0.25500000920E-02 0.  1.
        2   -1    0    0  501    0  0.00000000000E+00  0.00000000000E+00 -0.29423878571E+03  0.29423878572E+03  0.25500000920E-02 0. -1.
    10030    2    1    2    0    0  0.00000000000E+00  0.00000000000E+00  0.12215555069E+03  0.71063312212E+03  0.70005532331E+03 0.  0.
        5    1    3    3  502    0  0.12566491758E+03 -0.32640902519E+03  0.48127634238E+02  0.35309047341E+03  0.46999998093E+01 0. -1.
       -5    1    3    3    0  502 -0.12566491758E+03  0.32640902519E+03  0.74027916447E+02  0.35754264871E+03  0.46999998093E+01 0.  1.
</event>
<event>
 5   0  0.7572415E-04  0.6997455E+03  0.7818609E-02  0.9717668E-01
       -1   -1    0    0    0  501  0.00000000000E+00  0.00000000000E+00  0.27598156721E+03  0.27598156726E+03  0.50400001928E-02 0. -1.
        1   -1    0    0  501    0  0.00000000000E+00  0.00000000000E+00 -0.44354749136E+03  0.44354749139E+03  0.50400001928E-02 0.  1.
    10030    2    1    2    0    0  0.00000000000E+00  0.00000000000E+00 -0.16756592415E+03  0.71952905864E+03  0.69974547322E+03 0.  0.
        4    1    3    3  502    0  0.23618749472E+03  0.25739019282E+03 -0.10369736281E+03  0.36440225024E+03  0.12699999809E+01 0.  1.
       -4    1    3    3    0  502 -0.23618749472E+03 -0.25739019282E+03 -0.63868561332E+02  0.35512680841E+03  0.12699999809E+01 0. -1.
</event>
<event>
 5   0  0.7459843E-04  0.7000092E+03  0.7818609E-02  0.9717216E-01
       -1   -1    0    0    0  501  0.00000000000E+00  0.00000000000E+00  0.28790314929E+03  0.28790314933E+03  0.50400001928E-02 0. -1.
        1   -1    0    0  501    0  0.00000000000E+00  0.00000000000E+00 -0.42550148559E+03  0.42550148562E+03  0.50400001928E-02 0.  1.
    10030    2    1    2    0    0  0.00000000000E+00  0.00000000000E+00 -0.13759833631E+03  0.71340463496E+03  0.70000919353E+03 0.  0.
        2    1    3    3  502    0 -0.26045634986E+03  0.23290485072E+03 -0.47887298134E+02  0.35266892831E+03  0.25500000920E-02 0.  1.
       -2    1    3    3    0  502  0.26045634986E+03 -0.23290485072E+03 -0.89711038174E+02  0.36073570664E+03  0.25500000920E-02 0. -1.
</event>
<event>
 5   0  0.7459843E-04  0.7001736E+03  0.7818609E-02  0.9716935E-01
       -1   -1    0    0    0  501  0.00000000000E+00  0.00000000000E+00  0.12190827513E+03  0.12190827524E+03  0.50400001928E-02 0. -1.
        1   -1    0    0  501    0  0.00000000000E+00  0.00000000000E+00 -0.10053522355E+04  0.10053522355E+04  0.50400001928E-02 0.  1.
    10030    2    1    2    0    0  0.00000000000E+00  0.00000000000E+00 -0.88344396039E+03  0.11272605108E+04  0.70017356991E+03 0.  0.
        2    1    3    3  502    0 -0.75257897969E+02 -0.16537268054E+03  0.40057906606E+02  0.18605512775E+03  0.25500000920E-02 0. -1.
       -2    1    3    3    0  502  0.75257897969E+02  0.16537268054E+03 -0.92350186700E+03  0.94120538302E+03  0.25500000920E-02 0.  1.
</event>
<event>
 5   0  0.7574241E-04  0.6998199E+03  0.7818609E-02  0.9717540E-01
       -1   -1    0    0    0  501  0.00000000000E+00  0.00000000000E+00  0.50863718168E+03  0.50863718170E+03  0.50400001928E-02 0.  1.
        1   -1    0    0  501    0  0.00000000000E+00  0.00000000000E+00 -0.24071576580E+03  0.24071576585E+03  0.50400001928E-02 0. -1.
    10030    2    1    2    0    0  0.00000000000E+00  0.00000000000E+00  0.26792141588E+03  0.74935294755E+03  0.69981994464E+03 0.  0.
        3    1    3    3  502    0 -0.21928646888E+03 -0.12484182605E+03 -0.12561213797E+03  0.28186957333E+03  0.10100000352E+00 0. -1.
       -3    1    3    3    0  502  0.21928646888E+03  0.12484182605E+03  0.39353355385E+03  0.46748337422E+03  0.10100000352E+00 0.  1.
</event>
<event>
 5   0  0.7459843E-04  0.6997879E+03  0.7818609E-02  0.9717595E-01
        1   -1    0    0  501    0  0.00000000000E+00  0.00000000000E+00  0.15773386735E+04  0.15773386735E+04  0.50400001928E-02 0.  1.
       -1   -1    0    0    0  501  0.00000000000E+00  0.00000000000E+00 -0.77615412898E+02  0.77615413062E+02  0.50400001928E-02 0. -1.
    10030    2    1    2    0    0  0.00000000000E+00  0.00000000000E+00  0.14997232606E+04  0.16549540866E+04  0.69978794664E+03 0.  0.
        2    1    3    3  502    0  0.56670418075E+02 -0.25214297817E+03  0.19202641226E+03  0.32196546513E+03  0.25500000920E-02 0. -1.
       -2    1    3    3    0  502 -0.56670418075E+02  0.25214297817E+03  0.13076968484E+04  0.13329886215E+04  0.25500000920E-02 0.  1.
</event>
<event>
 5   0  0.1222679E-03  0.6977944E+03  0.7818609E-02  0.9721011E-01
       -2   -1    0    0    0  501  0.00000000000E+00  0.00000000000E+00  0.52480850021E+03  0.52480850022E+03  0.25500000920E-02 0. -1.
        2   -1    0    0  501    0  0.00000000000E+00  0.00000000000E+00 -0.23194987053E+03  0.23194987054E+03  0.25500000920E-02 0.  1.
    10030    2    1    2    0    0  0.00000000000E+00  0.00000000000E+00  0.29285862968E+03  0.75675837076E+03  0.69779442154E+03 0.  0.
        2    1    3    3  502    0 -0.17716190623E+03 -0.68914875069E+02  0.46371504898E+03  0.50116588839E+03  0.25500000920E-02 0. -1.
       -2    1    3    3    0  502  0.17716190623E+03  0.68914875069E+02 -0.17085641930E+03  0.25559248237E+03  0.25500000920E-02 0.  1.
</event>
<event>
 5   0  0.1222679E-03  0.7000172E+03  0.7818609E-02  0.9717203E-01
       -2   -1    0    0    0  501  0.00000000000E+00  0.00000000000E+00  0.15108249088E+03  0.15108249091E+03  0.25500000920E-02 0. -1.
        2   -1    0    0  501    0  0.00000000000E+00  0.00000000000E+00 -0.81085529395E+03  0.81085529396E+03  0.25500000920E-02 0.  1.
    10030    2    1    2    0    0  0.00000000000E+00  0.00000000000E+00 -0.65977280307E+03  0.96193778486E+03  0.70001724999E+03 0.  0.
        2    1    3    3  502    0  0.31806846406E+03  0.14396645643E+03 -0.36388545827E+03  0.50428812712E+03  0.25500000920E-02 0. -1.
       -2    1    3    3    0  502 -0.31806846406E+03 -0.14396645643E+03 -0.29588734480E+03  0.45764965774E+03  0.25500000920E-02 0.  1.
</event>
<event>
 5   0  0.1224048E-03  0.7028414E+03  0.7818609E-02  0.9712385E-01
       -2   -1    0    0    0  501  0.00000000000E+00  0.00000000000E+00  0.21008900070E+03  0.21008900072E+03  0.25500000920E-02 0. -1.
        2   -1    0    0  501    0  0.00000000000E+00  0.00000000000E+00 -0.58782949558E+03  0.58782949558E+03  0.25500000920E-02 0.  1.
    10030    2    1    2    0    0  0.00000000000E+00  0.00000000000E+00 -0.37774049487E+03  0.79791849630E+03  0.70284140833E+03 0.  0.
        3    1    3    3  502    0  0.28047426713E+03  0.20271881198E+03 -0.11948114827E+03  0.36610993737E+03  0.10100000352E+00 0. -1.
       -3    1    3    3    0  502 -0.28047426713E+03 -0.20271881198E+03 -0.25825934661E+03  0.43180855893E+03  0.10100000352E+00 0.  1.
</event>
<event>
 5   0  0.4936000E-04  0.6998156E+03  0.7818609E-02  0.9717548E-01
       -3   -1    0    0    0  501  0.00000000000E+00  0.00000000000E+00  0.24757377096E+03  0.24757379157E+03  0.10100000352E+00 0.  1.
        3   -1    0    0  501    0  0.00000000000E+00  0.00000000000E+00 -0.49454136422E+03  0.49454137454E+03  0.10100000352E+00 0. -1.
    10030    2    1    2    0    0  0.00000000000E+00  0.00000000000E+00 -0.24696759326E+03  0.74211516610E+03  0.69981563832E+03 0.  0.
        1    1    3    3  502    0  0.67793839861E+02  0.14167606832E+03 -0.45506097201E+03  0.48140274338E+03  0.50400001928E-02 0. -1.
       -1    1    3    3    0  502 -0.67793839861E+02 -0.14167606832E+03  0.20809337875E+03  0.26071242273E+03  0.50400001928E-02 0.  1.
</event>
<event>
 5   0  0.7013526E-04  0.7002745E+03  0.7818609E-02  0.9716763E-01
        1   -1    0    0  501    0  0.00000000000E+00  0.00000000000E+00  0.16028853528E+04  0.16028853528E+04  0.50400001928E-02 0. -1.
       -1   -1    0    0    0  501  0.00000000000E+00  0.00000000000E+00 -0.76484626868E+02  0.76484627034E+02  0.50400001928E-02 0.  1.
    10030    2    1    2    0    0  0.00000000000E+00  0.00000000000E+00  0.15264007260E+04  0.16793699799E+04  0.70027448409E+03 0.  0.
        1    1    3    3  502    0  0.23081047973E+03  0.87434654907E+02  0.13587836354E+04  0.13810181984E+04  0.50400001928E-02 0. -1.
       -1    1    3    3    0  502 -0.23081047973E+03 -0.87434654907E+02  0.16761709054E+03  0.29835178146E+03  0.50400001928E-02 0.  1.
</event>
<event>
 5   0  0.7459843E-04  0.6999602E+03  0.7818609E-02  0.9717300E-01
        1   -1    0    0  501    0  0.00000000000E+00  0.00000000000E+00  0.27682333323E+03  0.27682333328E+03  0.50400001928E-02 0. -1.
       -1   -1    0    0    0  501  0.00000000000E+00  0.00000000000E+00 -0.44247018536E+03  0.44247018538E+03  0.50400001928E-02 0.  1.
    10030    2    1    2    0    0  0.00000000000E+00  0.00000000000E+00 -0.16564685212E+03  0.71929351866E+03  0.69996020342E+03 0.  0.
        2    1    3    3  502    0  0.26837604399E+03 -0.21269822575E+03 -0.15706739851E+03  0.37674448092E+03  0.25500000920E-02 0. -1.
       -2    1    3    3    0  502 -0.26837604399E+03  0.21269822575E+03 -0.85794536091E+01  0.34254903774E+03  0.25500000920E-02 0.  1.
</event>
<event>
 5   0  0.4936000E-04  0.6993371E+03  0.7818609E-02  0.9718367E-01
       -3   -1    0    0    0  501  0.00000000000E+00  0.00000000000E+00  0.15059232399E+04  0.15059232433E+04  0.10100000352E+00 0. -1.
        3   -1    0    0  501    0  0.00000000000E+00  0.00000000000E+00 -0.81191418675E+02  0.81191481495E+02  0.10100000352E+00 0.  1.
    10030    2    1    2    0    0  0.00000000000E+00  0.00000000000E+00  0.14247318213E+04  0.15871147248E+04  0.69933710557E+03 0.  0.
        3    1    3    3  502    0 -0.30117068516E+03 -0.58229261454E+02  0.33143749596E+03  0.45160298097E+03  0.10100000352E+00 0.  1.
       -3    1    3    3    0  502  0.30117068516E+03  0.58229261454E+02  0.10932943253E+04  0.11355117439E+04  0.10100000352E+00 0. -1.
</event>
<event>
 5   0  0.7459843E-04  0.7000109E+03  0.7818609E-02  0.9717214E-01
       -1   -1    0    0    0  501  0.00000000000E+00  0.00000000000E+00  0.17969967783E+03  0.17969967790E+03  0.50400001928E-02 0.  1.
        1   -1    0    0  501    0  0.00000000000E+00  0.00000000000E+00 -0.68171414817E+03  0.68171414819E+03  0.50400001928E-02 0. -1.
    10030    2    1    2    0    0  0.00000000000E+00  0.00000000000E+00 -0.50201447035E+03  0.86141382609E+03  0.70001089373E+03 0.  0.
        2    1    3    3  502    0  0.15345766721E+03  0.77992655175E+02  0.12400785534E+03  0.21215574015E+03  0.25500000920E-02 0.  1.
       -2    1    3    3    0  502 -0.15345766721E+03 -0.77992655175E+02 -0.62602232569E+03  0.64925808594E+03  0.25500000920E-02 0. -1.
</event>
<event>
 5   0  0.1224048E-03  0.7001917E+03  0.7818609E-02  0.9716904E-01
       -2   -1    0    0    0  501  0.00000000000E+00  0.00000000000E+00  0.91562326401E+03  0.91562326401E+03  0.25500000920E-02 0.  1.
        2   -1    0    0  501    0  0.00000000000E+00  0.00000000000E+00 -0.13386193785E+03  0.13386193787E+03  0.25500000920E-02 0. -1.
    10030    2    1    2    0    0  0.00000000000E+00  0.00000000000E+00  0.78176132616E+03  0.10494852019E+04  0.70019170082E+03 0.  0.
        3    1    3    3  502    0  0.74744564748E+02  0.13568365380E+03 -0.79698159109E+02  0.17420852630E+03  0.10100000352E+00 0. -1.
       -3    1    3    3    0  502 -0.74744564748E+02 -0.13568365380E+03  0.86145948527E+03  0.87527667559E+03  0.10100000352E+00 0.  1.
</event>
<event>
 5   0  0.1222679E-03  0.6998936E+03  0.7818609E-02  0.9717414E-01
       -2   -1    0    0    0  501  0.00000000000E+00  0.00000000000E+00  0.15196567615E+03  0.15196567617E+03  0.25500000920E-02 0.  1.
        2   -1    0    0  501    0  0.00000000000E+00  0.00000000000E+00 -0.80585802802E+03  0.80585802802E+03  0.25500000920E-02 0. -1.
    10030    2    1    2    0    0  0.00000000000E+00  0.00000000000E+00 -0.65389235187E+03  0.95782370419E+03  0.69989359225E+03 0.  0.
        2    1    3    3  502    0 -0.14880023944E+03  0.18119174800E+03  0.28583493579E+02  0.23619690284E+03  0.25500000920E-02 0.  1.
       -2    1    3    3    0  502  0.14880023944E+03 -0.18119174800E+03 -0.68247584545E+03  0.72162680135E+03  0.25500000920E-02 0. -1.
</event>
<event>
 5   0  0.1222679E-03  0.6999670E+03  0.7818609E-02  0.9717289E-01
        2   -1    0    0  501    0  0.00000000000E+00  0.00000000000E+00  0.11869545109E+04  0.11869545109E+04  0.25500000920E-02 0.  1.
       -2   -1    0    0    0  501  0.00000000000E+00  0.00000000000E+00 -0.10319557776E+03  0.10319557780E+03  0.25500000920E-02 0. -1.
    10030    2    1    2    0    0  0.00000000000E+00  0.00000000000E+00  0.10837589332E+04  0.12901500887E+04  0.69996701796E+03 0.  0.
        2    1    3    3  502    0 -0.31545266483E+02 -0.51252771221E+02 -0.93586664570E+02  0.11126730961E+03  0.25500000920E-02 0. -1.
       -2    1    3    3    0  502  0.31545266483E+02  0.51252771221E+02  0.11773455978E+04  0.11788827791E+04  0.25500000920E-02 0.  1.
</event>
<event>
 5   0  0.7572415E-04  0.7001048E+03  0.7818609E-02  0.9717053E-01
       -1   -1    0    0    0  501  0.00000000000E+00  0.00000000000E+00  0.71205473043E+02  0.71205473221E+02  0.50400001928E-02 0.  1.
        1   -1    0    0  501    0  0.00000000000E+00  0.00000000000E+00 -0.17208887851E+04  0.17208887852E+04  0.50400001928E-02 0. -1.
    10030    2    1    2    0    0  0.00000000000E+00  0.00000000000E+00 -0.16496833121E+04  0.17920942584E+04  0.70010484977E+03 0.  0.
        4    1    3    3  502    0 -0.17383607323E+02 -0.69901567242E+02 -0.17017074811E+04  0.17032317468E+04  0.12699999809E+01 0. -1.
       -4    1    3    3    0  502  0.17383607323E+02  0.69901567242E+02  0.52024169036E+02  0.88862511614E+02  0.12699999809E+01 0.  1.
</event>
<event>
 5   0  0.7570633E-04  0.7001288E+03  0.7818609E-02  0.9717012E-01
        1   -1    0    0  501    0  0.00000000000E+00  0.00000000000E+00  0.76258366508E+03  0.76258366509E+03  0.50400001928E-02 0.  1.
       -1   -1    0    0    0  501  0.00000000000E+00  0.00000000000E+00 -0.16069721883E+03  0.16069721891E+03  0.50400001928E-02 0. -1.
    10030    2    1    2    0    0  0.00000000000E+00  0.00000000000E+00  0.60188644625E+03  0.92328088400E+03  0.70012877143E+03 0.  0.
        5    1    3    3  502    0  0.17675778881E+03 -0.29466656901E+01  0.69934593726E+03  0.72135901513E+03  0.46999998093E+01 0.  1.
       -5    1    3    3    0  502 -0.17675778881E+03  0.29466656901E+01 -0.97459491011E+02  0.20192186887E+03  0.46999998093E+01 0. -1.
</event>
<event>
 5   0  0.1265562E-03  0.6997827E+03  0.7818609E-02  0.9717604E-01
       -2   -1    0    0    0  501  0.00000000000E+00  0.00000000000E+00  0.38330276419E+03  0.38330276420E+03  0.25500000920E-02 0. -1.
        2   -1    0    0  501    0  0.00000000000E+00  0.00000000000E+00 -0.31939227438E+03  0.31939227439E+03  0.25500000920E-02 0.  1.
    10030    2    1    2    0    0  0.00000000000E+00  0.00000000000E+00  0.63910489814E+02  0.70269503859E+03  0.69978265665E+03 0.  0.
        1    1    3    3  502    0  0.58611427779E+02 -0.20224133983E+03  0.31255889189E+03  0.37686857116E+03  0.50400001928E-02 0. -1.
       -1    1    3    3    0  502 -0.58611427779E+02  0.20224133983E+03 -0.24864840207E+03  0.32582646743E+03  0.50400001928E-02 0.  1.
</event>
<event>
 5   0  0.1224048E-03  0.6999514E+03  0.7818609E-02  0.9717315E-01
        2   -1    0    0  501    0  0.00000000000E+00  0.00000000000E+00  0.66938022818E+03  0.66938022818E+03  0.25500000920E-02 0. -1.
       -2   -1    0    0    0  501  0.00000000000E+00  0.00000000000E+00 -0.18297971660E+03  0.18297971661E+03  0.25500000920E-02 0.  1.
    10030    2    1    2    0    0  0.00000000000E+00  0.00000000000E+00  0.48640051158E+03  0.85235994480E+03  0.69995143962E+03 0.  0.
        3    1    3    3  502    0  0.94765014512E+02  0.38385841665E+02  0.65078748791E+03  0.65877025240E+03  0.10100000352E+00 0. -1.
       -3    1    3    3    0  502 -0.94765014512E+02 -0.38385841665E+02 -0.16438697633E+03  0.19358969240E+03  0.10100000352E+00 0.  1.
</event>
<event>
 5   0  0.4936000E-04  0.6998366E+03  0.7818609E-02  0.9717512E-01
       -4   -1    0    0    0  501  0.00000000000E+00  0.00000000000E+00  0.37156089187E+03  0.37156306230E+03  0.12699999809E+01 0.  1.
        4   -1    0    0  501    0  0.00000000000E+00  0.00000000000E+00 -0.32953198535E+03  0.32953443260E+03  0.12699999809E+01 0. -1.
    10030    2    1    2    0    0  0.00000000000E+00  0.00000000000E+00  0.42028906519E+02  0.70109749490E+03  0.69983660119E+03 0.  0.
        1    1    3    3  502    0 -0.29740538669E+02  0.17762712715E+03  0.32156651822E+03  0.36856603425E+03  0.50400001928E-02 0.  1.
       -1    1    3    3    0  502  0.29740538669E+02 -0.17762712715E+03 -0.27953761170E+03  0.33253146065E+03  0.50400001928E-02 0. -1.
</event>
<event>
 5   0  0.1224048E-03  0.6997779E+03  0.7818609E-02  0.9717612E-01
        2   -1    0    0  501    0  0.00000000000E+00  0.00000000000E+00  0.70857717860E+03  0.70857717860E+03  0.25500000920E-02 0. -1.
       -2   -1    0    0    0  501  0.00000000000E+00  0.00000000000E+00 -0.17277196894E+03  0.17277196896E+03  0.25500000920E-02 0.  1.
    10030    2    1    2    0    0  0.00000000000E+00  0.00000000000E+00  0.53580520965E+03  0.88134914756E+03  0.69977789135E+03 0.  0.
        3    1    3    3  502    0  0.20672914408E+03 -0.97470207797E+02  0.60156676758E+03  0.64352153537E+03  0.10100000352E+00 0. -1.
       -3    1    3    3    0  502 -0.20672914408E+03  0.97470207797E+02 -0.65761557926E+02  0.23782761220E+03  0.10100000352E+00 0.  1.
</event>
<event>
 5   0  0.1222679E-03  0.6985025E+03  0.7818609E-02  0.9719796E-01
        2   -1    0    0  501    0  0.00000000000E+00  0.00000000000E+00  0.23725641367E+03  0.23725641368E+03  0.25500000920E-02 0. -1.
       -2   -1    0    0    0  501  0.00000000000E+00  0.00000000000E+00 -0.51411232551E+03  0.51411232552E+03  0.25500000920E-02 0.  1.
    10030    2    1    2    0    0  0.00000000000E+00  0.00000000000E+00 -0.27685591185E+03  0.75136873920E+03  0.69850253136E+03 0.  0.
        2    1    3    3  502    0 -0.38580402814E+02  0.41640778150E+02  0.23226074047E+03  0.23909716322E+03  0.25500000920E-02 0. -1.
       -2    1    3    3    0  502  0.38580402814E+02 -0.41640778150E+02 -0.50911665232E+03  0.51227157598E+03  0.25500000920E-02 0.  1.
</event>
<event>
 5   0  0.1282546E-03  0.7002338E+03  0.7818609E-02  0.9716832E-01
        2   -1    0    0  501    0  0.00000000000E+00  0.00000000000E+00  0.50951196009E+03  0.50951196010E+03  0.25500000920E-02 0.  1.
       -2   -1    0    0    0  501  0.00000000000E+00  0.00000000000E+00 -0.24058678882E+03  0.24058678884E+03  0.25500000920E-02 0. -1.
    10030    2    1    2    0    0  0.00000000000E+00  0.00000000000E+00  0.26892517127E+03  0.75009874893E+03  0.70023380767E+03 0.  0.
        5    1    3    3  502    0 -0.28214187197E+03 -0.12187584361E+03 -0.45111628526E+02  0.31066848279E+03  0.46999998093E+01 0. -1.
       -5    1    3    3    0  502  0.28214187197E+03  0.12187584361E+03  0.31403679979E+03  0.43943026614E+03  0.46999998093E+01 0.  1.
</event>
<event>
 5   0  0.7574241E-04  0.6999797E+03  0.7818609E-02  0.9717267E-01
       -1   -1    0    0    0  501  0.00000000000E+00  0.00000000000E+00  0.20505943456E+03  0.20505943462E+03  0.50400001928E-02 0. -1.
        1   -1    0    0  501    0  0.00000000000E+00  0.00000000000E+00 -0.59735307789E+03  0.59735307791E+03  0.50400001928E-02 0.  1.
    10030    2    1    2    0    0  0.00000000000E+00  0.00000000000E+00 -0.39229364333E+03  0.80241251253E+03  0.69997966947E+03 0.  0.
        3    1    3    3  502    0  0.15102273266E+03 -0.72917133742E+02  0.15600089081E+03  0.22904379997E+03  0.10100000352E+00 0. -1.
       -3    1    3    3    0  502 -0.15102273266E+03  0.72917133742E+02 -0.54829453414E+03  0.57336871256E+03  0.10100000352E+00 0.  1.
</event>
<event>
 5   0  0.7570633E-04  0.6998032E+03  0.7818609E-02  0.9717569E-01
        1   -1    0    0  501    0  0.00000000000E+00  0.00000000000E+00  0.10520480861E+04  0.10520480861E+04  0.50400001928E-02 0.  1.
       -1   -1    0    0    0  501  0.00000000000E+00  0.00000000000E+00 -0.11637406662E+03  0.11637406673E+03  0.50400001928E-02 0. -1.
    10030    2    1    2    0    0  0.00000000000E+00  0.00000000000E+00  0.93567401951E+03  0.11684221529E+04  0.69980315556E+03 0.  0.
        5    1    3    3  502    0  0.26946939256E+02  0.22799241873E+03  0.90864308996E+03  0.93720917381E+03  0.46999998093E+01 0.  1.
       -5    1    3    3    0  502 -0.26946939256E+02 -0.22799241873E+03  0.27030929544E+02  0.23121297906E+03  0.46999998093E+01 0. -1.
</event>
<event>
 5   0  0.1265562E-03  0.7001135E+03  0.7818609E-02  0.9717038E-01
        2   -1    0    0  501    0  0.00000000000E+00  0.00000000000E+00  0.18125193897E+03  0.18125193899E+03  0.25500000920E-02 0.  1.
       -2   -1    0    0    0  501  0.00000000000E+00  0.00000000000E+00 -0.67607397524E+03  0.67607397525E+03  0.25500000920E-02 0. -1.
    10030    2    1    2    0    0  0.00000000000E+00  0.00000000000E+00 -0.49482203627E+03  0.85732591424E+03  0.70011347340E+03 0.  0.
        1    1    3    3  502    0  0.12390704540E+03 -0.20701018773E+03 -0.55800730382E+03  0.60792953939E+03  0.50400001928E-02 0. -1.
       -1    1    3    3    0  502 -0.12390704540E+03  0.20701018773E+03  0.63185267548E+02  0.24939637484E+03  0.50400001928E-02 0.  1.
</event>
<event>
 5   0  0.7459843E-04  0.6998000E+03  0.7818609E-02  0.9717574E-01
        1   -1    0    0  501    0  0.00000000000E+00  0.00000000000E+00  0.68174521927E+03  0.68174521929E+03  0.50400001928E-02 0. -1.
       -1   -1    0    0    0  501  0.00000000000E+00  0.00000000000E+00 -0.17958324354E+03  0.17958324361E+03  0.50400001928E-02 0.  1.
    10030    2    1    2    0    0  0.00000000000E+00  0.00000000000E+00  0.50216197573E+03  0.86132846290E+03  0.69980002224E+03 0.  0.
        2    1    3    3  502    0 -0.15787300704E+03  0.22274460900E+03 -0.18271918680E+02  0.27362914722E+03  0.25500000920E-02 0.  1.
       -2    1    3    3    0  502  0.15787300704E+03 -0.22274460900E+03  0.52043389441E+03  0.58769931568E+03  0.25500000920E-02 0. -1.
</event>
<event>
 5   0  0.1222679E-03  0.6998420E+03  0.7818609E-02  0.9717502E-01
       -2   -1    0    0    0  501  0.00000000000E+00  0.00000000000E+00  0.32924344838E+03  0.32924344839E+03  0.25500000920E-02 0.  1.
        2   -1    0    0  501    0  0.00000000000E+00  0.00000000000E+00 -0.37189717172E+03  0.37189717173E+03  0.25500000920E-02 0. -1.
    10030    2    1    2    0    0  0.00000000000E+00  0.00000000000E+00 -0.42653723340E+02  0.70114062012E+03  0.69984200293E+03 0.  0.
        2    1    3    3  502    0  0.22664318545E+03 -0.11536451106E+03  0.21947013062E+03  0.33592148214E+03  0.25500000920E-02 0.  1.
       -2    1    3    3    0  502 -0.22664318545E+03  0.11536451106E+03 -0.26212385396E+03  0.36521913798E+03  0.25500000920E-02 0. -1.
</event>
<event>
 5   0  0.7013526E-04  0.6996873E+03  0.7818609E-02  0.9717767E-01
       -1   -1    0    0    0  501  0.00000000000E+00  0.00000000000E+00  0.17340402975E+03  0.17340402982E+03  0.50400001928E-02 0.  1.
        1   -1    0    0  501    0  0.00000000000E+00  0.00000000000E+00 -0.70581165325E+03  0.70581165327E+03  0.50400001928E-02 0. -1.
    10030    2    1    2    0    0  0.00000000000E+00  0.00000000000E+00 -0.53240762350E+03  0.87921568309E+03  0.69968731576E+03 0.  0.
        1    1    3    3  502    0 -0.15272813484E+03 -0.31200669939E+03 -0.31826523338E+03  0.47113355054E+03  0.50400001928E-02 0. -1.
       -1    1    3    3    0  502  0.15272813484E+03  0.31200669939E+03 -0.21414239012E+03  0.40808213256E+03  0.50400001928E-02 0.  1.
</event>
<event>
 5   0  0.1243087E-03  0.6999948E+03  0.7818609E-02  0.9717241E-01
        2   -1    0    0  501    0  0.00000000000E+00  0.00000000000E+00  0.91250384715E+03  0.91250384715E+03  0.25500000920E-02 0. -1.
       -2   -1    0    0    0  501  0.00000000000E+00  0.00000000000E+00 -0.13424400319E+03  0.13424400322E+03  0.25500000920E-02 0.  1.
    10030    2    1    2    0    0  0.00000000000E+00  0.00000000000E+00  0.77825984395E+03  0.10467478504E+04  0.69999476965E+03 0.  0.
        4    1    3    3  502    0 -0.27968762269E+03 -0.10219538842E+03  0.11409858012E+03  0.31888738230E+03  0.12699999809E+01 0.  1.
       -4    1    3    3    0  502  0.27968762269E+03  0.10219538842E+03  0.66416126384E+03  0.72786046807E+03  0.12699999809E+01 0. -1.
</event>
<event>
 5   0  0.7572415E-04  0.7001394E+03  0.7818609E-02  0.9716994E-01
       -1   -1    0    0    0  501  0.00000000000E+00  0.00000000000E+00  0.12380397734E+03  0.12380397744E+03  0.50400001928E-02 0.  1.
        1   -1    0    0  501    0  0.00000000000E+00  0.00000000000E+00 -0.98986152780E+03  0.98986152782E+03  0.50400001928E-02 0. -1.
    10030    2    1    2    0    0  0.00000000000E+00  0.00000000000E+00 -0.86605755046E+03  0.11136655053E+04  0.70013939819E+03 0.  0.
        4    1    3    3  502    0 -0.21247448653E+03 -0.22542606221E+03 -0.69237950575E+03  0.75852047423E+03  0.12699999809E+01 0. -1.
       -4    1    3    3    0  502  0.21247448653E+03  0.22542606221E+03 -0.17367804472E+03  0.35514503103E+03  0.12699999809E+01 0.  1.
</event>
<event>
 5   0  0.1282546E-03  0.6997208E+03  0.7818609E-02  0.9717710E-01
       -2   -1    0    0    0  501  0.00000000000E+00  0.00000000000E+00  0.14614765440E+03  0.14614765442E+03  0.25500000920E-02 0.  1.
        2   -1    0    0  501    0  0.00000000000E+00  0.00000000000E+00 -0.83752492085E+03  0.83752492085E+03  0.25500000920E-02 0. -1.
    10030    2    1    2    0    0  0.00000000000E+00  0.00000000000E+00 -0.69137726644E+03  0.98367257527E+03  0.69972080917E+03 0.  0.
        5    1    3    3  502    0 -0.39517116750E+02 -0.16228796034E+03  0.86425567249E+02  0.18812350533E+03  0.46999998093E+01 0.  1.
       -5    1    3    3    0  502  0.39517116750E+02  0.16228796034E+03 -0.77780283369E+03  0.79554906994E+03  0.46999998093E+01 0. -1.
</event>
<event>
 5   0  0.7459843E-04  0.6994817E+03  0.7818609E-02  0.9718119E-01
        1   -1    0    0  501    0  0.00000000000E+00  0.00000000000E+00  0.12575458756E+04  0.12575458756E+04  0.50400001928E-02 0.  1.
       -1   -1    0    0    0  501  0.00000000000E+00  0.00000000000E+00 -0.97267752777E+02  0.97267752907E+02  0.50400001928E-02 0. -1.
    10030    2    1    2    0    0  0.00000000000E+00  0.00000000000E+00  0.11602781228E+04  0.13548136285E+04  0.69948169790E+03 0.  0.
        2    1    3    3  502    0  0.30230479866E+03 -0.13689347693E+03  0.36628546265E+03  0.49426010913E+03  0.25500000920E-02 0. -1.
       -2    1    3    3    0  502 -0.30230479866E+03  0.13689347693E+03  0.79399266015E+03  0.86055351937E+03  0.25500000920E-02 0.  1.
</event>
<event>
 5   0  0.7574241E-04  0.7000226E+03  0.7818609E-02  0.9717193E-01
        1   -1    0    0  501    0  0.00000000000E+00  0.00000000000E+00  0.50258881156E+03  0.50258881159E+03  0.50400001928E-02 0. -1.
       -1   -1    0    0    0  501  0.00000000000E+00  0.00000000000E+00 -0.24375378468E+03  0.24375378473E+03  0.50400001928E-02 0.  1.
    10030    2    1    2    0    0  0.00000000000E+00  0.00000000000E+00  0.25883502688E+03  0.74634259632E+03  0.70002264245E+03 0.  0.
        3    1    3    3  502    0  0.30220059685E+03  0.15856684595E+03  0.21227244126E+03  0.40190576618E+03  0.10100000352E+00 0. -1.
       -3    1    3    3    0  502 -0.30220059685E+03 -0.15856684595E+03  0.46562585620E+02  0.34443683013E+03  0.10100000352E+00 0.  1.
</event>
<event>
 5   0  0.1265562E-03  0.7001544E+03  0.7818609E-02  0.9716968E-01
        2   -1    0    0  501    0  0.00000000000E+00  0.00000000000E+00  0.30150604103E+03  0.30150604104E+03  0.25500000920E-02 0.  1.
       -2   -1    0    0    0  501  0.00000000000E+00  0.00000000000E+00 -0.40647290016E+03  0.40647290017E+03  0.25500000920E-02 0. -1.
    10030    2    1    2    0    0  0.00000000000E+00  0.00000000000E+00 -0.10496685913E+03  0.70797894121E+03  0.70015436847E+03 0.  0.
        1    1    3    3  502    0  0.19237379499E+03 -0.25525008057E+03  0.91919208693E+02  0.33257994766E+03  0.50400001928E-02 0.  1.
       -1    1    3    3    0  502 -0.19237379499E+03  0.25525008057E+03 -0.19688606782E+03  0.37539899355E+03  0.50400001928E-02 0. -1.
</event>
<event>
 5   0  0.7574241E-04  0.7001472E+03  0.7818609E-02  0.9716980E-01
       -1   -1    0    0    0  501  0.00000000000E+00  0.00000000000E+00  0.32239507560E+03  0.32239507564E+03  0.50400001928E-02 0. -1.
        1   -1    0    0  501    0  0.00000000000E+00  0.00000000000E+00 -0.38012842237E+03  0.38012842241E+03  0.50400001928E-02 0.  1.
    10030    2    1    2    0    0  0.00000000000E+00  0.00000000000E+00 -0.57733346772E+02  0.70252349805E+03  0.70014721736E+03 0.  0.
        3    1    3    3  502    0  0.23656846611E+03  0.11641685702E+03  0.20220604318E+03  0.33227220446E+03  0.10100000352E+00 0. -1.
       -3    1    3    3    0  502 -0.23656846611E+03 -0.11641685702E+03 -0.25993938995E+03  0.37025129359E+03  0.10100000352E+00 0.  1.
</event>
<event>
 5   0  0.1265562E-03  0.7001091E+03  0.7818609E-02  0.9717046E-01
       -2   -1    0    0    0  501  0.00000000000E+00  0.00000000000E+00  0.86744132225E+02  0.86744132263E+02  0.25500000920E-02 0. -1.
        2   -1    0    0  501    0  0.00000000000E+00  0.00000000000E+00 -0.14126393676E+04  0.14126393676E+04  0.25500000920E-02 0.  1.
    10030    2    1    2    0    0  0.00000000000E+00  0.00000000000E+00 -0.13258952354E+04  0.14993834999E+04  0.70010906613E+03 0.  0.
        1    1    3    3  502    0  0.29645643701E+03 -0.18569715403E+03 -0.69073323787E+03  0.77426239608E+03  0.50400001928E-02 0. -1.
       -1    1    3    3    0  502 -0.29645643701E+03  0.18569715403E+03 -0.63516199752E+03  0.72512110380E+03  0.50400001928E-02 0.  1.
</event>
<event>
 5   0  0.7574241E-04  0.6996628E+03  0.7818609E-02  0.9717809E-01
        1   -1    0    0  501    0  0.00000000000E+00  0.00000000000E+00  0.70340672821E+03  0.70340672823E+03  0.50400001928E-02 0. -1.
       -1   -1    0    0    0  501  0.00000000000E+00  0.00000000000E+00 -0.17398471630E+03  0.17398471637E+03  0.50400001928E-02 0.  1.
    10030    2    1    2    0    0  0.00000000000E+00  0.00000000000E+00  0.52942201191E+03  0.87739144460E+03  0.69966283334E+03 0.  0.
        3    1    3    3  502    0  0.29442246648E+03  0.71333797203E+02  0.48410691567E+03  0.57108021800E+03  0.10100000352E+00 0. -1.
       -3    1    3    3    0  502 -0.29442246648E+03 -0.71333797203E+02  0.45315096237E+02  0.30631122660E+03  0.10100000352E+00 0.  1.
</event>
<event>
 5   0  0.7570633E-04  0.6998144E+03  0.7818609E-02  0.9717550E-01
        1   -1    0    0  501    0  0.00000000000E+00  0.00000000000E+00  0.17983395970E+04  0.17983395970E+04  0.50400001928E-02 0. -1.
       -1   -1    0    0    0  501  0.00000000000E+00  0.00000000000E+00 -0.68082264686E+02  0.68082264872E+02  0.50400001928E-02 0.  1.
    10030    2    1    2    0    0  0.00000000000E+00  0.00000000000E+00  0.17302573323E+04  0.18664218619E+04  0.69981435429E+03 0.  0.
        5    1    3    3  502    0 -0.70703555770E+01  0.36149399209E+02  0.17930698239E+04  0.17934542794E+04  0.46999998093E+01 0. -1.
       -5    1    3    3    0  502  0.70703555770E+01 -0.36149399209E+02 -0.62812491591E+02  0.72967582454E+02  0.46999998093E+01 0.  1.
</event>
<event>
 5   0  0.1243087E-03  0.7000926E+03  0.7818609E-02  0.9717074E-01
       -2   -1    0    0    0  501  0.00000000000E+00  0.00000000000E+00  0.74597748066E+02  0.74597748109E+02  0.25500000920E-02 0.  1.
        2   -1    0    0  501    0  0.00000000000E+00  0.00000000000E+00 -0.16425754163E+04  0.16425754163E+04  0.25500000920E-02 0. -1.
    10030    2    1    2    0    0  0.00000000000E+00  0.00000000000E+00 -0.15679776683E+04  0.17171731644E+04  0.70009264280E+03 0.  0.
        4    1    3    3  502    0  0.27371342203E+03 -0.71645995880E+02 -0.27846245786E+03  0.39698254302E+03  0.12699999809E+01 0.  1.
       -4    1    3    3    0  502 -0.27371342203E+03  0.71645995880E+02 -0.12895152104E+04  0.13201906214E+04  0.12699999809E+01 0. -1.
</event>
<event>
 5   0  0.1222679E-03  0.6998378E+03  0.7818609E-02  0.9717510E-01
       -2   -1    0    0    0  501  0.00000000000E+00  0.00000000000E+00  0.12351627689E+03  0.12351627692E+03  0.25500000920E-02 0.  1.
        2   -1    0    0  501    0  0.00000000000E+00  0.00000000000E+00 -0.99131261769E+03  0.99131261769E+03  0.25500000920E-02 0. -1.
    10030    2    1    2    0    0  0.00000000000E+00  0.00000000000E+00 -0.86779634079E+03  0.11148288946E+04  0.69983782062E+03 0.  0.
        2    1    3    3  502    0  0.82937831445E+02 -0.40230540045E+02 -0.97162347059E+03  0.97598634665E+03  0.25500000920E-02 0. -1.
       -2    1    3    3    0  502 -0.82937831445E+02  0.40230540045E+02  0.10382712979E+03  0.13884254796E+03  0.25500000920E-02 0.  1.
</event>
<event>
 5   0  0.7572415E-04  0.7000361E+03  0.7818609E-02  0.9717171E-01
        1   -1    0    0  501    0  0.00000000000E+00  0.00000000000E+00  0.37591884963E+03  0.37591884966E+03  0.50400001928E-02 0. -1.
       -1   -1    0    0    0  501  0.00000000000E+00  0.00000000000E+00 -0.32590178829E+03  0.32590178833E+03  0.50400001928E-02 0.  1.
    10030    2    1    2    0    0  0.00000000000E+00  0.00000000000E+00  0.50017061340E+02  0.70182063799E+03  0.70003607156E+03 0.  0.
        4    1    3    3  502    0 -0.82021230637E+02 -0.26081091519E+03 -0.19409194283E+03  0.33529555758E+03  0.12699999809E+01 0.  1.
       -4    1    3    3    0  502  0.82021230637E+02  0.26081091519E+03  0.24410900417E+03  0.36652508042E+03  0.12699999809E+01 0. -1.
</event>
<event>
 5   0  0.4936000E-04  0.7000056E+03  0.7818609E-02  0.9717223E-01
        3   -1    0    0  501    0  0.00000000000E+00  0.00000000000E+00  0.11050539959E+04  0.11050540005E+04  0.10100000352E+00 0. -1.
       -3   -1    0    0    0  501  0.00000000000E+00  0.00000000000E+00 -0.11085604930E+03  0.11085609531E+03  0.10100000352E+00 0.  1.
    10030    2    1    2    0    0  0.00000000000E+00  0.00000000000E+00  0.99419794664E+03  0.12159100959E+04  0.70000557434E+03 0.  0.
        4    1    3    3  502    0  0.16980768970E+03 -0.25709373501E+03  0.78550645289E+03  0.84377357182E+03  0.12699999809E+01 0. -1.
       -4    1    3    3    0  502 -0.16980768970E+03  0.25709373501E+03  0.20869149374E+03  0.37213652404E+03  0.12699999809E+01 0.  1.
</event>
<event>
 5   0  0.1282546E-03  0.6999926E+03  0.7818609E-02  0.9717245E-01
        2   -1    0    0  501    0  0.00000000000E+00  0.00000000000E+00  0.89811924223E+03  0.89811924223E+03  0.25500000920E-02 0.  1.
       -2   -1    0    0    0  501  0.00000000000E+00  0.00000000000E+00 -0.13639325953E+03  0.13639325955E+03  0.25500000920E-02 0. -1.
    10030    2    1    2    0    0  0.00000000000E+00  0.00000000000E+00  0.76172598270E+03  0.10345125018E+04  0.69999260256E+03 0.  0.
        5    1    3    3  502    0  0.62948790288E+02  0.16587557858E+03 -0.64955797005E+02  0.18899365950E+03  0.46999998093E+01 0. -1.
       -5    1    3    3    0  502 -0.62948790288E+02 -0.16587557858E+03  0.82668177971E+03  0.84551884229E+03  0.46999998093E+01 0.  1.
</event>
<event>
 5   0  0.7572415E-04  0.7001131E+03  0.7818609E-02  0.9717039E-01
       -1   -1    0    0    0  501  0.00000000000E+00  0.00000000000E+00  0.31115299557E+03  0.31115299561E+03  0.50400001928E-02 0. -1.
        1   -1    0    0  501    0  0.00000000000E+00  0.00000000000E+00 -0.39382423558E+03  0.39382423561E+03  0.50400001928E-02 0.  1.
    10030    2    1    2    0    0  0.00000000000E+00  0.00000000000E+00 -0.82671240016E+02  0.70497723122E+03  0.70011310702E+03 0.  0.
        4    1    3    3  502    0  0.11884442538E+03 -0.25693940163E+03  0.16599810974E+03  0.32817501259E+03  0.12699999809E+01 0. -1.
       -4    1    3    3    0  502 -0.11884442538E+03  0.25693940163E+03 -0.24866934976E+03  0.37680221863E+03  0.12699999809E+01 0.  1.
</event>
<event>
 5   0  0.1243087E-03  0.6995150E+03  0.7818609E-02  0.9718062E-01
        2   -1    0    0  501    0  0.00000000000E+00  0.00000000000E+00  0.92461375300E+03  0.92461375300E+03  0.25500000920E-02 0.  1.
       -2   -1    0    0    0  501  0.00000000000E+00  0.00000000000E+00 -0.13230423560E+03  0.13230423563E+03  0.25500000920E-02 0. -1.
    10030    2    1    2    0    0  0.00000000000E+00  0.00000000000E+00  0.79230951740E+03  0.10569179886E+04  0.69951502009E+03 0.  0.
        4    1    3    3  502    0  0.75372695471E+01 -0.34753006830E+03  0.45457020150E+03  0.57224963067E+03  0.12699999809E+01 0.  1.
       -4    1    3    3    0  502 -0.75372695471E+01  0.34753006830E+03  0.33773931590E+03  0.48466835796E+03  0.12699999809E+01 0. -1.
</event>
<event>
 5   0  0.7459843E-04  0.7000676E+03  0.7818609E-02  0.9717117E-01
        1   -1    0    0  501    0  0.00000000000E+00  0.00000000000E+00  0.84522232410E+03  0.84522232411E+03  0.50400001928E-02 0. -1.
       -1   -1    0    0    0  501  0.00000000000E+00  0.00000000000E+00 -0.14496029061E+03  0.14496029070E+03  0.50400001928E-02 0.  1.
    10030    2    1    2    0    0  0.00000000000E+00  0.00000000000E+00  0.70026203349E+03  0.99018261481E+03  0.70006763611E+03 0.  0.
        2    1    3    3  502    0  0.31888759674E+03 -0.69600138665E+02  0.17127556698E+03  0.36860385037E+03  0.25500000920E-02 0.  1.
       -2    1    3    3    0  502 -0.31888759674E+03  0.69600138665E+02  0.52898646651E+03  0.62157876445E+03  0.25500000920E-02 0. -1.
</event>
<event>
 5   0  0.7459843E-04  0.6998844E+03  0.7818609E-02  0.9717430E-01
        1   -1    0    0  501    0  0.00000000000E+00  0.00000000000E+00  0.58792231229E+03  0.58792231231E+03  0.50400001928E-02 0.  1.
       -1   -1    0    0    0  501  0.00000000000E+00  0.00000000000E+00 -0.20829207269E+03  0.20829207275E+03  0.50400001928E-02 0. -1.
    10030    2    1    2    0    0  0.00000000000E+00  0.00000000000E+00  0.37963023960E+03  0.79621438506E+03  0.69988443915E+03 0.  0.
        2    1    3    3  502    0  0.74744040788E+02  0.30173658280E+03  0.37264551507E+03  0.48527962757E+03  0.25500000920E-02 0.  1.
       -2    1    3    3    0  502 -0.74744040788E+02 -0.30173658280E+03  0.69847245342E+01  0.31093475749E+03  0.25500000920E-02 0. -1.
</event>
<event>
 5   0  0.1222679E-03  0.7001055E+03  0.7818609E-02  0.9717052E-01
        2   -1    0    0  501    0  0.00000000000E+00  0.00000000000E+00  0.13284499351E+04  0.13284499351E+04  0.25500000920E-02 0.  1.
       -2   -1    0    0    0  501  0.00000000000E+00  0.00000000000E+00 -0.92240521286E+02  0.92240521322E+02  0.25500000920E-02 0. -1.
    10030    2    1    2    0    0  0.00000000000E+00  0.00000000000E+00  0.12362094138E+04  0.14206904564E+04  0.70010546218E+03 0.  0.
        2    1    3    3  502    0 -0.33332458283E+03 -0.39549509215E+02  0.81968077881E+03  0.88574602475E+03  0.25500000920E-02 0.  1.
       -2    1    3    3    0  502  0.33332458283E+03  0.39549509215E+02  0.41652863501E+03  0.53494443169E+03  0.25500000920E-02 0. -1.
</event>
<event>
 5   0  0.7570633E-04  0.6998446E+03  0.7818609E-02  0.9717498E-01
        1   -1    0    0  501    0  0.00000000000E+00  0.00000000000E+00  0.22056178117E+03  0.22056178123E+03  0.50400001928E-02 0.  1.
       -1   -1    0    0    0  501  0.00000000000E+00  0.00000000000E+00 -0.55515335871E+03  0.55515335874E+03  0.50400001928E-02 0. -1.
    10030    2    1    2    0    0  0.00000000000E+00  0.00000000000E+00 -0.33459157754E+03  0.77571513996E+03  0.69984459318E+03 0.  0.
        5    1    3    3  502    0  0.23229196675E+03 -0.19265239785E+03  0.28955553905E+02  0.30320787970E+03  0.46999998093E+01 0.  1.
       -5    1    3    3    0  502 -0.23229196675E+03  0.19265239785E+03 -0.36354713145E+03  0.47250726026E+03  0.46999998093E+01 0. -1.
</event>
<event>
 5   0  0.7572415E-04  0.6999470E+03  0.7818609E-02  0.9717323E-01
       -1   -1    0    0    0  501  0.00000000000E+00  0.00000000000E+00  0.25773795372E+03  0.25773795377E+03  0.50400001928E-02 0. -1.
        1   -1    0    0  501    0  0.00000000000E+00  0.00000000000E+00 -0.47521696460E+03  0.47521696463E+03  0.50400001928E-02 0.  1.
    10030    2    1    2    0    0  0.00000000000E+00  0.00000000000E+00 -0.21747901088E+03  0.73295491840E+03  0.69994699245E+03 0.  0.
        4    1    3    3  502    0 -0.10071680385E+03  0.81058241206E+02 -0.44929208206E+03  0.46752465277E+03  0.12699999809E+01 0.  1.
       -4    1    3    3    0  502  0.10071680385E+03 -0.81058241206E+02  0.23181307118E+03  0.26543026563E+03  0.12699999809E+01 0. -1.
</event>
<event>
 5   0  0.7570633E-04  0.6982319E+03  0.7818609E-02  0.9720261E-01
       -1   -1    0    0    0  501  0.00000000000E+00  0.00000000000E+00  0.22290432811E+03  0.22290432817E+03  0.50400001928E-02 0. -1.
        1   -1    0    0  501    0  0.00000000000E+00  0.00000000000E+00 -0.54679035085E+03  0.54679035087E+03  0.50400001928E-02 0.  1.
    10030    2    1    2    0    0  0.00000000000E+00  0.00000000000E+00 -0.32388602274E+03  0.76969467904E+03  0.69823186924E+03 0.  0.
        5    1    3    3  502    0  0.26812339635E+03 -0.71126597748E+01 -0.40823608082E+03  0.48848698374E+03  0.46999998093E+01 0.  1.
       -5    1    3    3    0  502 -0.26812339635E+03  0.71126597748E+01  0.84350058084E+02  0.28120769530E+03  0.46999998093E+01 0. -1.
</event>
<event>
 5   0  0.1222679E-03  0.7001634E+03  0.7818609E-02  0.9716953E-01
        2   -1    0    0  501    0  0.00000000000E+00  0.00000000000E+00  0.31402729513E+03  0.31402729514E+03  0.25500000920E-02 0. -1.
       -2   -1    0    0    0  501  0.00000000000E+00  0.00000000000E+00 -0.39027560061E+03  0.39027560062E+03  0.25500000920E-02 0.  1.
    10030    2    1    2    0    0  0.00000000000E+00  0.00000000000E+00 -0.76248305484E+02  0.70430289576E+03  0.70016338442E+03 0.  0.
        2    1    3    3  502    0  0.11728550599E+03  0.24193549012E+03 -0.26365613024E+03  0.37656769155E+03  0.25500000920E-02 0.  1.
       -2    1    3    3    0  502 -0.11728550599E+03 -0.24193549012E+03  0.18740782476E+03  0.32773520422E+03  0.25500000920E-02 0. -1.
</event>
<event>
 5   0  0.1222679E-03  0.6997883E+03  0.7818609E-02  0.9717594E-01
        2   -1    0    0  501    0  0.00000000000E+00  0.00000000000E+00  0.22972736525E+04  0.22972736525E+04  0.25500000920E-02 0.  1.
       -2   -1    0    0    0  501  0.00000000000E+00  0.00000000000E+00 -0.53291828940E+02  0.53291829001E+02  0.25500000920E-02 0. -1.
    10030    2    1    2    0    0  0.00000000000E+00  0.00000000000E+00  0.22439818236E+04  0.23505654815E+04  0.69978829540E+03 0.  0.
        2    1    3    3  502    0 -0.26130905164E+03 -0.22399645550E+03  0.91037383163E+03  0.97326119098E+03  0.25500000920E-02 0.  1.
       -2    1    3    3    0  502  0.26130905164E+03  0.22399645550E+03  0.13336079920E+04  0.13773042906E+04  0.25500000920E-02 0. -1.
</event>
<event>
 5   0  0.7572415E-04  0.7000767E+03  0.7818609E-02  0.9717101E-01
        1   -1    0    0  501    0  0.00000000000E+00  0.00000000000E+00  0.80839632532E+03  0.80839632533E+03  0.50400001928E-02 0.  1.
       -1   -1    0    0    0  501  0.00000000000E+00  0.00000000000E+00 -0.15156779081E+03  0.15156779089E+03  0.50400001928E-02 0. -1.
    10030    2    1    2    0    0  0.00000000000E+00  0.00000000000E+00  0.65682853451E+03  0.95996411623E+03  0.70007669629E+03 0.  0.
        4    1    3    3  502    0 -0.17402429140E+03  0.17813103856E+03 -0.88911794144E+01  0.24919026238E+03  0.12699999809E+01 0.  1.
       -4    1    3    3    0  502  0.17402429140E+03 -0.17813103856E+03  0.66571971393E+03  0.71077385384E+03  0.12699999809E+01 0. -1.
</event>
<event>
 5   0  0.1224048E-03  0.6999746E+03  0.7818609E-02  0.9717276E-01
        2   -1    0    0  501    0  0.00000000000E+00  0.00000000000E+00  0.61334834313E+03  0.61334834313E+03  0.25500000920E-02 0.  1.
       -2   -1    0    0    0  501  0.00000000000E+00  0.00000000000E+00 -0.19970890197E+03  0.19970890199E+03  0.25500000920E-02 0. -1.
    10030    2    1    2    0    0  0.00000000000E+00  0.00000000000E+00  0.41363944115E+03  0.81305724512E+03  0.69997463995E+03 0.  0.
        3    1    3    3  502    0  0.13696407563E+03 -0.29930577021E+03  0.68658384068E+02  0.33623962586E+03  0.10100000352E+00 0. -1.
       -3    1    3    3    0  502 -0.13696407563E+03  0.29930577021E+03  0.34498105708E+03  0.47681761926E+03  0.10100000352E+00 0.  1.
</event>
<event>
 5   0  0.1224048E-03  0.6995837E+03  0.7818609E-02  0.9717944E-01
       -2   -1    0    0    0  501  0.00000000000E+00  0.00000000000E+00  0.15526024556E+03  0.15526024558E+03  0.25500000920E-02 0.  1.
        2   -1    0    0  501    0  0.00000000000E+00  0.00000000000E+00 -0.78805962756E+03  0.78805962756E+03  0.25500000920E-02 0. -1.
    10030    2    1    2    0    0  0.00000000000E+00  0.00000000000E+00 -0.63279938200E+03  0.94331987314E+03  0.69958367992E+03 0.  0.
        3    1    3    3  502    0 -0.42808619675E+02  0.23182015471E+03  0.32054979964E+02  0.23790900359E+03  0.10100000352E+00 0.  1.
       -3    1    3    3    0  502  0.42808619675E+02 -0.23182015471E+03 -0.66485436197E+03  0.70541086955E+03  0.10100000352E+00 0. -1.
</event>
<event>
 5   0  0.1243087E-03  0.7001313E+03  0.7818609E-02  0.9717008E-01
        2   -1    0    0  501    0  0.00000000000E+00  0.00000000000E+00  0.28030973621E+03  0.28030973622E+03  0.25500000920E-02 0.  1.
       -2   -1    0    0    0  501  0.00000000000E+00  0.00000000000E+00 -0.43718051055E+03  0.43718051056E+03  0.25500000920E-02 0. -1.
    10030    2    1    2    0    0  0.00000000000E+00  0.00000000000E+00 -0.15687077435E+03  0.71749024678E+03  0.70013128368E+03 0.  0.
        4    1    3    3  502    0 -0.15838175450E+03 -0.30594622504E+03 -0.14207556434E+03  0.37265929702E+03  0.12699999809E+01 0. -1.
       -4    1    3    3    0  502  0.15838175450E+03  0.30594622504E+03 -0.14795210004E+02  0.34483094976E+03  0.12699999809E+01 0.  1.
</event>
<event>
 5   0  0.7572415E-04  0.6992735E+03  0.7818609E-02  0.9718475E-01
        1   -1    0    0  501    0  0.00000000000E+00  0.00000000000E+00  0.29119314693E+03  0.29119314698E+03  0.50400001928E-02 0. -1.
       -1   -1    0    0    0  501  0.00000000000E+00  0.00000000000E+00 -0.41981021622E+03  0.41981021625E+03  0.50400001928E-02 0.  1.
    10030    2    1    2    0    0  0.00000000000E+00  0.00000000000E+00 -0.12861706929E+03  0.71100336323E+03  0.69927350301E+03 0.  0.
        4    1    3    3  502    0 -0.12177957802E+03 -0.32736481010E+03 -0.80264461595E+02  0.35838803162E+03  0.12699999809E+01 0.  1.
       -4    1    3    3    0  502  0.12177957802E+03  0.32736481010E+03 -0.48352607691E+02  0.35261533161E+03  0.12699999809E+01 0. -1.
</event>
<event>
 5   0  0.7572415E-04  0.7002719E+03  0.7818609E-02  0.9716767E-01
       -1   -1    0    0    0  501  0.00000000000E+00  0.00000000000E+00  0.49519795614E+03  0.49519795617E+03  0.50400001928E-02 0.  1.
        1   -1    0    0  501    0  0.00000000000E+00  0.00000000000E+00 -0.24756805750E+03  0.24756805755E+03  0.50400001928E-02 0. -1.
    10030    2    1    2    0    0  0.00000000000E+00  0.00000000000E+00  0.24762989864E+03  0.74276601372E+03  0.70027193607E+03 0.  0.
        4    1    3    3  502    0  0.18524295145E+02 -0.19841009408E+03  0.42918068732E+03  0.47318853559E+03  0.12699999809E+01 0.  1.
       -4    1    3    3    0  502 -0.18524295145E+02  0.19841009408E+03 -0.18155078869E+03  0.26957747813E+03  0.12699999809E+01 0. -1.
</event>
<event>
 5   0  0.1282546E-03  0.6999974E+03  0.7818609E-02  0.9717237E-01
        2   -1    0    0  501    0  0.00000000000E+00  0.00000000000E+00  0.66640130715E+03  0.66640130715E+03  0.25500000920E-02 0. -1.
       -2   -1    0    0    0  501  0.00000000000E+00  0.00000000000E+00 -0.18382182344E+03  0.18382182346E+03  0.25500000920E-02 0.  1.
    10030    2    1    2    0    0  0.00000000000E+00  0.00000000000E+00  0.48257948370E+03  0.85022313061E+03  0.69999743838E+03 0.  0.
        5    1    3    3  502    0 -0.20509983177E+03 -0.28310632995E+03  0.22163414238E+03  0.41395521269E+03  0.46999998093E+01 0.  1.
       -5    1    3    3    0  502  0.20509983177E+03  0.28310632995E+03  0.26094534132E+03  0.43626791792E+03  0.46999998093E+01 0. -1.
</event>
<event>
 5   0  0.7572415E-04  0.7001424E+03  0.7818609E-02  0.9716989E-01
       -1   -1    0    0    0  501  0.00000000000E+00  0.00000000000E+00  0.13106966580E+03  0.13106966590E+03  0.50400001928E-02 0.  1.
        1   -1    0    0  501    0  0.00000000000E+00  0.00000000000E+00 -0.93499765126E+03  0.93499765127E+03  0.50400001928E-02 0. -1.
    10030    2    1    2    0    0  0.00000000000E+00  0.00000000000E+00 -0.80392798546E+03  0.10660673172E+04  0.70014235620E+03 0.  0.
        4    1    3    3  502    0  0.13906691201E+03  0.19285191359E+02 -0.89024780529E+03  0.90125151448E+03  0.12699999809E+01 0. -1.
       -4    1    3    3    0  502 -0.13906691201E+03 -0.19285191359E+02  0.86319819831E+02  0.16481580270E+03  0.12699999809E+01 0.  1.
</event>
<event>
 5   0  0.1224048E-03  0.6996705E+03  0.7818609E-02  0.9717796E-01
       -2   -1    0    0    0  501  0.00000000000E+00  0.00000000000E+00  0.19626905603E+03  0.19626905605E+03  0.25500000920E-02 0.  1.
        2   -1    0    0  501    0  0.00000000000E+00  0.00000000000E+00 -0.62355585118E+03  0.62355585118E+03  0.25500000920E-02 0. -1.
    10030    2    1    2    0    0  0.00000000000E+00  0.00000000000E+00 -0.42728679515E+03  0.81982490723E+03  0.69967054620E+03 0.  0.
        3    1    3    3  502    0 -0.16982388032E+03  0.10592816574E+03  0.12255076794E+03  0.23469049310E+03  0.10100000352E+00 0.  1.
       -3    1    3    3    0  502  0.16982388032E+03 -0.10592816574E+03 -0.54983756309E+03  0.58513441414E+03  0.10100000352E+00 0. -1.
</event>
<event>
 5   0  0.1224048E-03  0.7001841E+03  0.7818609E-02  0.9716917E-01
       -2   -1    0    0    0  501  0.00000000000E+00  0.00000000000E+00  0.22386920542E+03  0.22386920543E+03  0.25500000920E-02 0. -1.
        2   -1    0    0  501    0  0.00000000000E+00  0.00000000000E+00 -0.54748239318E+03  0.54748239319E+03  0.25500000920E-02 0.  1.
    10030    2    1    2    0    0  0.00000000000E+00  0.00000000000E+00 -0.32361318777E+03  0.77135159862E+03  0.70018411393E+03 0.  0.
        3    1    3    3  502    0 -0.35872213951E+02 -0.41414948459E+02 -0.54272984941E+03  0.54548850889E+03  0.10100000352E+00 0.  1.
       -3    1    3    3    0  502  0.35872213951E+02  0.41414948459E+02  0.21911666165E+03  0.22586308973E+03  0.10100000352E+00 0. -1.
</event>
<event>
 5   0  0.7572415E-04  0.7000141E+03  0.7818609E-02  0.9717208E-01
       -1   -1    0    0    0  501  0.00000000000E+00  0.00000000000E+00  0.41001670682E+03  0.41001670685E+03  0.50400001928E-02 0. -1.
        1   -1    0    0  501    0  0.00000000000E+00  0.00000000000E+00 -0.29878032439E+03  0.29878032444E+03  0.50400001928E-02 0.  1.
    10030    2    1    2    0    0  0.00000000000E+00  0.00000000000E+00  0.11123638242E+03  0.70879703128E+03  0.70001407042E+03 0.  0.
        4    1    3    3  502    0 -0.31759489018E+01  0.32311534696E+03 -0.80567279133E+02  0.33302599517E+03  0.12699999809E+01 0.  1.
       -4    1    3    3    0  502  0.31759489018E+01 -0.32311534696E+03  0.19180366155E+03  0.37577103611E+03  0.12699999809E+01 0. -1.
</event>
<event>
 5   0  0.7574241E-04  0.7006486E+03  0.7818609E-02  0.9716124E-01
       -1   -1    0    0    0  501  0.00000000000E+00  0.00000000000E+00  0.28450663063E+03  0.28450663068E+03  0.50400001928E-02 0.  1.
        1   -1    0    0  501    0  0.00000000000E+00  0.00000000000E+00 -0.43136818240E+03  0.43136818243E+03  0.50400001928E-02 0. -1.
    10030    2    1    2    0    0  0.00000000000E+00  0.00000000000E+00 -0.14686155177E+03  0.71587481311E+03  0.70064858000E+03 0.  0.
        3    1    3    3  502    0 -0.21418511778E+03  0.78199022954E+01  0.20970262144E+03  0.29985265580E+03  0.10100000352E+00 0.  1.
       -3    1    3    3    0  502  0.21418511778E+03 -0.78199022954E+01 -0.35656417321E+03  0.41602215731E+03  0.10100000352E+00 0. -1.
</event>
<event>
 5   0  0.7572415E-04  0.7002773E+03  0.7818609E-02  0.9716758E-01
       -1   -1    0    0    0  501  0.00000000000E+00  0.00000000000E+00  0.24637960615E+03  0.24637960620E+03  0.50400001928E-02 0.  1.
        1   -1    0    0  501    0  0.00000000000E+00  0.00000000000E+00 -0.49759428228E+03  0.49759428230E+03  0.50400001928E-02 0. -1.
    10030    2    1    2    0    0  0.00000000000E+00  0.00000000000E+00 -0.25121467613E+03  0.74397388850E+03  0.70027732597E+03 0.  0.
        4    1    3    3  502    0 -0.13419501201E+03 -0.72255164604E+02  0.20928662574E+03  0.25890464398E+03  0.12699999809E+01 0.  1.
       -4    1    3    3    0  502  0.13419501201E+03  0.72255164604E+02 -0.46050130187E+03  0.48506924452E+03  0.12699999809E+01 0. -1.
</event>
<event>
 5   0  0.1282546E-03  0.7000929E+03  0.7818609E-02  0.9717073E-01
       -2   -1    0    0    0  501  0.00000000000E+00  0.00000000000E+00  0.43812039307E+03  0.43812039308E+03  0.25500000920E-02 0.  1.
        2   -1    0    0  501    0  0.00000000000E+00  0.00000000000E+00 -0.27967769366E+03  0.27967769367E+03  0.25500000920E-02 0. -1.
    10030    2    1    2    0    0  0.00000000000E+00  0.00000000000E+00  0.15844269941E+03  0.71779808675E+03  0.70009285409E+03 0.  0.
        5    1    3    3  502    0  0.26788631069E+02  0.20525810724E+03 -0.21016094352E+03  0.29502242884E+03  0.46999998093E+01 0. -1.
       -5    1    3    3    0  502 -0.26788631069E+02 -0.20525810724E+03  0.36860364293E+03  0.42277565791E+03  0.46999998093E+01 0.  1.
</event>
<event>
 5   0  0.7572415E-04  0.7001286E+03  0.7818609E-02  0.9717012E-01
        1   -1    0    0  501    0  0.00000000000E+00  0.00000000000E+00  0.96641055180E+02  0.96641055312E+02  0.50400001928E-02 0.  1.
       -1   -1    0    0    0  501  0.00000000000E+00  0.00000000000E+00 -0.12680431772E+04  0.12680431773E+04  0.50400001928E-02 0. -1.
    10030    2    1    2    0    0  0.00000000000E+00  0.00000000000E+00 -0.11714021221E+04  0.13646842326E+04  0.70012864749E+03 0.  0.
        4    1    3    3  502    0  0.11567314787E+02 -0.48861241182E+02 -0.12609829569E+04  0.12619829057E+04  0.12699999809E+01 0. -1.
       -4    1    3    3    0  502 -0.11567314787E+02  0.48861241182E+02  0.89580834886E+02  0.10270132687E+03  0.12699999809E+01 0.  1.
</event>
<event>
 5   0  0.4936000E-04  0.7000609E+03  0.7818609E-02  0.9717128E-01
        3   -1    0    0  501    0  0.00000000000E+00  0.00000000000E+00  0.78579020157E+03  0.78579020806E+03  0.10100000352E+00 0.  1.
       -3   -1    0    0    0  501  0.00000000000E+00  0.00000000000E+00 -0.15592114204E+03  0.15592117475E+03  0.10100000352E+00 0. -1.
    10030    2    1    2    0    0  0.00000000000E+00  0.00000000000E+00  0.62986905954E+03  0.94171138281E+03  0.70006092332E+03 0.  0.
        2    1    3    3  502    0 -0.11222410213E+02  0.59790525834E+02  0.77862441757E+03  0.78099733233E+03  0.25500000920E-02 0.  1.
       -2    1    3    3    0  502  0.11222410213E+02 -0.59790525834E+02 -0.14875535803E+03  0.16071405048E+03  0.25500000920E-02 0. -1.
</event>
<event>
 5   0  0.7459843E-04  0.7004036E+03  0.7818609E-02  0.9716542E-01
        1   -1    0    0  501    0  0.00000000000E+00  0.00000000000E+00  0.17368835810E+03  0.17368835818E+03  0.50400001928E-02 0.  1.
       -1   -1    0    0    0  501  0.00000000000E+00  0.00000000000E+00 -0.70609976122E+03  0.70609976124E+03  0.50400001928E-02 0. -1.
    10030    2    1    2    0    0  0.00000000000E+00  0.00000000000E+00 -0.53241140312E+03  0.87978811942E+03  0.70040362142E+03 0.  0.
        2    1    3    3  502    0  0.28360554341E+03 -0.55482314210E+02 -0.17726683874E+02  0.28952482929E+03  0.25500000920E-02 0.  1.
       -2    1    3    3    0  502 -0.28360554341E+03  0.55482314210E+02 -0.51468471925E+03  0.59026329013E+03  0.25500000920E-02 0. -1.
</event>
<event>
 5   0  0.7570633E-04  0.6996828E+03  0.7818609E-02  0.9717775E-01
        1   -1    0    0  501    0  0.00000000000E+00  0.00000000000E+00  0.53919090944E+03  0.53919090946E+03  0.50400001928E-02 0.  1.
       -1   -1    0    0    0  501  0.00000000000E+00  0.00000000000E+00 -0.22698643311E+03  0.22698643316E+03  0.50400001928E-02 0. -1.
    10030    2    1    2    0    0  0.00000000000E+00  0.00000000000E+00  0.31220447634E+03  0.76617734262E+03  0.69968284623E+03 0.  0.
        5    1    3    3  502    0 -0.72844042856E+02 -0.96888942507E+02 -0.20321818930E+03  0.23667159572E+03  0.46999998093E+01 0. -1.
       -5    1    3    3    0  502  0.72844042856E+02  0.96888942507E+02  0.51542266563E+03  0.52950574691E+03  0.46999998093E+01 0.  1.
</event>
<event>
 5   0  0.1222679E-03  0.6997072E+03  0.7818609E-02  0.9717733E-01
       -2   -1    0    0    0  501  0.00000000000E+00  0.00000000000E+00  0.63382626055E+03  0.63382626055E+03  0.25500000920E-02 0.  1.
        2   -1    0    0  501    0  0.00000000000E+00  0.00000000000E+00 -0.19310895206E+03  0.19310895208E+03  0.25500000920E-02 0. -1.
    10030    2    1    2    0    0  0.00000000000E+00  0.00000000000E+00  0.44071730849E+03  0.82693521263E+03  0.69970715295E+03 0.  0.
        2    1    3    3  502    0 -0.31726186991E+03  0.47210770343E+01  0.46183379213E+02  0.32064043286E+03  0.25500000920E-02 0. -1.
       -2    1    3    3    0  502  0.31726186991E+03 -0.47210770343E+01  0.39453392927E+03  0.50629477977E+03  0.25500000920E-02 0.  1.
</event>
<event>
 5   0  0.1243087E-03  0.6999660E+03  0.7818609E-02  0.9717290E-01
       -2   -1    0    0    0  501  0.00000000000E+00  0.00000000000E+00  0.81764094129E+02  0.81764094169E+02  0.25500000920E-02 0.  1.
        2   -1    0    0  501    0  0.00000000000E+00  0.00000000000E+00 -0.14980672357E+04  0.14980672357E+04  0.25500000920E-02 0. -1.
    10030    2    1    2    0    0  0.00000000000E+00  0.00000000000E+00 -0.14163031416E+04  0.15798313299E+04  0.69996602919E+03 0.  0.
        4    1    3    3  502    0 -0.33936458433E+03 -0.85537783872E+02 -0.70542064279E+03  0.78746741503E+03  0.12699999809E+01 0.  1.
       -4    1    3    3    0  502  0.33936458433E+03  0.85537783872E+02 -0.71088249877E+03  0.79236391483E+03  0.12699999809E+01 0. -1.
</event>
<event>
 5   0  0.1224048E-03  0.7001223E+03  0.7818609E-02  0.9717023E-01
        2   -1    0    0  501    0  0.00000000000E+00  0.00000000000E+00  0.82707543013E+03  0.82707543013E+03  0.25500000920E-02 0.  1.
       -2   -1    0    0    0  501  0.00000000000E+00  0.00000000000E+00 -0.14816398683E+03  0.14816398685E+03  0.25500000920E-02 0. -1.
    10030    2    1    2    0    0  0.00000000000E+00  0.00000000000E+00  0.67891144330E+03  0.97523941698E+03  0.70012225546E+03 0.  0.
        3    1    3    3  502    0  0.20564076908E+03  0.38042012710E+02  0.73049558677E+03  0.75984151843E+03  0.10100000352E+00 0.  1.
       -3    1    3    3    0  502 -0.20564076908E+03 -0.38042012710E+02 -0.51584143476E+02  0.21539789855E+03  0.10100000352E+00 0. -1.
</event>
<event>
 5   0  0.7572415E-04  0.7003741E+03  0.7818609E-02  0.9716593E-01
        1   -1    0    0  501    0  0.00000000000E+00  0.00000000000E+00  0.11310136416E+04  0.11310136416E+04  0.50400001928E-02 0. -1.
       -1   -1    0    0    0  501  0.00000000000E+00  0.00000000000E+00 -0.10842572293E+03  0.10842572305E+03  0.50400001928E-02 0.  1.
    10030    2    1    2    0    0  0.00000000000E+00  0.00000000000E+00  0.10225879187E+04  0.12394393647E+04  0.70037410522E+03 0.  0.
        4    1    3    3  502    0 -0.23136438955E+03  0.71660303544E+02  0.63719477853E+02  0.25045251967E+03  0.12699999809E+01 0.  1.
       -4    1    3    3    0  502  0.23136438955E+03 -0.71660303544E+02  0.95886844085E+03  0.98898684502E+03  0.12699999809E+01 0. -1.
</event>
<event>
 5   0  0.7574241E-04  0.7004110E+03  0.7818609E-02  0.9716530E-01
       -1   -1    0    0    0  501  0.00000000000E+00  0.00000000000E+00  0.11932973078E+03  0.11932973089E+03  0.50400001928E-02 0.  1.
        1   -1    0    0  501    0  0.00000000000E+00  0.00000000000E+00 -0.10277731515E+04  0.10277731515E+04  0.50400001928E-02 0. -1.
    10030    2    1    2    0    0  0.00000000000E+00  0.00000000000E+00 -0.90844342069E+03  0.11471028824E+04  0.70041100373E+03 0.  0.
        3    1    3    3  502    0 -0.31760330088E+03  0.14409393275E+02 -0.21372006062E+03  0.38308714655E+03  0.10100000352E+00 0.  1.
       -3    1    3    3    0  502  0.31760330088E+03 -0.14409393275E+02 -0.69472336008E+03  0.76401573582E+03  0.10100000352E+00 0. -1.
</event>
<event>
 5   0  0.7570633E-04  0.6999106E+03  0.7818609E-02  0.9717385E-01
       -1   -1    0    0    0  501  0.00000000000E+00  0.00000000000E+00  0.43638195538E+03  0.43638195541E+03  0.50400001928E-02 0.  1.
        1   -1    0    0  501    0  0.00000000000E+00  0.00000000000E+00 -0.28064568992E+03  0.28064568996E+03  0.50400001928E-02 0. -1.
    10030    2    1    2    0    0  0.00000000000E+00  0.00000000000E+00  0.15573626546E+03  0.71702764537E+03  0.69991060847E+03 0.  0.
        5    1    3    3  502    0  0.13169448548E+03 -0.19427533367E+02 -0.25365976628E+03  0.28650695207E+03  0.46999998093E+01 0. -1.
       -5    1    3    3    0  502 -0.13169448548E+03  0.19427533367E+02  0.40939603174E+03  0.43052069330E+03  0.46999998093E+01 0.  1.
</event>
<event>
 5   0  0.7570633E-04  0.7002157E+03  0.7818609E-02  0.9716863E-01
       -1   -1    0    0    0  501  0.00000000000E+00  0.00000000000E+00  0.21076516650E+03  0.21076516656E+03  0.50400001928E-02 0.  1.
        1   -1    0    0  501    0  0.00000000000E+00  0.00000000000E+00 -0.58157376545E+03  0.58157376548E+03  0.50400001928E-02 0. -1.
    10030    2    1    2    0    0  0.00000000000E+00  0.00000000000E+00 -0.37080859896E+03  0.79233893203E+03  0.70021565689E+03 0.  0.
        5    1    3    3  502    0  0.90093551844E+02 -0.10116311494E+03 -0.55067800422E+03  0.56711478400E+03  0.46999998093E+01 0. -1.
       -5    1    3    3    0  502 -0.90093551844E+02  0.10116311494E+03  0.17986940526E+03  0.22522414803E+03  0.46999998093E+01 0.  1.
</event>
<event>
 5   0  0.1222679E-03  0.6997725E+03  0.7818609E-02  0.9717621E-01
       -2   -1    0    0    0  501  0.00000000000E+00  0.00000000000E+00  0.43705199008E+03  0.43705199009E+03  0.25500000920E-02 0.  1.
        2   -1    0    0  501    0  0.00000000000E+00  0.00000000000E+00 -0.28010482822E+03  0.28010482823E+03  0.25500000920E-02 0. -1.
    10030    2    1    2    0    0  0.00000000000E+00  0.00000000000E+00  0.15694716186E+03  0.71715681832E+03  0.69977245619E+03 0.  0.
        2    1    3    3  502    0 -0.43685548102E+01 -0.32762930395E+03  0.20424283815E+03  0.38610255376E+03  0.25500000920E-02 0.  1.
       -2    1    3    3    0  502  0.43685548102E+01  0.32762930395E+03 -0.47295676290E+02  0.33105426456E+03  0.25500000920E-02 0. -1.
</event>
<event>
 5   0  0.1222679E-03  0.6999461E+03  0.7818609E-02  0.9717324E-01
       -2   -1    0    0    0  501  0.00000000000E+00  0.00000000000E+00  0.93502830240E+02  0.93502830275E+02  0.25500000920E-02 0. -1.
        2   -1    0    0  501    0  0.00000000000E+00  0.00000000000E+00 -0.13099188810E+04  0.13099188810E+04  0.25500000920E-02 0.  1.
    10030    2    1    2    0    0  0.00000000000E+00  0.00000000000E+00 -0.12164160508E+04  0.14034217113E+04  0.69994606303E+03 0.  0.
        2    1    3    3  502    0  0.16435340465E+03 -0.12392676315E+02 -0.12272290321E+04  0.12382474378E+04  0.25500000920E-02 0.  1.
       -2    1    3    3    0  502 -0.16435340465E+03  0.12392676315E+02  0.10812981314E+02  0.16517427348E+03  0.25500000920E-02 0. -1.
</event>
<event>
 5   0  0.7013526E-04  0.6998064E+03  0.7818609E-02  0.9717563E-01
       -1   -1    0    0    0  501  0.00000000000E+00  0.00000000000E+00  0.55520113082E+03  0.55520113084E+03  0.50400001928E-02 0.  1.
        1   -1    0    0  501    0  0.00000000000E+00  0.00000000000E+00 -0.22051875666E+03  0.22051875671E+03  0.50400001928E-02 0. -1.
    10030    2    1    2    0    0  0.00000000000E+00  0.00000000000E+00  0.33468237416E+03  0.77571988756E+03  0.69980643922E+03 0.  0.
        1    1    3    3  502    0  0.21095483985E+02 -0.32932712853E+03  0.38400461535E+02  0.33222879542E+03  0.50400001928E-02 0. -1.
       -1    1    3    3    0  502 -0.21095483985E+02  0.32932712853E+03  0.29628191263E+03  0.44349109214E+03  0.50400001928E-02 0.  1.
</event>
<event>
 5   0  0.7013526E-04  0.7000574E+03  0.7818609E-02  0.9717134E-01
       -1   -1    0    0    0  501  0.00000000000E+00  0.00000000000E+00  0.11145749700E+03  0.11145749711E+03  0.50400001928E-02 0.  1.
        1   -1    0    0  501    0  0.00000000000E+00  0.00000000000E+00 -0.10992540103E+04  0.10992540103E+04  0.50400001928E-02 0. -1.
    10030    2    1    2    0    0  0.00000000000E+00  0.00000000000E+00 -0.98779651330E+03  0.12107115074E+04  0.70005742801E+03 0.  0.
        1    1    3    3  502    0  0.25878967957E+03  0.14114387096E+03 -0.16746602562E+03  0.33902589919E+03  0.50400001928E-02 0.  1.
       -1    1    3    3    0  502 -0.25878967957E+03 -0.14114387096E+03 -0.82033048767E+03  0.87168560823E+03  0.50400001928E-02 0. -1.
</event>
<event>
 5   0  0.1265562E-03  0.6973351E+03  0.7818609E-02  0.9721800E-01
        2   -1    0    0  501    0  0.00000000000E+00  0.00000000000E+00  0.71672398806E+03  0.71672398806E+03  0.25500000920E-02 0. -1.
       -2   -1    0    0    0  501  0.00000000000E+00  0.00000000000E+00 -0.16961765912E+03  0.16961765914E+03  0.25500000920E-02 0.  1.
    10030    2    1    2    0    0  0.00000000000E+00  0.00000000000E+00  0.54710632894E+03  0.88634164720E+03  0.69733505606E+03 0.  0.
        1    1    3    3  502    0  0.17990087874E+03 -0.22124931528E+03  0.18540785471E+02  0.28576099530E+03  0.50400001928E-02 0.  1.
       -1    1    3    3    0  502 -0.17990087874E+03  0.22124931528E+03  0.52856554347E+03  0.60058065191E+03  0.50400001928E-02 0. -1.
</event>
<event>
 5   0  0.1282546E-03  0.6967742E+03  0.7818609E-02  0.9722765E-01
        2   -1    0    0  501    0  0.00000000000E+00  0.00000000000E+00  0.44053838494E+03  0.44053838495E+03  0.25500000920E-02 0.  1.
       -2   -1    0    0    0  501  0.00000000000E+00  0.00000000000E+00 -0.27551188666E+03  0.27551188667E+03  0.25500000920E-02 0. -1.
    10030    2    1    2    0    0  0.00000000000E+00  0.00000000000E+00  0.16502649828E+03  0.71605027163E+03  0.69677417171E+03 0.  0.
        5    1    3    3  502    0  0.13200996024E+03  0.28295145020E+03 -0.76237905190E+02  0.32143811373E+03  0.46999998093E+01 0. -1.
       -5    1    3    3    0  502 -0.13200996024E+03 -0.28295145020E+03  0.24126440347E+03  0.39461215789E+03  0.46999998093E+01 0.  1.
</event>
<event>
 5   0  0.7459843E-04  0.6971021E+03  0.7818609E-02  0.9722201E-01
       -1   -1    0    0    0  501  0.00000000000E+00  0.00000000000E+00  0.21750353388E+03  0.21750353394E+03  0.50400001928E-02 0. -1.
        1   -1    0    0  501    0  0.00000000000E+00  0.00000000000E+00 -0.55855565571E+03  0.55855565573E+03  0.50400001928E-02 0.  1.
    10030    2    1    2    0    0  0.00000000000E+00  0.00000000000E+00 -0.34105212183E+03  0.77605918967E+03  0.69710208439E+03 0.  0.
        2    1    3    3  502    0 -0.19447478237E+03  0.19283725045E+03  0.69488201943E+02  0.28255133402E+03  0.25500000920E-02 0. -1.
       -2    1    3    3    0  502  0.19447478237E+03 -0.19283725045E+03 -0.41054032377E+03  0.49350785565E+03  0.25500000920E-02 0.  1.
</event>
<event>
 5   0  0.7459843E-04  0.7000317E+03  0.7818609E-02  0.9717178E-01
       -1   -1    0    0    0  501  0.00000000000E+00  0.00000000000E+00  0.18486128349E+03  0.18486128356E+03  0.50400001928E-02 0. -1.
        1   -1    0    0  501    0  0.00000000000E+00  0.00000000000E+00 -0.66271903360E+03  0.66271903362E+03  0.50400001928E-02 0.  1.
    10030    2    1    2    0    0  0.00000000000E+00  0.00000000000E+00 -0.47785775010E+03  0.84758031718E+03  0.70003168838E+03 0.  0.
        2    1    3    3  502    0 -0.10986547921E+03  0.29764589780E+03 -0.41789255592E+03  0.52468818578E+03  0.25500000920E-02 0.  1.
       -2    1    3    3    0  502  0.10986547921E+03 -0.29764589780E+03 -0.59965194184E+02  0.32289213140E+03  0.25500000920E-02 0. -1.
</event>
<event>
 5   0  0.7574241E-04  0.6998307E+03  0.7818609E-02  0.9717522E-01
        1   -1    0    0  501    0  0.00000000000E+00  0.00000000000E+00  0.49094624234E+03  0.49094624236E+03  0.50400001928E-02 0.  1.
       -1   -1    0    0    0  501  0.00000000000E+00  0.00000000000E+00 -0.24939743913E+03  0.24939743918E+03  0.50400001928E-02 0. -1.
    10030    2    1    2    0    0  0.00000000000E+00  0.00000000000E+00  0.24154880321E+03  0.74034368154E+03  0.69983065271E+03 0.  0.
        3    1    3    3  502    0 -0.20102918435E+03  0.25172015932E+03 -0.23754224319E+02  0.32301709698E+03  0.10100000352E+00 0. -1.
       -3    1    3    3    0  502  0.20102918435E+03 -0.25172015932E+03  0.26530302753E+03  0.41732658456E+03  0.10100000352E+00 0.  1.
</event>
<event>
 5   0  0.1224048E-03  0.6994945E+03  0.7818609E-02  0.9718097E-01
        2   -1    0    0  501    0  0.00000000000E+00  0.00000000000E+00  0.22014112459E+03  0.22014112461E+03  0.25500000920E-02 0.  1.
       -2   -1    0    0    0  501  0.00000000000E+00  0.00000000000E+00 -0.55565785284E+03  0.55565785285E+03  0.25500000920E-02 0. -1.
    10030    2    1    2    0    0  0.00000000000E+00  0.00000000000E+00 -0.33551672825E+03  0.77579897745E+03  0.69949451641E+03 0.  0.
        3    1    3    3  502    0  0.71342990712E+02  0.26256113037E+03 -0.41149219583E+03  0.49330924068E+03  0.10100000352E+00 0. -1.
       -3    1    3    3    0  502 -0.71342990712E+02 -0.26256113037E+03  0.75975467587E+02  0.28248973677E+03  0.10100000352E+00 0.  1.
</event>
<event>
 5   0  0.7570633E-04  0.7004143E+03  0.7818609E-02  0.9716524E-01
       -1   -1    0    0    0  501  0.00000000000E+00  0.00000000000E+00  0.53353499676E+02  0.53353499914E+02  0.50400001928E-02 0. -1.
        1   -1    0    0  501    0  0.00000000000E+00  0.00000000000E+00 -0.22987254351E+04  0.22987254352E+04  0.50400001928E-02 0.  1.
    10030    2    1    2    0    0  0.00000000000E+00  0.00000000000E+00 -0.22453719355E+04  0.23520789351E+04  0.70041429753E+03 0.  0.
        5    1    3    3  502    0  0.16221889588E+02  0.12949612415E+03 -0.31473200244E+02  0.13433185848E+03  0.46999998093E+01 0. -1.
       -5    1    3    3    0  502 -0.16221889588E+02 -0.12949612415E+03 -0.22138987352E+04  0.22177470766E+04  0.46999998093E+01 0.  1.
</event>
<event>
 5   0  0.7459843E-04  0.7001370E+03  0.7818609E-02  0.9716998E-01
        1   -1    0    0  501    0  0.00000000000E+00  0.00000000000E+00  0.72969873495E+03  0.72969873497E+03  0.50400001928E-02 0. -1.
       -1   -1    0    0    0  501  0.00000000000E+00  0.00000000000E+00 -0.16794320136E+03  0.16794320143E+03  0.50400001928E-02 0.  1.
    10030    2    1    2    0    0  0.00000000000E+00  0.00000000000E+00  0.56175553359E+03  0.89764193640E+03  0.70013696265E+03 0.  0.
        2    1    3    3  502    0  0.14184159284E+03 -0.27925143002E+03  0.48134238764E+03  0.57427423133E+03  0.25500000920E-02 0. -1.
       -2    1    3    3    0  502 -0.14184159284E+03  0.27925143002E+03  0.80413145958E+02  0.32336770507E+03  0.25500000920E-02 0.  1.
</event>
<event>
 5   0  0.1224048E-03  0.7000274E+03  0.7818609E-02  0.9717185E-01
       -2   -1    0    0    0  501  0.00000000000E+00  0.00000000000E+00  0.21998034185E+03  0.21998034186E+03  0.25500000920E-02 0. -1.
        2   -1    0    0  501    0  0.00000000000E+00  0.00000000000E+00 -0.55691159842E+03  0.55691159843E+03  0.25500000920E-02 0.  1.
    10030    2    1    2    0    0  0.00000000000E+00  0.00000000000E+00 -0.33693125658E+03  0.77689194029E+03  0.70002743891E+03 0.  0.
        3    1    3    3  502    0  0.13538674910E+03 -0.27520016894E+03 -0.35564055540E+03  0.46962210304E+03  0.10100000352E+00 0.  1.
       -3    1    3    3    0  502 -0.13538674910E+03  0.27520016894E+03  0.18709298826E+02  0.30726983725E+03  0.10100000352E+00 0. -1.
</event>
<event>
 5   0  0.1282546E-03  0.7003571E+03  0.7818609E-02  0.9716622E-01
       -2   -1    0    0    0  501  0.00000000000E+00  0.00000000000E+00  0.29142667723E+03  0.29142667724E+03  0.25500000920E-02 0. -1.
        2   -1    0    0  501    0  0.00000000000E+00  0.00000000000E+00 -0.42077484696E+03  0.42077484697E+03  0.25500000920E-02 0.  1.
    10030    2    1    2    0    0  0.00000000000E+00  0.00000000000E+00 -0.12934816974E+03  0.71220152421E+03  0.70035709611E+03 0.  0.
        5    1    3    3  502    0 -0.21986791108E+03  0.27169651045E+03 -0.86054242960E+02  0.35998377025E+03  0.46999998093E+01 0.  1.
       -5    1    3    3    0  502  0.21986791108E+03 -0.27169651045E+03 -0.43293926778E+02  0.35221775396E+03  0.46999998093E+01 0. -1.
</event>
<event>
 5   0  0.1282546E-03  0.6975343E+03  0.7818609E-02  0.9721458E-01
        2   -1    0    0  501    0  0.00000000000E+00  0.00000000000E+00  0.57370965948E+03  0.57370965948E+03  0.25500000920E-02 0. -1.
       -2   -1    0    0    0  501  0.00000000000E+00  0.00000000000E+00 -0.21202102752E+03  0.21202102753E+03  0.25500000920E-02 0.  1.
    10030    2    1    2    0    0  0.00000000000E+00  0.00000000000E+00  0.36168863196E+03  0.78573068702E+03  0.69753426155E+03 0.  0.
        5    1    3    3  502    0  0.34023230168E+03 -0.44422461995E+02  0.25105550448E+03  0.42518505449E+03  0.46999998093E+01 0.  1.
       -5    1    3    3    0  502 -0.34023230168E+03  0.44422461995E+02  0.11063312748E+03  0.36054563252E+03  0.46999998093E+01 0. -1.
</event>
<event>
 5   0  0.1282546E-03  0.7001089E+03  0.7818609E-02  0.9717046E-01
        2   -1    0    0  501    0  0.00000000000E+00  0.00000000000E+00  0.25075190147E+03  0.25075190148E+03  0.25500000920E-02 0.  1.
       -2   -1    0    0    0  501  0.00000000000E+00  0.00000000000E+00 -0.48868269732E+03  0.48868269733E+03  0.25500000920E-02 0. -1.
    10030    2    1    2    0    0  0.00000000000E+00  0.00000000000E+00 -0.23793079585E+03  0.73943459881E+03  0.70010889318E+03 0.  0.
        5    1    3    3  502    0  0.26909924808E+03  0.28335867816E+02  0.11553949137E+03  0.29425973354E+03  0.46999998093E+01 0.  1.
       -5    1    3    3    0  502 -0.26909924808E+03 -0.28335867816E+02 -0.35347028722E+03  0.44517486527E+03  0.46999998093E+01 0. -1.
</event>
<event>
 5   0  0.1222679E-03  0.6993565E+03  0.7818609E-02  0.9718333E-01
        2   -1    0    0  501    0  0.00000000000E+00  0.00000000000E+00  0.79371634233E+03  0.79371634234E+03  0.25500000920E-02 0.  1.
       -2   -1    0    0    0  501  0.00000000000E+00  0.00000000000E+00 -0.15405362819E+03  0.15405362821E+03  0.25500000920E-02 0. -1.
    10030    2    1    2    0    0  0.00000000000E+00  0.00000000000E+00  0.63966271415E+03  0.94776997055E+03  0.69935651080E+03 0.  0.
        2    1    3    3  502    0 -0.30340224112E+03 -0.16913429611E+03  0.37430229174E+03  0.51064815249E+03  0.25500000920E-02 0.  1.
       -2    1    3    3    0  502  0.30340224112E+03  0.16913429611E+03  0.26536042240E+03  0.43712181805E+03  0.25500000920E-02 0. -1.
</event>
<event>
 5   0  0.1243087E-03  0.6999608E+03  0.7818609E-02  0.9717299E-01
       -2   -1    0    0    0  501  0.00000000000E+00  0.00000000000E+00  0.12952087478E+03  0.12952087481E+03  0.25500000920E-02 0.  1.
        2   -1    0    0  501    0  0.00000000000E+00  0.00000000000E+00 -0.94568747841E+03  0.94568747841E+03  0.25500000920E-02 0. -1.
    10030    2    1    2    0    0  0.00000000000E+00  0.00000000000E+00 -0.81616660363E+03  0.10752083532E+04  0.69996076887E+03 0.  0.
        4    1    3    3  502    0 -0.30289680556E+03  0.13438402619E+03 -0.58105036253E+03  0.66889960234E+03  0.12699999809E+01 0. -1.
       -4    1    3    3    0  502  0.30289680556E+03 -0.13438402619E+03 -0.23511624110E+03  0.40630875088E+03  0.12699999809E+01 0.  1.
</event>
<event>
 5   0  0.1224048E-03  0.6995853E+03  0.7818609E-02  0.9717942E-01
       -2   -1    0    0    0  501  0.00000000000E+00  0.00000000000E+00  0.83253231401E+02  0.83253231440E+02  0.25500000920E-02 0.  1.
        2   -1    0    0  501    0  0.00000000000E+00  0.00000000000E+00 -0.14696713391E+04  0.14696713391E+04  0.25500000920E-02 0. -1.
    10030    2    1    2    0    0  0.00000000000E+00  0.00000000000E+00 -0.13864181077E+04  0.15529245705E+04  0.69958527174E+03 0.  0.
        3    1    3    3  502    0  0.76422456764E+02  0.79937536660E+02 -0.14298428357E+04  0.14341132963E+04  0.10100000352E+00 0. -1.
       -3    1    3    3    0  502 -0.76422456764E+02 -0.79937536660E+02  0.43424728048E+02  0.11881127418E+03  0.10100000352E+00 0.  1.
</event>
<event>
 5   0  0.1282546E-03  0.7028186E+03  0.7818609E-02  0.9712424E-01
        2   -1    0    0  501    0  0.00000000000E+00  0.00000000000E+00  0.23420489455E+03  0.23420489457E+03  0.25500000920E-02 0.  1.
       -2   -1    0    0    0  501  0.00000000000E+00  0.00000000000E+00 -0.52726700341E+03  0.52726700342E+03  0.25500000920E-02 0. -1.
    10030    2    1    2    0    0  0.00000000000E+00  0.00000000000E+00 -0.29306210886E+03  0.76147189799E+03  0.70281864785E+03 0.  0.
        5    1    3    3  502    0 -0.10880439466E+03 -0.27391910713E+03  0.60735623668E+02  0.30096674157E+03  0.46999998093E+01 0.  1.
       -5    1    3    3    0  502  0.10880439466E+03  0.27391910713E+03 -0.35379773253E+03  0.46050515642E+03  0.46999998093E+01 0. -1.
</event>
<event>
 5   0  0.1265562E-03  0.6997869E+03  0.7818609E-02  0.9717597E-01
       -2   -1    0    0    0  501  0.00000000000E+00  0.00000000000E+00  0.64208197834E+02  0.64208197885E+02  0.25500000920E-02 0. -1.
        2   -1    0    0  501    0  0.00000000000E+00  0.00000000000E+00 -0.19066945842E+04  0.19066945842E+04  0.25500000920E-02 0.  1.
    10030    2    1    2    0    0  0.00000000000E+00  0.00000000000E+00 -0.18424863864E+04  0.19709027821E+04  0.69978689077E+03 0.  0.
        1    1    3    3  502    0  0.91453171657E+02 -0.21776322658E+03 -0.19418380885E+03  0.30576438168E+03  0.50400001928E-02 0. -1.
       -1    1    3    3    0  502 -0.91453171657E+02  0.21776322658E+03 -0.16483025775E+04  0.16651384004E+04  0.50400001928E-02 0.  1.
</event>
<event>
 5   0  0.7570633E-04  0.6999348E+03  0.7818609E-02  0.9717344E-01
       -1   -1    0    0    0  501  0.00000000000E+00  0.00000000000E+00  0.48561779458E+03  0.48561779460E+03  0.50400001928E-02 0.  1.
        1   -1    0    0  501    0  0.00000000000E+00  0.00000000000E+00 -0.25220901849E+03  0.25220901854E+03  0.50400001928E-02 0. -1.
    10030    2    1    2    0    0  0.00000000000E+00  0.00000000000E+00  0.23340877609E+03  0.73782681314E+03  0.69993481799E+03 0.  0.
        5    1    3    3  502    0 -0.83637426049E+02  0.19387049461E+03 -0.17746222693E+03  0.27585488884E+03  0.46999998093E+01 0. -1.
       -5    1    3    3    0  502  0.83637426049E+02 -0.19387049461E+03  0.41087100302E+03  0.46197192429E+03  0.46999998093E+01 0.  1.
</event>
<event>
 5   0  0.1265562E-03  0.7001076E+03  0.7818609E-02  0.9717048E-01
        2   -1    0    0  501    0  0.00000000000E+00  0.00000000000E+00  0.75816701709E+03  0.75816701709E+03  0.25500000920E-02 0. -1.
       -2   -1    0    0    0  501  0.00000000000E+00  0.00000000000E+00 -0.16162355974E+03  0.16162355976E+03  0.25500000920E-02 0.  1.
    10030    2    1    2    0    0  0.00000000000E+00  0.00000000000E+00  0.59654345735E+03  0.91979057685E+03  0.70010756942E+03 0.  0.
        1    1    3    3  502    0  0.34953394352E+03 -0.19067136017E+02  0.29872458985E+03  0.46018899808E+03  0.50400001928E-02 0. -1.
       -1    1    3    3    0  502 -0.34953394352E+03  0.19067136017E+02  0.29781886750E+03  0.45960157877E+03  0.50400001928E-02 0.  1.
</event>
<event>
 5   0  0.7459843E-04  0.7002606E+03  0.7818609E-02  0.9716787E-01
        1   -1    0    0  501    0  0.00000000000E+00  0.00000000000E+00  0.12645319409E+04  0.12645319409E+04  0.50400001928E-02 0. -1.
       -1   -1    0    0    0  501  0.00000000000E+00  0.00000000000E+00 -0.96945936683E+02  0.96945936814E+02  0.50400001928E-02 0.  1.
    10030    2    1    2    0    0  0.00000000000E+00  0.00000000000E+00  0.11675860042E+04  0.13614778777E+04  0.70026061882E+03 0.  0.
        2    1    3    3  502    0 -0.16643223546E+03  0.72783025266E+02  0.11657498395E+04  0.11798176749E+04  0.25500000920E-02 0. -1.
       -2    1    3    3    0  502  0.16643223546E+03 -0.72783025266E+02  0.18361646962E+01  0.18166020278E+03  0.25500000920E-02 0.  1.
</event>
<event>
 5   0  0.1224048E-03  0.7003177E+03  0.7818609E-02  0.9716689E-01
       -2   -1    0    0    0  501  0.00000000000E+00  0.00000000000E+00  0.54221886348E+03  0.54221886349E+03  0.25500000920E-02 0. -1.
        2   -1    0    0  501    0  0.00000000000E+00  0.00000000000E+00 -0.22612864147E+03  0.22612864148E+03  0.25500000920E-02 0.  1.
    10030    2    1    2    0    0  0.00000000000E+00  0.00000000000E+00  0.31609022201E+03  0.76834750497E+03  0.70031768502E+03 0.  0.
        3    1    3    3  502    0 -0.18207944847E+03 -0.75165354361E+02  0.47566412465E+03  0.51483893183E+03  0.10100000352E+00 0. -1.
       -3    1    3    3    0  502  0.18207944847E+03  0.75165354361E+02 -0.15957390264E+03  0.25350857314E+03  0.10100000352E+00 0.  1.
</event>
<event>
 5   0  0.7572415E-04  0.6999805E+03  0.7818609E-02  0.9717266E-01
       -1   -1    0    0    0  501  0.00000000000E+00  0.00000000000E+00  0.89814936412E+03  0.89814936414E+03  0.50400001928E-02 0. -1.
        1   -1    0    0  501    0  0.00000000000E+00  0.00000000000E+00 -0.13638396133E+03  0.13638396142E+03  0.50400001928E-02 0.  1.
    10030    2    1    2    0    0  0.00000000000E+00  0.00000000000E+00  0.76176540279E+03  0.10345333256E+04  0.69998048030E+03 0.  0.
        4    1    3    3  502    0  0.47633335941E+01 -0.27497131483E+03  0.70081496505E+03  0.75284469943E+03  0.12699999809E+01 0. -1.
       -4    1    3    3    0  502 -0.47633335941E+01  0.27497131483E+03  0.60950437740E+02  0.28168862612E+03  0.12699999809E+01 0.  1.
</event>
<event>
 5   0  0.7013526E-04  0.7002598E+03  0.7818609E-02  0.9716788E-01
        1   -1    0    0  501    0  0.00000000000E+00  0.00000000000E+00  0.67656103868E+03  0.67656103870E+03  0.50400001928E-02 0. -1.
       -1   -1    0    0    0  501  0.00000000000E+00  0.00000000000E+00 -0.18119717651E+03  0.18119717658E+03  0.50400001928E-02 0.  1.
    10030    2    1    2    0    0  0.00000000000E+00  0.00000000000E+00  0.49536386217E+03  0.85775821528E+03  0.70025980888E+03 0.  0.
        1    1    3    3  502    0  0.32539755742E+03  0.12894175620E+03  0.25873355578E+03  0.43526153032E+03  0.50400001928E-02 0.  1.
       -1    1    3    3    0  502 -0.32539755742E+03 -0.12894175620E+03  0.23663030639E+03  0.42249668496E+03  0.50400001928E-02 0. -1.
</event>
<event>
 5   0  0.7570633E-04  0.7000448E+03  0.7818609E-02  0.9717156E-01
        1   -1    0    0  501    0  0.00000000000E+00  0.00000000000E+00  0.89975219659E+03  0.89975219660E+03  0.50400001928E-02 0.  1.
       -1   -1    0    0    0  501  0.00000000000E+00  0.00000000000E+00 -0.13616603562E+03  0.13616603571E+03  0.50400001928E-02 0. -1.
    10030    2    1    2    0    0  0.00000000000E+00  0.00000000000E+00  0.76358616097E+03  0.10359182323E+04  0.70004482628E+03 0.  0.
        5    1    3    3  502    0  0.31228838437E+03  0.48083273373E+02  0.15904897014E+03  0.35377210332E+03  0.46999998093E+01 0. -1.
       -5    1    3    3    0  502 -0.31228838437E+03 -0.48083273373E+02  0.60453719083E+03  0.68214612899E+03  0.46999998093E+01 0.  1.
</event>
<event>
 5   0  0.1243087E-03  0.7001010E+03  0.7818609E-02  0.9717059E-01
       -2   -1    0    0    0  501  0.00000000000E+00  0.00000000000E+00  0.31564339779E+03  0.31564339781E+03  0.25500000920E-02 0. -1.
        2   -1    0    0  501    0  0.00000000000E+00  0.00000000000E+00 -0.38820821961E+03  0.38820821962E+03  0.25500000920E-02 0.  1.
    10030    2    1    2    0    0  0.00000000000E+00  0.00000000000E+00 -0.72564821813E+02  0.70385161742E+03  0.70010102555E+03 0.  0.
        4    1    3    3  502    0 -0.18821201223E+02 -0.27486672948E+03  0.18080909156E+03  0.32954437802E+03  0.12699999809E+01 0. -1.
       -4    1    3    3    0  502  0.18821201223E+02  0.27486672948E+03 -0.25337391337E+03  0.37430723940E+03  0.12699999809E+01 0.  1.
</event>
<event>
 5   0  0.7459843E-04  0.7001832E+03  0.7818609E-02  0.9716919E-01
       -1   -1    0    0    0  501  0.00000000000E+00  0.00000000000E+00  0.69285339853E+02  0.69285340036E+02  0.50400001928E-02 0.  1.
        1   -1    0    0  501    0  0.00000000000E+00  0.00000000000E+00 -0.17689761565E+04  0.17689761565E+04  0.50400001928E-02 0. -1.
    10030    2    1    2    0    0  0.00000000000E+00  0.00000000000E+00 -0.16996908166E+04  0.18382614965E+04  0.70018315995E+03 0.  0.
        2    1    3    3  502    0  0.33095994505E+03 -0.10101332369E+03 -0.98941053393E+03  0.10481752628E+04  0.25500000920E-02 0. -1.
       -2    1    3    3    0  502 -0.33095994505E+03  0.10101332369E+03 -0.71028028270E+03  0.79008623377E+03  0.25500000920E-02 0.  1.
</event>
<event>
 5   0  0.1222679E-03  0.7000436E+03  0.7818609E-02  0.9717158E-01
        2   -1    0    0  501    0  0.00000000000E+00  0.00000000000E+00  0.51942965559E+03  0.51942965560E+03  0.25500000920E-02 0.  1.
       -2   -1    0    0    0  501  0.00000000000E+00  0.00000000000E+00 -0.23586493865E+03  0.23586493867E+03  0.25500000920E-02 0. -1.
    10030    2    1    2    0    0  0.00000000000E+00  0.00000000000E+00  0.28356471694E+03  0.75529459427E+03  0.70004355253E+03 0.  0.
        2    1    3    3  502    0 -0.27603475796E+03  0.17293941870E+03  0.28000279234E+03  0.42954021217E+03  0.25500000920E-02 0.  1.
       -2    1    3    3    0  502  0.27603475796E+03 -0.17293941870E+03  0.35619245973E+01  0.32575438210E+03  0.25500000920E-02 0. -1.
</event>
<event>
 5   0  0.4936000E-04  0.7003937E+03  0.7818609E-02  0.9716559E-01
       -3   -1    0    0    0  501  0.00000000000E+00  0.00000000000E+00  0.11049367507E+04  0.11049367553E+04  0.10100000352E+00 0.  1.
        3   -1    0    0  501    0  0.00000000000E+00  0.00000000000E+00 -0.11099077998E+03  0.11099082593E+03  0.10100000352E+00 0. -1.
    10030    2    1    2    0    0  0.00000000000E+00  0.00000000000E+00  0.99394597072E+03  0.12159275813E+04  0.70039366797E+03 0.  0.
        3    1    3    3  502    0  0.32813801811E+03 -0.27552450759E+02  0.70387875520E+03  0.77709652470E+03  0.10100000352E+00 0.  1.
       -3    1    3    3    0  502 -0.32813801811E+03  0.27552450759E+02  0.29006721552E+03  0.43883105655E+03  0.10100000352E+00 0. -1.
</event>
<event>
 5   0  0.1265562E-03  0.6996692E+03  0.7818609E-02  0.9717798E-01
       -2   -1    0    0    0  501  0.00000000000E+00  0.00000000000E+00  0.25036753872E+03  0.25036753873E+03  0.25500000920E-02 0. -1.
        2   -1    0    0  501    0  0.00000000000E+00  0.00000000000E+00 -0.48881831543E+03  0.48881831543E+03  0.25500000920E-02 0.  1.
    10030    2    1    2    0    0  0.00000000000E+00  0.00000000000E+00 -0.23845077671E+03  0.73918585416E+03  0.69966917474E+03 0.  0.
        1    1    3    3  502    0  0.15220756949E+03 -0.78208791511E+02 -0.44158220973E+03  0.47358062382E+03  0.50400001928E-02 0.  1.
       -1    1    3    3    0  502 -0.15220756949E+03  0.78208791511E+02  0.20313143302E+03  0.26560523034E+03  0.50400001928E-02 0. -1.
</event>
<event>
 5   0  0.1282546E-03  0.7031406E+03  0.7818609E-02  0.9711876E-01
       -2   -1    0    0    0  501  0.00000000000E+00  0.00000000000E+00  0.44504243614E+03  0.44504243615E+03  0.25500000920E-02 0. -1.
        2   -1    0    0  501    0  0.00000000000E+00  0.00000000000E+00 -0.27773010858E+03  0.27773010859E+03  0.25500000920E-02 0.  1.
    10030    2    1    2    0    0  0.00000000000E+00  0.00000000000E+00  0.16731232757E+03  0.72277254474E+03  0.70314062354E+03 0.  0.
        5    1    3    3  502    0  0.99313441856E+02 -0.11914858107E+03  0.40793212110E+03  0.43645188684E+03  0.46999998093E+01 0. -1.
       -5    1    3    3    0  502 -0.99313441856E+02  0.11914858107E+03 -0.24061979353E+03  0.28632065790E+03  0.46999998093E+01 0.  1.
</event>
<event>
 5   0  0.7459843E-04  0.6996605E+03  0.7818609E-02  0.9717813E-01
        1   -1    0    0  501    0  0.00000000000E+00  0.00000000000E+00  0.47811278053E+03  0.47811278056E+03  0.50400001928E-02 0. -1.
       -1   -1    0    0    0  501  0.00000000000E+00  0.00000000000E+00 -0.25596723172E+03  0.25596723176E+03  0.50400001928E-02 0.  1.
    10030    2    1    2    0    0  0.00000000000E+00  0.00000000000E+00  0.22214554882E+03  0.73408001232E+03  0.69966050313E+03 0.  0.
        2    1    3    3  502    0 -0.16080220337E+03 -0.25092761834E+03  0.30327647913E+03  0.42520423452E+03  0.25500000920E-02 0. -1.
       -2    1    3    3    0  502  0.16080220337E+03  0.25092761834E+03 -0.81130930316E+02  0.30887577780E+03  0.25500000920E-02 0.  1.
</event>
<event>
 5   0  0.7572415E-04  0.7004823E+03  0.7818609E-02  0.9716408E-01
       -1   -1    0    0    0  501  0.00000000000E+00  0.00000000000E+00  0.67078789836E+03  0.67078789838E+03  0.50400001928E-02 0. -1.
        1   -1    0    0  501    0  0.00000000000E+00  0.00000000000E+00 -0.18287281491E+03  0.18287281498E+03  0.50400001928E-02 0.  1.
    10030    2    1    2    0    0  0.00000000000E+00  0.00000000000E+00  0.48791508345E+03  0.85366071336E+03  0.70048232303E+03 0.  0.
        4    1    3    3  502    0  0.31350621864E+03  0.23962429303E+01  0.43422464156E+03  0.53557869948E+03  0.12699999809E+01 0. -1.
       -4    1    3    3    0  502 -0.31350621864E+03 -0.23962429303E+01  0.53690441899E+02  0.31808201388E+03  0.12699999809E+01 0.  1.
</event>
<event>
 5   0  0.1243087E-03  0.6999446E+03  0.7818609E-02  0.9717327E-01
        2   -1    0    0  501    0  0.00000000000E+00  0.00000000000E+00  0.17342236709E+04  0.17342236709E+04  0.25500000920E-02 0. -1.
       -2   -1    0    0    0  501  0.00000000000E+00  0.00000000000E+00 -0.70625623178E+02  0.70625623224E+02  0.25500000920E-02 0.  1.
    10030    2    1    2    0    0  0.00000000000E+00  0.00000000000E+00  0.16635980477E+04  0.18048492941E+04  0.69994464789E+03 0.  0.
        4    1    3    3  502    0  0.17582350362E+03  0.18171970749E+02  0.52942032807E+02  0.18452261835E+03  0.12699999809E+01 0.  1.
       -4    1    3    3    0  502 -0.17582350362E+03 -0.18171970749E+02  0.16106560149E+04  0.16203266757E+04  0.12699999809E+01 0. -1.
</event>
<event>
 5   0  0.1224048E-03  0.6999643E+03  0.7818609E-02  0.9717293E-01
       -2   -1    0    0    0  501  0.00000000000E+00  0.00000000000E+00  0.16456929995E+03  0.16456929997E+03  0.25500000920E-02 0. -1.
        2   -1    0    0  501    0  0.00000000000E+00  0.00000000000E+00 -0.74429124361E+03  0.74429124361E+03  0.25500000920E-02 0.  1.
    10030    2    1    2    0    0  0.00000000000E+00  0.00000000000E+00 -0.57972194366E+03  0.90886054358E+03  0.69996425318E+03 0.  0.
        3    1    3    3  502    0 -0.13952789495E+03 -0.20489969311E+03  0.30923146604E+02  0.24981627029E+03  0.10100000352E+00 0. -1.
       -3    1    3    3    0  502  0.13952789495E+03  0.20489969311E+03 -0.61064509026E+03  0.65904427329E+03  0.10100000352E+00 0.  1.
</event>
<event>
 5   0  0.7013526E-04  0.6999607E+03  0.7818609E-02  0.9717299E-01
       -1   -1    0    0    0  501  0.00000000000E+00  0.00000000000E+00  0.34228884502E+03  0.34228884506E+03  0.50400001928E-02 0.  1.
        1   -1    0    0  501    0  0.00000000000E+00  0.00000000000E+00 -0.35784470658E+03  0.35784470662E+03  0.50400001928E-02 0. -1.
    10030    2    1    2    0    0  0.00000000000E+00  0.00000000000E+00 -0.15555861561E+02  0.70013355168E+03  0.69996071701E+03 0.  0.
        1    1    3    3  502    0 -0.84828925155E+02 -0.38187198657E+01  0.33182869027E+03  0.34252125317E+03  0.50400001928E-02 0.  1.
       -1    1    3    3    0  502  0.84828925155E+02  0.38187198657E+01 -0.34738455183E+03  0.35761229850E+03  0.50400001928E-02 0. -1.
</event>
<event>
 5   0  0.7013526E-04  0.6996204E+03  0.7818609E-02  0.9717882E-01
        1   -1    0    0  501    0  0.00000000000E+00  0.00000000000E+00  0.58881863979E+03  0.58881863981E+03  0.50400001928E-02 0. -1.
       -1   -1    0    0    0  501  0.00000000000E+00  0.00000000000E+00 -0.20781812023E+03  0.20781812029E+03  0.50400001928E-02 0.  1.
    10030    2    1    2    0    0  0.00000000000E+00  0.00000000000E+00  0.38100051956E+03  0.79663676009E+03  0.69962041968E+03 0.  0.
        1    1    3    3  502    0 -0.23510517434E+03 -0.23411082165E+03  0.64293381089E+02  0.33795851623E+03  0.50400001928E-02 0. -1.
       -1    1    3    3    0  502  0.23510517434E+03  0.23411082165E+03  0.31670713847E+03  0.45867824387E+03  0.50400001928E-02 0.  1.
</event>
<event>
 5   0  0.7459843E-04  0.7000856E+03  0.7818609E-02  0.9717086E-01
        1   -1    0    0  501    0  0.00000000000E+00  0.00000000000E+00  0.71153586013E+03  0.71153586015E+03  0.50400001928E-02 0. -1.
       -1   -1    0    0    0  501  0.00000000000E+00  0.00000000000E+00 -0.17220489332E+03  0.17220489339E+03  0.50400001928E-02 0.  1.
    10030    2    1    2    0    0  0.00000000000E+00  0.00000000000E+00  0.53933096682E+03  0.88374075355E+03  0.70008558599E+03 0.  0.
        2    1    3    3  502    0  0.43767954120E+00  0.30814156840E+03  0.60032615480E+02  0.31393523643E+03  0.25500000920E-02 0.  1.
       -2    1    3    3    0  502 -0.43767954120E+00 -0.30814156840E+03  0.47929835134E+03  0.56980551712E+03  0.25500000920E-02 0. -1.
</event>
<event>
 5   0  0.7459843E-04  0.7002560E+03  0.7818609E-02  0.9716795E-01
        1   -1    0    0  501    0  0.00000000000E+00  0.00000000000E+00  0.10540621690E+04  0.10540621690E+04  0.50400001928E-02 0.  1.
       -1   -1    0    0    0  501  0.00000000000E+00  0.00000000000E+00 -0.11630206997E+03  0.11630207008E+03  0.50400001928E-02 0. -1.
    10030    2    1    2    0    0  0.00000000000E+00  0.00000000000E+00  0.93776009906E+03  0.11703642391E+04  0.70025598806E+03 0.  0.
        2    1    3    3  502    0  0.21548724810E+03 -0.21364943559E+03  0.17695147297E+03  0.35127291273E+03  0.25500000920E-02 0. -1.
       -2    1    3    3    0  502 -0.21548724810E+03  0.21364943559E+03  0.76080862610E+03  0.81909132639E+03  0.25500000920E-02 0.  1.
</event>
<event>
 5   0  0.1282546E-03  0.6999228E+03  0.7818609E-02  0.9717364E-01
       -2   -1    0    0    0  501  0.00000000000E+00  0.00000000000E+00  0.14446674681E+03  0.14446674683E+03  0.25500000920E-02 0. -1.
        2   -1    0    0  501    0  0.00000000000E+00  0.00000000000E+00 -0.84775905504E+03  0.84775905504E+03  0.25500000920E-02 0.  1.
    10030    2    1    2    0    0  0.00000000000E+00  0.00000000000E+00 -0.70329230823E+03  0.99222580187E+03  0.69992283223E+03 0.  0.
        5    1    3    3  502    0  0.12047024795E+03  0.22907460517E+03 -0.68550328232E+03  0.73275172838E+03  0.46999998093E+01 0.  1.
       -5    1    3    3    0  502 -0.12047024795E+03 -0.22907460517E+03 -0.17789025910E+02  0.25947407349E+03  0.46999998093E+01 0. -1.
</event>
<event>
 5   0  0.7570633E-04  0.6995953E+03  0.7818609E-02  0.9717925E-01
       -1   -1    0    0    0  501  0.00000000000E+00  0.00000000000E+00  0.93761249157E+02  0.93761249292E+02  0.50400001928E-02 0. -1.
        1   -1    0    0  501    0  0.00000000000E+00  0.00000000000E+00 -0.13049995719E+04  0.13049995719E+04  0.50400001928E-02 0.  1.
    10030    2    1    2    0    0  0.00000000000E+00  0.00000000000E+00 -0.12112383228E+04  0.13987608212E+04  0.69959528333E+03 0.  0.
        5    1    3    3  502    0 -0.13363993846E+03 -0.64070700997E+02  0.27815809911E+02  0.15086582501E+03  0.46999998093E+01 0. -1.
       -5    1    3    3    0  502  0.13363993846E+03  0.64070700997E+02 -0.12390541327E+04  0.12478949962E+04  0.46999998093E+01 0.  1.
</event>
<event>
 5   0  0.7574241E-04  0.6998872E+03  0.7818609E-02  0.9717425E-01
       -1   -1    0    0    0  501  0.00000000000E+00  0.00000000000E+00  0.90407326207E+02  0.90407326348E+02  0.50400001928E-02 0. -1.
        1   -1    0    0  501    0  0.00000000000E+00  0.00000000000E+00 -0.13545421196E+04  0.13545421196E+04  0.50400001928E-02 0.  1.
    10030    2    1    2    0    0  0.00000000000E+00  0.00000000000E+00 -0.12641347934E+04  0.14449494459E+04  0.69988722342E+03 0.  0.
        3    1    3    3  502    0  0.29333511483E+03  0.13687779859E+03 -0.35755650876E+03  0.48231492668E+03  0.10100000352E+00 0. -1.
       -3    1    3    3    0  502 -0.29333511483E+03 -0.13687779859E+03 -0.90657828462E+03  0.96263451926E+03  0.10100000352E+00 0.  1.
</event>
<event>
 5   0  0.7574241E-04  0.7000822E+03  0.7818609E-02  0.9717092E-01
       -1   -1    0    0    0  501  0.00000000000E+00  0.00000000000E+00  0.12777078943E+03  0.12777078953E+03  0.50400001928E-02 0. -1.
        1   -1    0    0  501    0  0.00000000000E+00  0.00000000000E+00 -0.95897336077E+03  0.95897336078E+03  0.50400001928E-02 0.  1.
    10030    2    1    2    0    0  0.00000000000E+00  0.00000000000E+00 -0.83120257134E+03  0.10867441503E+04  0.70008223349E+03 0.  0.
        3    1    3    3  502    0  0.81069753006E+02 -0.33504467211E+03 -0.32115840043E+03  0.47113688619E+03  0.10100000352E+00 0. -1.
       -3    1    3    3    0  502 -0.81069753006E+02  0.33504467211E+03 -0.51004417090E+03  0.61560726412E+03  0.10100000352E+00 0.  1.
</event>
<event>
 5   0  0.7572415E-04  0.7001035E+03  0.7818609E-02  0.9717055E-01
        1   -1    0    0  501    0  0.00000000000E+00  0.00000000000E+00  0.21062595916E+03  0.21062595922E+03  0.50400001928E-02 0.  1.
       -1   -1    0    0    0  501  0.00000000000E+00  0.00000000000E+00 -0.58177177294E+03  0.58177177296E+03  0.50400001928E-02 0. -1.
    10030    2    1    2    0    0  0.00000000000E+00  0.00000000000E+00 -0.37114581378E+03  0.79239773218E+03  0.70010352869E+03 0.  0.
        4    1    3    3  502    0  0.18526391170E+03 -0.16300059270E+03 -0.46658294593E+03  0.52781925745E+03  0.12699999809E+01 0. -1.
       -4    1    3    3    0  502 -0.18526391170E+03  0.16300059270E+03  0.95437132151E+02  0.26457847474E+03  0.12699999809E+01 0.  1.
</event>
<event>
 5   0  0.1222679E-03  0.6999317E+03  0.7818609E-02  0.9717349E-01
        2   -1    0    0  501    0  0.00000000000E+00  0.00000000000E+00  0.14325010182E+04  0.14325010182E+04  0.25500000920E-02 0.  1.
       -2   -1    0    0    0  501  0.00000000000E+00  0.00000000000E+00 -0.85498088377E+02  0.85498088415E+02  0.25500000920E-02 0. -1.
    10030    2    1    2    0    0  0.00000000000E+00  0.00000000000E+00  0.13470029299E+04  0.15179991067E+04  0.69993170721E+03 0.  0.
        2    1    3    3  502    0 -0.93981171179E+02  0.39719824959E+02  0.13995283994E+04  0.14032426254E+04  0.25500000920E-02 0.  1.
       -2    1    3    3    0  502  0.93981171179E+02 -0.39719824959E+02 -0.52525469541E+02  0.11475648125E+03  0.25500000920E-02 0. -1.
</event>
<event>
 5   0  0.1265562E-03  0.7001682E+03  0.7818609E-02  0.9716945E-01
        2   -1    0    0  501    0  0.00000000000E+00  0.00000000000E+00  0.95426641322E+03  0.95426641322E+03  0.25500000920E-02 0. -1.
       -2   -1    0    0    0  501  0.00000000000E+00  0.00000000000E+00 -0.12843257475E+03  0.12843257478E+03  0.25500000920E-02 0.  1.
    10030    2    1    2    0    0  0.00000000000E+00  0.00000000000E+00  0.82583383846E+03  0.10826989880E+04  0.70016824397E+03 0.  0.
        1    1    3    3  502    0  0.20989400972E+02  0.24433723002E+03  0.79924746474E+03  0.83602496784E+03  0.50400001928E-02 0. -1.
       -1    1    3    3    0  502 -0.20989400972E+02 -0.24433723002E+03  0.26586373720E+02  0.24667402016E+03  0.50400001928E-02 0.  1.
</event>
<event>
 5   0  0.7570633E-04  0.6999607E+03  0.7818609E-02  0.9717299E-01
        1   -1    0    0  501    0  0.00000000000E+00  0.00000000000E+00  0.10403384655E+03  0.10403384667E+03  0.50400001928E-02 0.  1.
       -1   -1    0    0    0  501  0.00000000000E+00  0.00000000000E+00 -0.11773690973E+04  0.11773690973E+04  0.50400001928E-02 0. -1.
    10030    2    1    2    0    0  0.00000000000E+00  0.00000000000E+00 -0.10733352507E+04  0.12814029439E+04  0.69996067341E+03 0.  0.
        5    1    3    3  502    0 -0.15538702987E+03 -0.26262911077E+03 -0.85026967421E+03  0.90338241501E+03  0.46999998093E+01 0. -1.
       -5    1    3    3    0  502  0.15538702987E+03  0.26262911077E+03 -0.22306557651E+03  0.37802052894E+03  0.46999998093E+01 0.  1.
</event>
<event>
 5   0  0.7459843E-04  0.6999613E+03  0.7818609E-02  0.9717298E-01
       -1   -1    0    0    0  501  0.00000000000E+00  0.00000000000E+00  0.10861789944E+03  0.10861789956E+03  0.50400001928E-02 0. -1.
        1   -1    0    0  501    0  0.00000000000E+00  0.00000000000E+00 -0.11276820485E+04  0.11276820485E+04  0.50400001928E-02 0.  1.
    10030    2    1    2    0    0  0.00000000000E+00  0.00000000000E+00 -0.10190641490E+04  0.12362999480E+04  0.69996130013E+03 0.  0.
        2    1    3    3  502    0  0.10067936778E+03  0.72324401825E+02 -0.10876064083E+04  0.10946482784E+04  0.25500000920E-02 0.  1.
       -2    1    3    3    0  502 -0.10067936778E+03 -0.72324401825E+02  0.68542259225E+02  0.14165166960E+03  0.25500000920E-02 0. -1.
</event>
<event>
 5   0  0.7574241E-04  0.6999247E+03  0.7818609E-02  0.9717361E-01
       -1   -1    0    0    0  501  0.00000000000E+00  0.00000000000E+00  0.22030272592E+03  0.22030272597E+03  0.50400001928E-02 0.  1.
        1   -1    0    0  501    0  0.00000000000E+00  0.00000000000E+00 -0.55593341676E+03  0.55593341678E+03  0.50400001928E-02 0. -1.
    10030    2    1    2    0    0  0.00000000000E+00  0.00000000000E+00 -0.33563069084E+03  0.77623614275E+03  0.69992470215E+03 0.  0.
        3    1    3    3  502    0  0.18148041641E+03  0.74431669166E+02 -0.48923919857E+03  0.52709602402E+03  0.10100000352E+00 0. -1.
       -3    1    3    3    0  502 -0.18148041641E+03 -0.74431669166E+02  0.15360850773E+03  0.24914011874E+03  0.10100000352E+00 0.  1.
</event>
<event>
 5   0  0.1222679E-03  0.7000507E+03  0.7818609E-02  0.9717145E-01
       -2   -1    0    0    0  501  0.00000000000E+00  0.00000000000E+00  0.92214835851E+02  0.92214835886E+02  0.25500000920E-02 0. -1.
        2   -1    0    0  501    0  0.00000000000E+00  0.00000000000E+00 -0.13286121712E+04  0.13286121712E+04  0.25500000920E-02 0.  1.
    10030    2    1    2    0    0  0.00000000000E+00  0.00000000000E+00 -0.12363973353E+04  0.14208270071E+04  0.70005072189E+03 0.  0.
        2    1    3    3  502    0  0.27911898171E+03  0.16422171986E+03 -0.88777413209E+03  0.94499687240E+03  0.25500000920E-02 0.  1.
       -2    1    3    3    0  502 -0.27911898171E+03 -0.16422171986E+03 -0.34862320326E+03  0.47583013469E+03  0.25500000920E-02 0. -1.
</event>
<event>
 5   0  0.1265562E-03  0.7002057E+03  0.7818609E-02  0.9716881E-01
       -2   -1    0    0    0  501  0.00000000000E+00  0.00000000000E+00  0.25706577262E+03  0.25706577263E+03  0.25500000920E-02 0.  1.
        2   -1    0    0  501    0  0.00000000000E+00  0.00000000000E+00 -0.47681181917E+03  0.47681181918E+03  0.25500000920E-02 0. -1.
    10030    2    1    2    0    0  0.00000000000E+00  0.00000000000E+00 -0.21974604656E+03  0.73387759181E+03  0.70020568034E+03 0.  0.
        1    1    3    3  502    0  0.18397111563E+03  0.29352929756E+03 -0.56769167814E+02  0.35103783037E+03  0.50400001928E-02 0.  1.
       -1    1    3    3    0  502 -0.18397111563E+03 -0.29352929756E+03 -0.16297687874E+03  0.38283976144E+03  0.50400001928E-02 0. -1.
</event>
<event>
 5   0  0.7013526E-04  0.7000186E+03  0.7818609E-02  0.9717200E-01
        1   -1    0    0  501    0  0.00000000000E+00  0.00000000000E+00  0.84303279728E+03  0.84303279729E+03  0.50400001928E-02 0.  1.
       -1   -1    0    0    0  501  0.00000000000E+00  0.00000000000E+00 -0.14531641918E+03  0.14531641927E+03  0.50400001928E-02 0. -1.
    10030    2    1    2    0    0  0.00000000000E+00  0.00000000000E+00  0.69771637810E+03  0.98834921657E+03  0.70001859234E+03 0.  0.
        1    1    3    3  502    0 -0.30903141266E+02 -0.16086411665E+03  0.78557343754E+03  0.80246987106E+03  0.50400001928E-02 0.  1.
       -1    1    3    3    0  502  0.30903141266E+02  0.16086411665E+03 -0.87857059446E+02  0.18587934550E+03  0.50400001928E-02 0. -1.
</event>
<event>
 5   0  0.1222679E-03  0.6998694E+03  0.7818609E-02  0.9717456E-01
        2   -1    0    0  501    0  0.00000000000E+00  0.00000000000E+00  0.17721783766E+04  0.17721783766E+04  0.25500000920E-02 0. -1.
       -2   -1    0    0    0  501  0.00000000000E+00  0.00000000000E+00 -0.69098170882E+02  0.69098170929E+02  0.25500000920E-02 0.  1.
    10030    2    1    2    0    0  0.00000000000E+00  0.00000000000E+00  0.17030802057E+04  0.18412765475E+04  0.69986937165E+03 0.  0.
        2    1    3    3  502    0 -0.22018061580E+03  0.24149932523E+03  0.52238632959E+03  0.61618901728E+03  0.25500000920E-02 0.  1.
       -2    1    3    3    0  502  0.22018061580E+03 -0.24149932523E+03  0.11806938761E+04  0.12250875303E+04  0.25500000920E-02 0. -1.
</event>
<event>
 5   0  0.7459843E-04  0.7001784E+03  0.7818609E-02  0.9716927E-01
       -1   -1    0    0    0  501  0.00000000000E+00  0.00000000000E+00  0.37307027900E+03  0.37307027903E+03  0.50400001928E-02 0.  1.
        1   -1    0    0  501    0  0.00000000000E+00  0.00000000000E+00 -0.32852379544E+03  0.32852379548E+03  0.50400001928E-02 0. -1.
    10030    2    1    2    0    0  0.00000000000E+00  0.00000000000E+00  0.44546483559E+02  0.70159407452E+03  0.70017844597E+03 0.  0.
        2    1    3    3  502    0 -0.79740771429E+02 -0.61750785208E+02  0.35819829138E+03  0.37212600830E+03  0.25500000920E-02 0.  1.
       -2    1    3    3    0  502  0.79740771429E+02  0.61750785208E+02 -0.31365180782E+03  0.32946806622E+03  0.25500000920E-02 0. -1.
</event>
<event>
 5   0  0.4936000E-04  0.7000018E+03  0.7818609E-02  0.9717229E-01
        3   -1    0    0  501    0  0.00000000000E+00  0.00000000000E+00  0.41284772036E+03  0.41284773271E+03  0.10100000352E+00 0.  1.
       -3   -1    0    0    0  501  0.00000000000E+00  0.00000000000E+00 -0.29672108464E+03  0.29672110183E+03  0.10100000352E+00 0. -1.
    10030    2    1    2    0    0  0.00000000000E+00  0.00000000000E+00  0.11612663572E+03  0.70956883454E+03  0.70000181102E+03 0.  0.
        2    1    3    3  502    0  0.13269755124E+03  0.18824556683E+03 -0.20908288361E+03  0.31106379693E+03  0.25500000920E-02 0. -1.
       -2    1    3    3    0  502 -0.13269755124E+03 -0.18824556683E+03  0.32520951932E+03  0.39850503761E+03  0.25500000920E-02 0.  1.
</event>
<event>
 5   0  0.7574241E-04  0.7002532E+03  0.7818609E-02  0.9716799E-01
        1   -1    0    0  501    0  0.00000000000E+00  0.00000000000E+00  0.91320616694E+03  0.91320616696E+03  0.50400001928E-02 0.  1.
       -1   -1    0    0    0  501  0.00000000000E+00  0.00000000000E+00 -0.13423981213E+03  0.13423981223E+03  0.50400001928E-02 0. -1.
    10030    2    1    2    0    0  0.00000000000E+00  0.00000000000E+00  0.77896635481E+03  0.10474459792E+04  0.70025316663E+03 0.  0.
        3    1    3    3  502    0  0.84823222123E+01 -0.37721009079E+02 -0.13103690303E+03  0.13662175695E+03  0.10100000352E+00 0. -1.
       -3    1    3    3    0  502 -0.84823222123E+01  0.37721009079E+02  0.91000325784E+03  0.91082422223E+03  0.10100000352E+00 0.  1.
</event>
<event>
 5   0  0.1282546E-03  0.6995098E+03  0.7818609E-02  0.9718071E-01
        2   -1    0    0  501    0  0.00000000000E+00  0.00000000000E+00  0.17366770555E+04  0.17366770555E+04  0.25500000920E-02 0. -1.
       -2   -1    0    0    0  501  0.00000000000E+00  0.00000000000E+00 -0.70438251464E+02  0.70438251510E+02  0.25500000920E-02 0.  1.
    10030    2    1    2    0    0  0.00000000000E+00  0.00000000000E+00  0.16662388041E+04  0.18071153070E+04  0.69950981463E+03 0.  0.
        5    1    3    3  502    0 -0.27253960638E+03  0.21059779371E+03  0.67646342003E+03  0.75911403386E+03  0.46999998093E+01 0. -1.
       -5    1    3    3    0  502  0.27253960638E+03 -0.21059779371E+03  0.98977538403E+03  0.10480012732E+04  0.46999998093E+01 0.  1.
</event>
<event>
 5   0  0.1222679E-03  0.6997456E+03  0.7818609E-02  0.9717667E-01
       -2   -1    0    0    0  501  0.00000000000E+00  0.00000000000E+00  0.28142404942E+03  0.28142404943E+03  0.25500000920E-02 0.  1.
        2   -1    0    0  501    0  0.00000000000E+00  0.00000000000E+00 -0.43496979611E+03  0.43496979612E+03  0.25500000920E-02 0. -1.
    10030    2    1    2    0    0  0.00000000000E+00  0.00000000000E+00 -0.15354574669E+03  0.71639384555E+03  0.69974555777E+03 0.  0.
        2    1    3    3  502    0  0.58087259722E+02 -0.27441211979E+03  0.13733141634E+03  0.31230763543E+03  0.25500000920E-02 0.  1.
       -2    1    3    3    0  502 -0.58087259722E+02  0.27441211979E+03 -0.29087716303E+03  0.40408621012E+03  0.25500000920E-02 0. -1.
</event>
<event>
 5   0  0.7570633E-04  0.7001527E+03  0.7818609E-02  0.9716971E-01
       -1   -1    0    0    0  501  0.00000000000E+00  0.00000000000E+00  0.29708520794E+03  0.29708520798E+03  0.50400001928E-02 0.  1.
        1   -1    0    0  501    0  0.00000000000E+00  0.00000000000E+00 -0.41251957311E+03  0.41251957314E+03  0.50400001928E-02 0. -1.
    10030    2    1    2    0    0  0.00000000000E+00  0.00000000000E+00 -0.11543436517E+03  0.70960478112E+03  0.70015273529E+03 0.  0.
        5    1    3    3  502    0  0.10304404942E+03  0.21617444164E+03 -0.31647130472E+03  0.39689500129E+03  0.46999998093E+01 0. -1.
       -5    1    3    3    0  502 -0.10304404942E+03 -0.21617444164E+03  0.20103693955E+03  0.31270977983E+03  0.46999998093E+01 0.  1.
</event>
<event>
 5   0  0.7570633E-04  0.6997918E+03  0.7818609E-02  0.9717588E-01
       -1   -1    0    0    0  501  0.00000000000E+00  0.00000000000E+00  0.26545387939E+03  0.26545387944E+03  0.50400001928E-02 0.  1.
        1   -1    0    0  501    0  0.00000000000E+00  0.00000000000E+00 -0.46119930162E+03  0.46119930164E+03  0.50400001928E-02 0. -1.
    10030    2    1    2    0    0  0.00000000000E+00  0.00000000000E+00 -0.19574542223E+03  0.72665318108E+03  0.69979180851E+03 0.  0.
        5    1    3    3  502    0 -0.19017284074E+03 -0.10023653516E+03 -0.38449697917E+03  0.44053727348E+03  0.46999998093E+01 0. -1.
       -5    1    3    3    0  502  0.19017284074E+03  0.10023653516E+03  0.18875155694E+03  0.28611590760E+03  0.46999998093E+01 0.  1.
</event>
<event>
 5   0  0.7459843E-04  0.7002359E+03  0.7818609E-02  0.9716829E-01
       -1   -1    0    0    0  501  0.00000000000E+00  0.00000000000E+00  0.20489069770E+03  0.20489069776E+03  0.50400001928E-02 0.  1.
        1   -1    0    0  501    0  0.00000000000E+00  0.00000000000E+00 -0.59828276669E+03  0.59828276671E+03  0.50400001928E-02 0. -1.
    10030    2    1    2    0    0  0.00000000000E+00  0.00000000000E+00 -0.39339206899E+03  0.80317346447E+03  0.70023588460E+03 0.  0.
        2    1    3    3  502    0 -0.19311840713E+03 -0.22898018664E+03 -0.40460435051E+03  0.50341963162E+03  0.25500000920E-02 0. -1.
       -2    1    3    3    0  502  0.19311840713E+03  0.22898018664E+03  0.11212281519E+02  0.29975383285E+03  0.25500000920E-02 0.  1.
</event>
<event>
 5   0  0.7013526E-04  0.6999007E+03  0.7818609E-02  0.9717402E-01
       -1   -1    0    0    0  501  0.00000000000E+00  0.00000000000E+00  0.40304703119E+03  0.40304703122E+03  0.50400001928E-02 0.  1.
        1   -1    0    0  501    0  0.00000000000E+00  0.00000000000E+00 -0.30384856116E+03  0.30384856121E+03  0.50400001928E-02 0. -1.
    10030    2    1    2    0    0  0.00000000000E+00  0.00000000000E+00  0.99198470022E+02  0.70689559242E+03  0.69990073734E+03 0.  0.
        1    1    3    3  502    0  0.15601915868E+03 -0.15794044528E+03  0.32281728198E+03  0.39178841190E+03  0.50400001928E-02 0.  1.
       -1    1    3    3    0  502 -0.15601915868E+03  0.15794044528E+03 -0.22361881195E+03  0.31510718052E+03  0.50400001928E-02 0. -1.
</event>
<event>
 5   0  0.1222679E-03  0.7000097E+03  0.7818609E-02  0.9717216E-01
       -2   -1    0    0    0  501  0.00000000000E+00  0.00000000000E+00  0.85039329227E+02  0.85039329265E+02  0.25500000920E-02 0. -1.
        2   -1    0    0  501    0  0.00000000000E+00  0.00000000000E+00 -0.14405497357E+04  0.14405497357E+04  0.25500000920E-02 0.  1.
    10030    2    1    2    0    0  0.00000000000E+00  0.00000000000E+00 -0.13555104065E+04  0.15255890650E+04  0.70000966644E+03 0.  0.
        2    1    3    3  502    0 -0.26586792943E+03 -0.22266998781E+03 -0.78080346545E+03  0.85435456986E+03  0.25500000920E-02 0. -1.
       -2    1    3    3    0  502  0.26586792943E+03  0.22266998781E+03 -0.57470694105E+03  0.67123449514E+03  0.25500000920E-02 0.  1.
</event>
<event>
 5   0  0.7013526E-04  0.6999609E+03  0.7818609E-02  0.9717299E-01
        1   -1    0    0  501    0  0.00000000000E+00  0.00000000000E+00  0.14353186123E+04  0.14353186123E+04  0.50400001928E-02 0.  1.
       -1   -1    0    0    0  501  0.00000000000E+00  0.00000000000E+00 -0.85337359297E+02  0.85337359446E+02  0.50400001928E-02 0. -1.
    10030    2    1    2    0    0  0.00000000000E+00  0.00000000000E+00  0.13499812530E+04  0.15206559718E+04  0.69996085675E+03 0.  0.
        1    1    3    3  502    0 -0.47304815197E+02 -0.19308815085E+03  0.13007480916E+04  0.13158519588E+04  0.50400001928E-02 0.  1.
       -1    1    3    3    0  502  0.47304815197E+02  0.19308815085E+03  0.49233161431E+02  0.20480401303E+03  0.50400001928E-02 0. -1.
</event>
<event>
 5   0  0.4936000E-04  0.7012378E+03  0.7818609E-02  0.9715118E-01
       -3   -1    0    0    0  501  0.00000000000E+00  0.00000000000E+00  0.63276739074E+03  0.63276739880E+03  0.10100000352E+00 0. -1.
        3   -1    0    0  501    0  0.00000000000E+00  0.00000000000E+00 -0.19427926240E+03  0.19427928866E+03  0.10100000352E+00 0.  1.
    10030    2    1    2    0    0  0.00000000000E+00  0.00000000000E+00  0.43848812833E+03  0.82704668745E+03  0.70123775179E+03 0.  0.
        1    1    3    3  502    0  0.11809624446E+03  0.19558539428E+03 -0.94428455741E+02  0.24721873451E+03  0.50400001928E-02 0.  1.
       -1    1    3    3    0  502 -0.11809624446E+03 -0.19558539428E+03  0.53291658407E+03  0.57982795295E+03  0.50400001928E-02 0. -1.
</event>
<event>
 5   0  0.1282546E-03  0.6948387E+03  0.7818609E-02  0.9726100E-01
       -2   -1    0    0    0  501  0.00000000000E+00  0.00000000000E+00  0.17152057795E+03  0.17152057797E+03  0.25500000920E-02 0.  1.
        2   -1    0    0  501    0  0.00000000000E+00  0.00000000000E+00 -0.70370676870E+03  0.70370676870E+03  0.25500000920E-02 0. -1.
    10030    2    1    2    0    0  0.00000000000E+00  0.00000000000E+00 -0.53218619075E+03  0.87522734667E+03  0.69483866238E+03 0.  0.
        5    1    3    3  502    0 -0.75630560303E+02  0.27135682083E+03 -0.10036506371E+02  0.28191723488E+03  0.46999998093E+01 0.  1.
       -5    1    3    3    0  502  0.75630560303E+02 -0.27135682083E+03 -0.52214968438E+03  0.59331011179E+03  0.46999998093E+01 0. -1.
</event>
<event>
 5   0  0.7574241E-04  0.6999430E+03  0.7818609E-02  0.9717330E-01
        1   -1    0    0  501    0  0.00000000000E+00  0.00000000000E+00  0.32894176138E+03  0.32894176141E+03  0.50400001928E-02 0. -1.
       -1   -1    0    0    0  501  0.00000000000E+00  0.00000000000E+00 -0.37234568152E+03  0.37234568155E+03  0.50400001928E-02 0.  1.
    10030    2    1    2    0    0  0.00000000000E+00  0.00000000000E+00 -0.43403920142E+02  0.70128744297E+03  0.69994298152E+03 0.  0.
        3    1    3    3  502    0  0.11756103739E+03  0.18458974725E+03 -0.29533103232E+03  0.36757910871E+03  0.10100000352E+00 0.  1.
       -3    1    3    3    0  502 -0.11756103739E+03 -0.18458974725E+03  0.25192711218E+03  0.33370833426E+03  0.10100000352E+00 0. -1.
</event>
<event>
 5   0  0.7570633E-04  0.7002415E+03  0.7818609E-02  0.9716819E-01
        1   -1    0    0  501    0  0.00000000000E+00  0.00000000000E+00  0.34836256683E+03  0.34836256687E+03  0.50400001928E-02 0.  1.
       -1   -1    0    0    0  501  0.00000000000E+00  0.00000000000E+00 -0.35188778468E+03  0.35188778472E+03  0.50400001928E-02 0. -1.
    10030    2    1    2    0    0  0.00000000000E+00  0.00000000000E+00 -0.35252178500E+01  0.70025035158E+03  0.70024147816E+03 0.  0.
        5    1    3    3  502    0 -0.29760315332E+03  0.52700917050E+02  0.17492414662E+03  0.34923569490E+03  0.46999998093E+01 0.  1.
       -5    1    3    3    0  502  0.29760315332E+03 -0.52700917050E+02 -0.17844936447E+03  0.35101465668E+03  0.46999998093E+01 0. -1.
</event>
<event>
 5   0  0.7570633E-04  0.6998981E+03  0.7818609E-02  0.9717406E-01
       -1   -1    0    0    0  501  0.00000000000E+00  0.00000000000E+00  0.98118308633E+02  0.98118308762E+02  0.50400001928E-02 0. -1.
        1   -1    0    0  501    0  0.00000000000E+00  0.00000000000E+00 -0.12481293918E+04  0.12481293918E+04  0.50400001928E-02 0.  1.
    10030    2    1    2    0    0  0.00000000000E+00  0.00000000000E+00 -0.11500110832E+04  0.13462477006E+04  0.69989812109E+03 0.  0.
        5    1    3    3  502    0 -0.29682287297E+03  0.10428835779E+03 -0.28037610360E+03  0.42144125208E+03  0.46999998093E+01 0.  1.
       -5    1    3    3    0  502  0.29682287297E+03 -0.10428835779E+03 -0.86963497960E+03  0.92480644853E+03  0.46999998093E+01 0. -1.
</event>
<event>
 5   0  0.1222679E-03  0.7000959E+03  0.7818609E-02  0.9717068E-01
        2   -1    0    0  501    0  0.00000000000E+00  0.00000000000E+00  0.93316178282E+03  0.93316178282E+03  0.25500000920E-02 0. -1.
       -2   -1    0    0    0  501  0.00000000000E+00  0.00000000000E+00 -0.13131011589E+03  0.13131011591E+03  0.25500000920E-02 0.  1.
    10030    2    1    2    0    0  0.00000000000E+00  0.00000000000E+00  0.80185166693E+03  0.10644718987E+04  0.70009594160E+03 0.  0.
        2    1    3    3  502    0  0.65903928916E+02 -0.16986002621E+03 -0.53532769949E+02  0.18989869356E+03  0.25500000920E-02 0.  1.
       -2    1    3    3    0  502 -0.65903928916E+02  0.16986002621E+03  0.85538443688E+03  0.87457320517E+03  0.25500000920E-02 0. -1.
</event>
<event>
 5   0  0.7570633E-04  0.6999472E+03  0.7818609E-02  0.9717323E-01
       -1   -1    0    0    0  501  0.00000000000E+00  0.00000000000E+00  0.19746144136E+03  0.19746144142E+03  0.50400001928E-02 0. -1.
        1   -1    0    0  501    0  0.00000000000E+00  0.00000000000E+00 -0.62028067671E+03  0.62028067673E+03  0.50400001928E-02 0.  1.
    10030    2    1    2    0    0  0.00000000000E+00  0.00000000000E+00 -0.42281923535E+03  0.81774211815E+03  0.69994718802E+03 0.  0.
        5    1    3    3  502    0 -0.30506845641E+03 -0.66275717341E+02 -0.39613338273E+03  0.50438376334E+03  0.46999998093E+01 0.  1.
       -5    1    3    3    0  502  0.30506845641E+03  0.66275717341E+02 -0.26685852617E+02  0.31335835481E+03  0.46999998093E+01 0. -1.
</event>
<event>
 5   0  0.7013526E-04  0.7000625E+03  0.7818609E-02  0.9717125E-01
        1   -1    0    0  501    0  0.00000000000E+00  0.00000000000E+00  0.18948875289E+03  0.18948875296E+03  0.50400001928E-02 0.  1.
       -1   -1    0    0    0  501  0.00000000000E+00  0.00000000000E+00 -0.64659174580E+03  0.64659174582E+03  0.50400001928E-02 0. -1.
    10030    2    1    2    0    0  0.00000000000E+00  0.00000000000E+00 -0.45710299291E+03  0.83608049878E+03  0.70006246458E+03 0.  0.
        1    1    3    3  502    0  0.17385239410E+03  0.24539794036E+03 -0.14652584246E+02  0.30109716425E+03  0.50400001928E-02 0.  1.
       -1    1    3    3    0  502 -0.17385239410E+03 -0.24539794036E+03 -0.44245040867E+03  0.53498333453E+03  0.50400001928E-02 0. -1.
</event>
<event>
 5   0  0.1222679E-03  0.7000128E+03  0.7818609E-02  0.9717210E-01
       -2   -1    0    0    0  501  0.00000000000E+00  0.00000000000E+00  0.55473255753E+02  0.55473255812E+02  0.25500000920E-02 0.  1.
        2   -1    0    0  501    0  0.00000000000E+00  0.00000000000E+00 -0.22083521537E+04  0.22083521537E+04  0.25500000920E-02 0. -1.
    10030    2    1    2    0    0  0.00000000000E+00  0.00000000000E+00 -0.21528788980E+04  0.22638254095E+04  0.70001281098E+03 0.  0.
        2    1    3    3  502    0  0.24772727025E+03 -0.20955895043E+03 -0.15008270800E+04  0.15355017676E+04  0.25500000920E-02 0. -1.
       -2    1    3    3    0  502 -0.24772727025E+03  0.20955895043E+03 -0.65205181796E+03  0.72832364196E+03  0.25500000920E-02 0.  1.
</event>
<event>
 5   0  0.4936000E-04  0.7007059E+03  0.7818609E-02  0.9716026E-01
        4   -1    0    0  501    0  0.00000000000E+00  0.00000000000E+00  0.40972996134E+03  0.40973192958E+03  0.12699999809E+01 0.  1.
       -4   -1    0    0    0  501  0.00000000000E+00  0.00000000000E+00 -0.29957664229E+03  0.29957933424E+03  0.12699999809E+01 0. -1.
    10030    2    1    2    0    0  0.00000000000E+00  0.00000000000E+00  0.11015331905E+03  0.70931126382E+03  0.70070586931E+03 0.  0.
        3    1    3    3  502    0 -0.15420062623E+03  0.20043575487E+03  0.30053100272E+03  0.39277375009E+03  0.10100000352E+00 0.  1.
       -3    1    3    3    0  502  0.15420062623E+03 -0.20043575487E+03 -0.19037768367E+03  0.31653751373E+03  0.10100000352E+00 0. -1.
</event>
<event>
 5   0  0.7459843E-04  0.6999167E+03  0.7818609E-02  0.9717375E-01
        1   -1    0    0  501    0  0.00000000000E+00  0.00000000000E+00  0.92400081288E+03  0.92400081289E+03  0.50400001928E-02 0.  1.
       -1   -1    0    0    0  501  0.00000000000E+00  0.00000000000E+00 -0.13254408388E+03  0.13254408398E+03  0.50400001928E-02 0. -1.
    10030    2    1    2    0    0  0.00000000000E+00  0.00000000000E+00  0.79145672899E+03  0.10565448969E+04  0.69991668449E+03 0.  0.
        2    1    3    3  502    0  0.25277463717E+03  0.12944796766E+03  0.70442271417E+03  0.75951507804E+03  0.25500000920E-02 0.  1.
       -2    1    3    3    0  502 -0.25277463717E+03 -0.12944796766E+03  0.87034014825E+02  0.29702981883E+03  0.25500000920E-02 0. -1.
</event>
<event>
 5   0  0.7572415E-04  0.7000860E+03  0.7818609E-02  0.9717085E-01
       -1   -1    0    0    0  501  0.00000000000E+00  0.00000000000E+00  0.37788019162E+03  0.37788019166E+03  0.50400001928E-02 0. -1.
        1   -1    0    0  501    0  0.00000000000E+00  0.00000000000E+00 -0.32425644961E+03  0.32425644965E+03  0.50400001928E-02 0.  1.
    10030    2    1    2    0    0  0.00000000000E+00  0.00000000000E+00  0.53623742017E+02  0.70213664130E+03  0.70008596426E+03 0.  0.
        4    1    3    3  502    0  0.11233317369E+03  0.12324670765E+03  0.33547949134E+03  0.37464195557E+03  0.12699999809E+01 0. -1.
       -4    1    3    3    0  502 -0.11233317369E+03 -0.12324670765E+03 -0.28185574933E+03  0.32749468574E+03  0.12699999809E+01 0.  1.
</event>
<event>
 5   0  0.7572415E-04  0.7000683E+03  0.7818609E-02  0.9717115E-01
       -1   -1    0    0    0  501  0.00000000000E+00  0.00000000000E+00  0.85376462289E+03  0.85376462290E+03  0.50400001928E-02 0.  1.
        1   -1    0    0  501    0  0.00000000000E+00  0.00000000000E+00 -0.14351018586E+03  0.14351018595E+03  0.50400001928E-02 0. -1.
    10030    2    1    2    0    0  0.00000000000E+00  0.00000000000E+00  0.71025443703E+03  0.99727480885E+03  0.70006833885E+03 0.  0.
        4    1    3    3  502    0  0.81232467753E+02  0.13218419367E+03  0.80210334545E+03  0.81697170364E+03  0.12699999809E+01 0.  1.
       -4    1    3    3    0  502 -0.81232467753E+02 -0.13218419367E+03 -0.91848908418E+02  0.18030310522E+03  0.12699999809E+01 0. -1.
</event>
<event>
 5   0  0.7570633E-04  0.7000963E+03  0.7818609E-02  0.9717067E-01
        1   -1    0    0  501    0  0.00000000000E+00  0.00000000000E+00  0.15905184287E+03  0.15905184295E+03  0.50400001928E-02 0. -1.
       -1   -1    0    0    0  501  0.00000000000E+00  0.00000000000E+00 -0.77040109322E+03  0.77040109323E+03  0.50400001928E-02 0.  1.
    10030    2    1    2    0    0  0.00000000000E+00  0.00000000000E+00 -0.61134925034E+03  0.92945293618E+03  0.70009631815E+03 0.  0.
        5    1    3    3  502    0 -0.17634515406E+03 -0.71590835400E+02  0.84309321993E+02  0.20821386324E+03  0.46999998093E+01 0. -1.
       -5    1    3    3    0  502  0.17634515406E+03  0.71590835400E+02 -0.69565857234E+03  0.72123907294E+03  0.46999998093E+01 0.  1.
</event>
<event>
 5   0  0.7574241E-04  0.6999797E+03  0.7818609E-02  0.9717267E-01
        1   -1    0    0  501    0  0.00000000000E+00  0.00000000000E+00  0.13660444640E+04  0.13660444640E+04  0.50400001928E-02 0.  1.
       -1   -1    0    0    0  501  0.00000000000E+00  0.00000000000E+00 -0.89669779477E+02  0.89669779618E+02  0.50400001928E-02 0. -1.
    10030    2    1    2    0    0  0.00000000000E+00  0.00000000000E+00  0.12763746845E+04  0.14557142436E+04  0.69997973099E+03 0.  0.
        3    1    3    3  502    0  0.83840527529E+02 -0.22284461837E+03  0.10470922677E+03  0.26010188458E+03  0.10100000352E+00 0. -1.
       -3    1    3    3    0  502 -0.83840527529E+02  0.22284461837E+03  0.11716654577E+04  0.11956123590E+04  0.10100000352E+00 0.  1.
</event>
<event>
 5   0  0.1282546E-03  0.7005675E+03  0.7818609E-02  0.9716262E-01
       -2   -1    0    0    0  501  0.00000000000E+00  0.00000000000E+00  0.45977147428E+03  0.45977147428E+03  0.25500000920E-02 0. -1.
        2   -1    0    0  501    0  0.00000000000E+00  0.00000000000E+00 -0.26686887310E+03  0.26686887311E+03  0.25500000920E-02 0.  1.
    10030    2    1    2    0    0  0.00000000000E+00  0.00000000000E+00  0.19290260118E+03  0.72664034740E+03  0.70056747064E+03 0.  0.
        5    1    3    3  502    0 -0.34618256612E+03 -0.41669743504E+02  0.13081854626E+03  0.37244371206E+03  0.46999998093E+01 0. -1.
       -5    1    3    3    0  502  0.34618256612E+03  0.41669743504E+02  0.62084054919E+02  0.35419663534E+03  0.46999998093E+01 0.  1.
</event>
<event>
 5   0  0.7570633E-04  0.6993171E+03  0.7818609E-02  0.9718401E-01
       -1   -1    0    0    0  501  0.00000000000E+00  0.00000000000E+00  0.40842278668E+03  0.40842278671E+03  0.50400001928E-02 0.  1.
        1   -1    0    0  501    0  0.00000000000E+00  0.00000000000E+00 -0.29934940684E+03  0.29934940688E+03  0.50400001928E-02 0. -1.
    10030    2    1    2    0    0  0.00000000000E+00  0.00000000000E+00  0.10907337984E+03  0.70777219359E+03  0.69931714968E+03 0.  0.
        5    1    3    3  502    0  0.21040069646E+03 -0.17193513220E+03  0.27721702332E+03  0.38820292474E+03  0.46999998093E+01 0.  1.
       -5    1    3    3    0  502 -0.21040069646E+03  0.17193513220E+03 -0.16814364348E+03  0.31956926886E+03  0.46999998093E+01 0. -1.
</event>
<event>
 5   0  0.1265562E-03  0.7004506E+03  0.7818609E-02  0.9716462E-01
       -2   -1    0    0    0  501  0.00000000000E+00  0.00000000000E+00  0.59407312624E+03  0.59407312624E+03  0.25500000920E-02 0. -1.
        2   -1    0    0  501    0  0.00000000000E+00  0.00000000000E+00 -0.20646915635E+03  0.20646915637E+03  0.25500000920E-02 0.  1.
    10030    2    1    2    0    0  0.00000000000E+00  0.00000000000E+00  0.38760396989E+03  0.80054228261E+03  0.70045064692E+03 0.  0.
        1    1    3    3  502    0 -0.10473500065E+03  0.66278698168E+02  0.56816890818E+03  0.58153090583E+03  0.50400001928E-02 0. -1.
       -1    1    3    3    0  502  0.10473500065E+03 -0.66278698168E+02 -0.18056493829E+03  0.21901137677E+03  0.50400001928E-02 0.  1.
</event>
<event>
 5   0  0.7574241E-04  0.6998069E+03  0.7818609E-02  0.9717562E-01
       -1   -1    0    0    0  501  0.00000000000E+00  0.00000000000E+00  0.32822118388E+03  0.32822118392E+03  0.50400001928E-02 0.  1.
        1   -1    0    0  501    0  0.00000000000E+00  0.00000000000E+00 -0.37301804757E+03  0.37301804760E+03  0.50400001928E-02 0. -1.
    10030    2    1    2    0    0  0.00000000000E+00  0.00000000000E+00 -0.44796863686E+02  0.70123923152E+03  0.69980690253E+03 0.  0.
        3    1    3    3  502    0 -0.28704828240E+03  0.10147286230E+03 -0.19520126089E+03  0.36165867979E+03  0.10100000352E+00 0. -1.
       -3    1    3    3    0  502  0.28704828240E+03 -0.10147286230E+03  0.15040439721E+03  0.33958055173E+03  0.10100000352E+00 0.  1.
</event>
<event>
 5   0  0.7459843E-04  0.7000346E+03  0.7818609E-02  0.9717173E-01
        1   -1    0    0  501    0  0.00000000000E+00  0.00000000000E+00  0.11640528636E+04  0.11640528636E+04  0.50400001928E-02 0.  1.
       -1   -1    0    0    0  501  0.00000000000E+00  0.00000000000E+00 -0.10524615958E+03  0.10524615970E+03  0.50400001928E-02 0. -1.
    10030    2    1    2    0    0  0.00000000000E+00  0.00000000000E+00  0.10588067040E+04  0.12692990233E+04  0.70003455208E+03 0.  0.
        2    1    3    3  502    0 -0.20326569930E+03  0.45624270481E+02  0.10394031152E+04  0.10600742212E+04  0.25500000920E-02 0.  1.
       -2    1    3    3    0  502  0.20326569930E+03 -0.45624270481E+02  0.19403588873E+02  0.20922480215E+03  0.25500000920E-02 0. -1.
</event>
<event>
 5   0  0.4936000E-04  0.7000110E+03  0.7818609E-02  0.9717213E-01
        3   -1    0    0  501    0  0.00000000000E+00  0.00000000000E+00  0.28717676348E+03  0.28717678124E+03  0.10100000352E+00 0.  1.
       -3   -1    0    0    0  501  0.00000000000E+00  0.00000000000E+00 -0.42657985644E+03  0.42657986840E+03  0.10100000352E+00 0. -1.
    10030    2    1    2    0    0  0.00000000000E+00  0.00000000000E+00 -0.13940309296E+03  0.71375664964E+03  0.70001095176E+03 0.  0.
        4    1    3    3  502    0 -0.13915241777E+03  0.21992701714E+03  0.16892590236E+03  0.31027223793E+03  0.12699999809E+01 0.  1.
       -4    1    3    3    0  502  0.13915241777E+03 -0.21992701714E+03 -0.30832899533E+03  0.40348441172E+03  0.12699999809E+01 0. -1.
</event>
<event>
 5   0  0.1265562E-03  0.6960535E+03  0.7818609E-02  0.9724005E-01
        2   -1    0    0  501    0  0.00000000000E+00  0.00000000000E+00  0.20791249137E+03  0.20791249139E+03  0.25500000920E-02 0.  1.
       -2   -1    0    0    0  501  0.00000000000E+00  0.00000000000E+00 -0.58256540254E+03  0.58256540254E+03  0.25500000920E-02 0. -1.
    10030    2    1    2    0    0  0.00000000000E+00  0.00000000000E+00 -0.37465291116E+03  0.79047789393E+03  0.69605351587E+03 0.  0.
        1    1    3    3  502    0  0.94535877016E+01  0.14833352412E+03 -0.54470741230E+03  0.56462232486E+03  0.50400001928E-02 0. -1.
       -1    1    3    3    0  502 -0.94535877016E+01 -0.14833352412E+03  0.17005450113E+03  0.22585556907E+03  0.50400001928E-02 0.  1.
</event>
<event>
 5   0  0.1224048E-03  0.6998076E+03  0.7818609E-02  0.9717561E-01
        2   -1    0    0  501    0  0.00000000000E+00  0.00000000000E+00  0.11172980832E+04  0.11172980832E+04  0.25500000920E-02 0. -1.
       -2   -1    0    0    0  501  0.00000000000E+00  0.00000000000E+00 -0.10957924764E+03  0.10957924767E+03  0.25500000920E-02 0.  1.
    10030    2    1    2    0    0  0.00000000000E+00  0.00000000000E+00  0.10077188355E+04  0.12268773309E+04  0.69980764034E+03 0.  0.
        3    1    3    3  502    0 -0.86797291154E+02  0.14018210563E+03 -0.37206431121E+02  0.16902402553E+03  0.10100000352E+00 0.  1.
       -3    1    3    3    0  502  0.86797291154E+02 -0.14018210563E+03  0.10449252667E+04  0.10578533053E+04  0.10100000352E+00 0. -1.
</event>
<event>
 5   0  0.1265562E-03  0.6998446E+03  0.7818609E-02  0.9717498E-01
       -2   -1    0    0    0  501  0.00000000000E+00  0.00000000000E+00  0.14033089762E+03  0.14033089765E+03  0.25500000920E-02 0. -1.
        2   -1    0    0  501    0  0.00000000000E+00  0.00000000000E+00 -0.87254922459E+03  0.87254922459E+03  0.25500000920E-02 0.  1.
    10030    2    1    2    0    0  0.00000000000E+00  0.00000000000E+00 -0.73221832697E+03  0.10128801222E+04  0.69984459967E+03 0.  0.
        1    1    3    3  502    0 -0.31962460460E+03  0.15107023572E+02 -0.57108133230E+03  0.65461591652E+03  0.50400001928E-02 0.  1.
       -1    1    3    3    0  502  0.31962460460E+03 -0.15107023572E+02 -0.16113699466E+03  0.35826420572E+03  0.50400001928E-02 0. -1.
</event>
<event>
 5   0  0.1224048E-03  0.7000698E+03  0.7818609E-02  0.9717113E-01
       -2   -1    0    0    0  501  0.00000000000E+00  0.00000000000E+00  0.41153530155E+03  0.41153530156E+03  0.25500000920E-02 0. -1.
        2   -1    0    0  501    0  0.00000000000E+00  0.00000000000E+00 -0.29772522060E+03  0.29772522061E+03  0.25500000920E-02 0.  1.
    10030    2    1    2    0    0  0.00000000000E+00  0.00000000000E+00  0.11381008095E+03  0.70926052217E+03  0.70006982065E+03 0.  0.
        3    1    3    3  502    0  0.79756814623E+01  0.19530353630E+03  0.35109164525E+03  0.40183633030E+03  0.10100000352E+00 0. -1.
       -3    1    3    3    0  502 -0.79756814623E+01 -0.19530353630E+03 -0.23728156430E+03  0.30742419187E+03  0.10100000352E+00 0.  1.
</event>
<event>
 5   0  0.1222679E-03  0.6999468E+03  0.7818609E-02  0.9717323E-01
       -2   -1    0    0    0  501  0.00000000000E+00  0.00000000000E+00  0.22078893803E+03  0.22078893805E+03  0.25500000920E-02 0.  1.
        2   -1    0    0  501    0  0.00000000000E+00  0.00000000000E+00 -0.55474423382E+03  0.55474423382E+03  0.25500000920E-02 0. -1.
    10030    2    1    2    0    0  0.00000000000E+00  0.00000000000E+00 -0.33395529579E+03  0.77553317187E+03  0.69994682733E+03 0.  0.
        2    1    3    3  502    0  0.29181225718E+03  0.14436387912E+03 -0.24714025568E+02  0.32650590516E+03  0.25500000920E-02 0.  1.
       -2    1    3    3    0  502 -0.29181225718E+03 -0.14436387912E+03 -0.30924127022E+03  0.44902726671E+03  0.25500000920E-02 0. -1.
</event>
<event>
 5   0  0.1265562E-03  0.7000516E+03  0.7818609E-02  0.9717144E-01
       -2   -1    0    0    0  501  0.00000000000E+00  0.00000000000E+00  0.41748036133E+03  0.41748036133E+03  0.25500000920E-02 0.  1.
        2   -1    0    0  501    0  0.00000000000E+00  0.00000000000E+00 -0.29347025145E+03  0.29347025146E+03  0.25500000920E-02 0. -1.
    10030    2    1    2    0    0  0.00000000000E+00  0.00000000000E+00  0.12401010988E+03  0.71095061279E+03  0.70005161701E+03 0.  0.
        1    1    3    3  502    0 -0.22590055536E+03 -0.91560453707E+02  0.31712049521E+03  0.39997473183E+03  0.50400001928E-02 0.  1.
       -1    1    3    3    0  502  0.22590055536E+03  0.91560453707E+02 -0.19311038533E+03  0.31097588096E+03  0.50400001928E-02 0. -1.
</event>
<event>
 5   0  0.7570633E-04  0.6995157E+03  0.7818609E-02  0.9718061E-01
        1   -1    0    0  501    0  0.00000000000E+00  0.00000000000E+00  0.50494550745E+03  0.50494550748E+03  0.50400001928E-02 0.  1.
       -1   -1    0    0    0  501  0.00000000000E+00  0.00000000000E+00 -0.24226486439E+03  0.24226486445E+03  0.50400001928E-02 0. -1.
    10030    2    1    2    0    0  0.00000000000E+00  0.00000000000E+00  0.26268064306E+03  0.74721037192E+03  0.69951570367E+03 0.  0.
        5    1    3    3  502    0 -0.25901074305E+03 -0.17192614661E+03  0.30246067697E+03  0.43376228053E+03  0.46999998093E+01 0.  1.
       -5    1    3    3    0  502  0.25901074305E+03  0.17192614661E+03 -0.39780033910E+02  0.31344809139E+03  0.46999998093E+01 0. -1.
</event>
<event>
 5   0  0.7574241E-04  0.6994285E+03  0.7818609E-02  0.9718210E-01
        1   -1    0    0  501    0  0.00000000000E+00  0.00000000000E+00  0.36059361562E+03  0.36059361565E+03  0.50400001928E-02 0. -1.
       -1   -1    0    0    0  501  0.00000000000E+00  0.00000000000E+00 -0.33916316136E+03  0.33916316139E+03  0.50400001928E-02 0.  1.
    10030    2    1    2    0    0  0.00000000000E+00  0.00000000000E+00  0.21430454262E+02  0.69975677705E+03  0.69942854006E+03 0.  0.
        3    1    3    3  502    0  0.86976559771E+02  0.88999188102E+02  0.33769314835E+03  0.35989227566E+03  0.10100000352E+00 0. -1.
       -3    1    3    3    0  502 -0.86976559771E+02 -0.88999188102E+02 -0.31626269409E+03  0.33986450139E+03  0.10100000352E+00 0.  1.
</event>
<event>
 5   0  0.1222679E-03  0.7001504E+03  0.7818609E-02  0.9716975E-01
        2   -1    0    0  501    0  0.00000000000E+00  0.00000000000E+00  0.10344886048E+04  0.10344886048E+04  0.25500000920E-02 0.  1.
       -2   -1    0    0    0  501  0.00000000000E+00  0.00000000000E+00 -0.11846690406E+03  0.11846690408E+03  0.25500000920E-02 0. -1.
    10030    2    1    2    0    0  0.00000000000E+00  0.00000000000E+00  0.91602170075E+03  0.11529555089E+04  0.70015044757E+03 0.  0.
        2    1    3    3  502    0 -0.66637742881E+02  0.30097096180E+02 -0.10575211364E+03  0.12856878906E+03  0.25500000920E-02 0. -1.
       -2    1    3    3    0  502  0.66637742881E+02 -0.30097096180E+02  0.10217738144E+04  0.10243867198E+04  0.25500000920E-02 0.  1.
</event>
<event>
 5   0  0.7574241E-04  0.7004156E+03  0.7818609E-02  0.9716522E-01
        1   -1    0    0  501    0  0.00000000000E+00  0.00000000000E+00  0.17504017049E+04  0.17504017049E+04  0.50400001928E-02 0. -1.
       -1   -1    0    0    0  501  0.00000000000E+00  0.00000000000E+00 -0.70067068361E+02  0.70067068543E+02  0.50400001928E-02 0.  1.
    10030    2    1    2    0    0  0.00000000000E+00  0.00000000000E+00  0.16803346366E+04  0.18204687735E+04  0.70041563686E+03 0.  0.
        3    1    3    3  502    0  0.25626859547E+03 -0.19493255380E+03  0.11981795247E+04  0.12406879048E+04  0.10100000352E+00 0. -1.
       -3    1    3    3    0  502 -0.25626859547E+03  0.19493255380E+03  0.48215511185E+03  0.57978086864E+03  0.10100000352E+00 0.  1.
</event>
<event>
 5   0  0.7574241E-04  0.6997844E+03  0.7818609E-02  0.9717601E-01
       -1   -1    0    0    0  501  0.00000000000E+00  0.00000000000E+00  0.50236165935E+02  0.50236166188E+02  0.50400001928E-02 0. -1.
        1   -1    0    0  501    0  0.00000000000E+00  0.00000000000E+00 -0.24369802096E+04  0.24369802096E+04  0.50400001928E-02 0.  1.
    10030    2    1    2    0    0  0.00000000000E+00  0.00000000000E+00 -0.23867440436E+04  0.24872163758E+04  0.69978437396E+03 0.  0.
        3    1    3    3  502    0  0.22023591351E+03 -0.16746969326E+03 -0.19546361437E+04  0.19741206701E+04  0.10100000352E+00 0.  1.
       -3    1    3    3    0  502 -0.22023591351E+03  0.16746969326E+03 -0.43210789997E+03  0.51309570567E+03  0.10100000352E+00 0. -1.
</event>
<event>
 5   0  0.4936000E-04  0.6999239E+03  0.7818609E-02  0.9717362E-01
        4   -1    0    0  501    0  0.00000000000E+00  0.00000000000E+00  0.65019407525E+03  0.65019531557E+03  0.12699999809E+01 0.  1.
       -4   -1    0    0    0  501  0.00000000000E+00  0.00000000000E+00 -0.18836074249E+03  0.18836502386E+03  0.12699999809E+01 0. -1.
    10030    2    1    2    0    0  0.00000000000E+00  0.00000000000E+00  0.46183333276E+03  0.83856033943E+03  0.69992386415E+03 0.  0.
        2    1    3    3  502    0 -0.28331612647E+03 -0.21801201651E+01  0.47703427873E+03  0.55482833699E+03  0.25500000920E-02 0.  1.
       -2    1    3    3    0  502  0.28331612647E+03  0.21801201651E+01 -0.15200945973E+02  0.28373200243E+03  0.25500000920E-02 0. -1.
</event>
<event>
 5   0  0.1224048E-03  0.6998932E+03  0.7818609E-02  0.9717415E-01
       -2   -1    0    0    0  501  0.00000000000E+00  0.00000000000E+00  0.91453880466E+02  0.91453880502E+02  0.25500000920E-02 0.  1.
        2   -1    0    0  501    0  0.00000000000E+00  0.00000000000E+00 -0.13390643024E+04  0.13390643024E+04  0.25500000920E-02 0. -1.
    10030    2    1    2    0    0  0.00000000000E+00  0.00000000000E+00 -0.12476104220E+04  0.14305181829E+04  0.69989321093E+03 0.  0.
        3    1    3    3  502    0  0.14726869134E+03 -0.31542012844E+03 -0.55054620126E+03  0.65136706610E+03  0.10100000352E+00 0. -1.
       -3    1    3    3    0  502 -0.14726869134E+03  0.31542012844E+03 -0.69706422070E+03  0.77915111683E+03  0.10100000352E+00 0.  1.
</event>
<event>
 5   0  0.7570633E-04  0.6958888E+03  0.7818609E-02  0.9724289E-01
        1   -1    0    0  501    0  0.00000000000E+00  0.00000000000E+00  0.39948400874E+03  0.39948400877E+03  0.50400001928E-02 0. -1.
       -1   -1    0    0    0  501  0.00000000000E+00  0.00000000000E+00 -0.30305417949E+03  0.30305417953E+03  0.50400001928E-02 0.  1.
    10030    2    1    2    0    0  0.00000000000E+00  0.00000000000E+00  0.96429829251E+02  0.70253818830E+03  0.69588877994E+03 0.  0.
        5    1    3    3  502    0 -0.34493249756E+02 -0.32583838072E+03  0.16630601711E+03  0.36747818433E+03  0.46999998093E+01 0. -1.
       -5    1    3    3    0  502  0.34493249756E+02  0.32583838072E+03 -0.69876187861E+02  0.33506000397E+03  0.46999998093E+01 0.  1.
</event>
<event>
 5   0  0.1222679E-03  0.7000567E+03  0.7818609E-02  0.9717135E-01
        2   -1    0    0  501    0  0.00000000000E+00  0.00000000000E+00  0.71473345471E+03  0.71473345471E+03  0.25500000920E-02 0.  1.
       -2   -1    0    0    0  501  0.00000000000E+00  0.00000000000E+00 -0.17142034892E+03  0.17142034894E+03  0.25500000920E-02 0. -1.
    10030    2    1    2    0    0  0.00000000000E+00  0.00000000000E+00  0.54331310579E+03  0.88615380365E+03  0.70005673542E+03 0.  0.
        2    1    3    3  502    0  0.46342115485E+02  0.45586524442E+01  0.71079513430E+03  0.71231881621E+03  0.25500000920E-02 0.  1.
       -2    1    3    3    0  502 -0.46342115485E+02 -0.45586524442E+01 -0.16748202851E+03  0.17383498744E+03  0.25500000920E-02 0. -1.
</event>
<event>
 5   0  0.7013526E-04  0.6992174E+03  0.7818609E-02  0.9718571E-01
        1   -1    0    0  501    0  0.00000000000E+00  0.00000000000E+00  0.32108414389E+03  0.32108414393E+03  0.50400001928E-02 0.  1.
       -1   -1    0    0    0  501  0.00000000000E+00  0.00000000000E+00 -0.38066738199E+03  0.38066738202E+03  0.50400001928E-02 0. -1.
    10030    2    1    2    0    0  0.00000000000E+00  0.00000000000E+00 -0.59583238100E+02  0.70175152596E+03  0.69921744967E+03 0.  0.
        1    1    3    3  502    0  0.53035132680E+02 -0.64967879869E+02 -0.37042217624E+03  0.37979749787E+03  0.50400001928E-02 0. -1.
       -1    1    3    3    0  502 -0.53035132680E+02  0.64967879869E+02  0.31083893814E+03  0.32195402809E+03  0.50400001928E-02 0.  1.
</event>
<event>
 5   0  0.4936000E-04  0.6996553E+03  0.7818609E-02  0.9717822E-01
        3   -1    0    0  501    0  0.00000000000E+00  0.00000000000E+00  0.66163928764E+03  0.66163929534E+03  0.10100000352E+00 0. -1.
       -3   -1    0    0    0  501  0.00000000000E+00  0.00000000000E+00 -0.18496387431E+03  0.18496390188E+03  0.10100000352E+00 0.  1.
    10030    2    1    2    0    0  0.00000000000E+00  0.00000000000E+00  0.47667541333E+03  0.84660319723E+03  0.69965528933E+03 0.  0.
        2    1    3    3  502    0 -0.17419544704E+03 -0.14621021796E+03 -0.83306803663E+02  0.24220137314E+03  0.25500000920E-02 0.  1.
       -2    1    3    3    0  502  0.17419544704E+03  0.14621021796E+03  0.55998221699E+03  0.60440182409E+03  0.25500000920E-02 0. -1.
</event>
<event>
 5   0  0.1224048E-03  0.7002533E+03  0.7818609E-02  0.9716799E-01
        2   -1    0    0  501    0  0.00000000000E+00  0.00000000000E+00  0.11186776470E+04  0.11186776470E+04  0.25500000920E-02 0.  1.
       -2   -1    0    0    0  501  0.00000000000E+00  0.00000000000E+00 -0.10958354074E+03  0.10958354077E+03  0.25500000920E-02 0. -1.
    10030    2    1    2    0    0  0.00000000000E+00  0.00000000000E+00  0.10090941062E+04  0.12282611878E+04  0.70025326140E+03 0.  0.
        3    1    3    3  502    0 -0.92174223890E+02  0.29780932394E+03  0.78410443611E+03  0.84380463255E+03  0.10100000352E+00 0.  1.
       -3    1    3    3    0  502  0.92174223890E+02 -0.29780932394E+03  0.22498967013E+03  0.38445655521E+03  0.10100000352E+00 0. -1.
</event>
<event>
 5   0  0.7459843E-04  0.7006136E+03  0.7818609E-02  0.9716183E-01
       -1   -1    0    0    0  501  0.00000000000E+00  0.00000000000E+00  0.14864261431E+03  0.14864261439E+03  0.50400001928E-02 0. -1.
        1   -1    0    0  501    0  0.00000000000E+00  0.00000000000E+00 -0.82556972029E+03  0.82556972030E+03  0.50400001928E-02 0.  1.
    10030    2    1    2    0    0  0.00000000000E+00  0.00000000000E+00 -0.67692710598E+03  0.97421233470E+03  0.70061356415E+03 0.  0.
        2    1    3    3  502    0  0.13126301212E+03 -0.29573519480E+03 -0.52515285794E+03  0.61682640021E+03  0.25500000920E-02 0.  1.
       -2    1    3    3    0  502 -0.13126301212E+03  0.29573519480E+03 -0.15177424804E+03  0.35738593448E+03  0.25500000920E-02 0. -1.
</event>
<event>
 5   0  0.7574241E-04  0.7001639E+03  0.7818609E-02  0.9716952E-01
       -1   -1    0    0    0  501  0.00000000000E+00  0.00000000000E+00  0.65009474575E+03  0.65009474576E+03  0.50400001928E-02 0.  1.
        1   -1    0    0  501    0  0.00000000000E+00  0.00000000000E+00 -0.18852231802E+03  0.18852231809E+03  0.50400001928E-02 0. -1.
    10030    2    1    2    0    0  0.00000000000E+00  0.00000000000E+00  0.46157242772E+03  0.83861706385E+03  0.70016389064E+03 0.  0.
        3    1    3    3  502    0  0.27378655472E+03 -0.15655125430E+03  0.41278806933E+03  0.51948183140E+03  0.10100000352E+00 0.  1.
       -3    1    3    3    0  502 -0.27378655472E+03  0.15655125430E+03  0.48784358396E+02  0.31913523246E+03  0.10100000352E+00 0. -1.
</event>
<event>
 5   0  0.7570633E-04  0.7036297E+03  0.7818609E-02  0.9711045E-01
        1   -1    0    0  501    0  0.00000000000E+00  0.00000000000E+00  0.20263992737E+03  0.20263992743E+03  0.50400001928E-02 0.  1.
       -1   -1    0    0    0  501  0.00000000000E+00  0.00000000000E+00 -0.61080605998E+03  0.61080606000E+03  0.50400001928E-02 0. -1.
    10030    2    1    2    0    0  0.00000000000E+00  0.00000000000E+00 -0.40816613261E+03  0.81344598743E+03  0.70362971985E+03 0.  0.
        5    1    3    3  502    0  0.73602754200E+02 -0.12165408347E+03 -0.57606953501E+03  0.59337617126E+03  0.46999998093E+01 0. -1.
       -5    1    3    3    0  502 -0.73602754200E+02  0.12165408347E+03  0.16790340240E+03  0.22006981617E+03  0.46999998093E+01 0.  1.
</event>
<event>
 5   0  0.7459843E-04  0.7001883E+03  0.7818609E-02  0.9716910E-01
       -1   -1    0    0    0  501  0.00000000000E+00  0.00000000000E+00  0.53816211595E+02  0.53816211831E+02  0.50400001928E-02 0.  1.
        1   -1    0    0  501    0  0.00000000000E+00  0.00000000000E+00 -0.22774906526E+04  0.22774906527E+04  0.50400001928E-02 0. -1.
    10030    2    1    2    0    0  0.00000000000E+00  0.00000000000E+00 -0.22236744411E+04  0.23313068645E+04  0.70018831510E+03 0.  0.
        2    1    3    3  502    0  0.12423004880E+03 -0.30224164281E+03 -0.69354801432E+03  0.76667591839E+03  0.25500000920E-02 0.  1.
       -2    1    3    3    0  502 -0.12423004880E+03  0.30224164281E+03 -0.15301264267E+04  0.15646309461E+04  0.25500000920E-02 0. -1.
</event>
<event>
 5   0  0.4936000E-04  0.7001204E+03  0.7818609E-02  0.9717026E-01
       -3   -1    0    0    0  501  0.00000000000E+00  0.00000000000E+00  0.57573484022E+03  0.57573484908E+03  0.10100000352E+00 0. -1.
        3   -1    0    0  501    0  0.00000000000E+00  0.00000000000E+00 -0.21284473737E+03  0.21284476133E+03  0.10100000352E+00 0.  1.
    10030    2    1    2    0    0  0.00000000000E+00  0.00000000000E+00  0.36289010285E+03  0.78857961042E+03  0.70012040051E+03 0.  0.
        3    1    3    3  502    0 -0.83349645912E+02 -0.24043588101E+03  0.45220377873E+03  0.51888808432E+03  0.10100000352E+00 0.  1.
       -3    1    3    3    0  502  0.83349645912E+02  0.24043588101E+03 -0.89313675879E+02  0.26969152610E+03  0.10100000352E+00 0. -1.
</event>
<event>
 5   0  0.1243087E-03  0.7012179E+03  0.7818609E-02  0.9715152E-01
       -2   -1    0    0    0  501  0.00000000000E+00  0.00000000000E+00  0.87964630129E+02  0.87964630166E+02  0.25500000920E-02 0. -1.
        2   -1    0    0  501    0  0.00000000000E+00  0.00000000000E+00 -0.13974551383E+04  0.13974551383E+04  0.25500000920E-02 0.  1.
    10030    2    1    2    0    0  0.00000000000E+00  0.00000000000E+00 -0.13094905082E+04  0.14854197685E+04  0.70121786741E+03 0.  0.
        4    1    3    3  502    0  0.16743317462E+02 -0.22422901639E+02  0.85590181586E+02  0.90057855190E+02  0.12699999809E+01 0. -1.
       -4    1    3    3    0  502 -0.16743317462E+02  0.22422901639E+02 -0.13950806898E+04  0.13953619133E+04  0.12699999809E+01 0.  1.
</event>
<event>
 5   0  0.7572415E-04  0.7001280E+03  0.7818609E-02  0.9717013E-01
        1   -1    0    0  501    0  0.00000000000E+00  0.00000000000E+00  0.19306137796E+04  0.19306137796E+04  0.50400001928E-02 0.  1.
       -1   -1    0    0    0  501  0.00000000000E+00  0.00000000000E+00 -0.63474532205E+02  0.63474532405E+02  0.50400001928E-02 0. -1.
    10030    2    1    2    0    0  0.00000000000E+00  0.00000000000E+00  0.18671392474E+04  0.19940883120E+04  0.70012800754E+03 0.  0.
        4    1    3    3  502    0  0.24098582677E+03 -0.29309205184E+02  0.16519089112E+04  0.16696520182E+04  0.12699999809E+01 0.  1.
       -4    1    3    3    0  502 -0.24098582677E+03  0.29309205184E+02  0.21523033627E+03  0.32443629384E+03  0.12699999809E+01 0. -1.
</event>
<event>
 5   0  0.7574241E-04  0.7000029E+03  0.7818609E-02  0.9717227E-01
        1   -1    0    0  501    0  0.00000000000E+00  0.00000000000E+00  0.37978599761E+03  0.37978599765E+03  0.50400001928E-02 0.  1.
       -1   -1    0    0    0  501  0.00000000000E+00  0.00000000000E+00 -0.32255278231E+03  0.32255278235E+03  0.50400001928E-02 0. -1.
    10030    2    1    2    0    0  0.00000000000E+00  0.00000000000E+00  0.57233215304E+02  0.70233878000E+03  0.70000294353E+03 0.  0.
        3    1    3    3  502    0 -0.11960852133E+03  0.58237571961E+02 -0.29619689035E+03  0.32470051003E+03  0.10100000352E+00 0. -1.
       -3    1    3    3    0  502  0.11960852133E+03 -0.58237571961E+02  0.35343010565E+03  0.37763826997E+03  0.10100000352E+00 0.  1.
</event>
<event>
 5   0  0.4936000E-04  0.6991876E+03  0.7818609E-02  0.9718622E-01
       -4   -1    0    0    0  501  0.00000000000E+00  0.00000000000E+00  0.10029027113E+04  0.10029035155E+04  0.12699999809E+01 0. -1.
        4   -1    0    0  501    0  0.00000000000E+00  0.00000000000E+00 -0.12185794846E+03  0.12186456624E+03  0.12699999809E+01 0.  1.
    10030    2    1    2    0    0  0.00000000000E+00  0.00000000000E+00  0.88104476288E+03  0.11247680817E+04  0.69918764535E+03 0.  0.
        4    1    3    3  502    0 -0.14427335556E+03  0.16853756272E+03  0.87514703432E+03  0.90283091204E+03  0.12699999809E+01 0. -1.
       -4    1    3    3    0  502  0.14427335556E+03 -0.16853756272E+03  0.58977285635E+01  0.22193716965E+03  0.12699999809E+01 0.  1.
</event>
<event>
 5   0  0.1265562E-03  0.6999474E+03  0.7818609E-02  0.9717322E-01
        2   -1    0    0  501    0  0.00000000000E+00  0.00000000000E+00  0.67126015882E+03  0.67126015882E+03  0.25500000920E-02 0. -1.
       -2   -1    0    0    0  501  0.00000000000E+00  0.00000000000E+00 -0.18246516952E+03  0.18246516953E+03  0.25500000920E-02 0.  1.
    10030    2    1    2    0    0  0.00000000000E+00  0.00000000000E+00  0.48879498930E+03  0.85372532835E+03  0.69994742282E+03 0.  0.
        1    1    3    3  502    0  0.23658541049E+03 -0.24714969472E+03  0.15455300102E+03  0.37542277263E+03  0.50400001928E-02 0.  1.
       -1    1    3    3    0  502 -0.23658541049E+03  0.24714969472E+03  0.33424198828E+03  0.47830255573E+03  0.50400001928E-02 0. -1.
</event>
<event>
 5   0  0.1224048E-03  0.7000272E+03  0.7818609E-02  0.9717186E-01
       -2   -1    0    0    0  501  0.00000000000E+00  0.00000000000E+00  0.14071060600E+03  0.14071060602E+03  0.25500000920E-02 0. -1.
        2   -1    0    0  501    0  0.00000000000E+00  0.00000000000E+00 -0.87064876817E+03  0.87064876818E+03  0.25500000920E-02 0.  1.
    10030    2    1    2    0    0  0.00000000000E+00  0.00000000000E+00 -0.72993816217E+03  0.10113593742E+04  0.70002718746E+03 0.  0.
        3    1    3    3  502    0 -0.22955949115E+03 -0.12794709222E+03 -0.69895631322E+03  0.74673151559E+03  0.10100000352E+00 0.  1.
       -3    1    3    3    0  502  0.22955949115E+03  0.12794709222E+03 -0.30981848950E+02  0.26462785861E+03  0.10100000352E+00 0. -1.
</event>
<event>
 5   0  0.1224048E-03  0.6974160E+03  0.7818609E-02  0.9721661E-01
        2   -1    0    0  501    0  0.00000000000E+00  0.00000000000E+00  0.97739248743E+03  0.97739248744E+03  0.25500000920E-02 0. -1.
       -2   -1    0    0    0  501  0.00000000000E+00  0.00000000000E+00 -0.12440986397E+03  0.12440986399E+03  0.25500000920E-02 0.  1.
    10030    2    1    2    0    0  0.00000000000E+00  0.00000000000E+00  0.85298262347E+03  0.11018023514E+04  0.69741599184E+03 0.  0.
        3    1    3    3  502    0  0.30997819867E+03  0.22466637645E+02  0.17666734239E+03  0.35749488601E+03  0.10100000352E+00 0.  1.
       -3    1    3    3    0  502 -0.30997819867E+03 -0.22466637645E+02  0.67631528108E+03  0.74430746542E+03  0.10100000352E+00 0. -1.
</event>
<event>
 5   0  0.7572415E-04  0.7000227E+03  0.7818609E-02  0.9717193E-01
       -1   -1    0    0    0  501  0.00000000000E+00  0.00000000000E+00  0.29417495991E+03  0.29417495995E+03  0.50400001928E-02 0.  1.
        1   -1    0    0  501    0  0.00000000000E+00  0.00000000000E+00 -0.41644588101E+03  0.41644588104E+03  0.50400001928E-02 0. -1.
    10030    2    1    2    0    0  0.00000000000E+00  0.00000000000E+00 -0.12227092110E+03  0.71062084100E+03  0.70002271500E+03 0.  0.
        4    1    3    3  502    0 -0.61018005579E+01  0.27531591371E+02  0.29301754489E+03  0.29437410723E+03  0.12699999809E+01 0.  1.
       -4    1    3    3    0  502  0.61018005579E+01 -0.27531591371E+02 -0.41528846599E+03  0.41624673377E+03  0.12699999809E+01 0. -1.
</event>
<event>
 5   0  0.1265562E-03  0.6995231E+03  0.7818609E-02  0.9718048E-01
        2   -1    0    0  501    0  0.00000000000E+00  0.00000000000E+00  0.72969596650E+03  0.72969596650E+03  0.25500000920E-02 0.  1.
       -2   -1    0    0    0  501  0.00000000000E+00  0.00000000000E+00 -0.16764948396E+03  0.16764948398E+03  0.25500000920E-02 0. -1.
    10030    2    1    2    0    0  0.00000000000E+00  0.00000000000E+00  0.56204648254E+03  0.89734545048E+03  0.69952312968E+03 0.  0.
        1    1    3    3  502    0  0.14978047270E+03  0.24375788289E+03  0.22925914221E+02  0.28701514427E+03  0.50400001928E-02 0. -1.
       -1    1    3    3    0  502 -0.14978047270E+03 -0.24375788289E+03  0.53912056832E+03  0.61033030621E+03  0.50400001928E-02 0.  1.
</event>
<event>
 5   0  0.7459843E-04  0.6999705E+03  0.7818609E-02  0.9717283E-01
        1   -1    0    0  501    0  0.00000000000E+00  0.00000000000E+00  0.10791169973E+04  0.10791169973E+04  0.50400001928E-02 0.  1.
       -1   -1    0    0    0  501  0.00000000000E+00  0.00000000000E+00 -0.11350915553E+03  0.11350915564E+03  0.50400001928E-02 0. -1.
    10030    2    1    2    0    0  0.00000000000E+00  0.00000000000E+00  0.96560784173E+03  0.11926261529E+04  0.69997045409E+03 0.  0.
        2    1    3    3  502    0  0.29667144396E+03  0.88569541915E+02  0.76085179447E+03  0.82143408900E+03  0.25500000920E-02 0.  1.
       -2    1    3    3    0  502 -0.29667144396E+03 -0.88569541915E+02  0.20475604726E+03  0.37119206392E+03  0.25500000920E-02 0. -1.
</event>
<event>
 5   0  0.7013526E-04  0.6993964E+03  0.7818609E-02  0.9718265E-01
       -1   -1    0    0    0  501  0.00000000000E+00  0.00000000000E+00  0.18444417570E+03  0.18444417577E+03  0.50400001928E-02 0. -1.
        1   -1    0    0  501    0  0.00000000000E+00  0.00000000000E+00 -0.66301269903E+03  0.66301269905E+03  0.50400001928E-02 0.  1.
    10030    2    1    2    0    0  0.00000000000E+00  0.00000000000E+00 -0.47856852333E+03  0.84745687482E+03  0.69939639916E+03 0.  0.
        1    1    3    3  502    0  0.12694511818E+03 -0.26889957884E+02 -0.63276089274E+03  0.64592916042E+03  0.50400001928E-02 0.  1.
       -1    1    3    3    0  502 -0.12694511818E+03  0.26889957884E+02  0.15419236941E+03  0.20152771441E+03  0.50400001928E-02 0. -1.
</event>
<event>
 5   0  0.7570633E-04  0.7006754E+03  0.7818609E-02  0.9716078E-01
        1   -1    0    0  501    0  0.00000000000E+00  0.00000000000E+00  0.63983078078E+03  0.63983078080E+03  0.50400001928E-02 0. -1.
       -1   -1    0    0    0  501  0.00000000000E+00  0.00000000000E+00 -0.19182650845E+03  0.19182650851E+03  0.50400001928E-02 0.  1.
    10030    2    1    2    0    0  0.00000000000E+00  0.00000000000E+00  0.44800427233E+03  0.83165728931E+03  0.70067540191E+03 0.  0.
        5    1    3    3  502    0 -0.34547639001E+02 -0.20422410779E+02 -0.18905146539E+03  0.19332139247E+03  0.46999998093E+01 0.  1.
       -5    1    3    3    0  502  0.34547639001E+02  0.20422410779E+02  0.63705573773E+03  0.63833589684E+03  0.46999998093E+01 0. -1.
</event>
<event>
 5   0  0.1222679E-03  0.6997195E+03  0.7818609E-02  0.9717712E-01
       -2   -1    0    0    0  501  0.00000000000E+00  0.00000000000E+00  0.10865602769E+03  0.10865602772E+03  0.25500000920E-02 0. -1.
        2   -1    0    0  501    0  0.00000000000E+00  0.00000000000E+00 -0.11265076878E+04  0.11265076878E+04  0.25500000920E-02 0.  1.
    10030    2    1    2    0    0  0.00000000000E+00  0.00000000000E+00 -0.10178516601E+04  0.12351637155E+04  0.69971951677E+03 0.  0.
        2    1    3    3  502    0  0.93457289646E+02  0.25445408817E+03 -0.89935915601E+03  0.93932318160E+03  0.25500000920E-02 0.  1.
       -2    1    3    3    0  502 -0.93457289646E+02 -0.25445408817E+03 -0.11849250408E+03  0.29584053391E+03  0.25500000920E-02 0. -1.
</event>
<event>
 5   0  0.1265562E-03  0.6993198E+03  0.7818609E-02  0.9718396E-01
        2   -1    0    0  501    0  0.00000000000E+00  0.00000000000E+00  0.52121710144E+03  0.52121710145E+03  0.25500000920E-02 0. -1.
       -2   -1    0    0    0  501  0.00000000000E+00  0.00000000000E+00 -0.23457028914E+03  0.23457028915E+03  0.25500000920E-02 0.  1.
    10030    2    1    2    0    0  0.00000000000E+00  0.00000000000E+00  0.28664681231E+03  0.75578739060E+03  0.69931980151E+03 0.  0.
        1    1    3    3  502    0 -0.16232084177E+03 -0.30865531325E+02  0.47636399341E+03  0.50420570301E+03  0.50400001928E-02 0. -1.
       -1    1    3    3    0  502  0.16232084177E+03  0.30865531325E+02 -0.18971718111E+03  0.25158168759E+03  0.50400001928E-02 0.  1.
</event>
<event>
 5   0  0.1282546E-03  0.7036217E+03  0.7818609E-02  0.9711058E-01
        2   -1    0    0  501    0  0.00000000000E+00  0.00000000000E+00  0.66701565213E+03  0.66701565213E+03  0.25500000920E-02 0. -1.
       -2   -1    0    0    0  501  0.00000000000E+00  0.00000000000E+00 -0.18555920081E+03  0.18555920083E+03  0.25500000920E-02 0.  1.
    10030    2    1    2    0    0  0.00000000000E+00  0.00000000000E+00  0.48145645131E+03  0.85257485296E+03  0.70362174880E+03 0.  0.
        5    1    3    3  502    0 -0.19456172667E+03 -0.86417227696E+02  0.58006033273E+03  0.61791122528E+03  0.46999998093E+01 0. -1.
       -5    1    3    3    0  502  0.19456172667E+03  0.86417227696E+02 -0.98603881411E+02  0.23466362768E+03  0.46999998093E+01 0.  1.
</event>
<event>
 5   0  0.7570633E-04  0.6997901E+03  0.7818609E-02  0.9717591E-01
        1   -1    0    0  501    0  0.00000000000E+00  0.00000000000E+00  0.12221940144E+03  0.12221940155E+03  0.50400001928E-02 0. -1.
       -1   -1    0    0    0  501  0.00000000000E+00  0.00000000000E+00 -0.10016949606E+04  0.10016949606E+04  0.50400001928E-02 0.  1.
    10030    2    1    2    0    0  0.00000000000E+00  0.00000000000E+00 -0.87947555915E+03  0.11239143622E+04  0.69979013591E+03 0.  0.
        5    1    3    3  502    0 -0.15696849658E+03  0.30564135052E+03 -0.54565006824E+03  0.64483473157E+03  0.46999998093E+01 0.  1.
       -5    1    3    3    0  502  0.15696849658E+03 -0.30564135052E+03 -0.33382549091E+03  0.47907963059E+03  0.46999998093E+01 0. -1.
</event>
<event>
 5   0  0.4936000E-04  0.6999973E+03  0.7818609E-02  0.9717237E-01
       -4   -1    0    0    0  501  0.00000000000E+00  0.00000000000E+00  0.44286607359E+03  0.44286789456E+03  0.12699999809E+01 0. -1.
        4   -1    0    0  501    0  0.00000000000E+00  0.00000000000E+00 -0.27660136905E+03  0.27660428460E+03  0.12699999809E+01 0.  1.
    10030    2    1    2    0    0  0.00000000000E+00  0.00000000000E+00  0.16626470454E+03  0.71947217917E+03  0.69999733187E+03 0.  0.
        4    1    3    3  502    0 -0.11981706583E+03  0.31322349673E+03 -0.19815972644E+02  0.33594549236E+03  0.12699999809E+01 0.  1.
       -4    1    3    3    0  502  0.11981706583E+03 -0.31322349673E+03  0.18608067718E+03  0.38352668680E+03  0.12699999809E+01 0. -1.
</event>
<event>
 5   0  0.1243087E-03  0.6998368E+03  0.7818609E-02  0.9717511E-01
       -2   -1    0    0    0  501  0.00000000000E+00  0.00000000000E+00  0.27363285997E+03  0.27363285998E+03  0.25500000920E-02 0.  1.
        2   -1    0    0  501    0  0.00000000000E+00  0.00000000000E+00 -0.44747138264E+03  0.44747138265E+03  0.25500000920E-02 0. -1.
    10030    2    1    2    0    0  0.00000000000E+00  0.00000000000E+00 -0.17383852268E+03  0.72110424263E+03  0.69983676437E+03 0.  0.
        4    1    3    3  502    0  0.10297008422E+03  0.95615832329E+02  0.24328155058E+03  0.28094973107E+03  0.12699999809E+01 0.  1.
       -4    1    3    3    0  502 -0.10297008422E+03 -0.95615832329E+02 -0.41712007325E+03  0.44015451156E+03  0.12699999809E+01 0. -1.
</event>
<event>
 5   0  0.1265562E-03  0.7005739E+03  0.7818609E-02  0.9716251E-01
       -2   -1    0    0    0  501  0.00000000000E+00  0.00000000000E+00  0.50132527125E+03  0.50132527126E+03  0.25500000920E-02 0.  1.
        2   -1    0    0  501    0  0.00000000000E+00  0.00000000000E+00 -0.24475319611E+03  0.24475319612E+03  0.25500000920E-02 0. -1.
    10030    2    1    2    0    0  0.00000000000E+00  0.00000000000E+00  0.25657207514E+03  0.74607846738E+03  0.70057394310E+03 0.  0.
        1    1    3    3  502    0 -0.26141654983E+03  0.27204417473E+02 -0.11831966859E+03  0.28823295588E+03  0.50400001928E-02 0. -1.
       -1    1    3    3    0  502  0.26141654983E+03 -0.27204417473E+02  0.37489174373E+03  0.45784551150E+03  0.50400001928E-02 0.  1.
</event>
<event>
 5   0  0.7572415E-04  0.6998839E+03  0.7818609E-02  0.9717431E-01
       -1   -1    0    0    0  501  0.00000000000E+00  0.00000000000E+00  0.33999344277E+03  0.33999344281E+03  0.50400001928E-02 0. -1.
        1   -1    0    0  501    0  0.00000000000E+00  0.00000000000E+00 -0.36018153154E+03  0.36018153158E+03  0.50400001928E-02 0.  1.
    10030    2    1    2    0    0  0.00000000000E+00  0.00000000000E+00 -0.20188088773E+02  0.70017497438E+03  0.69988387310E+03 0.  0.
        4    1    3    3  502    0  0.30450784882E+03  0.11078000092E+03 -0.14228721784E+03  0.35389900234E+03  0.12699999809E+01 0.  1.
       -4    1    3    3    0  502 -0.30450784882E+03 -0.11078000092E+03  0.12209912906E+03  0.34627597204E+03  0.12699999809E+01 0. -1.
</event>
<event>
 5   0  0.7570633E-04  0.7000879E+03  0.7818609E-02  0.9717082E-01
        1   -1    0    0  501    0  0.00000000000E+00  0.00000000000E+00  0.66642895100E+03  0.66642895102E+03  0.50400001928E-02 0. -1.
       -1   -1    0    0    0  501  0.00000000000E+00  0.00000000000E+00 -0.18386170219E+03  0.18386170226E+03  0.50400001928E-02 0.  1.
    10030    2    1    2    0    0  0.00000000000E+00  0.00000000000E+00  0.48256724880E+03  0.85029065328E+03  0.70008788408E+03 0.  0.
        5    1    3    3  502    0  0.12176691768E+03 -0.18220046224E+03  0.57275630509E+03  0.61326671661E+03  0.46999998093E+01 0. -1.
       -5    1    3    3    0  502 -0.12176691768E+03  0.18220046224E+03 -0.90189056283E+02  0.23702393667E+03  0.46999998093E+01 0.  1.
</event>
<event>
 5   0  0.1282546E-03  0.7001466E+03  0.7818609E-02  0.9716982E-01
        2   -1    0    0  501    0  0.00000000000E+00  0.00000000000E+00  0.12024779083E+03  0.12024779086E+03  0.25500000920E-02 0.  1.
       -2   -1    0    0    0  501  0.00000000000E+00  0.00000000000E+00 -0.10191564635E+04  0.10191564635E+04  0.25500000920E-02 0. -1.
    10030    2    1    2    0    0  0.00000000000E+00  0.00000000000E+00 -0.89890867263E+03  0.11394042543E+04  0.70014659397E+03 0.  0.
        5    1    3    3  502    0  0.27005161056E+03  0.11851895334E+03 -0.75631188214E+03  0.81179083989E+03  0.46999998093E+01 0. -1.
       -5    1    3    3    0  502 -0.27005161056E+03 -0.11851895334E+03 -0.14259679049E+03  0.32761341444E+03  0.46999998093E+01 0.  1.
</event>
<event>
 5   0  0.1282546E-03  0.7001762E+03  0.7818609E-02  0.9716931E-01
       -2   -1    0    0    0  501  0.00000000000E+00  0.00000000000E+00  0.18089576788E+03  0.18089576790E+03  0.25500000920E-02 0.  1.
        2   -1    0    0  501    0  0.00000000000E+00  0.00000000000E+00 -0.67752648662E+03  0.67752648663E+03  0.25500000920E-02 0. -1.
    10030    2    1    2    0    0  0.00000000000E+00  0.00000000000E+00 -0.49663071874E+03  0.85842225453E+03  0.70017618945E+03 0.  0.
        5    1    3    3  502    0  0.20256153944E+02 -0.23708027139E+03  0.66466381788E+02  0.24709762597E+03  0.46999998093E+01 0.  1.
       -5    1    3    3    0  502 -0.20256153944E+02  0.23708027139E+03 -0.56309710053E+03  0.61132462855E+03  0.46999998093E+01 0. -1.
</event>
<event>
 5   0  0.1282546E-03  0.7001112E+03  0.7818609E-02  0.9717042E-01
        2   -1    0    0  501    0  0.00000000000E+00  0.00000000000E+00  0.87068311910E+03  0.87068311910E+03  0.25500000920E-02 0.  1.
       -2   -1    0    0    0  501  0.00000000000E+00  0.00000000000E+00 -0.14073881901E+03  0.14073881903E+03  0.25500000920E-02 0. -1.
    10030    2    1    2    0    0  0.00000000000E+00  0.00000000000E+00  0.72994430009E+03  0.10114219381E+04  0.70011117381E+03 0.  0.
        5    1    3    3  502    0 -0.34196825445E+03 -0.59770724935E+02  0.42961151863E+03  0.55236127086E+03  0.46999998093E+01 0.  1.
       -5    1    3    3    0  502  0.34196825445E+03  0.59770724935E+02  0.30033278146E+03  0.45906066727E+03  0.46999998093E+01 0. -1.
</event>
<event>
 5   0  0.1243087E-03  0.6983992E+03  0.7818609E-02  0.9719974E-01
       -2   -1    0    0    0  501  0.00000000000E+00  0.00000000000E+00  0.14148865386E+03  0.14148865388E+03  0.25500000920E-02 0.  1.
        2   -1    0    0  501    0  0.00000000000E+00  0.00000000000E+00 -0.86183850188E+03  0.86183850188E+03  0.25500000920E-02 0. -1.
    10030    2    1    2    0    0  0.00000000000E+00  0.00000000000E+00 -0.72034984802E+03  0.10033271558E+04  0.69839922533E+03 0.  0.
        4    1    3    3  502    0 -0.95997940002E+02 -0.14877084385E+03 -0.79256914219E+03  0.81210579761E+03  0.12699999809E+01 0. -1.
       -4    1    3    3    0  502  0.95997940002E+02  0.14877084385E+03  0.72219294166E+02  0.19122135815E+03  0.12699999809E+01 0.  1.
</event>
<event>
 5   0  0.1243087E-03  0.7003523E+03  0.7818609E-02  0.9716630E-01
       -2   -1    0    0    0  501  0.00000000000E+00  0.00000000000E+00  0.81070677858E+02  0.81070677898E+02  0.25500000920E-02 0. -1.
        2   -1    0    0  501    0  0.00000000000E+00  0.00000000000E+00 -0.15125486494E+04  0.15125486494E+04  0.25500000920E-02 0.  1.
    10030    2    1    2    0    0  0.00000000000E+00  0.00000000000E+00 -0.14314779716E+04  0.15936193273E+04  0.70035232372E+03 0.  0.
        4    1    3    3  502    0 -0.24382009373E+03 -0.23368707042E+03 -0.92631187216E+03  0.98595800235E+03  0.12699999809E+01 0. -1.
       -4    1    3    3    0  502  0.24382009373E+03  0.23368707042E+03 -0.50516609940E+03  0.60766132497E+03  0.12699999809E+01 0.  1.
</event>
<event>
 5   0  0.7570633E-04  0.6990297E+03  0.7818609E-02  0.9718893E-01
        1   -1    0    0  501    0  0.00000000000E+00  0.00000000000E+00  0.11212524396E+04  0.11212524396E+04  0.50400001928E-02 0.  1.
       -1   -1    0    0    0  501  0.00000000000E+00  0.00000000000E+00 -0.10895016264E+03  0.10895016276E+03  0.50400001928E-02 0. -1.
    10030    2    1    2    0    0  0.00000000000E+00  0.00000000000E+00  0.10123022770E+04  0.12302026024E+04  0.69902971535E+03 0.  0.
        5    1    3    3  502    0 -0.13043968451E+03  0.93054932581E+02  0.10527459051E+04  0.10648801634E+04  0.46999998093E+01 0.  1.
       -5    1    3    3    0  502  0.13043968451E+03 -0.93054932581E+02 -0.40443628110E+02  0.16532243896E+03  0.46999998093E+01 0. -1.
</event>
<event>
 5   0  0.1224048E-03  0.7000856E+03  0.7818609E-02  0.9717086E-01
       -2   -1    0    0    0  501  0.00000000000E+00  0.00000000000E+00  0.86583349965E+02  0.86583350002E+02  0.25500000920E-02 0.  1.
        2   -1    0    0  501    0  0.00000000000E+00  0.00000000000E+00 -0.14151676723E+04  0.14151676723E+04  0.25500000920E-02 0. -1.
    10030    2    1    2    0    0  0.00000000000E+00  0.00000000000E+00 -0.13285843224E+04  0.15017510223E+04  0.70008558866E+03 0.  0.
        3    1    3    3  502    0  0.22676832673E+03 -0.14152476563E+03 -0.11490877951E+04  0.11797694284E+04  0.10100000352E+00 0. -1.
       -3    1    3    3    0  502 -0.22676832673E+03  0.14152476563E+03 -0.17949652730E+03  0.32198159390E+03  0.10100000352E+00 0.  1.
</event>
<event>
 5   0  0.1222679E-03  0.6990764E+03  0.7818609E-02  0.9718813E-01
       -2   -1    0    0    0  501  0.00000000000E+00  0.00000000000E+00  0.67137144676E+03  0.67137144677E+03  0.25500000920E-02 0. -1.
        2   -1    0    0  501    0  0.00000000000E+00  0.00000000000E+00 -0.18198115806E+03  0.18198115807E+03  0.25500000920E-02 0.  1.
    10030    2    1    2    0    0  0.00000000000E+00  0.00000000000E+00  0.48939028871E+03  0.85335260484E+03  0.69907640034E+03 0.  0.
        2    1    3    3  502    0  0.31789558719E+02 -0.20147796703E+03  0.59119149171E+03  0.62538894068E+03  0.25500000920E-02 0. -1.
       -2    1    3    3    0  502 -0.31789558719E+02  0.20147796703E+03 -0.10180120300E+03  0.22796366417E+03  0.25500000920E-02 0.  1.
</event>
<event>
 5   0  0.7013526E-04  0.6996744E+03  0.7818609E-02  0.9717789E-01
       -1   -1    0    0    0  501  0.00000000000E+00  0.00000000000E+00  0.19224232979E+03  0.19224232985E+03  0.50400001928E-02 0. -1.
        1   -1    0    0  501    0  0.00000000000E+00  0.00000000000E+00 -0.63662387347E+03  0.63662387349E+03  0.50400001928E-02 0.  1.
    10030    2    1    2    0    0  0.00000000000E+00  0.00000000000E+00 -0.44438154368E+03  0.82886620334E+03  0.69967437189E+03 0.  0.
        1    1    3    3  502    0 -0.21375543390E+03 -0.27356607542E+03 -0.17115091497E+03  0.38706901047E+03  0.50400001928E-02 0.  1.
       -1    1    3    3    0  502  0.21375543390E+03  0.27356607542E+03 -0.27323062871E+03  0.44179719288E+03  0.50400001928E-02 0. -1.
</event>
<event>
 5   0  0.1282546E-03  0.6997853E+03  0.7818609E-02  0.9717599E-01
        2   -1    0    0  501    0  0.00000000000E+00  0.00000000000E+00  0.22629824316E+04  0.22629824316E+04  0.25500000920E-02 0. -1.
       -2   -1    0    0    0  501  0.00000000000E+00  0.00000000000E+00 -0.54098909160E+02  0.54098909220E+02  0.25500000920E-02 0.  1.
    10030    2    1    2    0    0  0.00000000000E+00  0.00000000000E+00  0.22088835224E+04  0.23170813408E+04  0.69978534156E+03 0.  0.
        5    1    3    3  502    0 -0.26506075423E+02  0.22410922251E+02 -0.48278988940E+02  0.59647063982E+02  0.46999998093E+01 0.  1.
       -5    1    3    3    0  502  0.26506075423E+02 -0.22410922251E+02  0.22571625113E+04  0.22574342768E+04  0.46999998093E+01 0. -1.
</event>
<event>
 5   0  0.1222679E-03  0.6998534E+03  0.7818609E-02  0.9717483E-01
       -2   -1    0    0    0  501  0.00000000000E+00  0.00000000000E+00  0.11469095642E+03  0.11469095645E+03  0.25500000920E-02 0. -1.
        2   -1    0    0  501    0  0.00000000000E+00  0.00000000000E+00 -0.10676403121E+04  0.10676403121E+04  0.25500000920E-02 0.  1.
    10030    2    1    2    0    0  0.00000000000E+00  0.00000000000E+00 -0.95294935564E+03  0.11823312685E+04  0.69985338043E+03 0.  0.
        2    1    3    3  502    0  0.19658333635E+02  0.27412351928E+03 -0.84240999856E+03  0.88610651707E+03  0.25500000920E-02 0.  1.
       -2    1    3    3    0  502 -0.19658333635E+02 -0.27412351928E+03 -0.11053935707E+03  0.29622475145E+03  0.25500000920E-02 0. -1.
</event>
<event>
 5   0  0.7013526E-04  0.7001539E+03  0.7818609E-02  0.9716969E-01
        1   -1    0    0  501    0  0.00000000000E+00  0.00000000000E+00  0.48990059417E+03  0.48990059420E+03  0.50400001928E-02 0. -1.
       -1   -1    0    0    0  501  0.00000000000E+00  0.00000000000E+00 -0.25016068948E+03  0.25016068953E+03  0.50400001928E-02 0.  1.
    10030    2    1    2    0    0  0.00000000000E+00  0.00000000000E+00  0.23973990469E+03  0.74006128373E+03  0.70015389863E+03 0.  0.
        1    1    3    3  502    0  0.26963265306E+03  0.19780702695E+03  0.10408210661E+02  0.33457094671E+03  0.50400001928E-02 0.  1.
       -1    1    3    3    0  502 -0.26963265306E+03 -0.19780702695E+03  0.22933169403E+03  0.40549033702E+03  0.50400001928E-02 0. -1.
</event>
<event>
 5   0  0.1282546E-03  0.6999951E+03  0.7818609E-02  0.9717241E-01
        2   -1    0    0  501    0  0.00000000000E+00  0.00000000000E+00  0.12642838630E+04  0.12642838630E+04  0.25500000920E-02 0. -1.
       -2   -1    0    0    0  501  0.00000000000E+00  0.00000000000E+00 -0.96891436302E+02  0.96891436336E+02  0.25500000920E-02 0.  1.
    10030    2    1    2    0    0  0.00000000000E+00  0.00000000000E+00  0.11673924267E+04  0.13611752993E+04  0.69999508399E+03 0.  0.
        5    1    3    3  502    0  0.70157621147E+01  0.34840168921E+03  0.64650340921E+03  0.73445333826E+03  0.46999998093E+01 0. -1.
       -5    1    3    3    0  502 -0.70157621147E+01 -0.34840168921E+03  0.52088901747E+03  0.62672196107E+03  0.46999998093E+01 0.  1.
</event>
<event>
 5   0  0.4936000E-04  0.6995237E+03  0.7818609E-02  0.9718047E-01
        4   -1    0    0  501    0  0.00000000000E+00  0.00000000000E+00  0.12953963660E+04  0.12953969885E+04  0.12699999809E+01 0.  1.
       -4   -1    0    0    0  501  0.00000000000E+00  0.00000000000E+00 -0.94432088240E+02  0.94440627854E+02  0.12699999809E+01 0. -1.
    10030    2    1    2    0    0  0.00000000000E+00  0.00000000000E+00  0.12009642778E+04  0.13898376164E+04  0.69952369761E+03 0.  0.
        2    1    3    3  502    0  0.23103139684E+03 -0.10280319163E+03  0.10805785333E+04  0.11097720348E+04  0.25500000920E-02 0.  1.
       -2    1    3    3    0  502 -0.23103139684E+03  0.10280319163E+03  0.12038574445E+03  0.28006558162E+03  0.25500000920E-02 0. -1.
</event>
<event>
 5   0  0.1224048E-03  0.6998851E+03  0.7818609E-02  0.9717429E-01
        2   -1    0    0  501    0  0.00000000000E+00  0.00000000000E+00  0.21424159151E+04  0.21424159151E+04  0.25500000920E-02 0.  1.
       -2   -1    0    0    0  501  0.00000000000E+00  0.00000000000E+00 -0.57159671838E+02  0.57159671895E+02  0.25500000920E-02 0. -1.
    10030    2    1    2    0    0  0.00000000000E+00  0.00000000000E+00  0.20852562432E+04  0.21995755870E+04  0.69988510688E+03 0.  0.
        3    1    3    3  502    0 -0.35454540271E+02  0.82439833063E+02  0.21056381353E+04  0.21075496003E+04  0.10100000352E+00 0.  1.
       -3    1    3    3    0  502  0.35454540271E+02 -0.82439833063E+02 -0.20381892085E+02  0.92025986695E+02  0.10100000352E+00 0. -1.
</event>
<event>
 5   0  0.4936000E-04  0.7000216E+03  0.7818609E-02  0.9717195E-01
        4   -1    0    0  501    0  0.00000000000E+00  0.00000000000E+00  0.12820685566E+03  0.12821314573E+03  0.12699999809E+01 0.  1.
       -4   -1    0    0    0  501  0.00000000000E+00  0.00000000000E+00 -0.95551586196E+03  0.95551670596E+03  0.12699999809E+01 0. -1.
    10030    2    1    2    0    0  0.00000000000E+00  0.00000000000E+00 -0.82730900631E+03  0.10837298517E+04  0.70002157075E+03 0.  0.
        3    1    3    3  502    0  0.75032392462E+02 -0.22722304619E+03 -0.18204931822E+02  0.23998250432E+03  0.10100000352E+00 0.  1.
       -3    1    3    3    0  502 -0.75032392462E+02  0.22722304619E+03 -0.80910407448E+03  0.84374734736E+03  0.10100000352E+00 0. -1.
</event>
<event>
 5   0  0.7570633E-04  0.6998165E+03  0.7818609E-02  0.9717546E-01
        1   -1    0    0  501    0  0.00000000000E+00  0.00000000000E+00  0.42590620518E+03  0.42590620521E+03  0.50400001928E-02 0.  1.
       -1   -1    0    0    0  501  0.00000000000E+00  0.00000000000E+00 -0.28747122700E+03  0.28747122704E+03  0.50400001928E-02 0. -1.
    10030    2    1    2    0    0  0.00000000000E+00  0.00000000000E+00  0.13843497818E+03  0.71337743225E+03  0.69981648856E+03 0.  0.
        5    1    3    3  502    0  0.13120004209E+03 -0.32335768333E+03  0.43428095499E+02  0.35168413653E+03  0.46999998093E+01 0.  1.
       -5    1    3    3    0  502 -0.13120004209E+03  0.32335768333E+03  0.95006882676E+02  0.36169329572E+03  0.46999998093E+01 0. -1.
</event>
<event>
 5   0  0.1222679E-03  0.7005204E+03  0.7818609E-02  0.9716343E-01
       -2   -1    0    0    0  501  0.00000000000E+00  0.00000000000E+00  0.12584893433E+03  0.12584893435E+03  0.25500000920E-02 0. -1.
        2   -1    0    0  501    0  0.00000000000E+00  0.00000000000E+00 -0.97483705360E+03  0.97483705360E+03  0.25500000920E-02 0.  1.
    10030    2    1    2    0    0  0.00000000000E+00  0.00000000000E+00 -0.84898811927E+03  0.11006859880E+04  0.70052039043E+03 0.  0.
        2    1    3    3  502    0 -0.16610386027E+03  0.46567318286E+02 -0.90346010635E+03  0.91978213252E+03  0.25500000920E-02 0.  1.
       -2    1    3    3    0  502  0.16610386027E+03 -0.46567318286E+02  0.54471987075E+02  0.18090385544E+03  0.25500000920E-02 0. -1.
</event>
<event>
 5   0  0.1265562E-03  0.6997776E+03  0.7818609E-02  0.9717613E-01
        2   -1    0    0  501    0  0.00000000000E+00  0.00000000000E+00  0.13281690309E+04  0.13281690309E+04  0.25500000920E-02 0. -1.
       -2   -1    0    0    0  501  0.00000000000E+00  0.00000000000E+00 -0.92173641308E+02  0.92173641344E+02  0.25500000920E-02 0.  1.
    10030    2    1    2    0    0  0.00000000000E+00  0.00000000000E+00  0.12359953896E+04  0.14203426722E+04  0.69977761004E+03 0.  0.
        1    1    3    3  502    0  0.65997458276E+02  0.38054388198E+02 -0.75135319193E+02  0.10700054755E+03  0.50400001928E-02 0.  1.
       -1    1    3    3    0  502 -0.65997458276E+02 -0.38054388198E+02  0.13111307088E+04  0.13133421247E+04  0.50400001928E-02 0. -1.
</event>
<event>
 5   0  0.7459843E-04  0.6998030E+03  0.7818609E-02  0.9717569E-01
        1   -1    0    0  501    0  0.00000000000E+00  0.00000000000E+00  0.51197235212E+03  0.51197235214E+03  0.50400001928E-02 0. -1.
       -1   -1    0    0    0  501  0.00000000000E+00  0.00000000000E+00 -0.23913605095E+03  0.23913605101E+03  0.50400001928E-02 0.  1.
    10030    2    1    2    0    0  0.00000000000E+00  0.00000000000E+00  0.27283630117E+03  0.75110840315E+03  0.69980296231E+03 0.  0.
        2    1    3    3  502    0 -0.28756059351E+03  0.34800579820E+02  0.34709653872E+03  0.45208205284E+03  0.25500000920E-02 0. -1.
       -2    1    3    3    0  502  0.28756059351E+03 -0.34800579820E+02 -0.74260237558E+02  0.29902635032E+03  0.25500000920E-02 0.  1.
</event>
<event>
 5   0  0.7574241E-04  0.7007398E+03  0.7818609E-02  0.9715968E-01
       -1   -1    0    0    0  501  0.00000000000E+00  0.00000000000E+00  0.78380294948E+03  0.78380294949E+03  0.50400001928E-02 0. -1.
        1   -1    0    0  501    0  0.00000000000E+00  0.00000000000E+00 -0.15661981937E+03  0.15661981945E+03  0.50400001928E-02 0.  1.
    10030    2    1    2    0    0  0.00000000000E+00  0.00000000000E+00  0.62718313011E+03  0.94042276894E+03  0.70073982736E+03 0.  0.
        3    1    3    3  502    0 -0.19157312561E+01  0.67223900578E+02  0.77505981789E+03  0.77797201386E+03  0.10100000352E+00 0. -1.
       -3    1    3    3    0  502  0.19157312561E+01 -0.67223900578E+02 -0.14787668779E+03  0.16245075508E+03  0.10100000352E+00 0.  1.
</event>
<event>
 5   0  0.1222679E-03  0.6999542E+03  0.7818609E-02  0.9717311E-01
        2   -1    0    0  501    0  0.00000000000E+00  0.00000000000E+00  0.13028578417E+04  0.13028578417E+04  0.25500000920E-02 0.  1.
       -2   -1    0    0    0  501  0.00000000000E+00  0.00000000000E+00 -0.94011758493E+02  0.94011758528E+02  0.25500000920E-02 0. -1.
    10030    2    1    2    0    0  0.00000000000E+00  0.00000000000E+00  0.12088460832E+04  0.13968696002E+04  0.69995416076E+03 0.  0.
        2    1    3    3  502    0  0.30256374580E+03  0.70007135550E+02  0.92644925431E+03  0.97711516216E+03  0.25500000920E-02 0.  1.
       -2    1    3    3    0  502 -0.30256374580E+03 -0.70007135550E+02  0.28239682889E+03  0.41975443806E+03  0.25500000920E-02 0. -1.
</event>
<event>
 5   0  0.7013526E-04  0.6999379E+03  0.7818609E-02  0.9717338E-01
        1   -1    0    0  501    0  0.00000000000E+00  0.00000000000E+00  0.29770508520E+03  0.29770508525E+03  0.50400001928E-02 0. -1.
       -1   -1    0    0    0  501  0.00000000000E+00  0.00000000000E+00 -0.41140799288E+03  0.41140799291E+03  0.50400001928E-02 0.  1.
    10030    2    1    2    0    0  0.00000000000E+00  0.00000000000E+00 -0.11370290768E+03  0.70911307816E+03  0.69993785896E+03 0.  0.
        1    1    3    3  502    0 -0.31846488791E+03  0.14246268419E+02  0.89455639563E+02  0.33109689287E+03  0.50400001928E-02 0. -1.
       -1    1    3    3    0  502  0.31846488791E+03 -0.14246268419E+02 -0.20315854724E+03  0.37801618529E+03  0.50400001928E-02 0.  1.
</event>
<event>
 5   0  0.7013526E-04  0.6999469E+03  0.7818609E-02  0.9717323E-01
        1   -1    0    0  501    0  0.00000000000E+00  0.00000000000E+00  0.15581735222E+03  0.15581735230E+03  0.50400001928E-02 0. -1.
       -1   -1    0    0    0  501  0.00000000000E+00  0.00000000000E+00 -0.78605767292E+03  0.78605767293E+03  0.50400001928E-02 0.  1.
    10030    2    1    2    0    0  0.00000000000E+00  0.00000000000E+00 -0.63024032069E+03  0.94187502523E+03  0.69994692751E+03 0.  0.
        1    1    3    3  502    0 -0.33699508180E+03  0.23494663466E+02 -0.19205688891E+03  0.38859173045E+03  0.50400001928E-02 0. -1.
       -1    1    3    3    0  502  0.33699508180E+03 -0.23494663466E+02 -0.43818343178E+03  0.55328329478E+03  0.50400001928E-02 0.  1.
</event>
<event>
 5   0  0.7459843E-04  0.6999778E+03  0.7818609E-02  0.9717270E-01
        1   -1    0    0  501    0  0.00000000000E+00  0.00000000000E+00  0.41250830712E+03  0.41250830715E+03  0.50400001928E-02 0.  1.
       -1   -1    0    0    0  501  0.00000000000E+00  0.00000000000E+00 -0.29694489653E+03  0.29694489657E+03  0.50400001928E-02 0. -1.
    10030    2    1    2    0    0  0.00000000000E+00  0.00000000000E+00  0.11556341059E+03  0.70945320373E+03  0.69997781851E+03 0.  0.
        2    1    3    3  502    0 -0.17305896744E+03 -0.94533217194E+02  0.35084334928E+03  0.40246365191E+03  0.25500000920E-02 0.  1.
       -2    1    3    3    0  502  0.17305896744E+03  0.94533217194E+02 -0.23527993869E+03  0.30698955182E+03  0.25500000920E-02 0. -1.
</event>
<event>
 5   0  0.1243087E-03  0.7005241E+03  0.7818609E-02  0.9716336E-01
       -2   -1    0    0    0  501  0.00000000000E+00  0.00000000000E+00  0.21308189849E+03  0.21308189850E+03  0.25500000920E-02 0.  1.
        2   -1    0    0  501    0  0.00000000000E+00  0.00000000000E+00 -0.57575748749E+03  0.57575748749E+03  0.25500000920E-02 0. -1.
    10030    2    1    2    0    0  0.00000000000E+00  0.00000000000E+00 -0.36267558900E+03  0.78883938600E+03  0.70052408527E+03 0.  0.
        4    1    3    3  502    0  0.61410558779E+02  0.25476452778E+03 -0.44302661565E+03  0.51473334497E+03  0.12699999809E+01 0.  1.
       -4    1    3    3    0  502 -0.61410558779E+02 -0.25476452778E+03  0.80351026651E+02  0.27410604103E+03  0.12699999809E+01 0. -1.
</event>
<event>
 5   0  0.4936000E-04  0.6994986E+03  0.7818609E-02  0.9718090E-01
        4   -1    0    0  501    0  0.00000000000E+00  0.00000000000E+00  0.21096458689E+03  0.21096840953E+03  0.12699999809E+01 0. -1.
       -4   -1    0    0    0  501  0.00000000000E+00  0.00000000000E+00 -0.57982492262E+03  0.57982631347E+03  0.12699999809E+01 0.  1.
    10030    2    1    2    0    0  0.00000000000E+00  0.00000000000E+00 -0.36886033573E+03  0.79079472300E+03  0.69949863949E+03 0.  0.
        2    1    3    3  502    0 -0.47886654626E+02  0.74903718965E+02  0.19798010035E+03  0.21702492701E+03  0.25500000920E-02 0. -1.
       -2    1    3    3    0  502  0.47886654626E+02 -0.74903718965E+02 -0.56684043608E+03  0.57376979598E+03  0.25500000920E-02 0.  1.
</event>
<event>
 5   0  0.1243087E-03  0.6995349E+03  0.7818609E-02  0.9718028E-01
        2   -1    0    0  501    0  0.00000000000E+00  0.00000000000E+00  0.77304818779E+03  0.77304818780E+03  0.25500000920E-02 0.  1.
       -2   -1    0    0    0  501  0.00000000000E+00  0.00000000000E+00 -0.15825309170E+03  0.15825309172E+03  0.25500000920E-02 0. -1.
    10030    2    1    2    0    0  0.00000000000E+00  0.00000000000E+00  0.61479509610E+03  0.93130127952E+03  0.69953489051E+03 0.  0.
        4    1    3    3  502    0 -0.33829060680E+02 -0.24418552130E+03 -0.22931394981E+02  0.24758520944E+03  0.12699999809E+01 0. -1.
       -4    1    3    3    0  502  0.33829060680E+02  0.24418552130E+03  0.63772649108E+03  0.68371607008E+03  0.12699999809E+01 0.  1.
</event>
<event>
 5   0  0.1265562E-03  0.6999729E+03  0.7818609E-02  0.9717279E-01
       -2   -1    0    0    0  501  0.00000000000E+00  0.00000000000E+00  0.29767904395E+03  0.29767904397E+03  0.25500000920E-02 0. -1.
        2   -1    0    0  501    0  0.00000000000E+00  0.00000000000E+00 -0.41148513073E+03  0.41148513074E+03  0.25500000920E-02 0.  1.
    10030    2    1    2    0    0  0.00000000000E+00  0.00000000000E+00 -0.11380608678E+03  0.70916417470E+03  0.69997285754E+03 0.  0.
        1    1    3    3  502    0 -0.25851483289E+03  0.48325365844E+02  0.17705177785E+03  0.31703720898E+03  0.50400001928E-02 0. -1.
       -1    1    3    3    0  502  0.25851483289E+03 -0.48325365844E+02 -0.29085786463E+03  0.39212696573E+03  0.50400001928E-02 0.  1.
</event>
<event>
 5   0  0.1282546E-03  0.6998742E+03  0.7818609E-02  0.9717447E-01
        2   -1    0    0  501    0  0.00000000000E+00  0.00000000000E+00  0.11785086795E+04  0.11785086795E+04  0.25500000920E-02 0. -1.
       -2   -1    0    0    0  501  0.00000000000E+00  0.00000000000E+00 -0.10390757022E+03  0.10390757025E+03  0.25500000920E-02 0.  1.
    10030    2    1    2    0    0  0.00000000000E+00  0.00000000000E+00  0.10746011093E+04  0.12824162497E+04  0.69987419838E+03 0.  0.
        5    1    3    3  502    0  0.30829196186E+03  0.78402058915E+02  0.27023514809E+03  0.41742058149E+03  0.46999998093E+01 0.  1.
       -5    1    3    3    0  502 -0.30829196186E+03 -0.78402058915E+02  0.80436596119E+03  0.86499566826E+03  0.46999998093E+01 0. -1.
</event>
<event>
 5   0  0.1224048E-03  0.7005971E+03  0.7818609E-02  0.9716212E-01
        2   -1    0    0  501    0  0.00000000000E+00  0.00000000000E+00  0.57656553322E+03  0.57656553322E+03  0.25500000920E-02 0. -1.
       -2   -1    0    0    0  501  0.00000000000E+00  0.00000000000E+00 -0.21282760468E+03  0.21282760470E+03  0.25500000920E-02 0.  1.
    10030    2    1    2    0    0  0.00000000000E+00  0.00000000000E+00  0.36373792853E+03  0.78939313792E+03  0.70059706361E+03 0.  0.
        3    1    3    3  502    0  0.13007080076E+03  0.11772143786E+03 -0.15976347303E+03  0.23727858660E+03  0.10100000352E+00 0.  1.
       -3    1    3    3    0  502 -0.13007080076E+03 -0.11772143786E+03  0.52350140156E+03  0.55211455132E+03  0.10100000352E+00 0. -1.
</event>
<event>
 5   0  0.1243087E-03  0.7006526E+03  0.7818609E-02  0.9716117E-01
       -2   -1    0    0    0  501  0.00000000000E+00  0.00000000000E+00  0.40548411881E+03  0.40548411882E+03  0.25500000920E-02 0. -1.
        2   -1    0    0  501    0  0.00000000000E+00  0.00000000000E+00 -0.30267161507E+03  0.30267161508E+03  0.25500000920E-02 0.  1.
    10030    2    1    2    0    0  0.00000000000E+00  0.00000000000E+00  0.10281250374E+03  0.70815573389E+03  0.70065264755E+03 0.  0.
        4    1    3    3  502    0  0.19087449079E+03 -0.20997692754E+02  0.34755070968E+03  0.39707314570E+03  0.12699999809E+01 0. -1.
       -4    1    3    3    0  502 -0.19087449079E+03  0.20997692754E+02 -0.24473820594E+03  0.31108258820E+03  0.12699999809E+01 0.  1.
</event>
<event>
 5   0  0.7574241E-04  0.7038895E+03  0.7818609E-02  0.9710604E-01
        1   -1    0    0  501    0  0.00000000000E+00  0.00000000000E+00  0.73381203311E+03  0.73381203313E+03  0.50400001928E-02 0.  1.
       -1   -1    0    0    0  501  0.00000000000E+00  0.00000000000E+00 -0.16879679003E+03  0.16879679010E+03  0.50400001928E-02 0. -1.
    10030    2    1    2    0    0  0.00000000000E+00  0.00000000000E+00  0.56501524309E+03  0.90260882323E+03  0.70388952461E+03 0.  0.
        3    1    3    3  502    0  0.10343872581E+03  0.23079761148E+03 -0.31327270194E+02  0.25484998631E+03  0.10100000352E+00 0. -1.
       -3    1    3    3    0  502 -0.10343872581E+03 -0.23079761148E+03  0.59634251328E+03  0.64775883692E+03  0.10100000352E+00 0.  1.
</event>
<event>
 5   0  0.7459843E-04  0.7000144E+03  0.7818609E-02  0.9717208E-01
       -1   -1    0    0    0  501  0.00000000000E+00  0.00000000000E+00  0.12980026338E+03  0.12980026347E+03  0.50400001928E-02 0.  1.
        1   -1    0    0  501    0  0.00000000000E+00  0.00000000000E+00 -0.94379644501E+03  0.94379644503E+03  0.50400001928E-02 0. -1.
    10030    2    1    2    0    0  0.00000000000E+00  0.00000000000E+00 -0.81399618164E+03  0.10735967085E+04  0.70001436327E+03 0.  0.
        2    1    3    3  502    0  0.35300738428E+02  0.18944646575E+02 -0.94026832656E+03  0.94112144153E+03  0.25500000920E-02 0. -1.
       -2    1    3    3    0  502 -0.35300738428E+02 -0.18944646575E+02  0.12627214493E+03  0.13247526697E+03  0.25500000920E-02 0.  1.
</event>
<event>
 5   0  0.7574241E-04  0.6991565E+03  0.7818609E-02  0.9718676E-01
       -1   -1    0    0    0  501  0.00000000000E+00  0.00000000000E+00  0.17911989441E+03  0.17911989448E+03  0.50400001928E-02 0. -1.
        1   -1    0    0  501    0  0.00000000000E+00  0.00000000000E+00 -0.68225231070E+03  0.68225231072E+03  0.50400001928E-02 0.  1.
    10030    2    1    2    0    0  0.00000000000E+00  0.00000000000E+00 -0.50313241630E+03  0.86137220520E+03  0.69915652580E+03 0.  0.
        3    1    3    3  502    0 -0.33046969529E+03  0.55390476324E+02 -0.37431501992E+03  0.50238438343E+03  0.10100000352E+00 0.  1.
       -3    1    3    3    0  502  0.33046969529E+03 -0.55390476324E+02 -0.12881739638E+03  0.35898782177E+03  0.10100000352E+00 0. -1.
</event>
<event>
 5   0  0.1243087E-03  0.7000752E+03  0.7818609E-02  0.9717104E-01
       -2   -1    0    0    0  501  0.00000000000E+00  0.00000000000E+00  0.70438653810E+03  0.70438653811E+03  0.25500000920E-02 0.  1.
        2   -1    0    0  501    0  0.00000000000E+00  0.00000000000E+00 -0.17394758461E+03  0.17394758463E+03  0.25500000920E-02 0. -1.
    10030    2    1    2    0    0  0.00000000000E+00  0.00000000000E+00  0.53043895349E+03  0.87833412274E+03  0.70007524438E+03 0.  0.
        4    1    3    3  502    0  0.36360240575E+02 -0.68633181432E+02 -0.16299697889E+03  0.18056081722E+03  0.12699999809E+01 0. -1.
       -4    1    3    3    0  502 -0.36360240575E+02  0.68633181432E+02  0.69343593238E+03  0.69777330552E+03  0.12699999809E+01 0.  1.
</event>
<event>
 5   0  0.7013526E-04  0.7000721E+03  0.7818609E-02  0.9717109E-01
        1   -1    0    0  501    0  0.00000000000E+00  0.00000000000E+00  0.28242904150E+03  0.28242904154E+03  0.50400001928E-02 0.  1.
       -1   -1    0    0    0  501  0.00000000000E+00  0.00000000000E+00 -0.43382661326E+03  0.43382661329E+03  0.50400001928E-02 0. -1.
    10030    2    1    2    0    0  0.00000000000E+00  0.00000000000E+00 -0.15139757176E+03  0.71625565483E+03  0.70007209510E+03 0.  0.
        1    1    3    3  502    0  0.15013291168E+03  0.42396340521E+02  0.24489438620E+03  0.29036287862E+03  0.50400001928E-02 0.  1.
       -1    1    3    3    0  502 -0.15013291168E+03 -0.42396340521E+02 -0.39629195797E+03  0.42589277622E+03  0.50400001928E-02 0. -1.
</event>
<event>
 5   0  0.7570633E-04  0.6997370E+03  0.7818609E-02  0.9717682E-01
       -1   -1    0    0    0  501  0.00000000000E+00  0.00000000000E+00  0.57807531667E+03  0.57807531669E+03  0.50400001928E-02 0.  1.
        1   -1    0    0  501    0  0.00000000000E+00  0.00000000000E+00 -0.21175090777E+03  0.21175090783E+03  0.50400001928E-02 0. -1.
    10030    2    1    2    0    0  0.00000000000E+00  0.00000000000E+00  0.36632440890E+03  0.78982622451E+03  0.69973701658E+03 0.  0.
        5    1    3    3  502    0  0.24501570274E+03  0.24957666925E+03  0.19223965362E+03  0.39912326773E+03  0.46999998093E+01 0. -1.
       -5    1    3    3    0  502 -0.24501570274E+03 -0.24957666925E+03  0.17408475528E+03  0.39070295678E+03  0.46999998093E+01 0.  1.
</event>
<event>
 5   0  0.7013526E-04  0.6998895E+03  0.7818609E-02  0.9717421E-01
       -1   -1    0    0    0  501  0.00000000000E+00  0.00000000000E+00  0.24485871481E+03  0.24485871487E+03  0.50400001928E-02 0.  1.
        1   -1    0    0  501    0  0.00000000000E+00  0.00000000000E+00 -0.50013053360E+03  0.50013053363E+03  0.50400001928E-02 0. -1.
    10030    2    1    2    0    0  0.00000000000E+00  0.00000000000E+00 -0.25527181879E+03  0.74498924849E+03  0.69988947620E+03 0.  0.
        1    1    3    3  502    0  0.13505134386E+03  0.45477403516E+02  0.21257542852E+03  0.25592063720E+03  0.50400001928E-02 0.  1.
       -1    1    3    3    0  502 -0.13505134386E+03 -0.45477403516E+02 -0.46784724731E+03  0.48906861129E+03  0.50400001928E-02 0. -1.
</event>
<event>
 5   0  0.7459843E-04  0.7000323E+03  0.7818609E-02  0.9717177E-01
       -1   -1    0    0    0  501  0.00000000000E+00  0.00000000000E+00  0.44565317117E+03  0.44565317120E+03  0.50400001928E-02 0. -1.
        1   -1    0    0  501    0  0.00000000000E+00  0.00000000000E+00 -0.27490283967E+03  0.27490283972E+03  0.50400001928E-02 0.  1.
    10030    2    1    2    0    0  0.00000000000E+00  0.00000000000E+00  0.17075033150E+03  0.72055601092E+03  0.70003234865E+03 0.  0.
        2    1    3    3  502    0  0.60479418120E+02 -0.20811097403E+03 -0.19753454583E+03  0.29323682295E+03  0.25500000920E-02 0.  1.
       -2    1    3    3    0  502 -0.60479418120E+02  0.20811097403E+03  0.36828487733E+03  0.42731918797E+03  0.25500000920E-02 0. -1.
</event>
<event>
 5   0  0.1282546E-03  0.6998201E+03  0.7818609E-02  0.9717540E-01
       -2   -1    0    0    0  501  0.00000000000E+00  0.00000000000E+00  0.64106366015E+03  0.64106366016E+03  0.25500000920E-02 0.  1.
        2   -1    0    0  501    0  0.00000000000E+00  0.00000000000E+00 -0.19099043322E+03  0.19099043323E+03  0.25500000920E-02 0. -1.
    10030    2    1    2    0    0  0.00000000000E+00  0.00000000000E+00  0.45007322694E+03  0.83205409339E+03  0.69982005167E+03 0.  0.
        5    1    3    3  502    0 -0.34484208765E+03 -0.46240282083E+02  0.18117874696E+03  0.39230352720E+03  0.46999998093E+01 0. -1.
       -5    1    3    3    0  502  0.34484208765E+03  0.46240282083E+02  0.26889447997E+03  0.43975056619E+03  0.46999998093E+01 0.  1.
</event>
<event>
 5   0  0.1243087E-03  0.7004037E+03  0.7818609E-02  0.9716542E-01
        2   -1    0    0  501    0  0.00000000000E+00  0.00000000000E+00  0.49925108956E+03  0.49925108957E+03  0.25500000920E-02 0. -1.
       -2   -1    0    0    0  501  0.00000000000E+00  0.00000000000E+00 -0.24565059334E+03  0.24565059335E+03  0.25500000920E-02 0.  1.
    10030    2    1    2    0    0  0.00000000000E+00  0.00000000000E+00  0.25360049623E+03  0.74490168292E+03  0.70040367327E+03 0.  0.
        4    1    3    3  502    0 -0.13713722731E+03 -0.31801264548E+03  0.71526745293E+02  0.35363307253E+03  0.12699999809E+01 0.  1.
       -4    1    3    3    0  502  0.13713722731E+03  0.31801264548E+03  0.18207375093E+03  0.39126861039E+03  0.12699999809E+01 0. -1.
</event>
<event>
 5   0  0.7574241E-04  0.6982054E+03  0.7818609E-02  0.9720306E-01
       -1   -1    0    0    0  501  0.00000000000E+00  0.00000000000E+00  0.96491311323E+03  0.96491311324E+03  0.50400001928E-02 0. -1.
        1   -1    0    0  501    0  0.00000000000E+00  0.00000000000E+00 -0.12630432451E+03  0.12630432461E+03  0.50400001928E-02 0.  1.
    10030    2    1    2    0    0  0.00000000000E+00  0.00000000000E+00  0.83860878872E+03  0.10912174379E+04  0.69820541116E+03 0.  0.
        3    1    3    3  502    0  0.67166377884E+02 -0.29555249982E+03  0.14855860583E+03  0.33753854896E+03  0.10100000352E+00 0.  1.
       -3    1    3    3    0  502 -0.67166377884E+02  0.29555249982E+03  0.69005018289E+03  0.75367888890E+03  0.10100000352E+00 0. -1.
</event>
<event>
 5   0  0.7459843E-04  0.6998425E+03  0.7818609E-02  0.9717502E-01
       -1   -1    0    0    0  501  0.00000000000E+00  0.00000000000E+00  0.21118329250E+03  0.21118329256E+03  0.50400001928E-02 0.  1.
        1   -1    0    0  501    0  0.00000000000E+00  0.00000000000E+00 -0.57980389386E+03  0.57980389389E+03  0.50400001928E-02 0. -1.
    10030    2    1    2    0    0  0.00000000000E+00  0.00000000000E+00 -0.36862060136E+03  0.79098718645E+03  0.69984254042E+03 0.  0.
        2    1    3    3  502    0  0.63171275922E+02 -0.63249115850E+02 -0.56668071723E+03  0.57368815226E+03  0.25500000920E-02 0. -1.
       -2    1    3    3    0  502 -0.63171275922E+02  0.63249115850E+02  0.19806011587E+03  0.21729903419E+03  0.25500000920E-02 0.  1.
</event>
<event>
 5   0  0.1243087E-03  0.7000733E+03  0.7818609E-02  0.9717107E-01
       -2   -1    0    0    0  501  0.00000000000E+00  0.00000000000E+00  0.22315926989E+03  0.22315926991E+03  0.25500000920E-02 0.  1.
        2   -1    0    0  501    0  0.00000000000E+00  0.00000000000E+00 -0.54905028286E+03  0.54905028287E+03  0.25500000920E-02 0. -1.
    10030    2    1    2    0    0  0.00000000000E+00  0.00000000000E+00 -0.32589101296E+03  0.77220955278E+03  0.70007331121E+03 0.  0.
        4    1    3    3  502    0 -0.11504630992E+03 -0.62690080762E+02  0.19509002154E+03  0.23500516815E+03  0.12699999809E+01 0.  1.
       -4    1    3    3    0  502  0.11504630992E+03  0.62690080762E+02 -0.52098103450E+03  0.53720438463E+03  0.12699999809E+01 0. -1.
</event>
<event>
 5   0  0.7013526E-04  0.7000659E+03  0.7818609E-02  0.9717119E-01
       -1   -1    0    0    0  501  0.00000000000E+00  0.00000000000E+00  0.17547539190E+03  0.17547539197E+03  0.50400001928E-02 0. -1.
        1   -1    0    0  501    0  0.00000000000E+00  0.00000000000E+00 -0.69823509099E+03  0.69823509101E+03  0.50400001928E-02 0.  1.
    10030    2    1    2    0    0  0.00000000000E+00  0.00000000000E+00 -0.52275969910E+03  0.87371048298E+03  0.70006592909E+03 0.  0.
        1    1    3    3  502    0  0.21574659730E+03 -0.14117962554E+03 -0.55683818611E+03  0.61363429373E+03  0.50400001928E-02 0.  1.
       -1    1    3    3    0  502 -0.21574659730E+03  0.14117962554E+03  0.34078487009E+02  0.26007618925E+03  0.50400001928E-02 0. -1.
</event>
<event>
 5   0  0.1265562E-03  0.7001113E+03  0.7818609E-02  0.9717042E-01
        2   -1    0    0  501    0  0.00000000000E+00  0.00000000000E+00  0.43000591150E+03  0.43000591150E+03  0.25500000920E-02 0. -1.
       -2   -1    0    0    0  501  0.00000000000E+00  0.00000000000E+00 -0.28497039771E+03  0.28497039772E+03  0.25500000920E-02 0.  1.
    10030    2    1    2    0    0  0.00000000000E+00  0.00000000000E+00  0.14503551379E+03  0.71497630922E+03  0.70011129293E+03 0.  0.
        1    1    3    3  502    0 -0.19921359233E+03 -0.56865118311E+02 -0.21564220176E+03  0.29903387142E+03  0.50400001928E-02 0.  1.
       -1    1    3    3    0  502  0.19921359233E+03  0.56865118311E+02  0.36067771555E+03  0.41594243781E+03  0.50400001928E-02 0. -1.
</event>
<event>
 5   0  0.7572415E-04  0.6999120E+03  0.7818609E-02  0.9717383E-01
        1   -1    0    0  501    0  0.00000000000E+00  0.00000000000E+00  0.44691207626E+03  0.44691207628E+03  0.50400001928E-02 0. -1.
       -1   -1    0    0    0  501  0.00000000000E+00  0.00000000000E+00 -0.27403418419E+03  0.27403418424E+03  0.50400001928E-02 0.  1.
    10030    2    1    2    0    0  0.00000000000E+00  0.00000000000E+00  0.17287789206E+03  0.72094626052E+03  0.69991195517E+03 0.  0.
        4    1    3    3  502    0 -0.30214502939E+03 -0.12365665879E+03  0.21626231960E+03  0.39160387105E+03  0.12699999809E+01 0. -1.
       -4    1    3    3    0  502  0.30214502939E+03  0.12365665879E+03 -0.43384427533E+02  0.32934238947E+03  0.12699999809E+01 0.  1.
</event>
<event>
 5   0  0.7013526E-04  0.7000766E+03  0.7818609E-02  0.9717101E-01
        1   -1    0    0  501    0  0.00000000000E+00  0.00000000000E+00  0.79869209669E+03  0.79869209670E+03  0.50400001928E-02 0.  1.
       -1   -1    0    0    0  501  0.00000000000E+00  0.00000000000E+00 -0.15340933056E+03  0.15340933065E+03  0.50400001928E-02 0. -1.
    10030    2    1    2    0    0  0.00000000000E+00  0.00000000000E+00  0.64528276612E+03  0.95210142735E+03  0.70007662417E+03 0.  0.
        1    1    3    3  502    0 -0.43933002991E+02 -0.21774014287E+03  0.69055975196E+03  0.72540585165E+03  0.50400001928E-02 0.  1.
       -1    1    3    3    0  502  0.43933002991E+02  0.21774014287E+03 -0.45276985831E+02  0.22669557570E+03  0.50400001928E-02 0. -1.
</event>
<event>
 5   0  0.1224048E-03  0.6998752E+03  0.7818609E-02  0.9717446E-01
        2   -1    0    0  501    0  0.00000000000E+00  0.00000000000E+00  0.10037795826E+04  0.10037795826E+04  0.25500000920E-02 0. -1.
       -2   -1    0    0    0  501  0.00000000000E+00  0.00000000000E+00 -0.12199521921E+03  0.12199521924E+03  0.25500000920E-02 0.  1.
    10030    2    1    2    0    0  0.00000000000E+00  0.00000000000E+00  0.88178436336E+03  0.11257748018E+04  0.69987516097E+03 0.  0.
        3    1    3    3  502    0 -0.18991931758E+03 -0.12794181964E+03  0.86652519820E+03  0.89627249524E+03  0.10100000352E+00 0. -1.
       -3    1    3    3    0  502  0.18991931758E+03  0.12794181964E+03  0.15259165161E+02  0.22950230658E+03  0.10100000352E+00 0.  1.
</event>
<event>
 5   0  0.7570633E-04  0.6997044E+03  0.7818609E-02  0.9717738E-01
       -1   -1    0    0    0  501  0.00000000000E+00  0.00000000000E+00  0.12773060697E+03  0.12773060707E+03  0.50400001928E-02 0.  1.
        1   -1    0    0  501    0  0.00000000000E+00  0.00000000000E+00 -0.95823994388E+03  0.95823994389E+03  0.50400001928E-02 0. -1.
    10030    2    1    2    0    0  0.00000000000E+00  0.00000000000E+00 -0.83050933690E+03  0.10859705510E+04  0.69970442250E+03 0.  0.
        5    1    3    3  502    0 -0.88995541643E+02  0.25090406528E+03 -0.63035453128E+02  0.27362129807E+03  0.46999998093E+01 0.  1.
       -5    1    3    3    0  502  0.88995541643E+02 -0.25090406528E+03 -0.76747388378E+03  0.81234925290E+03  0.46999998093E+01 0. -1.
</event>
<event>
 5   0  0.1224048E-03  0.7001261E+03  0.7818609E-02  0.9717017E-01
       -2   -1    0    0    0  501  0.00000000000E+00  0.00000000000E+00  0.73753966366E+02  0.73753966410E+02  0.25500000920E-02 0.  1.
        2   -1    0    0  501    0  0.00000000000E+00  0.00000000000E+00 -0.16615261685E+04  0.16615261685E+04  0.25500000920E-02 0. -1.
    10030    2    1    2    0    0  0.00000000000E+00  0.00000000000E+00 -0.15877722021E+04  0.17352801349E+04  0.70012611774E+03 0.  0.
        3    1    3    3  502    0  0.25599117781E+03  0.22974026032E+03 -0.95512486605E+03  0.10151726899E+04  0.10100000352E+00 0. -1.
       -3    1    3    3    0  502 -0.25599117781E+03 -0.22974026032E+03 -0.63264733604E+03  0.72010744499E+03  0.10100000352E+00 0.  1.
</event>
<event>
 5   0  0.1243087E-03  0.7003065E+03  0.7818609E-02  0.9716708E-01
       -2   -1    0    0    0  501  0.00000000000E+00  0.00000000000E+00  0.13993247418E+03  0.13993247421E+03  0.25500000920E-02 0.  1.
        2   -1    0    0  501    0  0.00000000000E+00  0.00000000000E+00 -0.87618906875E+03  0.87618906876E+03  0.25500000920E-02 0. -1.
    10030    2    1    2    0    0  0.00000000000E+00  0.00000000000E+00 -0.73625659457E+03  0.10161215430E+04  0.70030651648E+03 0.  0.
        4    1    3    3  502    0  0.32298448025E+02  0.14967254252E+00 -0.87401966143E+03  0.87461716975E+03  0.12699999809E+01 0. -1.
       -4    1    3    3    0  502 -0.32298448025E+02 -0.14967254252E+00  0.13776306687E+03  0.14150437321E+03  0.12699999809E+01 0.  1.
</event>
<event>
 5   0  0.1224048E-03  0.6997794E+03  0.7818609E-02  0.9717610E-01
        2   -1    0    0  501    0  0.00000000000E+00  0.00000000000E+00  0.58444642139E+03  0.58444642139E+03  0.25500000920E-02 0. -1.
       -2   -1    0    0    0  501  0.00000000000E+00  0.00000000000E+00 -0.20946796692E+03  0.20946796694E+03  0.25500000920E-02 0.  1.
    10030    2    1    2    0    0  0.00000000000E+00  0.00000000000E+00  0.37497845446E+03  0.79391438833E+03  0.69977940430E+03 0.  0.
        3    1    3    3  502    0  0.30177351286E+03  0.13179629228E+03  0.53321499525E+02  0.33358763201E+03  0.10100000352E+00 0.  1.
       -3    1    3    3    0  502 -0.30177351286E+03 -0.13179629228E+03  0.32165695494E+03  0.46032675632E+03  0.10100000352E+00 0. -1.
</event>
<event>
 5   0  0.1265562E-03  0.6999800E+03  0.7818609E-02  0.9717266E-01
       -2   -1    0    0    0  501  0.00000000000E+00  0.00000000000E+00  0.73105406842E+02  0.73105406887E+02  0.25500000920E-02 0.  1.
        2   -1    0    0  501    0  0.00000000000E+00  0.00000000000E+00 -0.16755669273E+04  0.16755669273E+04  0.25500000920E-02 0. -1.
    10030    2    1    2    0    0  0.00000000000E+00  0.00000000000E+00 -0.16024615205E+04  0.17486723342E+04  0.69998000530E+03 0.  0.
        1    1    3    3  502    0  0.42928666563E+02 -0.37912810207E+02 -0.16637805194E+04  0.16647660101E+04  0.50400001928E-02 0. -1.
       -1    1    3    3    0  502 -0.42928666563E+02  0.37912810207E+02  0.61318998861E+02  0.83906324180E+02  0.50400001928E-02 0.  1.
</event>
<event>
 5   0  0.7459843E-04  0.7000798E+03  0.7818609E-02  0.9717096E-01
       -1   -1    0    0    0  501  0.00000000000E+00  0.00000000000E+00  0.37378424618E+03  0.37378424621E+03  0.50400001928E-02 0. -1.
        1   -1    0    0  501    0  0.00000000000E+00  0.00000000000E+00 -0.32780387922E+03  0.32780387926E+03  0.50400001928E-02 0.  1.
    10030    2    1    2    0    0  0.00000000000E+00  0.00000000000E+00  0.45980366959E+02  0.70158812547E+03  0.70007978378E+03 0.  0.
        2    1    3    3  502    0 -0.15252368466E+02  0.22357612925E+03 -0.24649251513E+03  0.33313282686E+03  0.25500000920E-02 0.  1.
       -2    1    3    3    0  502  0.15252368466E+02 -0.22357612925E+03  0.29247288208E+03  0.36845529861E+03  0.25500000920E-02 0. -1.
</event>
<event>
 5   0  0.7572415E-04  0.7001455E+03  0.7818609E-02  0.9716983E-01
       -1   -1    0    0    0  501  0.00000000000E+00  0.00000000000E+00  0.10656801928E+03  0.10656801940E+03  0.50400001928E-02 0.  1.
        1   -1    0    0  501    0  0.00000000000E+00  0.00000000000E+00 -0.11499785561E+04  0.11499785561E+04  0.50400001928E-02 0. -1.
    10030    2    1    2    0    0  0.00000000000E+00  0.00000000000E+00 -0.10434105368E+04  0.12565465755E+04  0.70014551921E+03 0.  0.
        4    1    3    3  502    0  0.31433954861E+03 -0.55431371269E+02 -0.77971288126E+03  0.84251752435E+03  0.12699999809E+01 0. -1.
       -4    1    3    3    0  502 -0.31433954861E+03  0.55431371269E+02 -0.26369765551E+03  0.41402905111E+03  0.12699999809E+01 0.  1.
</event>
<event>
 5   0  0.1282546E-03  0.7002797E+03  0.7818609E-02  0.9716754E-01
        2   -1    0    0  501    0  0.00000000000E+00  0.00000000000E+00  0.17397392900E+04  0.17397392900E+04  0.25500000920E-02 0. -1.
       -2   -1    0    0    0  501  0.00000000000E+00  0.00000000000E+00 -0.70469138597E+02  0.70469138644E+02  0.25500000920E-02 0.  1.
    10030    2    1    2    0    0  0.00000000000E+00  0.00000000000E+00  0.16692701514E+04  0.18102084287E+04  0.70027974181E+03 0.  0.
        5    1    3    3  502    0 -0.32991485022E+02 -0.34516357950E+03  0.95993337046E+03  0.10206470989E+04  0.46999998093E+01 0.  1.
       -5    1    3    3    0  502  0.32991485022E+02  0.34516357950E+03  0.70933678097E+03  0.78956132981E+03  0.46999998093E+01 0. -1.
</event>
<event>
 5   0  0.7013526E-04  0.6997151E+03  0.7818609E-02  0.9717720E-01
       -1   -1    0    0    0  501  0.00000000000E+00  0.00000000000E+00  0.13095397373E+03  0.13095397382E+03  0.50400001928E-02 0.  1.
        1   -1    0    0  501    0  0.00000000000E+00  0.00000000000E+00 -0.93468175012E+03  0.93468175013E+03  0.50400001928E-02 0. -1.
    10030    2    1    2    0    0  0.00000000000E+00  0.00000000000E+00 -0.80372777639E+03  0.10656357240E+04  0.69971505460E+03 0.  0.
        1    1    3    3  502    0  0.10039264003E+03 -0.20245507636E+03  0.48925819320E+01  0.22603247001E+03  0.50400001928E-02 0.  1.
       -1    1    3    3    0  502 -0.10039264003E+03  0.20245507636E+03 -0.80862035833E+03  0.83960325395E+03  0.50400001928E-02 0. -1.
</event>
<event>
 5   0  0.4936000E-04  0.6998836E+03  0.7818609E-02  0.9717431E-01
       -3   -1    0    0    0  501  0.00000000000E+00  0.00000000000E+00  0.20836058668E+03  0.20836061116E+03  0.10100000352E+00 0.  1.
        3   -1    0    0  501    0  0.00000000000E+00  0.00000000000E+00 -0.58772746803E+03  0.58772747671E+03  0.10100000352E+00 0. -1.
    10030    2    1    2    0    0  0.00000000000E+00  0.00000000000E+00 -0.37936688135E+03  0.79608808787E+03  0.69988357102E+03 0.  0.
        5    1    3    3  502    0  0.17126206770E+03 -0.29602211229E+02  0.15575593995E+03  0.23342876766E+03  0.46999998093E+01 0.  1.
       -5    1    3    3    0  502 -0.17126206770E+03  0.29602211229E+02 -0.53512282131E+03  0.56265932021E+03  0.46999998093E+01 0. -1.
</event>
<event>
 5   0  0.7572415E-04  0.6996970E+03  0.7818609E-02  0.9717750E-01
        1   -1    0    0  501    0  0.00000000000E+00  0.00000000000E+00  0.55613345189E+03  0.55613345191E+03  0.50400001928E-02 0.  1.
       -1   -1    0    0    0  501  0.00000000000E+00  0.00000000000E+00 -0.22008024969E+03  0.22008024975E+03  0.50400001928E-02 0. -1.
    10030    2    1    2    0    0  0.00000000000E+00  0.00000000000E+00  0.33605320219E+03  0.77621370166E+03  0.69969704583E+03 0.  0.
        4    1    3    3  502    0 -0.39328022103E+02  0.20396691926E+03  0.48031238049E+03  0.52330755128E+03  0.12699999809E+01 0.  1.
       -4    1    3    3    0  502  0.39328022103E+02 -0.20396691926E+03 -0.14425917830E+03  0.25290615038E+03  0.12699999809E+01 0. -1.
</event>
<event>
 5   0  0.7570633E-04  0.6999251E+03  0.7818609E-02  0.9717360E-01
       -1   -1    0    0    0  501  0.00000000000E+00  0.00000000000E+00  0.14409116601E+03  0.14409116610E+03  0.50400001928E-02 0.  1.
        1   -1    0    0  501    0  0.00000000000E+00  0.00000000000E+00 -0.84997416883E+03  0.84997416884E+03  0.50400001928E-02 0. -1.
    10030    2    1    2    0    0  0.00000000000E+00  0.00000000000E+00 -0.70588300282E+03  0.99406533494E+03  0.69992505061E+03 0.  0.
        5    1    3    3  502    0  0.24855338903E+03 -0.20001618077E+03 -0.14876958237E+03  0.35205076111E+03  0.46999998093E+01 0.  1.
       -5    1    3    3    0  502 -0.24855338903E+03  0.20001618077E+03 -0.55711342045E+03  0.64201457383E+03  0.46999998093E+01 0. -1.
</event>
<event>
 5   0  0.1243087E-03  0.7000624E+03  0.7818609E-02  0.9717126E-01
        2   -1    0    0  501    0  0.00000000000E+00  0.00000000000E+00  0.22264387603E+03  0.22264387604E+03  0.25500000920E-02 0.  1.
       -2   -1    0    0    0  501  0.00000000000E+00  0.00000000000E+00 -0.55030409264E+03  0.55030409265E+03  0.25500000920E-02 0. -1.
    10030    2    1    2    0    0  0.00000000000E+00  0.00000000000E+00 -0.32766021661E+03  0.77294796869E+03  0.70006238633E+03 0.  0.
        4    1    3    3  502    0 -0.28158131652E+03 -0.20765216517E+03 -0.17555471599E+03  0.39144416041E+03  0.12699999809E+01 0.  1.
       -4    1    3    3    0  502  0.28158131652E+03  0.20765216517E+03 -0.15210550062E+03  0.38150380828E+03  0.12699999809E+01 0. -1.
</event>
<event>
 5   0  0.7013526E-04  0.6999834E+03  0.7818609E-02  0.9717261E-01
       -1   -1    0    0    0  501  0.00000000000E+00  0.00000000000E+00  0.15407830694E+03  0.15407830703E+03  0.50400001928E-02 0.  1.
        1   -1    0    0  501    0  0.00000000000E+00  0.00000000000E+00 -0.79501251341E+03  0.79501251342E+03  0.50400001928E-02 0. -1.
    10030    2    1    2    0    0  0.00000000000E+00  0.00000000000E+00 -0.64093420646E+03  0.94909082045E+03  0.69998337727E+03 0.  0.
        1    1    3    3  502    0 -0.10023379447E+03  0.64843053562E+02 -0.76655398161E+03  0.77579407183E+03  0.50400001928E-02 0. -1.
       -1    1    3    3    0  502  0.10023379447E+03 -0.64843053562E+02  0.12561977514E+03  0.17329674862E+03  0.50400001928E-02 0.  1.
</event>
<event>
 5   0  0.1222679E-03  0.6998994E+03  0.7818609E-02  0.9717404E-01
       -2   -1    0    0    0  501  0.00000000000E+00  0.00000000000E+00  0.42993367447E+03  0.42993367448E+03  0.25500000920E-02 0. -1.
        2   -1    0    0  501    0  0.00000000000E+00  0.00000000000E+00 -0.28484581608E+03  0.28484581609E+03  0.25500000920E-02 0.  1.
    10030    2    1    2    0    0  0.00000000000E+00  0.00000000000E+00  0.14508785839E+03  0.71477949057E+03  0.69989944527E+03 0.  0.
        2    1    3    3  502    0  0.11975495311E+03 -0.10044802146E+03  0.39230401461E+03  0.42229550518E+03  0.25500000920E-02 0. -1.
       -2    1    3    3    0  502 -0.11975495311E+03  0.10044802146E+03 -0.24721615622E+03  0.29248398539E+03  0.25500000920E-02 0.  1.
</event>
<event>
 5   0  0.1282546E-03  0.7000067E+03  0.7818609E-02  0.9717221E-01
       -2   -1    0    0    0  501  0.00000000000E+00  0.00000000000E+00  0.68021241968E+02  0.68021242016E+02  0.25500000920E-02 0.  1.
        2   -1    0    0  501    0  0.00000000000E+00  0.00000000000E+00 -0.18009427297E+04  0.18009427297E+04  0.25500000920E-02 0. -1.
    10030    2    1    2    0    0  0.00000000000E+00  0.00000000000E+00 -0.17329214878E+04  0.18689639718E+04  0.70000674636E+03 0.  0.
        5    1    3    3  502    0  0.10561888793E+03  0.27906195543E+03 -0.13547672654E+04  0.13872445198E+04  0.46999998093E+01 0. -1.
       -5    1    3    3    0  502 -0.10561888793E+03 -0.27906195543E+03 -0.37815422241E+03  0.48171945195E+03  0.46999998093E+01 0.  1.
</event>
<event>
 5   0  0.7574241E-04  0.6999467E+03  0.7818609E-02  0.9717323E-01
        1   -1    0    0  501    0  0.00000000000E+00  0.00000000000E+00  0.22973992468E+04  0.22973992468E+04  0.50400001928E-02 0. -1.
       -1   -1    0    0    0  501  0.00000000000E+00  0.00000000000E+00 -0.53313038639E+02  0.53313038877E+02  0.50400001928E-02 0.  1.
    10030    2    1    2    0    0  0.00000000000E+00  0.00000000000E+00  0.22440862082E+04  0.23507122857E+04  0.69994666969E+03 0.  0.
        3    1    3    3  502    0 -0.22864512009E+03 -0.24877979302E+03  0.81586771873E+03  0.88306858229E+03  0.10100000352E+00 0.  1.
       -3    1    3    3    0  502  0.22864512009E+03  0.24877979302E+03  0.14282184895E+04  0.14676437034E+04  0.10100000352E+00 0. -1.
</event>
<event>
 5   0  0.4936000E-04  0.7000273E+03  0.7818609E-02  0.9717186E-01
       -3   -1    0    0    0  501  0.00000000000E+00  0.00000000000E+00  0.10536990744E+04  0.10536990792E+04  0.10100000352E+00 0. -1.
        3   -1    0    0  501    0  0.00000000000E+00  0.00000000000E+00 -0.11626614238E+03  0.11626618625E+03  0.10100000352E+00 0.  1.
    10030    2    1    2    0    0  0.00000000000E+00  0.00000000000E+00  0.93743293199E+03  0.11699652655E+04  0.70002729976E+03 0.  0.
        4    1    3    3  502    0 -0.14798830390E+03  0.29157608696E+03  0.26003107516E+03  0.41777377314E+03  0.12699999809E+01 0.  1.
       -4    1    3    3    0  502  0.14798830390E+03 -0.29157608696E+03  0.67740185683E+03  0.75219149232E+03  0.12699999809E+01 0. -1.
</event>
<event>
 5   0  0.7570633E-04  0.6999597E+03  0.7818609E-02  0.9717301E-01
        1   -1    0    0  501    0  0.00000000000E+00  0.00000000000E+00  0.10842101418E+04  0.10842101418E+04  0.50400001928E-02 0. -1.
       -1   -1    0    0    0  501  0.00000000000E+00  0.00000000000E+00 -0.11297245639E+03  0.11297245650E+03  0.50400001928E-02 0.  1.
    10030    2    1    2    0    0  0.00000000000E+00  0.00000000000E+00  0.97123768545E+03  0.11971825984E+04  0.69995966467E+03 0.  0.
        5    1    3    3  502    0  0.14720218819E+03 -0.31726831247E+03  0.46566350436E+03  0.58240214251E+03  0.46999998093E+01 0.  1.
       -5    1    3    3    0  502 -0.14720218819E+03  0.31726831247E+03  0.50557418108E+03  0.61478045584E+03  0.46999998093E+01 0. -1.
</event>
<event>
 5   0  0.1222679E-03  0.6993595E+03  0.7818609E-02  0.9718328E-01
        2   -1    0    0  501    0  0.00000000000E+00  0.00000000000E+00  0.51203209433E+03  0.51203209433E+03  0.25500000920E-02 0. -1.
       -2   -1    0    0    0  501  0.00000000000E+00  0.00000000000E+00 -0.23880518046E+03  0.23880518047E+03  0.25500000920E-02 0.  1.
    10030    2    1    2    0    0  0.00000000000E+00  0.00000000000E+00  0.27322691387E+03  0.75083727480E+03  0.69935946892E+03 0.  0.
        2    1    3    3  502    0 -0.33895589985E+03 -0.16205720262E+02  0.22721844779E+03  0.40838945926E+03  0.25500000920E-02 0. -1.
       -2    1    3    3    0  502  0.33895589985E+03  0.16205720262E+02  0.46008466073E+02  0.34244781554E+03  0.25500000920E-02 0.  1.
</event>
<event>
 5   0  0.7572415E-04  0.6976082E+03  0.7818609E-02  0.9721331E-01
       -1   -1    0    0    0  501  0.00000000000E+00  0.00000000000E+00  0.13937599688E+03  0.13937599697E+03  0.50400001928E-02 0. -1.
        1   -1    0    0  501    0  0.00000000000E+00  0.00000000000E+00 -0.87292156258E+03  0.87292156260E+03  0.50400001928E-02 0.  1.
    10030    2    1    2    0    0  0.00000000000E+00  0.00000000000E+00 -0.73354556570E+03  0.10122975596E+04  0.69760823688E+03 0.  0.
        4    1    3    3  502    0 -0.85856507643E+02  0.32496306413E+03 -0.50204719439E+03  0.60417326261E+03  0.12699999809E+01 0. -1.
       -4    1    3    3    0  502  0.85856507643E+02 -0.32496306413E+03 -0.23149837131E+03  0.40812429696E+03  0.12699999809E+01 0.  1.
</event>
<event>
 5   0  0.1224048E-03  0.6999916E+03  0.7818609E-02  0.9717247E-01
        2   -1    0    0  501    0  0.00000000000E+00  0.00000000000E+00  0.56740436604E+03  0.56740436604E+03  0.25500000920E-02 0.  1.
       -2   -1    0    0    0  501  0.00000000000E+00  0.00000000000E+00 -0.21589023547E+03  0.21589023549E+03  0.25500000920E-02 0. -1.
    10030    2    1    2    0    0  0.00000000000E+00  0.00000000000E+00  0.35151413056E+03  0.78329460153E+03  0.69999160624E+03 0.  0.
        3    1    3    3  502    0 -0.33394769687E+03  0.32254347829E+02  0.64217145019E+02  0.34159224100E+03  0.10100000352E+00 0. -1.
       -3    1    3    3    0  502  0.33394769687E+03 -0.32254347829E+02  0.28729698554E+03  0.44170236053E+03  0.10100000352E+00 0.  1.
</event>
<event>
 5   0  0.1282546E-03  0.6971680E+03  0.7818609E-02  0.9722088E-01
       -2   -1    0    0    0  501  0.00000000000E+00  0.00000000000E+00  0.88222384789E+02  0.88222384826E+02  0.25500000920E-02 0. -1.
        2   -1    0    0  501    0  0.00000000000E+00  0.00000000000E+00 -0.13773240555E+04  0.13773240555E+04  0.25500000920E-02 0.  1.
    10030    2    1    2    0    0  0.00000000000E+00  0.00000000000E+00 -0.12891016708E+04  0.14655464404E+04  0.69716802232E+03 0.  0.
        5    1    3    3  502    0 -0.19639265116E+03  0.45152828690E+02 -0.12423872332E+04  0.12586329801E+04  0.46999998093E+01 0.  1.
       -5    1    3    3    0  502  0.19639265116E+03 -0.45152828690E+02 -0.46714437546E+02  0.20691346027E+03  0.46999998093E+01 0. -1.
</event>
<event>
 5   0  0.1265562E-03  0.7002842E+03  0.7818609E-02  0.9716746E-01
        2   -1    0    0  501    0  0.00000000000E+00  0.00000000000E+00  0.11123288023E+04  0.11123288023E+04  0.25500000920E-02 0.  1.
       -2   -1    0    0    0  501  0.00000000000E+00  0.00000000000E+00 -0.11021874718E+03  0.11021874721E+03  0.25500000920E-02 0. -1.
    10030    2    1    2    0    0  0.00000000000E+00  0.00000000000E+00  0.10021100551E+04  0.12225475495E+04  0.70028419106E+03 0.  0.
        1    1    3    3  502    0  0.64071542936E+02  0.19917759424E+03  0.99119130035E+03  0.10130335980E+04  0.50400001928E-02 0.  1.
       -1    1    3    3    0  502 -0.64071542936E+02 -0.19917759424E+03  0.10918754754E+02  0.20951395155E+03  0.50400001928E-02 0. -1.
</event>
<event>
 5   0  0.7572415E-04  0.6999329E+03  0.7818609E-02  0.9717347E-01
       -1   -1    0    0    0  501  0.00000000000E+00  0.00000000000E+00  0.78464191628E+02  0.78464191790E+02  0.50400001928E-02 0. -1.
        1   -1    0    0  501    0  0.00000000000E+00  0.00000000000E+00 -0.15609224283E+04  0.15609224283E+04  0.50400001928E-02 0.  1.
    10030    2    1    2    0    0  0.00000000000E+00  0.00000000000E+00 -0.14824582367E+04  0.16393866201E+04  0.69993290156E+03 0.  0.
        4    1    3    3  502    0  0.67315489348E+02  0.32391572118E+03 -0.47394936525E+03  0.57799860143E+03  0.12699999809E+01 0. -1.
       -4    1    3    3    0  502 -0.67315489348E+02 -0.32391572118E+03 -0.10085088714E+04  0.10613880187E+04  0.12699999809E+01 0.  1.
</event>
<event>
 5   0  0.1265562E-03  0.6998345E+03  0.7818609E-02  0.9717515E-01
        2   -1    0    0  501    0  0.00000000000E+00  0.00000000000E+00  0.16072570151E+04  0.16072570151E+04  0.25500000920E-02 0.  1.
       -2   -1    0    0    0  501  0.00000000000E+00  0.00000000000E+00 -0.76180773278E+02  0.76180773321E+02  0.25500000920E-02 0. -1.
    10030    2    1    2    0    0  0.00000000000E+00  0.00000000000E+00  0.15310762418E+04  0.16834377884E+04  0.69983450130E+03 0.  0.
        1    1    3    3  502    0  0.14638778427E+03 -0.30310467540E+03  0.99551324934E+03  0.10508798491E+04  0.50400001928E-02 0.  1.
       -1    1    3    3    0  502 -0.14638778427E+03  0.30310467540E+03  0.53556299243E+03  0.63255793926E+03  0.50400001928E-02 0. -1.
</event>
<event>
 5   0  0.7572415E-04  0.6992477E+03  0.7818609E-02  0.9718520E-01
        1   -1    0    0  501    0  0.00000000000E+00  0.00000000000E+00  0.21328889550E+04  0.21328889550E+04  0.50400001928E-02 0.  1.
       -1   -1    0    0    0  501  0.00000000000E+00  0.00000000000E+00 -0.57310456838E+02  0.57310457060E+02  0.50400001928E-02 0. -1.
    10030    2    1    2    0    0  0.00000000000E+00  0.00000000000E+00  0.20755784982E+04  0.21901994121E+04  0.69924771189E+03 0.  0.
        4    1    3    3  502    0  0.79640513396E+02 -0.31970451823E+03  0.67141778316E+03  0.74790176012E+03  0.12699999809E+01 0. -1.
       -4    1    3    3    0  502 -0.79640513396E+02  0.31970451823E+03  0.14041607150E+04  0.14422976519E+04  0.12699999809E+01 0.  1.
</event>
<event>
 5   0  0.1243087E-03  0.7008573E+03  0.7818609E-02  0.9715767E-01
       -2   -1    0    0    0  501  0.00000000000E+00  0.00000000000E+00  0.10314248891E+03  0.10314248894E+03  0.25500000920E-02 0. -1.
        2   -1    0    0  501    0  0.00000000000E+00  0.00000000000E+00 -0.11905882755E+04  0.11905882755E+04  0.25500000920E-02 0.  1.
    10030    2    1    2    0    0  0.00000000000E+00  0.00000000000E+00 -0.10874457866E+04  0.12937307644E+04  0.70085729795E+03 0.  0.
        4    1    3    3  502    0 -0.20791355322E+03  0.27111283875E+03 -0.39992527330E+03  0.52599624911E+03  0.12699999809E+01 0.  1.
       -4    1    3    3    0  502  0.20791355322E+03 -0.27111283875E+03 -0.68752051326E+03  0.76773451531E+03  0.12699999809E+01 0. -1.
</event>
<event>
 5   0  0.7013526E-04  0.6998698E+03  0.7818609E-02  0.9717455E-01
        1   -1    0    0  501    0  0.00000000000E+00  0.00000000000E+00  0.76504393430E+03  0.76504393431E+03  0.50400001928E-02 0. -1.
       -1   -1    0    0    0  501  0.00000000000E+00  0.00000000000E+00 -0.16006195168E+03  0.16006195176E+03  0.50400001928E-02 0.  1.
    10030    2    1    2    0    0  0.00000000000E+00  0.00000000000E+00  0.60498198261E+03  0.92510588607E+03  0.69986977443E+03 0.  0.
        1    1    3    3  502    0 -0.24122010128E+03 -0.11504948727E+02  0.63724169536E+03  0.68146641842E+03  0.50400001928E-02 0. -1.
       -1    1    3    3    0  502  0.24122010128E+03  0.11504948727E+02 -0.32259712747E+02  0.24363946765E+03  0.50400001928E-02 0.  1.
</event>
<event>
 5   0  0.1282546E-03  0.6987806E+03  0.7818609E-02  0.9719320E-01
       -2   -1    0    0    0  501  0.00000000000E+00  0.00000000000E+00  0.38026811567E+03  0.38026811568E+03  0.25500000920E-02 0.  1.
        2   -1    0    0  501    0  0.00000000000E+00  0.00000000000E+00 -0.32101980894E+03  0.32101980895E+03  0.25500000920E-02 0. -1.
    10030    2    1    2    0    0  0.00000000000E+00  0.00000000000E+00  0.59248306731E+02  0.70128792462E+03  0.69878064611E+03 0.  0.
        5    1    3    3  502    0 -0.49972810868E+00  0.21473613437E+03 -0.24693611666E+03  0.32727876931E+03  0.46999998093E+01 0. -1.
       -5    1    3    3    0  502  0.49972810868E+00 -0.21473613437E+03  0.30618442339E+03  0.37400915531E+03  0.46999998093E+01 0.  1.
</event>
<event>
 5   0  0.1282546E-03  0.6989206E+03  0.7818609E-02  0.9719080E-01
       -2   -1    0    0    0  501  0.00000000000E+00  0.00000000000E+00  0.13205646267E+03  0.13205646269E+03  0.25500000920E-02 0. -1.
        2   -1    0    0  501    0  0.00000000000E+00  0.00000000000E+00 -0.92477501045E+03  0.92477501045E+03  0.25500000920E-02 0.  1.
    10030    2    1    2    0    0  0.00000000000E+00  0.00000000000E+00 -0.79271854778E+03  0.10568314731E+04  0.69892064402E+03 0.  0.
        5    1    3    3  502    0  0.26003020186E+03 -0.21487981589E+03 -0.25850679396E+03  0.42501399233E+03  0.46999998093E+01 0. -1.
       -5    1    3    3    0  502 -0.26003020186E+03  0.21487981589E+03 -0.53421175382E+03  0.63181748082E+03  0.46999998093E+01 0.  1.
</event>
<event>
 5   0  0.1222679E-03  0.6998221E+03  0.7818609E-02  0.9717536E-01
       -2   -1    0    0    0  501  0.00000000000E+00  0.00000000000E+00  0.18924050578E+03  0.18924050579E+03  0.25500000920E-02 0.  1.
        2   -1    0    0  501    0  0.00000000000E+00  0.00000000000E+00 -0.64699546068E+03  0.64699546069E+03  0.25500000920E-02 0. -1.
    10030    2    1    2    0    0  0.00000000000E+00  0.00000000000E+00 -0.45775495491E+03  0.83623596648E+03  0.69982211518E+03 0.  0.
        2    1    3    3  502    0  0.27166533689E+03 -0.21494143217E+03 -0.16990239430E+03  0.38583506597E+03  0.25500000920E-02 0. -1.
       -2    1    3    3    0  502 -0.27166533689E+03  0.21494143217E+03 -0.28785256061E+03  0.45040090052E+03  0.25500000920E-02 0.  1.
</event>
<event>
 5   0  0.1222679E-03  0.7002339E+03  0.7818609E-02  0.9716832E-01
       -2   -1    0    0    0  501  0.00000000000E+00  0.00000000000E+00  0.80406172708E+02  0.80406172749E+02  0.25500000920E-02 0.  1.
        2   -1    0    0  501    0  0.00000000000E+00  0.00000000000E+00 -0.15245332285E+04  0.15245332285E+04  0.25500000920E-02 0. -1.
    10030    2    1    2    0    0  0.00000000000E+00  0.00000000000E+00 -0.14441270558E+04  0.16049394013E+04  0.70023390979E+03 0.  0.
        2    1    3    3  502    0 -0.23274967638E+03  0.47939247815E+02 -0.13113864660E+04  0.13327434286E+04  0.25500000920E-02 0. -1.
       -2    1    3    3    0  502  0.23274967638E+03 -0.47939247815E+02 -0.13274058983E+03  0.27219597266E+03  0.25500000920E-02 0.  1.
</event>
<event>
 5   0  0.1265562E-03  0.7000004E+03  0.7818609E-02  0.9717232E-01
        2   -1    0    0  501    0  0.00000000000E+00  0.00000000000E+00  0.54269360533E+03  0.54269360533E+03  0.25500000920E-02 0. -1.
       -2   -1    0    0    0  501  0.00000000000E+00  0.00000000000E+00 -0.22572614211E+03  0.22572614213E+03  0.25500000920E-02 0.  1.
    10030    2    1    2    0    0  0.00000000000E+00  0.00000000000E+00  0.31696746321E+03  0.76841974746E+03  0.70000038254E+03 0.  0.
        1    1    3    3  502    0 -0.57880790388E+02  0.23514617262E+03 -0.11891333343E+03  0.26978563581E+03  0.50400001928E-02 0.  1.
       -1    1    3    3    0  502  0.57880790388E+02 -0.23514617262E+03  0.43588079665E+03  0.49863411165E+03  0.50400001928E-02 0. -1.
</event>
<event>
 5   0  0.7574241E-04  0.6999725E+03  0.7818609E-02  0.9717279E-01
       -1   -1    0    0    0  501  0.00000000000E+00  0.00000000000E+00  0.24483652035E+03  0.24483652040E+03  0.50400001928E-02 0. -1.
        1   -1    0    0  501    0  0.00000000000E+00  0.00000000000E+00 -0.50029455007E+03  0.50029455010E+03  0.50400001928E-02 0.  1.
    10030    2    1    2    0    0  0.00000000000E+00  0.00000000000E+00 -0.25545802972E+03  0.74513107050E+03  0.69997250466E+03 0.  0.
        3    1    3    3  502    0 -0.15646540345E+03 -0.63934220007E+02  0.19850848298E+03  0.26071945646E+03  0.10100000352E+00 0. -1.
       -3    1    3    3    0  502  0.15646540345E+03  0.63934220007E+02 -0.45396651270E+03  0.48441161404E+03  0.10100000352E+00 0.  1.
</event>
<event>
 5   0  0.7574241E-04  0.6979520E+03  0.7818609E-02  0.9720741E-01
       -1   -1    0    0    0  501  0.00000000000E+00  0.00000000000E+00  0.22144610512E+03  0.22144610517E+03  0.50400001928E-02 0.  1.
        1   -1    0    0  501    0  0.00000000000E+00  0.00000000000E+00 -0.54994976352E+03  0.54994976354E+03  0.50400001928E-02 0. -1.
    10030    2    1    2    0    0  0.00000000000E+00  0.00000000000E+00 -0.32850365840E+03  0.77139586871E+03  0.69795195586E+03 0.  0.
        3    1    3    3  502    0  0.32987474553E+03 -0.11240103405E+03 -0.18441679273E+03  0.39428530766E+03  0.10100000352E+00 0.  1.
       -3    1    3    3    0  502 -0.32987474553E+03  0.11240103405E+03 -0.14408686567E+03  0.37711056105E+03  0.10100000352E+00 0. -1.
</event>
<event>
 5   0  0.4936000E-04  0.7002181E+03  0.7818609E-02  0.9716859E-01
       -3   -1    0    0    0  501  0.00000000000E+00  0.00000000000E+00  0.11611830032E+03  0.11611834425E+03  0.10100000352E+00 0.  1.
        3   -1    0    0  501    0  0.00000000000E+00  0.00000000000E+00 -0.10556157904E+04  0.10556157953E+04  0.10100000352E+00 0. -1.
    10030    2    1    2    0    0  0.00000000000E+00  0.00000000000E+00 -0.93949749012E+03  0.11717341395E+04  0.70021808016E+03 0.  0.
        2    1    3    3  502    0 -0.12012120570E+02  0.23905388916E+03 -0.42182489910E+02  0.24304406066E+03  0.25500000920E-02 0.  1.
       -2    1    3    3    0  502  0.12012120570E+02 -0.23905388916E+03 -0.89731500021E+03  0.92869007886E+03  0.25500000920E-02 0. -1.
</event>
<event>
 5   0  0.1224048E-03  0.6998483E+03  0.7818609E-02  0.9717492E-01
        2   -1    0    0  501    0  0.00000000000E+00  0.00000000000E+00  0.71367659813E+03  0.71367659814E+03  0.25500000920E-02 0. -1.
       -2   -1    0    0    0  501  0.00000000000E+00  0.00000000000E+00 -0.17157200737E+03  0.17157200739E+03  0.25500000920E-02 0.  1.
    10030    2    1    2    0    0  0.00000000000E+00  0.00000000000E+00  0.54210459076E+03  0.88524860552E+03  0.69984834518E+03 0.  0.
        3    1    3    3  502    0  0.12828064894E+03 -0.30852227367E+03  0.40253652287E+03  0.52314202727E+03  0.10100000352E+00 0. -1.
       -3    1    3    3    0  502 -0.12828064894E+03  0.30852227367E+03  0.13956806789E+03  0.36210657826E+03  0.10100000352E+00 0.  1.
</event>
<event>
 5   0  0.7013526E-04  0.7002588E+03  0.7818609E-02  0.9716790E-01
       -1   -1    0    0    0  501  0.00000000000E+00  0.00000000000E+00  0.98150814774E+02  0.98150814903E+02  0.50400001928E-02 0. -1.
        1   -1    0    0  501    0  0.00000000000E+00  0.00000000000E+00 -0.12490023378E+04  0.12490023378E+04  0.50400001928E-02 0.  1.
    10030    2    1    2    0    0  0.00000000000E+00  0.00000000000E+00 -0.11508515230E+04  0.13471531527E+04  0.70025880131E+03 0.  0.
        1    1    3    3  502    0  0.23136724356E+03  0.10779540296E+03 -0.11435730590E+03  0.27969312421E+03  0.50400001928E-02 0. -1.
       -1    1    3    3    0  502 -0.23136724356E+03 -0.10779540296E+03 -0.10364942171E+04  0.10674600285E+04  0.50400001928E-02 0.  1.
</event>
<event>
 5   0  0.1222679E-03  0.7000233E+03  0.7818609E-02  0.9717192E-01
       -2   -1    0    0    0  501  0.00000000000E+00  0.00000000000E+00  0.32758276726E+03  0.32758276727E+03  0.25500000920E-02 0. -1.
        2   -1    0    0  501    0  0.00000000000E+00  0.00000000000E+00 -0.37397621254E+03  0.37397621255E+03  0.25500000920E-02 0.  1.
    10030    2    1    2    0    0  0.00000000000E+00  0.00000000000E+00 -0.46393445280E+02  0.70155897981E+03  0.70002332132E+03 0.  0.
        2    1    3    3  502    0  0.19158976632E+03  0.41566781657E+02  0.26739405582E+03  0.33156299098E+03  0.25500000920E-02 0. -1.
       -2    1    3    3    0  502 -0.19158976632E+03 -0.41566781657E+02 -0.31378750110E+03  0.36999598883E+03  0.25500000920E-02 0.  1.
</event>
<event>
 5   0  0.7572415E-04  0.7001019E+03  0.7818609E-02  0.9717058E-01
        1   -1    0    0  501    0  0.00000000000E+00  0.00000000000E+00  0.95701601593E+03  0.95701601595E+03  0.50400001928E-02 0. -1.
       -1   -1    0    0    0  501  0.00000000000E+00  0.00000000000E+00 -0.12803929461E+03  0.12803929471E+03  0.50400001928E-02 0.  1.
    10030    2    1    2    0    0  0.00000000000E+00  0.00000000000E+00  0.82897672133E+03  0.10850553107E+04  0.70010186592E+03 0.  0.
        4    1    3    3  502    0 -0.21060767549E+03  0.17800346300E+03  0.74867219691E+03  0.79784240120E+03  0.12699999809E+01 0. -1.
       -4    1    3    3    0  502  0.21060767549E+03 -0.17800346300E+03  0.80304524413E+02  0.28721290945E+03  0.12699999809E+01 0.  1.
</event>
<event>
 5   0  0.7013526E-04  0.6975188E+03  0.7818609E-02  0.9721485E-01
        1   -1    0    0  501    0  0.00000000000E+00  0.00000000000E+00  0.64619879196E+03  0.64619879198E+03  0.50400001928E-02 0.  1.
       -1   -1    0    0    0  501  0.00000000000E+00  0.00000000000E+00 -0.18822863908E+03  0.18822863915E+03  0.50400001928E-02 0. -1.
    10030    2    1    2    0    0  0.00000000000E+00  0.00000000000E+00  0.45797015288E+03  0.83442743113E+03  0.69751880038E+03 0.  0.
        1    1    3    3  502    0  0.18399322724E+02 -0.27897524920E+03 -0.20425266261E+02  0.28032644590E+03  0.50400001928E-02 0. -1.
       -1    1    3    3    0  502 -0.18399322724E+02  0.27897524920E+03  0.47839541914E+03  0.55410098522E+03  0.50400001928E-02 0.  1.
</event>
<event>
 5   0  0.7459843E-04  0.6997356E+03  0.7818609E-02  0.9717684E-01
       -1   -1    0    0    0  501  0.00000000000E+00  0.00000000000E+00  0.21795847274E+03  0.21795847279E+03  0.50400001928E-02 0. -1.
        1   -1    0    0  501    0  0.00000000000E+00  0.00000000000E+00 -0.56160915737E+03  0.56160915739E+03  0.50400001928E-02 0.  1.
    10030    2    1    2    0    0  0.00000000000E+00  0.00000000000E+00 -0.34365068463E+03  0.77956763019E+03  0.69973559077E+03 0.  0.
        2    1    3    3  502    0 -0.21247244406E+03 -0.25516080567E+03 -0.48992823572E+02  0.33563651917E+03  0.25500000920E-02 0.  1.
       -2    1    3    3    0  502  0.21247244406E+03  0.25516080567E+03 -0.29465786106E+03  0.44393111101E+03  0.25500000920E-02 0. -1.
</event>
<event>
 5   0  0.7574241E-04  0.6999973E+03  0.7818609E-02  0.9717237E-01
        1   -1    0    0  501    0  0.00000000000E+00  0.00000000000E+00  0.60827896676E+03  0.60827896678E+03  0.50400001928E-02 0. -1.
       -1   -1    0    0    0  501  0.00000000000E+00  0.00000000000E+00 -0.20138630023E+03  0.20138630030E+03  0.50400001928E-02 0.  1.
    10030    2    1    2    0    0  0.00000000000E+00  0.00000000000E+00  0.40689266653E+03  0.80966526707E+03  0.69999728759E+03 0.  0.
        3    1    3    3  502    0 -0.21382978203E+03 -0.14956127659E+03 -0.66351027339E+02  0.26924750726E+03  0.10100000352E+00 0.  1.
       -3    1    3    3    0  502  0.21382978203E+03  0.14956127659E+03  0.47324369387E+03  0.54041775981E+03  0.10100000352E+00 0. -1.
</event>
<event>
 5   0  0.1243087E-03  0.6999827E+03  0.7818609E-02  0.9717262E-01
        2   -1    0    0  501    0  0.00000000000E+00  0.00000000000E+00  0.31141040626E+03  0.31141040627E+03  0.25500000920E-02 0.  1.
       -2   -1    0    0    0  501  0.00000000000E+00  0.00000000000E+00 -0.39335212202E+03  0.39335212203E+03  0.25500000920E-02 0. -1.
    10030    2    1    2    0    0  0.00000000000E+00  0.00000000000E+00 -0.81941715757E+02  0.70476252830E+03  0.69998269730E+03 0.  0.
        4    1    3    3  502    0 -0.33228162009E+03  0.32407042652E+02 -0.14671680346E+03  0.36467619169E+03  0.12699999809E+01 0.  1.
       -4    1    3    3    0  502  0.33228162009E+03 -0.32407042652E+02  0.64775087699E+02  0.34008633661E+03  0.12699999809E+01 0. -1.
</event>
<event>
 5   0  0.1243087E-03  0.7003002E+03  0.7818609E-02  0.9716719E-01
        2   -1    0    0  501    0  0.00000000000E+00  0.00000000000E+00  0.15839938830E+04  0.15839938830E+04  0.25500000920E-02 0. -1.
       -2   -1    0    0    0  501  0.00000000000E+00  0.00000000000E+00 -0.77402495825E+02  0.77402495867E+02  0.25500000920E-02 0.  1.
    10030    2    1    2    0    0  0.00000000000E+00  0.00000000000E+00  0.15065913872E+04  0.16613963789E+04  0.70030016408E+03 0.  0.
        4    1    3    3  502    0  0.19930025952E+03 -0.28766847605E+03  0.72627509266E+03  0.80619530430E+03  0.12699999809E+01 0. -1.
       -4    1    3    3    0  502 -0.19930025952E+03  0.28766847605E+03  0.78031629451E+03  0.85520107456E+03  0.12699999809E+01 0.  1.
</event>
<event>
 5   0  0.7459843E-04  0.7004162E+03  0.7818609E-02  0.9716521E-01
       -1   -1    0    0    0  501  0.00000000000E+00  0.00000000000E+00  0.13865437458E+03  0.13865437468E+03  0.50400001928E-02 0. -1.
        1   -1    0    0  501    0  0.00000000000E+00  0.00000000000E+00 -0.88454262772E+03  0.88454262774E+03  0.50400001928E-02 0.  1.
    10030    2    1    2    0    0  0.00000000000E+00  0.00000000000E+00 -0.74588825314E+03  0.10231970024E+04  0.70041617598E+03 0.  0.
        2    1    3    3  502    0  0.16214929457E+03  0.26281751714E+03 -0.61422748814E+03  0.68748879863E+03  0.25500000920E-02 0.  1.
       -2    1    3    3    0  502 -0.16214929457E+03 -0.26281751714E+03 -0.13166076500E+03  0.33570820378E+03  0.25500000920E-02 0. -1.
</event>
<event>
 5   0  0.1243087E-03  0.6999672E+03  0.7818609E-02  0.9717288E-01
        2   -1    0    0  501    0  0.00000000000E+00  0.00000000000E+00  0.18780174898E+04  0.18780174898E+04  0.25500000920E-02 0.  1.
       -2   -1    0    0    0  501  0.00000000000E+00  0.00000000000E+00 -0.65222238899E+02  0.65222238949E+02  0.25500000920E-02 0. -1.
    10030    2    1    2    0    0  0.00000000000E+00  0.00000000000E+00  0.18127952509E+04  0.19432397287E+04  0.69996715758E+03 0.  0.
        4    1    3    3  502    0  0.12154900785E+03 -0.29039210699E+03  0.13309378523E+04  0.13676618430E+04  0.12699999809E+01 0. -1.
       -4    1    3    3    0  502 -0.12154900785E+03  0.29039210699E+03  0.48185739854E+03  0.57557788573E+03  0.12699999809E+01 0.  1.
</event>
<event>
 5   0  0.1265562E-03  0.6995248E+03  0.7818609E-02  0.9718045E-01
       -2   -1    0    0    0  501  0.00000000000E+00  0.00000000000E+00  0.23231717697E+03  0.23231717698E+03  0.25500000920E-02 0.  1.
        2   -1    0    0  501    0  0.00000000000E+00  0.00000000000E+00 -0.52658068726E+03  0.52658068727E+03  0.25500000920E-02 0. -1.
    10030    2    1    2    0    0  0.00000000000E+00  0.00000000000E+00 -0.29426351029E+03  0.75889786425E+03  0.69952480648E+03 0.  0.
        1    1    3    3  502    0 -0.15450484249E+03  0.31322594462E+02 -0.48585105866E+03  0.51078772744E+03  0.50400001928E-02 0. -1.
       -1    1    3    3    0  502  0.15450484249E+03 -0.31322594462E+02  0.19158754837E+03  0.24811013682E+03  0.50400001928E-02 0.  1.
</event>
<event>
 5   0  0.4936000E-04  0.6983033E+03  0.7818609E-02  0.9720138E-01
        3   -1    0    0  501    0  0.00000000000E+00  0.00000000000E+00  0.14760201519E+03  0.14760204975E+03  0.10100000352E+00 0. -1.
       -3   -1    0    0    0  501  0.00000000000E+00  0.00000000000E+00 -0.82591599340E+03  0.82591599958E+03  0.10100000352E+00 0.  1.
    10030    2    1    2    0    0  0.00000000000E+00  0.00000000000E+00 -0.67831397821E+03  0.97351804933E+03  0.69830332903E+03 0.  0.
        3    1    3    3  502    0  0.26819060060E+03  0.15927205805E+03 -0.12043978439E+03  0.33436437997E+03  0.10100000352E+00 0. -1.
       -3    1    3    3    0  502 -0.26819060060E+03 -0.15927205805E+03 -0.55787419382E+03  0.63915366936E+03  0.10100000352E+00 0.  1.
</event>
<event>
 5   0  0.1243087E-03  0.6998485E+03  0.7818609E-02  0.9717491E-01
        2   -1    0    0  501    0  0.00000000000E+00  0.00000000000E+00  0.52380858473E+03  0.52380858473E+03  0.25500000920E-02 0.  1.
       -2   -1    0    0    0  501  0.00000000000E+00  0.00000000000E+00 -0.23376283462E+03  0.23376283463E+03  0.25500000920E-02 0. -1.
    10030    2    1    2    0    0  0.00000000000E+00  0.00000000000E+00  0.29004575011E+03  0.75757141936E+03  0.69984849666E+03 0.  0.
        4    1    3    3  502    0 -0.18606663528E+03  0.75222329585E+02  0.45531166301E+03  0.49758367639E+03  0.12699999809E+01 0.  1.
       -4    1    3    3    0  502  0.18606663528E+03 -0.75222329585E+02 -0.16526591290E+03  0.25998774298E+03  0.12699999809E+01 0. -1.
</event>
<event>
 5   0  0.7574241E-04  0.7002863E+03  0.7818609E-02  0.9716743E-01
       -1   -1    0    0    0  501  0.00000000000E+00  0.00000000000E+00  0.64734179147E+03  0.64734179149E+03  0.50400001928E-02 0.  1.
        1   -1    0    0  501    0  0.00000000000E+00  0.00000000000E+00 -0.18939026222E+03  0.18939026228E+03  0.50400001928E-02 0. -1.
    10030    2    1    2    0    0  0.00000000000E+00  0.00000000000E+00  0.45795152926E+03  0.83673205377E+03  0.70028631763E+03 0.  0.
        3    1    3    3  502    0 -0.17041797250E+03  0.13813289846E+02 -0.13612081804E+03  0.21854514324E+03  0.10100000352E+00 0. -1.
       -3    1    3    3    0  502  0.17041797250E+03 -0.13813289846E+02  0.59407234730E+03  0.61818691053E+03  0.10100000352E+00 0.  1.
</event>
<event>
 5   0  0.1282546E-03  0.6998813E+03  0.7818609E-02  0.9717435E-01
       -2   -1    0    0    0  501  0.00000000000E+00  0.00000000000E+00  0.38999474545E+03  0.38999474545E+03  0.25500000920E-02 0. -1.
        2   -1    0    0  501    0  0.00000000000E+00  0.00000000000E+00 -0.31400024653E+03  0.31400024654E+03  0.25500000920E-02 0.  1.
    10030    2    1    2    0    0  0.00000000000E+00  0.00000000000E+00  0.75994498915E+02  0.70399499199E+03  0.69988126485E+03 0.  0.
        5    1    3    3  502    0  0.11756414604E+02 -0.13967397218E+03 -0.28449494504E+03  0.31718527005E+03  0.46999998093E+01 0.  1.
       -5    1    3    3    0  502 -0.11756414604E+02  0.13967397218E+03  0.36048944395E+03  0.38680972194E+03  0.46999998093E+01 0. -1.
</event>
<event>
 5   0  0.7574241E-04  0.7000282E+03  0.7818609E-02  0.9717184E-01
        1   -1    0    0  501    0  0.00000000000E+00  0.00000000000E+00  0.10585936410E+03  0.10585936422E+03  0.50400001928E-02 0. -1.
       -1   -1    0    0    0  501  0.00000000000E+00  0.00000000000E+00 -0.11572887923E+04  0.11572887923E+04  0.50400001928E-02 0.  1.
    10030    2    1    2    0    0  0.00000000000E+00  0.00000000000E+00 -0.10514294282E+04  0.12631481566E+04  0.70002815863E+03 0.  0.
        3    1    3    3  502    0  0.52126820785E+02  0.25262874540E+03 -0.98819091903E+02  0.27623126465E+03  0.10100000352E+00 0. -1.
       -3    1    3    3    0  502 -0.52126820785E+02 -0.25262874540E+03 -0.95261033633E+03  0.98691689191E+03  0.10100000352E+00 0.  1.
</event>
<event>
 5   0  0.7574241E-04  0.6999984E+03  0.7818609E-02  0.9717235E-01
       -1   -1    0    0    0  501  0.00000000000E+00  0.00000000000E+00  0.57620582714E+02  0.57620582935E+02  0.50400001928E-02 0.  1.
        1   -1    0    0  501    0  0.00000000000E+00  0.00000000000E+00 -0.21259665188E+04  0.21259665188E+04  0.50400001928E-02 0. -1.
    10030    2    1    2    0    0  0.00000000000E+00  0.00000000000E+00 -0.20683459360E+04  0.21835871017E+04  0.69999837111E+03 0.  0.
        3    1    3    3  502    0 -0.19437899246E+03 -0.10170066320E+03 -0.18346258993E+03  0.28598033099E+03  0.10100000352E+00 0.  1.
       -3    1    3    3    0  502  0.19437899246E+03  0.10170066320E+03 -0.18848833461E+04  0.18976067707E+04  0.10100000352E+00 0. -1.
</event>
<event>
 5   0  0.1224048E-03  0.6998861E+03  0.7818609E-02  0.9717427E-01
        2   -1    0    0  501    0  0.00000000000E+00  0.00000000000E+00  0.51920351288E+03  0.51920351289E+03  0.25500000920E-02 0. -1.
       -2   -1    0    0    0  501  0.00000000000E+00  0.00000000000E+00 -0.23586151165E+03  0.23586151166E+03  0.25500000920E-02 0.  1.
    10030    2    1    2    0    0  0.00000000000E+00  0.00000000000E+00  0.28334200123E+03  0.75506502455E+03  0.69988606332E+03 0.  0.
        3    1    3    3  502    0 -0.27024771905E+03  0.21202578528E+03  0.21381104996E+03  0.40460343370E+03  0.10100000352E+00 0. -1.
       -3    1    3    3    0  502  0.27024771905E+03 -0.21202578528E+03  0.69530951277E+02  0.35046159085E+03  0.10100000352E+00 0.  1.
</event>
<event>
 5   0  0.4936000E-04  0.6999558E+03  0.7818609E-02  0.9717308E-01
       -3   -1    0    0    0  501  0.00000000000E+00  0.00000000000E+00  0.12017812599E+03  0.12017816843E+03  0.10100000352E+00 0. -1.
        3   -1    0    0  501    0  0.00000000000E+00  0.00000000000E+00 -0.10191913768E+04  0.10191913818E+04  0.10100000352E+00 0.  1.
    10030    2    1    2    0    0  0.00000000000E+00  0.00000000000E+00 -0.89901325080E+03  0.11393695502E+04  0.69995581779E+03 0.  0.
        5    1    3    3  502    0  0.24738868673E+03 -0.60002597028E+02 -0.84037898763E+03  0.87810045372E+03  0.46999998093E+01 0.  1.
       -5    1    3    3    0  502 -0.24738868673E+03  0.60002597028E+02 -0.58634263165E+02  0.26126909650E+03  0.46999998093E+01 0. -1.
</event>
<event>
 5   0  0.7013526E-04  0.7001469E+03  0.7818609E-02  0.9716981E-01
        1   -1    0    0  501    0  0.00000000000E+00  0.00000000000E+00  0.31494734167E+03  0.31494734171E+03  0.50400001928E-02 0. -1.
       -1   -1    0    0    0  501  0.00000000000E+00  0.00000000000E+00 -0.38911717329E+03  0.38911717333E+03  0.50400001928E-02 0.  1.
    10030    2    1    2    0    0  0.00000000000E+00  0.00000000000E+00 -0.74169831621E+02  0.70406451504E+03  0.70014689703E+03 0.  0.
        1    1    3    3  502    0  0.12548837143E+03 -0.16970874102E+03  0.24376805866E+03  0.32244573898E+03  0.50400001928E-02 0. -1.
       -1    1    3    3    0  502 -0.12548837143E+03  0.16970874102E+03 -0.31793789028E+03  0.38161877606E+03  0.50400001928E-02 0.  1.
</event>
<event>
 5   0  0.7572415E-04  0.6998741E+03  0.7818609E-02  0.9717448E-01
       -1   -1    0    0    0  501  0.00000000000E+00  0.00000000000E+00  0.24838273546E+03  0.24838273551E+03  0.50400001928E-02 0.  1.
        1   -1    0    0  501    0  0.00000000000E+00  0.00000000000E+00 -0.49301301739E+03  0.49301301742E+03  0.50400001928E-02 0. -1.
    10030    2    1    2    0    0  0.00000000000E+00  0.00000000000E+00 -0.24463028193E+03  0.74139575293E+03  0.69987405126E+03 0.  0.
        4    1    3    3  502    0  0.19550221604E+03  0.13103434518E+03 -0.39664451679E+03  0.46121535284E+03  0.12699999809E+01 0.  1.
       -4    1    3    3    0  502 -0.19550221604E+03 -0.13103434518E+03  0.15201423486E+03  0.28018040009E+03  0.12699999809E+01 0. -1.
</event>
<event>
 5   0  0.7570633E-04  0.7012732E+03  0.7818609E-02  0.9715057E-01
        1   -1    0    0  501    0  0.00000000000E+00  0.00000000000E+00  0.12462658800E+04  0.12462658800E+04  0.50400001928E-02 0. -1.
       -1   -1    0    0    0  501  0.00000000000E+00  0.00000000000E+00 -0.98651509266E+02  0.98651509395E+02  0.50400001928E-02 0.  1.
    10030    2    1    2    0    0  0.00000000000E+00  0.00000000000E+00  0.11476143707E+04  0.13449173894E+04  0.70127315676E+03 0.  0.
        5    1    3    3  502    0  0.24836092903E+03 -0.18043454681E+03  0.24899722710E+03  0.39529923583E+03  0.46999998093E+01 0. -1.
       -5    1    3    3    0  502 -0.24836092903E+03  0.18043454681E+03  0.89861714361E+03  0.94961815354E+03  0.46999998093E+01 0.  1.
</event>
<event>
 5   0  0.4936000E-04  0.7002579E+03  0.7818609E-02  0.9716791E-01
       -3   -1    0    0    0  501  0.00000000000E+00  0.00000000000E+00  0.84517209331E+03  0.84517209934E+03  0.10100000352E+00 0. -1.
        3   -1    0    0  501    0  0.00000000000E+00  0.00000000000E+00 -0.14504770832E+03  0.14504774348E+03  0.10100000352E+00 0.  1.
    10030    2    1    2    0    0  0.00000000000E+00  0.00000000000E+00  0.70012438499E+03  0.99021984283E+03  0.70025794010E+03 0.  0.
        5    1    3    3  502    0 -0.44786381632E+02 -0.34699367817E+03  0.33230027177E+03  0.48255154469E+03  0.46999998093E+01 0.  1.
       -5    1    3    3    0  502  0.44786381632E+02  0.34699367817E+03  0.36782411322E+03  0.50766829814E+03  0.46999998093E+01 0. -1.
</event>
<event>
 5   0  0.7572415E-04  0.7003486E+03  0.7818609E-02  0.9716636E-01
       -1   -1    0    0    0  501  0.00000000000E+00  0.00000000000E+00  0.21165577010E+03  0.21165577016E+03  0.50400001928E-02 0.  1.
        1   -1    0    0  501    0  0.00000000000E+00  0.00000000000E+00 -0.57934647468E+03  0.57934647470E+03  0.50400001928E-02 0. -1.
    10030    2    1    2    0    0  0.00000000000E+00  0.00000000000E+00 -0.36769070459E+03  0.79100224486E+03  0.70034855403E+03 0.  0.
        4    1    3    3  502    0  0.61088257769E+02  0.14377146255E+03 -0.53781001979E+03  0.56003860489E+03  0.12699999809E+01 0. -1.
       -4    1    3    3    0  502 -0.61088257769E+02 -0.14377146255E+03  0.17011931520E+03  0.23096363997E+03  0.12699999809E+01 0.  1.
</event>
<event>
 5   0  0.7013526E-04  0.7001157E+03  0.7818609E-02  0.9717034E-01
       -1   -1    0    0    0  501  0.00000000000E+00  0.00000000000E+00  0.26371320470E+03  0.26371320475E+03  0.50400001928E-02 0.  1.
        1   -1    0    0  501    0  0.00000000000E+00  0.00000000000E+00 -0.46467336864E+03  0.46467336867E+03  0.50400001928E-02 0. -1.
    10030    2    1    2    0    0  0.00000000000E+00  0.00000000000E+00 -0.20096016394E+03  0.72838657342E+03  0.70011571390E+03 0.  0.
        1    1    3    3  502    0  0.95464796253E+02  0.13766552353E+03  0.21929967579E+03  0.27596679423E+03  0.50400001928E-02 0.  1.
       -1    1    3    3    0  502 -0.95464796253E+02 -0.13766552353E+03 -0.42025983972E+03  0.45241977919E+03  0.50400001928E-02 0. -1.
</event>
<event>
 5   0  0.1243087E-03  0.7000153E+03  0.7818609E-02  0.9717206E-01
        2   -1    0    0  501    0  0.00000000000E+00  0.00000000000E+00  0.47841335731E+03  0.47841335731E+03  0.25500000920E-02 0.  1.
       -2   -1    0    0    0  501  0.00000000000E+00  0.00000000000E+00 -0.25606590247E+03  0.25606590248E+03  0.25500000920E-02 0. -1.
    10030    2    1    2    0    0  0.00000000000E+00  0.00000000000E+00  0.22234745484E+03  0.73447925980E+03  0.70001528012E+03 0.  0.
        4    1    3    3  502    0  0.32758900339E+03 -0.80361414641E+02  0.13132315000E+02  0.33755974687E+03  0.12699999809E+01 0. -1.
       -4    1    3    3    0  502 -0.32758900339E+03  0.80361414641E+02  0.20921513984E+03  0.39691951293E+03  0.12699999809E+01 0.  1.
</event>
<event>
 5   0  0.7572415E-04  0.7001068E+03  0.7818609E-02  0.9717050E-01
       -1   -1    0    0    0  501  0.00000000000E+00  0.00000000000E+00  0.27645744512E+03  0.27645744517E+03  0.50400001928E-02 0. -1.
        1   -1    0    0  501    0  0.00000000000E+00  0.00000000000E+00 -0.44324136696E+03  0.44324136699E+03  0.50400001928E-02 0.  1.
    10030    2    1    2    0    0  0.00000000000E+00  0.00000000000E+00 -0.16678392184E+03  0.71969881216E+03  0.70010678017E+03 0.  0.
        4    1    3    3  502    0 -0.27439052588E+03  0.32745179886E+02  0.13750117499E+03  0.30865934867E+03  0.12699999809E+01 0. -1.
       -4    1    3    3    0  502  0.27439052588E+03 -0.32745179886E+02 -0.30428509683E+03  0.41103946349E+03  0.12699999809E+01 0.  1.
</event>
<event>
 5   0  0.7572415E-04  0.7000470E+03  0.7818609E-02  0.9717152E-01
       -1   -1    0    0    0  501  0.00000000000E+00  0.00000000000E+00  0.57329973077E+03  0.57329973079E+03  0.50400001928E-02 0. -1.
        1   -1    0    0  501    0  0.00000000000E+00  0.00000000000E+00 -0.21370402012E+03  0.21370402018E+03  0.50400001928E-02 0.  1.
    10030    2    1    2    0    0  0.00000000000E+00  0.00000000000E+00  0.35959571065E+03  0.78700375096E+03  0.70004701908E+03 0.  0.
        4    1    3    3  502    0  0.30255142673E-01 -0.34971616481E+03  0.16337324347E+03  0.38599718447E+03  0.12699999809E+01 0.  1.
       -4    1    3    3    0  502 -0.30255142673E-01  0.34971616481E+03  0.19622246718E+03  0.40100656649E+03  0.12699999809E+01 0. -1.
</event>
<event>
 5   0  0.7574241E-04  0.7001795E+03  0.7818609E-02  0.9716925E-01
       -1   -1    0    0    0  501  0.00000000000E+00  0.00000000000E+00  0.11797170179E+03  0.11797170189E+03  0.50400001928E-02 0. -1.
        1   -1    0    0  501    0  0.00000000000E+00  0.00000000000E+00 -0.10389172721E+04  0.10389172721E+04  0.50400001928E-02 0.  1.
    10030    2    1    2    0    0  0.00000000000E+00  0.00000000000E+00 -0.92094557028E+03  0.11568889740E+04  0.70017951604E+03 0.  0.
        3    1    3    3  502    0  0.13044362528E+03  0.32891215570E+02  0.73560879396E+02  0.15332509455E+03  0.10100000352E+00 0. -1.
       -3    1    3    3    0  502 -0.13044362528E+03 -0.32891215570E+02 -0.99450644968E+03  0.10035638794E+04  0.10100000352E+00 0.  1.
</event>
<event>
 5   0  0.7574241E-04  0.7000485E+03  0.7818609E-02  0.9717149E-01
        1   -1    0    0  501    0  0.00000000000E+00  0.00000000000E+00  0.31203724157E+03  0.31203724161E+03  0.50400001928E-02 0.  1.
       -1   -1    0    0    0  501  0.00000000000E+00  0.00000000000E+00 -0.39263572298E+03  0.39263572302E+03  0.50400001928E-02 0. -1.
    10030    2    1    2    0    0  0.00000000000E+00  0.00000000000E+00 -0.80598481412E+02  0.70467296463E+03  0.70004847823E+03 0.  0.
        3    1    3    3  502    0 -0.25375906515E+03  0.16434052008E+03 -0.21786033086E+03  0.37264541276E+03  0.10100000352E+00 0. -1.
       -3    1    3    3    0  502  0.25375906515E+03 -0.16434052008E+03  0.13726184944E+03  0.33202755187E+03  0.10100000352E+00 0.  1.
</event>
<event>
 5   0  0.4936000E-04  0.6999981E+03  0.7818609E-02  0.9717236E-01
        3   -1    0    0  501    0  0.00000000000E+00  0.00000000000E+00  0.59972931992E+03  0.59972932842E+03  0.10100000352E+00 0. -1.
       -3   -1    0    0    0  501  0.00000000000E+00  0.00000000000E+00 -0.20425766111E+03  0.20425768608E+03  0.10100000352E+00 0.  1.
    10030    2    1    2    0    0  0.00000000000E+00  0.00000000000E+00  0.39547165881E+03  0.80398701450E+03  0.69999806183E+03 0.  0.
        3    1    3    3  502    0 -0.10306010634E+03  0.21352542036E+03 -0.97969560101E+02  0.25653953996E+03  0.10100000352E+00 0.  1.
       -3    1    3    3    0  502  0.10306010634E+03 -0.21352542036E+03  0.49344121891E+03  0.54744747454E+03  0.10100000352E+00 0. -1.
</event>
<event>
 5   0  0.1243087E-03  0.6999870E+03  0.7818609E-02  0.9717254E-01
        2   -1    0    0  501    0  0.00000000000E+00  0.00000000000E+00  0.63300872653E+03  0.63300872654E+03  0.25500000920E-02 0.  1.
       -2   -1    0    0    0  501  0.00000000000E+00  0.00000000000E+00 -0.19351307359E+03  0.19351307361E+03  0.25500000920E-02 0. -1.
    10030    2    1    2    0    0  0.00000000000E+00  0.00000000000E+00  0.43949565294E+03  0.82652180014E+03  0.69998704071E+03 0.  0.
        4    1    3    3  502    0  0.32139188078E+03  0.12657928631E+03  0.28632043114E+03  0.44866029347E+03  0.12699999809E+01 0.  1.
       -4    1    3    3    0  502 -0.32139188078E+03 -0.12657928631E+03  0.15317522181E+03  0.37786150667E+03  0.12699999809E+01 0. -1.
</event>
<event>
 5   0  0.7459843E-04  0.7000558E+03  0.7818609E-02  0.9717137E-01
       -1   -1    0    0    0  501  0.00000000000E+00  0.00000000000E+00  0.79377608956E+02  0.79377609116E+02  0.50400001928E-02 0.  1.
        1   -1    0    0  501    0  0.00000000000E+00  0.00000000000E+00 -0.15435022539E+04  0.15435022539E+04  0.50400001928E-02 0. -1.
    10030    2    1    2    0    0  0.00000000000E+00  0.00000000000E+00 -0.14641246450E+04  0.16228798630E+04  0.70005576483E+03 0.  0.
        2    1    3    3  502    0 -0.14978802725E+03 -0.16104593545E+03 -0.10081242018E+03  0.24194088224E+03  0.25500000920E-02 0.  1.
       -2    1    3    3    0  502  0.14978802725E+03  0.16104593545E+03 -0.13633122248E+04  0.13809389808E+04  0.25500000920E-02 0. -1.
</event>
<event>
 5   0  0.7572415E-04  0.7000964E+03  0.7818609E-02  0.9717067E-01
       -1   -1    0    0    0  501  0.00000000000E+00  0.00000000000E+00  0.18495585448E+03  0.18495585455E+03  0.50400001928E-02 0. -1.
        1   -1    0    0  501    0  0.00000000000E+00  0.00000000000E+00 -0.66250263308E+03  0.66250263310E+03  0.50400001928E-02 0.  1.
    10030    2    1    2    0    0  0.00000000000E+00  0.00000000000E+00 -0.47754677860E+03  0.84745848765E+03  0.70009639517E+03 0.  0.
        4    1    3    3  502    0  0.29062841092E+03  0.51766584908E+02 -0.46648510796E+03  0.55204585081E+03  0.12699999809E+01 0.  1.
       -4    1    3    3    0  502 -0.29062841092E+03 -0.51766584908E+02 -0.11061670645E+02  0.29541263684E+03  0.12699999809E+01 0. -1.
</event>
<event>
 5   0  0.1243087E-03  0.6998638E+03  0.7818609E-02  0.9717465E-01
       -2   -1    0    0    0  501  0.00000000000E+00  0.00000000000E+00  0.26959485344E+03  0.26959485345E+03  0.25500000920E-02 0.  1.
        2   -1    0    0  501    0  0.00000000000E+00  0.00000000000E+00 -0.45420866326E+03  0.45420866327E+03  0.25500000920E-02 0. -1.
    10030    2    1    2    0    0  0.00000000000E+00  0.00000000000E+00 -0.18461380982E+03  0.72380351673E+03  0.69986375249E+03 0.  0.
        4    1    3    3  502    0  0.33395550525E+03 -0.93473651922E+02 -0.43940733682E+02  0.34956545033E+03  0.12699999809E+01 0. -1.
       -4    1    3    3    0  502 -0.33395550525E+03  0.93473651922E+02 -0.14067307614E+03  0.37423806640E+03  0.12699999809E+01 0.  1.
</event>
<event>
 5   0  0.1282546E-03  0.6998732E+03  0.7818609E-02  0.9717449E-01
       -2   -1    0    0    0  501  0.00000000000E+00  0.00000000000E+00  0.17062769543E+03  0.17062769545E+03  0.25500000920E-02 0.  1.
        2   -1    0    0  501    0  0.00000000000E+00  0.00000000000E+00 -0.71767730108E+03  0.71767730108E+03  0.25500000920E-02 0. -1.
    10030    2    1    2    0    0  0.00000000000E+00  0.00000000000E+00 -0.54704960565E+03  0.88830499654E+03  0.69987319983E+03 0.  0.
        5    1    3    3  502    0 -0.19583013928E+03  0.28417365225E+03 -0.34676127514E+03  0.48925410577E+03  0.46999998093E+01 0.  1.
       -5    1    3    3    0  502  0.19583013928E+03 -0.28417365225E+03 -0.20028833051E+03  0.39905089076E+03  0.46999998093E+01 0. -1.
</event>
<event>
 5   0  0.7572415E-04  0.7005165E+03  0.7818609E-02  0.9716349E-01
       -1   -1    0    0    0  501  0.00000000000E+00  0.00000000000E+00  0.11027768992E+04  0.11027768992E+04  0.50400001928E-02 0. -1.
        1   -1    0    0  501    0  0.00000000000E+00  0.00000000000E+00 -0.11124719940E+03  0.11124719952E+03  0.50400001928E-02 0.  1.
    10030    2    1    2    0    0  0.00000000000E+00  0.00000000000E+00  0.99152969980E+03  0.12140240987E+04  0.70051649997E+03 0.  0.
        4    1    3    3  502    0  0.15856474092E+03 -0.14969101778E+03  0.20743762105E+02  0.21904815551E+03  0.12699999809E+01 0.  1.
       -4    1    3    3    0  502 -0.15856474092E+03  0.14969101778E+03  0.97078593770E+03  0.99497594323E+03  0.12699999809E+01 0. -1.
</event>
<event>
 5   0  0.1243087E-03  0.7000346E+03  0.7818609E-02  0.9717173E-01
        2   -1    0    0  501    0  0.00000000000E+00  0.00000000000E+00  0.10031546038E+04  0.10031546038E+04  0.25500000920E-02 0. -1.
       -2   -1    0    0    0  501  0.00000000000E+00  0.00000000000E+00 -0.12212684894E+03  0.12212684897E+03  0.25500000920E-02 0.  1.
    10030    2    1    2    0    0  0.00000000000E+00  0.00000000000E+00  0.88102775483E+03  0.11252814527E+04  0.70003460137E+03 0.  0.
        4    1    3    3  502    0  0.13510556176E+03 -0.27127362254E+03  0.15901180474E+03  0.34224152006E+03  0.12699999809E+01 0.  1.
       -4    1    3    3    0  502 -0.13510556176E+03  0.27127362254E+03  0.72201595009E+03  0.78303993269E+03  0.12699999809E+01 0. -1.
</event>
<event>
 5   0  0.1224048E-03  0.7001709E+03  0.7818609E-02  0.9716940E-01
        2   -1    0    0  501    0  0.00000000000E+00  0.00000000000E+00  0.62049281876E+03  0.62049281876E+03  0.25500000920E-02 0.  1.
       -2   -1    0    0    0  501  0.00000000000E+00  0.00000000000E+00 -0.19752012188E+03  0.19752012189E+03  0.25500000920E-02 0. -1.
    10030    2    1    2    0    0  0.00000000000E+00  0.00000000000E+00  0.42297269688E+03  0.81801294066E+03  0.70017088541E+03 0.  0.
        3    1    3    3  502    0 -0.10634121415E+03  0.28112097194E+03  0.42120388471E+03  0.51744582072E+03  0.10100000352E+00 0.  1.
       -3    1    3    3    0  502  0.10634121415E+03 -0.28112097194E+03  0.17688121744E+01  0.30056711994E+03  0.10100000352E+00 0. -1.
</event>
<event>
 5   0  0.7570633E-04  0.6997391E+03  0.7818609E-02  0.9717678E-01
        1   -1    0    0  501    0  0.00000000000E+00  0.00000000000E+00  0.67332749020E+03  0.67332749022E+03  0.50400001928E-02 0. -1.
       -1   -1    0    0    0  501  0.00000000000E+00  0.00000000000E+00 -0.18179669800E+03  0.18179669807E+03  0.50400001928E-02 0.  1.
    10030    2    1    2    0    0  0.00000000000E+00  0.00000000000E+00  0.49153079220E+03  0.85512418829E+03  0.69973913547E+03 0.  0.
        5    1    3    3  502    0 -0.74783231864E+02  0.14824180993E+03 -0.13053915626E+03  0.21125985727E+03  0.46999998093E+01 0.  1.
       -5    1    3    3    0  502  0.74783231864E+02 -0.14824180993E+03  0.62206994846E+03  0.64386433101E+03  0.46999998093E+01 0. -1.
</event>
<event>
 5   0  0.1222679E-03  0.7000606E+03  0.7818609E-02  0.9717129E-01
       -2   -1    0    0    0  501  0.00000000000E+00  0.00000000000E+00  0.29275465265E+03  0.29275465266E+03  0.25500000920E-02 0.  1.
        2   -1    0    0  501    0  0.00000000000E+00  0.00000000000E+00 -0.41851152446E+03  0.41851152446E+03  0.25500000920E-02 0. -1.
    10030    2    1    2    0    0  0.00000000000E+00  0.00000000000E+00 -0.12575687180E+03  0.71126617713E+03  0.70006055732E+03 0.  0.
        2    1    3    3  502    0 -0.27032791361E+03 -0.17920073353E+03  0.70876483695E+02  0.33198427632E+03  0.25500000920E-02 0.  1.
       -2    1    3    3    0  502  0.27032791361E+03  0.17920073353E+03 -0.19663335550E+03  0.37928190081E+03  0.25500000920E-02 0. -1.
</event>
<event>
 5   0  0.7570633E-04  0.7000591E+03  0.7818609E-02  0.9717131E-01
       -1   -1    0    0    0  501  0.00000000000E+00  0.00000000000E+00  0.35729056970E+03  0.35729056973E+03  0.50400001928E-02 0.  1.
        1   -1    0    0  501    0  0.00000000000E+00  0.00000000000E+00 -0.34291613460E+03  0.34291613464E+03  0.50400001928E-02 0. -1.
    10030    2    1    2    0    0  0.00000000000E+00  0.00000000000E+00  0.14374435094E+02  0.70020670437E+03  0.70005914355E+03 0.  0.
        5    1    3    3  502    0  0.15177539438E+03 -0.29985920290E+03  0.10491809529E+03  0.35210965426E+03  0.46999998093E+01 0.  1.
       -5    1    3    3    0  502 -0.15177539438E+03  0.29985920290E+03 -0.90543660200E+02  0.34809705012E+03  0.46999998093E+01 0. -1.
</event>
<event>
 5   0  0.1222679E-03  0.6998708E+03  0.7818609E-02  0.9717453E-01
       -2   -1    0    0    0  501  0.00000000000E+00  0.00000000000E+00  0.25328289203E+03  0.25328289205E+03  0.25500000920E-02 0.  1.
        2   -1    0    0  501    0  0.00000000000E+00  0.00000000000E+00 -0.48347039798E+03  0.48347039799E+03  0.25500000920E-02 0. -1.
    10030    2    1    2    0    0  0.00000000000E+00  0.00000000000E+00 -0.23018750595E+03  0.73675329003E+03  0.69987078985E+03 0.  0.
        2    1    3    3  502    0 -0.11210764365E+03 -0.32857364498E+03 -0.68894576212E+02  0.35394240574E+03  0.25500000920E-02 0. -1.
       -2    1    3    3    0  502  0.11210764365E+03  0.32857364498E+03 -0.16129292973E+03  0.38281088429E+03  0.25500000920E-02 0.  1.
</event>
<event>
 5   0  0.7574241E-04  0.6999272E+03  0.7818609E-02  0.9717357E-01
        1   -1    0    0  501    0  0.00000000000E+00  0.00000000000E+00  0.68117427926E+03  0.68117427928E+03  0.50400001928E-02 0.  1.
       -1   -1    0    0    0  501  0.00000000000E+00  0.00000000000E+00 -0.17979910345E+03  0.17979910353E+03  0.50400001928E-02 0. -1.
    10030    2    1    2    0    0  0.00000000000E+00  0.00000000000E+00  0.50137517580E+03  0.86097338280E+03  0.69992720977E+03 0.  0.
        3    1    3    3  502    0 -0.10333552371E+03 -0.21781232049E+03 -0.61362911224E+02  0.24876867667E+03  0.10100000352E+00 0. -1.
       -3    1    3    3    0  502  0.10333552371E+03  0.21781232049E+03  0.56273808703E+03  0.61220470613E+03  0.10100000352E+00 0.  1.
</event>
<event>
 5   0  0.1224048E-03  0.6999893E+03  0.7818609E-02  0.9717250E-01
       -2   -1    0    0    0  501  0.00000000000E+00  0.00000000000E+00  0.14192374807E+03  0.14192374809E+03  0.25500000920E-02 0. -1.
        2   -1    0    0  501    0  0.00000000000E+00  0.00000000000E+00 -0.86311318800E+03  0.86311318800E+03  0.25500000920E-02 0.  1.
    10030    2    1    2    0    0  0.00000000000E+00  0.00000000000E+00 -0.72118943993E+03  0.10050369361E+04  0.69998931037E+03 0.  0.
        3    1    3    3  502    0  0.76779628722E+02  0.29339976204E+03 -0.10977213837E+03  0.32253443896E+03  0.10100000352E+00 0. -1.
       -3    1    3    3    0  502 -0.76779628722E+02 -0.29339976204E+03 -0.61141730156E+03  0.68250249713E+03  0.10100000352E+00 0.  1.
</event>
<event>
 5   0  0.7459843E-04  0.6999761E+03  0.7818609E-02  0.9717273E-01
       -1   -1    0    0    0  501  0.00000000000E+00  0.00000000000E+00  0.13599524495E+03  0.13599524504E+03  0.50400001928E-02 0.  1.
        1   -1    0    0  501    0  0.00000000000E+00  0.00000000000E+00 -0.90070532787E+03  0.90070532788E+03  0.50400001928E-02 0. -1.
    10030    2    1    2    0    0  0.00000000000E+00  0.00000000000E+00 -0.76471008292E+03  0.10367005729E+04  0.69997611887E+03 0.  0.
        2    1    3    3  502    0  0.22063868712E+03 -0.24756143392E+03 -0.54809751123E+03  0.64060828565E+03  0.25500000920E-02 0.  1.
       -2    1    3    3    0  502 -0.22063868712E+03  0.24756143392E+03 -0.21661257169E+03  0.39609228728E+03  0.25500000920E-02 0. -1.
</event>
<event>
 5   0  0.7013526E-04  0.7005871E+03  0.7818609E-02  0.9716229E-01
        1   -1    0    0  501    0  0.00000000000E+00  0.00000000000E+00  0.11292597366E+03  0.11292597377E+03  0.50400001928E-02 0.  1.
       -1   -1    0    0    0  501  0.00000000000E+00  0.00000000000E+00 -0.10866019119E+04  0.10866019119E+04  0.50400001928E-02 0. -1.
    10030    2    1    2    0    0  0.00000000000E+00  0.00000000000E+00 -0.97367593826E+03  0.11995278857E+04  0.70058712222E+03 0.  0.
        1    1    3    3  502    0  0.71646361332E+02  0.23216325626E+03 -0.54797437818E+02  0.24906974499E+03  0.50400001928E-02 0. -1.
       -1    1    3    3    0  502 -0.71646361332E+02 -0.23216325626E+03 -0.91887850044E+03  0.95045814071E+03  0.50400001928E-02 0.  1.
</event>
<event>
 5   0  0.1222679E-03  0.7001502E+03  0.7818609E-02  0.9716975E-01
        2   -1    0    0  501    0  0.00000000000E+00  0.00000000000E+00  0.10049035935E+04  0.10049035935E+04  0.25500000920E-02 0.  1.
       -2   -1    0    0    0  501  0.00000000000E+00  0.00000000000E+00 -0.12195454751E+03  0.12195454753E+03  0.25500000920E-02 0. -1.
    10030    2    1    2    0    0  0.00000000000E+00  0.00000000000E+00  0.88294904594E+03  0.11268581410E+04  0.70015016402E+03 0.  0.
        2    1    3    3  502    0  0.72749379245E+02 -0.30711462915E+02 -0.10743334444E+03  0.13333262781E+03  0.25500000920E-02 0. -1.
       -2    1    3    3    0  502 -0.72749379245E+02  0.30711462915E+02  0.99038239039E+03  0.99352551318E+03  0.25500000920E-02 0.  1.
</event>
<event>
 5   0  0.7574241E-04  0.6971379E+03  0.7818609E-02  0.9722139E-01
        1   -1    0    0  501    0  0.00000000000E+00  0.00000000000E+00  0.13703739520E+04  0.13703739520E+04  0.50400001928E-02 0.  1.
       -1   -1    0    0    0  501  0.00000000000E+00  0.00000000000E+00 -0.88662150288E+02  0.88662150432E+02  0.50400001928E-02 0. -1.
    10030    2    1    2    0    0  0.00000000000E+00  0.00000000000E+00  0.12817118017E+04  0.14590361024E+04  0.69713786697E+03 0.  0.
        3    1    3    3  502    0  0.11128740740E+03 -0.19980239056E+03  0.11913882799E+04  0.12131413462E+04  0.10100000352E+00 0.  1.
       -3    1    3    3    0  502 -0.11128740740E+03  0.19980239056E+03  0.90323521802E+02  0.24589475617E+03  0.10100000352E+00 0. -1.
</event>
<event>
 5   0  0.1243087E-03  0.7005840E+03  0.7818609E-02  0.9716234E-01
        2   -1    0    0  501    0  0.00000000000E+00  0.00000000000E+00  0.12535631052E+04  0.12535631052E+04  0.25500000920E-02 0. -1.
       -2   -1    0    0    0  501  0.00000000000E+00  0.00000000000E+00 -0.97884568070E+02  0.97884568103E+02  0.25500000920E-02 0.  1.
    10030    2    1    2    0    0  0.00000000000E+00  0.00000000000E+00  0.11556785372E+04  0.13514476733E+04  0.70058399390E+03 0.  0.
        4    1    3    3  502    0 -0.10460831377E+03  0.24891146635E+03  0.14734536401E+03  0.30759077780E+03  0.12699999809E+01 0.  1.
       -4    1    3    3    0  502  0.10460831377E+03 -0.24891146635E+03  0.10083331731E+04  0.10438568955E+04  0.12699999809E+01 0. -1.
</event>
<event>
 5   0  0.1224048E-03  0.7001656E+03  0.7818609E-02  0.9716949E-01
        2   -1    0    0  501    0  0.00000000000E+00  0.00000000000E+00  0.75341951184E+03  0.75341951184E+03  0.25500000920E-02 0. -1.
       -2   -1    0    0    0  501  0.00000000000E+00  0.00000000000E+00 -0.16266896182E+03  0.16266896184E+03  0.25500000920E-02 0.  1.
    10030    2    1    2    0    0  0.00000000000E+00  0.00000000000E+00  0.59075055002E+03  0.91608847368E+03  0.70016560845E+03 0.  0.
        3    1    3    3  502    0  0.14232632181E+02 -0.16699657237E+03 -0.10676534147E+03  0.19871907645E+03  0.10100000352E+00 0.  1.
       -3    1    3    3    0  502 -0.14232632181E+02  0.16699657237E+03  0.69751589150E+03  0.71736939724E+03  0.10100000352E+00 0. -1.
</event>
<event>
 5   0  0.1282546E-03  0.6998728E+03  0.7818609E-02  0.9717450E-01
       -2   -1    0    0    0  501  0.00000000000E+00  0.00000000000E+00  0.17779366637E+03  0.17779366639E+03  0.25500000920E-02 0.  1.
        2   -1    0    0  501    0  0.00000000000E+00  0.00000000000E+00 -0.68875062631E+03  0.68875062632E+03  0.25500000920E-02 0. -1.
    10030    2    1    2    0    0  0.00000000000E+00  0.00000000000E+00 -0.51095695994E+03  0.86654429271E+03  0.69987284296E+03 0.  0.
        5    1    3    3  502    0  0.31502118564E+01 -0.26895993540E+03 -0.53256876165E+03  0.59665814883E+03  0.46999998093E+01 0. -1.
       -5    1    3    3    0  502 -0.31502118564E+01  0.26895993540E+03  0.21611801710E+02  0.26988614387E+03  0.46999998093E+01 0.  1.
</event>
<event>
 5   0  0.7572415E-04  0.7009173E+03  0.7818609E-02  0.9715665E-01
       -1   -1    0    0    0  501  0.00000000000E+00  0.00000000000E+00  0.16718723056E+03  0.16718723063E+03  0.50400001928E-02 0.  1.
        1   -1    0    0  501    0  0.00000000000E+00  0.00000000000E+00 -0.73463301127E+03  0.73463301129E+03  0.50400001928E-02 0. -1.
    10030    2    1    2    0    0  0.00000000000E+00  0.00000000000E+00 -0.56744578072E+03  0.90182024192E+03  0.70091728092E+03 0.  0.
        4    1    3    3  502    0 -0.25890553955E+03  0.21199378264E+03 -0.14972681282E+03  0.36659674531E+03  0.12699999809E+01 0.  1.
       -4    1    3    3    0  502  0.25890553955E+03 -0.21199378264E+03 -0.41771896790E+03  0.53522349662E+03  0.12699999809E+01 0. -1.
</event>
<event>
 5   0  0.7013526E-04  0.7000636E+03  0.7818609E-02  0.9717123E-01
        1   -1    0    0  501    0  0.00000000000E+00  0.00000000000E+00  0.62334166942E+03  0.62334166944E+03  0.50400001928E-02 0. -1.
       -1   -1    0    0    0  501  0.00000000000E+00  0.00000000000E+00 -0.19655715650E+03  0.19655715656E+03  0.50400001928E-02 0.  1.
    10030    2    1    2    0    0  0.00000000000E+00  0.00000000000E+00  0.42678451292E+03  0.81989882600E+03  0.70006361454E+03 0.  0.
        1    1    3    3  502    0 -0.26987407897E+03 -0.54385010110E+02  0.46657397924E+03  0.54173889093E+03  0.50400001928E-02 0. -1.
       -1    1    3    3    0  502  0.26987407897E+03  0.54385010110E+02 -0.39789466313E+02  0.27815993507E+03  0.50400001928E-02 0.  1.
</event>
<event>
 5   0  0.7570633E-04  0.7002276E+03  0.7818609E-02  0.9716843E-01
       -1   -1    0    0    0  501  0.00000000000E+00  0.00000000000E+00  0.51336191204E+03  0.51336191206E+03  0.50400001928E-02 0.  1.
        1   -1    0    0  501    0  0.00000000000E+00  0.00000000000E+00 -0.23877828796E+03  0.23877828801E+03  0.50400001928E-02 0. -1.
    10030    2    1    2    0    0  0.00000000000E+00  0.00000000000E+00  0.27458362408E+03  0.75214020008E+03  0.70022761582E+03 0.  0.
        5    1    3    3  502    0 -0.13516437089E+03  0.59213495809E+02  0.47828910450E+03  0.50055789149E+03  0.46999998093E+01 0.  1.
       -5    1    3    3    0  502  0.13516437089E+03 -0.59213495809E+02 -0.20370548042E+03  0.25158230859E+03  0.46999998093E+01 0. -1.
</event>
<event>
 5   0  0.1243087E-03  0.6999935E+03  0.7818609E-02  0.9717243E-01
        2   -1    0    0  501    0  0.00000000000E+00  0.00000000000E+00  0.88558551480E+03  0.88558551480E+03  0.25500000920E-02 0. -1.
       -2   -1    0    0    0  501  0.00000000000E+00  0.00000000000E+00 -0.13832400421E+03  0.13832400424E+03  0.25500000920E-02 0.  1.
    10030    2    1    2    0    0  0.00000000000E+00  0.00000000000E+00  0.74726151059E+03  0.10239095190E+04  0.69999352709E+03 0.  0.
        4    1    3    3  502    0 -0.54790003268E+02 -0.10022912026E+03  0.85754907976E+03  0.86512418653E+03  0.12699999809E+01 0. -1.
       -4    1    3    3    0  502  0.54790003268E+02  0.10022912026E+03 -0.11028756918E+03  0.15878533251E+03  0.12699999809E+01 0.  1.
</event>
<event>
 5   0  0.1265562E-03  0.7000626E+03  0.7818609E-02  0.9717125E-01
        2   -1    0    0  501    0  0.00000000000E+00  0.00000000000E+00  0.32014034448E+03  0.32014034449E+03  0.25500000920E-02 0. -1.
       -2   -1    0    0    0  501  0.00000000000E+00  0.00000000000E+00 -0.38271314007E+03  0.38271314007E+03  0.25500000920E-02 0.  1.
    10030    2    1    2    0    0  0.00000000000E+00  0.00000000000E+00 -0.62572795589E+02  0.70285348456E+03  0.70006261578E+03 0.  0.
        1    1    3    3  502    0 -0.59928560792E+02 -0.29337971780E+03 -0.21327908280E+03  0.36762896839E+03  0.50400001928E-02 0.  1.
       -1    1    3    3    0  502  0.59928560792E+02  0.29337971780E+03  0.15070628721E+03  0.33522451617E+03  0.50400001928E-02 0. -1.
</event>
<event>
 5   0  0.1282546E-03  0.7007366E+03  0.7818609E-02  0.9715973E-01
       -2   -1    0    0    0  501  0.00000000000E+00  0.00000000000E+00  0.13402825104E+03  0.13402825106E+03  0.25500000920E-02 0. -1.
        2   -1    0    0  501    0  0.00000000000E+00  0.00000000000E+00 -0.91591109763E+03  0.91591109763E+03  0.25500000920E-02 0.  1.
    10030    2    1    2    0    0  0.00000000000E+00  0.00000000000E+00 -0.78188284659E+03  0.10499393487E+04  0.70073664821E+03 0.  0.
        5    1    3    3  502    0  0.32511832226E+03  0.90034909036E+02 -0.53251372876E+03  0.63039762819E+03  0.46999998093E+01 0.  1.
       -5    1    3    3    0  502 -0.32511832226E+03 -0.90034909036E+02 -0.24936911783E+03  0.41954172050E+03  0.46999998093E+01 0. -1.
</event>
<event>
 5   0  0.1243087E-03  0.6996469E+03  0.7818609E-02  0.9717836E-01
        2   -1    0    0  501    0  0.00000000000E+00  0.00000000000E+00  0.13289732240E+04  0.13289732240E+04  0.25500000920E-02 0. -1.
       -2   -1    0    0    0  501  0.00000000000E+00  0.00000000000E+00 -0.92083467801E+02  0.92083467837E+02  0.25500000920E-02 0.  1.
    10030    2    1    2    0    0  0.00000000000E+00  0.00000000000E+00  0.12368897562E+04  0.14210566918E+04  0.69964694841E+03 0.  0.
        4    1    3    3  502    0 -0.17456369619E+03 -0.91751490106E+02  0.31585345781E+02  0.19972497824E+03  0.12699999809E+01 0.  1.
       -4    1    3    3    0  502  0.17456369619E+03  0.91751490106E+02  0.12053044104E+04  0.12213317136E+04  0.12699999809E+01 0. -1.
</event>
<event>
 5   0  0.1222679E-03  0.6997728E+03  0.7818609E-02  0.9717621E-01
       -2   -1    0    0    0  501  0.00000000000E+00  0.00000000000E+00  0.62205479607E+02  0.62205479659E+02  0.25500000920E-02 0. -1.
        2   -1    0    0  501    0  0.00000000000E+00  0.00000000000E+00 -0.19680015025E+04  0.19680015025E+04  0.25500000920E-02 0.  1.
    10030    2    1    2    0    0  0.00000000000E+00  0.00000000000E+00 -0.19057960228E+04  0.20302069821E+04  0.69977275563E+03 0.  0.
        2    1    3    3  502    0 -0.29702349954E+03  0.10873507061E+03 -0.51893064820E+03  0.60772962122E+03  0.25500000920E-02 0. -1.
       -2    1    3    3    0  502  0.29702349954E+03 -0.10873507061E+03 -0.13868653746E+04  0.14224773609E+04  0.25500000920E-02 0.  1.
</event>
<event>
 5   0  0.1282546E-03  0.6996852E+03  0.7818609E-02  0.9717771E-01
       -2   -1    0    0    0  501  0.00000000000E+00  0.00000000000E+00  0.18752903144E+03  0.18752903146E+03  0.25500000920E-02 0.  1.
        2   -1    0    0  501    0  0.00000000000E+00  0.00000000000E+00 -0.65264487005E+03  0.65264487005E+03  0.25500000920E-02 0. -1.
    10030    2    1    2    0    0  0.00000000000E+00  0.00000000000E+00 -0.46511583861E+03  0.84017390151E+03  0.69968524456E+03 0.  0.
        5    1    3    3  502    0 -0.99355873591E+02  0.30172441566E+03 -0.40845828245E+03  0.51746446363E+03  0.46999998093E+01 0. -1.
       -5    1    3    3    0  502  0.99355873591E+02 -0.30172441566E+03 -0.56657556163E+02  0.32270943788E+03  0.46999998093E+01 0.  1.
</event>
<event>
 5   0  0.1282546E-03  0.6998787E+03  0.7818609E-02  0.9717440E-01
        2   -1    0    0  501    0  0.00000000000E+00  0.00000000000E+00  0.28235542205E+03  0.28235542206E+03  0.25500000920E-02 0.  1.
       -2   -1    0    0    0  501  0.00000000000E+00  0.00000000000E+00 -0.43369995421E+03  0.43369995421E+03  0.25500000920E-02 0. -1.
    10030    2    1    2    0    0  0.00000000000E+00  0.00000000000E+00 -0.15134453216E+03  0.71605537628E+03  0.69987865697E+03 0.  0.
        5    1    3    3  502    0  0.51259401006E+02  0.27128686332E+03  0.14426469127E+03  0.31154209915E+03  0.46999998093E+01 0.  1.
       -5    1    3    3    0  502 -0.51259401006E+02 -0.27128686332E+03 -0.29560922342E+03  0.40451327712E+03  0.46999998093E+01 0. -1.
</event>
<event>
 5   0  0.7459843E-04  0.7002718E+03  0.7818609E-02  0.9716767E-01
       -1   -1    0    0    0  501  0.00000000000E+00  0.00000000000E+00  0.79481820750E+03  0.79481820751E+03  0.50400001928E-02 0.  1.
        1   -1    0    0  501    0  0.00000000000E+00  0.00000000000E+00 -0.15424302294E+03  0.15424302303E+03  0.50400001928E-02 0. -1.
    10030    2    1    2    0    0  0.00000000000E+00  0.00000000000E+00  0.64057518455E+03  0.94906123054E+03  0.70027184168E+03 0.  0.
        2    1    3    3  502    0 -0.30726610701E+03 -0.16670425518E+03  0.29344103137E+03  0.45641035058E+03  0.25500000920E-02 0.  1.
       -2    1    3    3    0  502  0.30726610701E+03  0.16670425518E+03  0.34713415318E+03  0.49265087996E+03  0.25500000920E-02 0. -1.
</event>
<event>
 5   0  0.7459843E-04  0.6999168E+03  0.7818609E-02  0.9717374E-01
        1   -1    0    0  501    0  0.00000000000E+00  0.00000000000E+00  0.46246903510E+03  0.46246903513E+03  0.50400001928E-02 0.  1.
       -1   -1    0    0    0  501  0.00000000000E+00  0.00000000000E+00 -0.26481964923E+03  0.26481964928E+03  0.50400001928E-02 0. -1.
    10030    2    1    2    0    0  0.00000000000E+00  0.00000000000E+00  0.19764938587E+03  0.72728868441E+03  0.69991681701E+03 0.  0.
        2    1    3    3  502    0 -0.32786201380E+03  0.11196816501E+03  0.47491134025E+02  0.34969383450E+03  0.25500000920E-02 0.  1.
       -2    1    3    3    0  502  0.32786201380E+03 -0.11196816501E+03  0.15015825185E+03  0.37759484991E+03  0.25500000920E-02 0. -1.
</event>
<event>
 5   0  0.4936000E-04  0.6999523E+03  0.7818609E-02  0.9717314E-01
       -4   -1    0    0    0  501  0.00000000000E+00  0.00000000000E+00  0.70655213549E+03  0.70655327688E+03  0.12699999809E+01 0.  1.
        4   -1    0    0  501    0  0.00000000000E+00  0.00000000000E+00 -0.17334989711E+03  0.17335454920E+03  0.12699999809E+01 0. -1.
    10030    2    1    2    0    0  0.00000000000E+00  0.00000000000E+00  0.53320223838E+03  0.87990782608E+03  0.69995225221E+03 0.  0.
        4    1    3    3  502    0 -0.16251189911E+03 -0.29146935359E+03  0.13405531739E+03  0.35963445672E+03  0.12699999809E+01 0. -1.
       -4    1    3    3    0  502  0.16251189911E+03  0.29146935359E+03  0.39914692099E+03  0.52027336936E+03  0.12699999809E+01 0.  1.
</event>
<event>
 5   0  0.7574241E-04  0.6999671E+03  0.7818609E-02  0.9717288E-01
        1   -1    0    0  501    0  0.00000000000E+00  0.00000000000E+00  0.90363428493E+03  0.90363428494E+03  0.50400001928E-02 0.  1.
       -1   -1    0    0    0  501  0.00000000000E+00  0.00000000000E+00 -0.13555094724E+03  0.13555094734E+03  0.50400001928E-02 0. -1.
    10030    2    1    2    0    0  0.00000000000E+00  0.00000000000E+00  0.76808333769E+03  0.10391852323E+04  0.69996709448E+03 0.  0.
        3    1    3    3  502    0 -0.58684864252E+02  0.30725744287E+03  0.61707228733E+03  0.69183037479E+03  0.10100000352E+00 0.  1.
       -3    1    3    3    0  502  0.58684864252E+02 -0.30725744287E+03  0.15101105036E+03  0.34735485749E+03  0.10100000352E+00 0. -1.
</event>
<event>
 5   0  0.1224048E-03  0.7001456E+03  0.7818609E-02  0.9716983E-01
       -2   -1    0    0    0  501  0.00000000000E+00  0.00000000000E+00  0.99252789201E+02  0.99252789234E+02  0.25500000920E-02 0. -1.
        2   -1    0    0  501    0  0.00000000000E+00  0.00000000000E+00 -0.12347356850E+04  0.12347356850E+04  0.25500000920E-02 0.  1.
    10030    2    1    2    0    0  0.00000000000E+00  0.00000000000E+00 -0.11354828958E+04  0.13339884743E+04  0.70014558683E+03 0.  0.
        3    1    3    3  502    0 -0.99249788042E+02  0.28320899580E+03 -0.91118807855E+03  0.95933392540E+03  0.10100000352E+00 0.  1.
       -3    1    3    3    0  502  0.99249788042E+02 -0.28320899580E+03 -0.22429481729E+03  0.37465454888E+03  0.10100000352E+00 0. -1.
</event>
<event>
 5   0  0.7013526E-04  0.6999312E+03  0.7818609E-02  0.9717350E-01
       -1   -1    0    0    0  501  0.00000000000E+00  0.00000000000E+00  0.55247137932E+03  0.55247137935E+03  0.50400001928E-02 0. -1.
        1   -1    0    0  501    0  0.00000000000E+00  0.00000000000E+00 -0.22168738334E+03  0.22168738339E+03  0.50400001928E-02 0.  1.
    10030    2    1    2    0    0  0.00000000000E+00  0.00000000000E+00  0.33078399599E+03  0.77415876274E+03  0.69993123800E+03 0.  0.
        1    1    3    3  502    0 -0.24381161048E+03  0.19522969043E+02  0.44223756598E+03  0.50537047056E+03  0.50400001928E-02 0. -1.
       -1    1    3    3    0  502  0.24381161048E+03 -0.19522969043E+02 -0.11145356999E+03  0.26878829218E+03  0.50400001928E-02 0.  1.
</event>
<event>
 5   0  0.7459843E-04  0.7000056E+03  0.7818609E-02  0.9717223E-01
        1   -1    0    0  501    0  0.00000000000E+00  0.00000000000E+00  0.25675763892E+03  0.25675763897E+03  0.50400001928E-02 0.  1.
       -1   -1    0    0    0  501  0.00000000000E+00  0.00000000000E+00 -0.47711123948E+03  0.47711123950E+03  0.50400001928E-02 0. -1.
    10030    2    1    2    0    0  0.00000000000E+00  0.00000000000E+00 -0.22035360056E+03  0.73386887847E+03  0.70000558677E+03 0.  0.
        2    1    3    3  502    0  0.91353348359E+02 -0.33700098862E+03 -0.84779807926E+02  0.35930866456E+03  0.25500000920E-02 0.  1.
       -2    1    3    3    0  502 -0.91353348359E+02  0.33700098862E+03 -0.13557379263E+03  0.37456021391E+03  0.25500000920E-02 0. -1.
</event>
<event>
 5   0  0.7570633E-04  0.6994887E+03  0.7818609E-02  0.9718107E-01
       -1   -1    0    0    0  501  0.00000000000E+00  0.00000000000E+00  0.12061116259E+03  0.12061116270E+03  0.50400001928E-02 0.  1.
        1   -1    0    0  501    0  0.00000000000E+00  0.00000000000E+00 -0.10141774792E+04  0.10141774793E+04  0.50400001928E-02 0. -1.
    10030    2    1    2    0    0  0.00000000000E+00  0.00000000000E+00 -0.89356631665E+03  0.11347886420E+04  0.69948874162E+03 0.  0.
        5    1    3    3  502    0  0.31455684491E+03 -0.38025181552E+02 -0.68690231743E+03  0.75647128617E+03  0.46999998093E+01 0.  1.
       -5    1    3    3    0  502 -0.31455684491E+03  0.38025181552E+02 -0.20666399922E+03  0.37831735578E+03  0.46999998093E+01 0. -1.
</event>
<event>
 5   0  0.1222679E-03  0.6998259E+03  0.7818609E-02  0.9717530E-01
       -2   -1    0    0    0  501  0.00000000000E+00  0.00000000000E+00  0.22596599317E+03  0.22596599318E+03  0.25500000920E-02 0.  1.
        2   -1    0    0  501    0  0.00000000000E+00  0.00000000000E+00 -0.54184730224E+03  0.54184730224E+03  0.25500000920E-02 0. -1.
    10030    2    1    2    0    0  0.00000000000E+00  0.00000000000E+00 -0.31588130907E+03  0.76781329542E+03  0.69982587492E+03 0.  0.
        2    1    3    3  502    0  0.75042782949E+02 -0.26885547452E+03  0.73566578617E+02  0.28866369177E+03  0.25500000920E-02 0.  1.
       -2    1    3    3    0  502 -0.75042782949E+02  0.26885547452E+03 -0.38944788769E+03  0.47914960365E+03  0.25500000920E-02 0. -1.
</event>
<event>
 5   0  0.1243087E-03  0.7000152E+03  0.7818609E-02  0.9717206E-01
        2   -1    0    0  501    0  0.00000000000E+00  0.00000000000E+00  0.16715572887E+04  0.16715572887E+04  0.25500000920E-02 0. -1.
       -2   -1    0    0    0  501  0.00000000000E+00  0.00000000000E+00 -0.73288131380E+02  0.73288131424E+02  0.25500000920E-02 0.  1.
    10030    2    1    2    0    0  0.00000000000E+00  0.00000000000E+00  0.15982691573E+04  0.17448454201E+04  0.70001517190E+03 0.  0.
        4    1    3    3  502    0  0.24751199233E+02  0.40411658038E+02  0.16635180332E+04  0.16641933732E+04  0.12699999809E+01 0. -1.
       -4    1    3    3    0  502 -0.24751199233E+02 -0.40411658038E+02 -0.65248875842E+02  0.80652046889E+02  0.12699999809E+01 0.  1.
</event>
<event>
 5   0  0.7574241E-04  0.7002011E+03  0.7818609E-02  0.9716888E-01
       -1   -1    0    0    0  501  0.00000000000E+00  0.00000000000E+00  0.56473837356E+03  0.56473837358E+03  0.50400001928E-02 0.  1.
        1   -1    0    0  501    0  0.00000000000E+00  0.00000000000E+00 -0.21703923011E+03  0.21703923017E+03  0.50400001928E-02 0. -1.
    10030    2    1    2    0    0  0.00000000000E+00  0.00000000000E+00  0.34769914345E+03  0.78177760375E+03  0.70020106210E+03 0.  0.
        3    1    3    3  502    0  0.42213850190E+02  0.11401934596E+03  0.54040999058E+03  0.55391821465E+03  0.10100000352E+00 0.  1.
       -3    1    3    3    0  502 -0.42213850190E+02 -0.11401934596E+03 -0.19271084713E+03  0.22785938910E+03  0.10100000352E+00 0. -1.
</event>
<event>
 5   0  0.1222679E-03  0.6997707E+03  0.7818609E-02  0.9717624E-01
        2   -1    0    0  501    0  0.00000000000E+00  0.00000000000E+00  0.68620094890E+03  0.68620094891E+03  0.25500000920E-02 0. -1.
       -2   -1    0    0    0  501  0.00000000000E+00  0.00000000000E+00 -0.17840220509E+03  0.17840220511E+03  0.25500000920E-02 0.  1.
    10030    2    1    2    0    0  0.00000000000E+00  0.00000000000E+00  0.50779874381E+03  0.86460315402E+03  0.69977071225E+03 0.  0.
        2    1    3    3  502    0 -0.15260148510E+03 -0.18079233599E+03 -0.64592019505E+02  0.24524520586E+03  0.25500000920E-02 0.  1.
       -2    1    3    3    0  502  0.15260148510E+03  0.18079233599E+03  0.57239076332E+03  0.61935794816E+03  0.25500000920E-02 0. -1.
</event>
<event>
 5   0  0.7570633E-04  0.6997382E+03  0.7818609E-02  0.9717680E-01
       -1   -1    0    0    0  501  0.00000000000E+00  0.00000000000E+00  0.88950250023E+03  0.88950250024E+03  0.50400001928E-02 0.  1.
        1   -1    0    0  501    0  0.00000000000E+00  0.00000000000E+00 -0.13761442796E+03  0.13761442805E+03  0.50400001928E-02 0. -1.
    10030    2    1    2    0    0  0.00000000000E+00  0.00000000000E+00  0.75188807226E+03  0.10271169283E+04  0.69973817330E+03 0.  0.
        5    1    3    3  502    0 -0.14635257816E+03 -0.88146759111E+02  0.82405557191E+03  0.84159289675E+03  0.46999998093E+01 0.  1.
       -5    1    3    3    0  502  0.14635257816E+03  0.88146759111E+02 -0.72167499643E+02  0.18552403154E+03  0.46999998093E+01 0. -1.
</event>
<event>
 5   0  0.4936000E-04  0.6977783E+03  0.7818609E-02  0.9721039E-01
       -3   -1    0    0    0  501  0.00000000000E+00  0.00000000000E+00  0.10942136506E+03  0.10942141168E+03  0.10100000352E+00 0. -1.
        3   -1    0    0  501    0  0.00000000000E+00  0.00000000000E+00 -0.11124299739E+04  0.11124299785E+04  0.10100000352E+00 0.  1.
    10030    2    1    2    0    0  0.00000000000E+00  0.00000000000E+00 -0.10030086089E+04  0.12218513902E+04  0.69777829591E+03 0.  0.
        2    1    3    3  502    0 -0.29840728773E+03  0.24167613989E+02 -0.81519652727E+03  0.86843327954E+03  0.25500000920E-02 0.  1.
       -2    1    3    3    0  502  0.29840728773E+03 -0.24167613989E+02 -0.18781208160E+03  0.35341811065E+03  0.25500000920E-02 0. -1.
</event>
<event>
 5   0  0.7572415E-04  0.6998008E+03  0.7818609E-02  0.9717573E-01
        1   -1    0    0  501    0  0.00000000000E+00  0.00000000000E+00  0.43362398858E+03  0.43362398861E+03  0.50400001928E-02 0. -1.
       -1   -1    0    0    0  501  0.00000000000E+00  0.00000000000E+00 -0.28234205403E+03  0.28234205408E+03  0.50400001928E-02 0.  1.
    10030    2    1    2    0    0  0.00000000000E+00  0.00000000000E+00  0.15128193455E+03  0.71596604269E+03  0.69980079348E+03 0.  0.
        4    1    3    3  502    0  0.20219947935E+02  0.34762494181E+03  0.11073684341E+03  0.36539869712E+03  0.12699999809E+01 0. -1.
       -4    1    3    3    0  502 -0.20219947935E+02 -0.34762494181E+03  0.40545091136E+02  0.35056734557E+03  0.12699999809E+01 0.  1.
</event>
<event>
 5   0  0.7459843E-04  0.6998427E+03  0.7818609E-02  0.9717501E-01
       -1   -1    0    0    0  501  0.00000000000E+00  0.00000000000E+00  0.11481677005E+03  0.11481677016E+03  0.50400001928E-02 0. -1.
        1   -1    0    0  501    0  0.00000000000E+00  0.00000000000E+00 -0.10664379134E+04  0.10664379134E+04  0.50400001928E-02 0.  1.
    10030    2    1    2    0    0  0.00000000000E+00  0.00000000000E+00 -0.95162114337E+03  0.11812546836E+04  0.69984271589E+03 0.  0.
        2    1    3    3  502    0  0.19102081046E+03  0.21018616698E+01  0.19035413908E+02  0.19197842285E+03  0.25500000920E-02 0. -1.
       -2    1    3    3    0  502 -0.19102081046E+03 -0.21018616698E+01 -0.97065655728E+03  0.98927626073E+03  0.25500000920E-02 0.  1.
</event>
<event>
 5   0  0.7570633E-04  0.7008064E+03  0.7818609E-02  0.9715854E-01
       -1   -1    0    0    0  501  0.00000000000E+00  0.00000000000E+00  0.14612110076E+03  0.14612110085E+03  0.50400001928E-02 0.  1.
        1   -1    0    0  501    0  0.00000000000E+00  0.00000000000E+00 -0.84027849432E+03  0.84027849434E+03  0.50400001928E-02 0. -1.
    10030    2    1    2    0    0  0.00000000000E+00  0.00000000000E+00 -0.69415739356E+03  0.98639959519E+03  0.70080644572E+03 0.  0.
        5    1    3    3  502    0  0.71325443767E+02  0.10469978003E+03  0.11271109287E+03  0.16963267173E+03  0.46999998093E+01 0.  1.
       -5    1    3    3    0  502 -0.71325443767E+02 -0.10469978003E+03 -0.80686848642E+03  0.81676692345E+03  0.46999998093E+01 0. -1.
</event>
<event>
 5   0  0.7013526E-04  0.6999122E+03  0.7818609E-02  0.9717382E-01
        1   -1    0    0  501    0  0.00000000000E+00  0.00000000000E+00  0.59219883503E+03  0.59219883505E+03  0.50400001928E-02 0.  1.
       -1   -1    0    0    0  501  0.00000000000E+00  0.00000000000E+00 -0.20680429439E+03  0.20680429445E+03  0.50400001928E-02 0. -1.
    10030    2    1    2    0    0  0.00000000000E+00  0.00000000000E+00  0.38539454064E+03  0.79900312950E+03  0.69991217235E+03 0.  0.
        1    1    3    3  502    0 -0.18535751405E+03 -0.29496644967E+03  0.23067330737E+03  0.41781908669E+03  0.50400001928E-02 0. -1.
       -1    1    3    3    0  502  0.18535751405E+03  0.29496644967E+03  0.15472123327E+03  0.38118404281E+03  0.50400001928E-02 0.  1.
</event>
<event>
 5   0  0.1224048E-03  0.7001767E+03  0.7818609E-02  0.9716930E-01
       -2   -1    0    0    0  501  0.00000000000E+00  0.00000000000E+00  0.72162853600E+02  0.72162853645E+02  0.25500000920E-02 0. -1.
        2   -1    0    0  501    0  0.00000000000E+00  0.00000000000E+00 -0.16984064739E+04  0.16984064739E+04  0.25500000920E-02 0.  1.
    10030    2    1    2    0    0  0.00000000000E+00  0.00000000000E+00 -0.16262436203E+04  0.17705693275E+04  0.70017671418E+03 0.  0.
        3    1    3    3  502    0 -0.28386527361E+02 -0.13279969375E+03  0.28458867676E+01  0.13582953607E+03  0.10100000352E+00 0. -1.
       -3    1    3    3    0  502  0.28386527361E+02  0.13279969375E+03 -0.16290895071E+04  0.16347397915E+04  0.10100000352E+00 0.  1.
</event>
<event>
 5   0  0.1224048E-03  0.7000194E+03  0.7818609E-02  0.9717199E-01
        2   -1    0    0  501    0  0.00000000000E+00  0.00000000000E+00  0.41794294735E+03  0.41794294736E+03  0.25500000920E-02 0.  1.
       -2   -1    0    0    0  501  0.00000000000E+00  0.00000000000E+00 -0.29311842036E+03  0.29311842037E+03  0.25500000920E-02 0. -1.
    10030    2    1    2    0    0  0.00000000000E+00  0.00000000000E+00  0.12482452699E+03  0.71106136773E+03  0.70001936126E+03 0.  0.
        3    1    3    3  502    0 -0.30060708263E+03 -0.10904189089E+03  0.20696660641E+03  0.38090673198E+03  0.10100000352E+00 0.  1.
       -3    1    3    3    0  502  0.30060708263E+03  0.10904189089E+03 -0.82142079426E+02  0.33015463575E+03  0.10100000352E+00 0. -1.
</event>
<event>
 5   0  0.7570633E-04  0.7048470E+03  0.7818609E-02  0.9708979E-01
        1   -1    0    0  501    0  0.00000000000E+00  0.00000000000E+00  0.16950260033E+03  0.16950260040E+03  0.50400001928E-02 0.  1.
       -1   -1    0    0    0  501  0.00000000000E+00  0.00000000000E+00 -0.73274582037E+03  0.73274582039E+03  0.50400001928E-02 0. -1.
    10030    2    1    2    0    0  0.00000000000E+00  0.00000000000E+00 -0.56324322004E+03  0.90224842079E+03  0.70484699609E+03 0.  0.
        5    1    3    3  502    0  0.10062185247E+03 -0.33026358187E+03 -0.19127564011E+03  0.39472427237E+03  0.46999998093E+01 0.  1.
       -5    1    3    3    0  502 -0.10062185247E+03  0.33026358187E+03 -0.37196757994E+03  0.50752414842E+03  0.46999998093E+01 0. -1.
</event>
<event>
 5   0  0.7013526E-04  0.6998319E+03  0.7818609E-02  0.9717520E-01
        1   -1    0    0  501    0  0.00000000000E+00  0.00000000000E+00  0.10248816910E+04  0.10248816910E+04  0.50400001928E-02 0. -1.
       -1   -1    0    0    0  501  0.00000000000E+00  0.00000000000E+00 -0.11946858711E+03  0.11946858721E+03  0.50400001928E-02 0.  1.
    10030    2    1    2    0    0  0.00000000000E+00  0.00000000000E+00  0.90541310393E+03  0.11443502783E+04  0.69983188737E+03 0.  0.
        1    1    3    3  502    0 -0.22969146872E+03 -0.13557304460E+03  0.82336035982E+02  0.27913696293E+03  0.50400001928E-02 0.  1.
       -1    1    3    3    0  502  0.22969146872E+03  0.13557304460E+03  0.82307706794E+03  0.86521331533E+03  0.50400001928E-02 0. -1.
</event>
<event>
 5   0  0.7574241E-04  0.6998543E+03  0.7818609E-02  0.9717481E-01
        1   -1    0    0  501    0  0.00000000000E+00  0.00000000000E+00  0.95837851433E+03  0.95837851434E+03  0.50400001928E-02 0.  1.
       -1   -1    0    0    0  501  0.00000000000E+00  0.00000000000E+00 -0.12776684919E+03  0.12776684929E+03  0.50400001928E-02 0. -1.
    10030    2    1    2    0    0  0.00000000000E+00  0.00000000000E+00  0.83061166514E+03  0.10861453636E+04  0.69985427960E+03 0.  0.
        3    1    3    3  502    0  0.26996211251E+03  0.14593030996E+03  0.67626489634E+03  0.74263680072E+03  0.10100000352E+00 0.  1.
       -3    1    3    3    0  502 -0.26996211251E+03 -0.14593030996E+03  0.15434676880E+03  0.34350856292E+03  0.10100000352E+00 0. -1.
</event>
<event>
 5   0  0.1222679E-03  0.7000629E+03  0.7818609E-02  0.9717125E-01
        2   -1    0    0  501    0  0.00000000000E+00  0.00000000000E+00  0.13426479592E+04  0.13426479592E+04  0.25500000920E-02 0. -1.
       -2   -1    0    0    0  501  0.00000000000E+00  0.00000000000E+00 -0.91254009733E+02  0.91254009769E+02  0.25500000920E-02 0.  1.
    10030    2    1    2    0    0  0.00000000000E+00  0.00000000000E+00  0.12513939495E+04  0.14339019690E+04  0.70006288278E+03 0.  0.
        2    1    3    3  502    0  0.26653876377E+02 -0.37193762432E+02  0.13364954956E+04  0.13372785854E+04  0.25500000920E-02 0. -1.
       -2    1    3    3    0  502 -0.26653876377E+02  0.37193762432E+02 -0.85101546162E+02  0.96623383585E+02  0.25500000920E-02 0.  1.
</event>
<event>
 5   0  0.1222679E-03  0.6995345E+03  0.7818609E-02  0.9718029E-01
        2   -1    0    0  501    0  0.00000000000E+00  0.00000000000E+00  0.55664320580E+03  0.55664320580E+03  0.25500000920E-02 0.  1.
       -2   -1    0    0    0  501  0.00000000000E+00  0.00000000000E+00 -0.21977658230E+03  0.21977658231E+03  0.25500000920E-02 0. -1.
    10030    2    1    2    0    0  0.00000000000E+00  0.00000000000E+00  0.33686662350E+03  0.77641978812E+03  0.69953453478E+03 0.  0.
        2    1    3    3  502    0  0.10781613922E+03  0.18564502222E+03  0.47491447821E+03  0.52118341855E+03  0.25500000920E-02 0.  1.
       -2    1    3    3    0  502 -0.10781613922E+03 -0.18564502222E+03 -0.13804785471E+03  0.25523636957E+03  0.25500000920E-02 0. -1.
</event>
<event>
 5   0  0.7572415E-04  0.7000584E+03  0.7818609E-02  0.9717132E-01
       -1   -1    0    0    0  501  0.00000000000E+00  0.00000000000E+00  0.25051471496E+03  0.25051471501E+03  0.50400001928E-02 0.  1.
        1   -1    0    0  501    0  0.00000000000E+00  0.00000000000E+00 -0.48907476621E+03  0.48907476624E+03  0.50400001928E-02 0. -1.
    10030    2    1    2    0    0  0.00000000000E+00  0.00000000000E+00 -0.23856005125E+03  0.73958948125E+03  0.70005835666E+03 0.  0.
        4    1    3    3  502    0  0.92334416829E+02 -0.25759200258E+03 -0.34986988725E+03  0.44417320409E+03  0.12699999809E+01 0. -1.
       -4    1    3    3    0  502 -0.92334416829E+02  0.25759200258E+03  0.11130983600E+03  0.29541627717E+03  0.12699999809E+01 0.  1.
</event>
<event>
 5   0  0.1265562E-03  0.7000180E+03  0.7818609E-02  0.9717201E-01
       -2   -1    0    0    0  501  0.00000000000E+00  0.00000000000E+00  0.20830915125E+03  0.20830915126E+03  0.25500000920E-02 0. -1.
        2   -1    0    0  501    0  0.00000000000E+00  0.00000000000E+00 -0.58809850689E+03  0.58809850690E+03  0.25500000920E-02 0.  1.
    10030    2    1    2    0    0  0.00000000000E+00  0.00000000000E+00 -0.37978935565E+03  0.79640765816E+03  0.70001800214E+03 0.  0.
        1    1    3    3  502    0  0.16191526189E+03 -0.16748828850E+03  0.10729760240E+03  0.25647934483E+03  0.50400001928E-02 0. -1.
       -1    1    3    3    0  502 -0.16191526189E+03  0.16748828850E+03 -0.48708695805E+03  0.53992831333E+03  0.50400001928E-02 0.  1.
</event>
<event>
 5   0  0.4936000E-04  0.6995194E+03  0.7818609E-02  0.9718054E-01
        3   -1    0    0  501    0  0.00000000000E+00  0.00000000000E+00  0.18724251832E+03  0.18724254556E+03  0.10100000352E+00 0.  1.
       -3   -1    0    0    0  501  0.00000000000E+00  0.00000000000E+00 -0.65333357107E+03  0.65333357887E+03  0.10100000352E+00 0. -1.
    10030    2    1    2    0    0  0.00000000000E+00  0.00000000000E+00 -0.46609105274E+03  0.84057612444E+03  0.69951937180E+03 0.  0.
        2    1    3    3  502    0  0.87609565851E+02  0.33117940775E+03 -0.14827522103E+03  0.37328377586E+03  0.25500000920E-02 0. -1.
       -2    1    3    3    0  502 -0.87609565851E+02 -0.33117940775E+03 -0.31781583171E+03  0.46729234857E+03  0.25500000920E-02 0.  1.
</event>
<event>
 5   0  0.1282546E-03  0.6999799E+03  0.7818609E-02  0.9717267E-01
       -2   -1    0    0    0  501  0.00000000000E+00  0.00000000000E+00  0.61918232380E+02  0.61918232433E+02  0.25500000920E-02 0.  1.
        2   -1    0    0  501    0  0.00000000000E+00  0.00000000000E+00 -0.19783021934E+04  0.19783021935E+04  0.25500000920E-02 0. -1.
    10030    2    1    2    0    0  0.00000000000E+00  0.00000000000E+00 -0.19163839611E+04  0.20402204259E+04  0.69997992825E+03 0.  0.
        5    1    3    3  502    0  0.26833454576E+03  0.17093620931E+03 -0.53332470565E+03  0.62103135811E+03  0.46999998093E+01 0.  1.
       -5    1    3    3    0  502 -0.26833454576E+03 -0.17093620931E+03 -0.13830592554E+04  0.14191890678E+04  0.46999998093E+01 0. -1.
</event>
<event>
 5   0  0.1282546E-03  0.7000031E+03  0.7818609E-02  0.9717227E-01
       -2   -1    0    0    0  501  0.00000000000E+00  0.00000000000E+00  0.29146611485E+03  0.29146611486E+03  0.25500000920E-02 0. -1.
        2   -1    0    0  501    0  0.00000000000E+00  0.00000000000E+00 -0.42029271564E+03  0.42029271565E+03  0.25500000920E-02 0.  1.
    10030    2    1    2    0    0  0.00000000000E+00  0.00000000000E+00 -0.12882660079E+03  0.71175883050E+03  0.70000309980E+03 0.  0.
        5    1    3    3  502    0  0.14145735061E+03 -0.31859754246E+03 -0.32836673073E+02  0.35016412323E+03  0.46999998093E+01 0. -1.
       -5    1    3    3    0  502 -0.14145735061E+03  0.31859754246E+03 -0.95989927718E+02  0.36159470727E+03  0.46999998093E+01 0.  1.
</event>
<event>
 5   0  0.4936000E-04  0.6997658E+03  0.7818609E-02  0.9717633E-01
       -3   -1    0    0    0  501  0.00000000000E+00  0.00000000000E+00  0.28938620183E+03  0.28938621945E+03  0.10100000352E+00 0. -1.
        3   -1    0    0  501    0  0.00000000000E+00  0.00000000000E+00 -0.42302651020E+03  0.42302652226E+03  0.10100000352E+00 0.  1.
    10030    2    1    2    0    0  0.00000000000E+00  0.00000000000E+00 -0.13364030837E+03  0.71241274171E+03  0.69976580549E+03 0.  0.
        3    1    3    3  502    0 -0.13415944495E+02  0.10590428250E+03  0.27240194092E+03  0.29257226840E+03  0.10100000352E+00 0. -1.
       -3    1    3    3    0  502  0.13415944495E+02 -0.10590428250E+03 -0.40604224929E+03  0.41984047331E+03  0.10100000352E+00 0.  1.
</event>
<event>
 5   0  0.1222679E-03  0.6999809E+03  0.7818609E-02  0.9717265E-01
        2   -1    0    0  501    0  0.00000000000E+00  0.00000000000E+00  0.68774388884E+03  0.68774388884E+03  0.25500000920E-02 0.  1.
       -2   -1    0    0    0  501  0.00000000000E+00  0.00000000000E+00 -0.17810893235E+03  0.17810893237E+03  0.25500000920E-02 0. -1.
    10030    2    1    2    0    0  0.00000000000E+00  0.00000000000E+00  0.50963495649E+03  0.86585282121E+03  0.69998094197E+03 0.  0.
        2    1    3    3  502    0 -0.13006814486E+03 -0.21960492241E+03 -0.41407629640E+02  0.25857036964E+03  0.25500000920E-02 0. -1.
       -2    1    3    3    0  502  0.13006814486E+03  0.21960492241E+03  0.55104258613E+03  0.60728245157E+03  0.25500000920E-02 0.  1.
</event>
<event>
 5   0  0.7570633E-04  0.6998310E+03  0.7818609E-02  0.9717521E-01
       -1   -1    0    0    0  501  0.00000000000E+00  0.00000000000E+00  0.55358695771E+02  0.55358696000E+02  0.50400001928E-02 0. -1.
        1   -1    0    0  501    0  0.00000000000E+00  0.00000000000E+00 -0.22117728247E+04  0.22117728247E+04  0.50400001928E-02 0.  1.
    10030    2    1    2    0    0  0.00000000000E+00  0.00000000000E+00 -0.21564141289E+04  0.22671315207E+04  0.69983100584E+03 0.  0.
        5    1    3    3  502    0  0.33936144929E+02 -0.55942256205E+02 -0.21916745874E+04  0.21926561027E+04  0.46999998093E+01 0.  1.
       -5    1    3    3    0  502 -0.33936144929E+02  0.55942256205E+02  0.35260458403E+02  0.74475418004E+02  0.46999998093E+01 0. -1.
</event>
<event>
 5   0  0.1224048E-03  0.7007227E+03  0.7818609E-02  0.9715997E-01
       -2   -1    0    0    0  501  0.00000000000E+00  0.00000000000E+00  0.12123736317E+03  0.12123736320E+03  0.25500000920E-02 0. -1.
        2   -1    0    0  501    0  0.00000000000E+00  0.00000000000E+00 -0.10125020528E+04  0.10125020528E+04  0.25500000920E-02 0.  1.
    10030    2    1    2    0    0  0.00000000000E+00  0.00000000000E+00 -0.89126468965E+03  0.11337394160E+04  0.70072271007E+03 0.  0.
        3    1    3    3  502    0 -0.32827445163E+03 -0.55353332782E+02 -0.62231566511E+03  0.70576547400E+03  0.10100000352E+00 0.  1.
       -3    1    3    3    0  502  0.32827445163E+03  0.55353332782E+02 -0.26894902454E+03  0.42797394202E+03  0.10100000352E+00 0. -1.
</event>
<event>
 5   0  0.7574241E-04  0.7001513E+03  0.7818609E-02  0.9716973E-01
       -1   -1    0    0    0  501  0.00000000000E+00  0.00000000000E+00  0.43748952660E+03  0.43748952663E+03  0.50400001928E-02 0. -1.
        1   -1    0    0  501    0  0.00000000000E+00  0.00000000000E+00 -0.28012777731E+03  0.28012777736E+03  0.50400001928E-02 0.  1.
    10030    2    1    2    0    0  0.00000000000E+00  0.00000000000E+00  0.15736174929E+03  0.71761730399E+03  0.70015132282E+03 0.  0.
        3    1    3    3  502    0  0.25138360120E+03  0.47156086357E+02 -0.16631241191E+03  0.30508562731E+03  0.10100000352E+00 0.  1.
       -3    1    3    3    0  502 -0.25138360120E+03 -0.47156086357E+02  0.32367416120E+03  0.41253167668E+03  0.10100000352E+00 0. -1.
</event>
<event>
 5   0  0.1243087E-03  0.7014181E+03  0.7818609E-02  0.9714810E-01
        2   -1    0    0  501    0  0.00000000000E+00  0.00000000000E+00  0.13508183932E+04  0.13508183932E+04  0.25500000920E-02 0. -1.
       -2   -1    0    0    0  501  0.00000000000E+00  0.00000000000E+00 -0.91053575513E+02  0.91053575549E+02  0.25500000920E-02 0.  1.
    10030    2    1    2    0    0  0.00000000000E+00  0.00000000000E+00  0.12597648177E+04  0.14418719688E+04  0.70141811952E+03 0.  0.
        4    1    3    3  502    0 -0.13498425106E+02  0.11337493998E+03  0.13115386253E+04  0.13164996251E+04  0.12699999809E+01 0. -1.
       -4    1    3    3    0  502  0.13498425106E+02 -0.11337493998E+03 -0.51773807577E+02  0.12537234363E+03  0.12699999809E+01 0.  1.
</event>
<event>
 5   0  0.7459843E-04  0.7000296E+03  0.7818609E-02  0.9717181E-01
       -1   -1    0    0    0  501  0.00000000000E+00  0.00000000000E+00  0.38779380928E+03  0.38779380931E+03  0.50400001928E-02 0. -1.
        1   -1    0    0  501    0  0.00000000000E+00  0.00000000000E+00 -0.31591627696E+03  0.31591627700E+03  0.50400001928E-02 0.  1.
    10030    2    1    2    0    0  0.00000000000E+00  0.00000000000E+00  0.71877532316E+02  0.70371008631E+03  0.70002964646E+03 0.  0.
        2    1    3    3  502    0  0.31859412837E+03 -0.14485168344E+03  0.30798404592E+02  0.35133000236E+03  0.25500000920E-02 0.  1.
       -2    1    3    3    0  502 -0.31859412837E+03  0.14485168344E+03  0.41079127723E+02  0.35238008395E+03  0.25500000920E-02 0. -1.
</event>
<event>
 5   0  0.7013526E-04  0.6997859E+03  0.7818609E-02  0.9717598E-01
        1   -1    0    0  501    0  0.00000000000E+00  0.00000000000E+00  0.26341315040E+03  0.26341315045E+03  0.50400001928E-02 0.  1.
       -1   -1    0    0    0  501  0.00000000000E+00  0.00000000000E+00 -0.46476448347E+03  0.46476448350E+03  0.50400001928E-02 0. -1.
    10030    2    1    2    0    0  0.00000000000E+00  0.00000000000E+00 -0.20135133307E+03  0.72817763395E+03  0.69978590101E+03 0.  0.
        1    1    3    3  502    0  0.32339649842E+03  0.70817077053E+02  0.17165259670E+02  0.33150414742E+03  0.50400001928E-02 0. -1.
       -1    1    3    3    0  502 -0.32339649842E+03 -0.70817077053E+02 -0.21851659274E+03  0.39667348653E+03  0.50400001928E-02 0.  1.
</event>
<event>
 5   0  0.1282546E-03  0.7016020E+03  0.7818609E-02  0.9714497E-01
        2   -1    0    0  501    0  0.00000000000E+00  0.00000000000E+00  0.27202483850E+03  0.27202483851E+03  0.25500000920E-02 0.  1.
       -2   -1    0    0    0  501  0.00000000000E+00  0.00000000000E+00 -0.45239003360E+03  0.45239003361E+03  0.25500000920E-02 0. -1.
    10030    2    1    2    0    0  0.00000000000E+00  0.00000000000E+00 -0.18036519510E+03  0.72441487212E+03  0.70160195506E+03 0.  0.
        5    1    3    3  502    0 -0.26107619357E+03 -0.70499524975E+02  0.14048300827E+03  0.30477619244E+03  0.46999998093E+01 0.  1.
       -5    1    3    3    0  502  0.26107619357E+03  0.70499524975E+02 -0.32084820338E+03  0.41963867967E+03  0.46999998093E+01 0. -1.
</event>
<event>
 5   0  0.7570633E-04  0.7001111E+03  0.7818609E-02  0.9717042E-01
        1   -1    0    0  501    0  0.00000000000E+00  0.00000000000E+00  0.23030176065E+03  0.23030176070E+03  0.50400001928E-02 0. -1.
       -1   -1    0    0    0  501  0.00000000000E+00  0.00000000000E+00 -0.53207965908E+03  0.53207965911E+03  0.50400001928E-02 0.  1.
    10030    2    1    2    0    0  0.00000000000E+00  0.00000000000E+00 -0.30177789843E+03  0.76238141981E+03  0.70011108353E+03 0.  0.
        5    1    3    3  502    0  0.21112149543E+01  0.30931228156E+03 -0.32928384646E+03  0.45180580595E+03  0.46999998093E+01 0.  1.
       -5    1    3    3    0  502 -0.21112149543E+01 -0.30931228156E+03  0.27505948028E+02  0.31057561386E+03  0.46999998093E+01 0. -1.
</event>
<event>
 5   0  0.1224048E-03  0.6998656E+03  0.7818609E-02  0.9717462E-01
        2   -1    0    0  501    0  0.00000000000E+00  0.00000000000E+00  0.71642852612E+03  0.71642852612E+03  0.25500000920E-02 0.  1.
       -2   -1    0    0    0  501  0.00000000000E+00  0.00000000000E+00 -0.17092137653E+03  0.17092137655E+03  0.25500000920E-02 0. -1.
    10030    2    1    2    0    0  0.00000000000E+00  0.00000000000E+00  0.54550714959E+03  0.88734990267E+03  0.69986555818E+03 0.  0.
        3    1    3    3  502    0  0.22305141026E+02 -0.26159139927E+03 -0.20578857739E+02  0.26334593043E+03  0.10100000352E+00 0. -1.
       -3    1    3    3    0  502 -0.22305141026E+02  0.26159139927E+03  0.56608600733E+03  0.62400397224E+03  0.10100000352E+00 0.  1.
</event>
<event>
 5   0  0.1265562E-03  0.7001696E+03  0.7818609E-02  0.9716942E-01
       -2   -1    0    0    0  501  0.00000000000E+00  0.00000000000E+00  0.69488084770E+02  0.69488084816E+02  0.25500000920E-02 0. -1.
        2   -1    0    0  501    0  0.00000000000E+00  0.00000000000E+00 -0.17637466831E+04  0.17637466831E+04  0.25500000920E-02 0.  1.
    10030    2    1    2    0    0  0.00000000000E+00  0.00000000000E+00 -0.16942585983E+04  0.18332347679E+04  0.70016963394E+03 0.  0.
        1    1    3    3  502    0 -0.24920588280E+03  0.24404333713E+03 -0.92561882497E+03  0.98915667697E+03  0.50400001928E-02 0.  1.
       -1    1    3    3    0  502  0.24920588280E+03 -0.24404333713E+03 -0.76863977337E+03  0.84407809096E+03  0.50400001928E-02 0. -1.
</event>
<event>
 5   0  0.7459843E-04  0.7002639E+03  0.7818609E-02  0.9716781E-01
        1   -1    0    0  501    0  0.00000000000E+00  0.00000000000E+00  0.30285979517E+03  0.30285979521E+03  0.50400001928E-02 0.  1.
       -1   -1    0    0    0  501  0.00000000000E+00  0.00000000000E+00 -0.40478258148E+03  0.40478258151E+03  0.50400001928E-02 0. -1.
    10030    2    1    2    0    0  0.00000000000E+00  0.00000000000E+00 -0.10192278631E+03  0.70764237672E+03  0.70026386381E+03 0.  0.
        2    1    3    3  502    0  0.12766148629E+02  0.18438409493E+03 -0.35146977958E+03  0.39710385919E+03  0.25500000920E-02 0. -1.
       -2    1    3    3    0  502 -0.12766148629E+02 -0.18438409493E+03  0.24954699327E+03  0.31053851753E+03  0.25500000920E-02 0.  1.
</event>
<event>
 5   0  0.7459843E-04  0.6998886E+03  0.7818609E-02  0.9717423E-01
        1   -1    0    0  501    0  0.00000000000E+00  0.00000000000E+00  0.86275597533E+03  0.86275597534E+03  0.50400001928E-02 0. -1.
       -1   -1    0    0    0  501  0.00000000000E+00  0.00000000000E+00 -0.14194164593E+03  0.14194164602E+03  0.50400001928E-02 0.  1.
    10030    2    1    2    0    0  0.00000000000E+00  0.00000000000E+00  0.72081432939E+03  0.10046976214E+04  0.69988857179E+03 0.  0.
        2    1    3    3  502    0 -0.11657779642E+03 -0.37362171288E+02 -0.11020112179E+03  0.16471369618E+03  0.25500000920E-02 0.  1.
       -2    1    3    3    0  502  0.11657779642E+03  0.37362171288E+02  0.83101545118E+03  0.83998392518E+03  0.25500000920E-02 0. -1.
</event>
<event>
 5   0  0.1224048E-03  0.7004210E+03  0.7818609E-02  0.9716512E-01
        2   -1    0    0  501    0  0.00000000000E+00  0.00000000000E+00  0.30875948034E+03  0.30875948035E+03  0.25500000920E-02 0.  1.
       -2   -1    0    0    0  501  0.00000000000E+00  0.00000000000E+00 -0.39722634621E+03  0.39722634622E+03  0.25500000920E-02 0. -1.
    10030    2    1    2    0    0  0.00000000000E+00  0.00000000000E+00 -0.88466865877E+02  0.70598582657E+03  0.70042101693E+03 0.  0.
        3    1    3    3  502    0  0.73329358701E+02  0.14333422754E+03  0.26924472943E+03  0.31371106158E+03  0.10100000352E+00 0.  1.
       -3    1    3    3    0  502 -0.73329358701E+02 -0.14333422754E+03 -0.35771159530E+03  0.39227476499E+03  0.10100000352E+00 0. -1.
</event>
<event>
 5   0  0.1224048E-03  0.7000066E+03  0.7818609E-02  0.9717221E-01
       -2   -1    0    0    0  501  0.00000000000E+00  0.00000000000E+00  0.48900704672E+02  0.48900704739E+02  0.25500000920E-02 0. -1.
        2   -1    0    0  501    0  0.00000000000E+00  0.00000000000E+00 -0.25051234352E+04  0.25051234352E+04  0.25500000920E-02 0.  1.
    10030    2    1    2    0    0  0.00000000000E+00  0.00000000000E+00 -0.24562227306E+04  0.25540241400E+04  0.70000657529E+03 0.  0.
        3    1    3    3  502    0  0.89037370312E+01 -0.51696133551E+02 -0.24906991704E+04  0.24912515197E+04  0.10100000352E+00 0.  1.
       -3    1    3    3    0  502 -0.89037370312E+01  0.51696133551E+02  0.34476439809E+02  0.62772620307E+02  0.10100000352E+00 0. -1.
</event>
<event>
 5   0  0.7572415E-04  0.6994021E+03  0.7818609E-02  0.9718255E-01
        1   -1    0    0  501    0  0.00000000000E+00  0.00000000000E+00  0.40938335899E+03  0.40938335902E+03  0.50400001928E-02 0. -1.
       -1   -1    0    0    0  501  0.00000000000E+00  0.00000000000E+00 -0.29871953594E+03  0.29871953598E+03  0.50400001928E-02 0.  1.
    10030    2    1    2    0    0  0.00000000000E+00  0.00000000000E+00  0.11066382305E+03  0.70810289500E+03  0.69940205045E+03 0.  0.
        4    1    3    3  502    0  0.23405828056E+03 -0.13000031825E+03  0.28308787462E+03  0.38964563272E+03  0.12699999809E+01 0. -1.
       -4    1    3    3    0  502 -0.23405828056E+03  0.13000031825E+03 -0.17242405157E+03  0.31845726228E+03  0.12699999809E+01 0.  1.
</event>
<event>
 5   0  0.7572415E-04  0.6994011E+03  0.7818609E-02  0.9718257E-01
        1   -1    0    0  501    0  0.00000000000E+00  0.00000000000E+00  0.14753824864E+04  0.14753824864E+04  0.50400001928E-02 0. -1.
       -1   -1    0    0    0  501  0.00000000000E+00  0.00000000000E+00 -0.82887307526E+02  0.82887307680E+02  0.50400001928E-02 0.  1.
    10030    2    1    2    0    0  0.00000000000E+00  0.00000000000E+00  0.13924951789E+04  0.15582697941E+04  0.69940112094E+03 0.  0.
        4    1    3    3  502    0 -0.28775781378E+03  0.12120296392E+03  0.10470729266E+04  0.10926381122E+04  0.12699999809E+01 0.  1.
       -4    1    3    3    0  502  0.28775781378E+03 -0.12120296392E+03  0.34542225230E+03  0.46563168185E+03  0.12699999809E+01 0. -1.
</event>
<event>
 5   0  0.7013526E-04  0.6999793E+03  0.7818609E-02  0.9717268E-01
        1   -1    0    0  501    0  0.00000000000E+00  0.00000000000E+00  0.14820664001E+03  0.14820664009E+03  0.50400001928E-02 0. -1.
       -1   -1    0    0    0  501  0.00000000000E+00  0.00000000000E+00 -0.82649984824E+03  0.82649984825E+03  0.50400001928E-02 0.  1.
    10030    2    1    2    0    0  0.00000000000E+00  0.00000000000E+00 -0.67829320823E+03  0.97470648834E+03  0.69997932976E+03 0.  0.
        1    1    3    3  502    0  0.19785659937E+03  0.10630188136E+02  0.62584252898E+02  0.20779081681E+03  0.50400001928E-02 0. -1.
       -1    1    3    3    0  502 -0.19785659937E+03 -0.10630188136E+02 -0.74087746113E+03  0.76691567154E+03  0.50400001928E-02 0.  1.
</event>
<event>
 5   0  0.7013526E-04  0.6995621E+03  0.7818609E-02  0.9717981E-01
       -1   -1    0    0    0  501  0.00000000000E+00  0.00000000000E+00  0.18432800130E+03  0.18432800137E+03  0.50400001928E-02 0. -1.
        1   -1    0    0  501    0  0.00000000000E+00  0.00000000000E+00 -0.66374496316E+03  0.66374496318E+03  0.50400001928E-02 0.  1.
    10030    2    1    2    0    0  0.00000000000E+00  0.00000000000E+00 -0.47941696186E+03  0.84807296455E+03  0.69956209865E+03 0.  0.
        1    1    3    3  502    0 -0.33435101354E+03 -0.10213229036E+03 -0.25327192560E+03  0.43170391858E+03  0.50400001928E-02 0. -1.
       -1    1    3    3    0  502  0.33435101354E+03  0.10213229036E+03 -0.22614503626E+03  0.41636904597E+03  0.50400001928E-02 0.  1.
</event>
<event>
 5   0  0.7459843E-04  0.6986053E+03  0.7818609E-02  0.9719620E-01
        1   -1    0    0  501    0  0.00000000000E+00  0.00000000000E+00  0.16011521958E+03  0.16011521966E+03  0.50400001928E-02 0. -1.
       -1   -1    0    0    0  501  0.00000000000E+00  0.00000000000E+00 -0.76202840231E+03  0.76202840233E+03  0.50400001928E-02 0.  1.
    10030    2    1    2    0    0  0.00000000000E+00  0.00000000000E+00 -0.60191318274E+03  0.92214362198E+03  0.69860531061E+03 0.  0.
        2    1    3    3  502    0 -0.24460564357E+03 -0.23972367294E+03 -0.39157463922E+03  0.52022116289E+03  0.25500000920E-02 0. -1.
       -2    1    3    3    0  502  0.24460564357E+03  0.23972367294E+03 -0.21033854352E+03  0.40192245910E+03  0.25500000920E-02 0.  1.
</event>
<event>
 5   0  0.7570633E-04  0.7000179E+03  0.7818609E-02  0.9717202E-01
        1   -1    0    0  501    0  0.00000000000E+00  0.00000000000E+00  0.57822759020E+03  0.57822759022E+03  0.50400001928E-02 0. -1.
       -1   -1    0    0    0  501  0.00000000000E+00  0.00000000000E+00 -0.21186515251E+03  0.21186515257E+03  0.50400001928E-02 0.  1.
    10030    2    1    2    0    0  0.00000000000E+00  0.00000000000E+00  0.36636243768E+03  0.79009274279E+03  0.70001793296E+03 0.  0.
        5    1    3    3  502    0  0.26025223941E+03  0.16608551742E+02 -0.80255285543E+02  0.27289205369E+03  0.46999998093E+01 0.  1.
       -5    1    3    3    0  502 -0.26025223941E+03 -0.16608551742E+02  0.44661772323E+03  0.51720068910E+03  0.46999998093E+01 0. -1.
</event>
<event>
 5   0  0.4936000E-04  0.6999158E+03  0.7818609E-02  0.9717376E-01
        3   -1    0    0  501    0  0.00000000000E+00  0.00000000000E+00  0.11545424129E+03  0.11545428547E+03  0.10100000352E+00 0.  1.
       -3   -1    0    0    0  501  0.00000000000E+00  0.00000000000E+00 -0.10607708595E+04  0.10607708643E+04  0.10100000352E+00 0. -1.
    10030    2    1    2    0    0  0.00000000000E+00  0.00000000000E+00 -0.94531661821E+03  0.11762251498E+04  0.69991577658E+03 0.  0.
        1    1    3    3  502    0  0.15296493380E+03  0.28013072377E+03 -0.71385317834E+03  0.78195770578E+03  0.50400001928E-02 0. -1.
       -1    1    3    3    0  502 -0.15296493380E+03 -0.28013072377E+03 -0.23146343987E+03  0.39426744399E+03  0.50400001928E-02 0.  1.
</event>
<event>
 5   0  0.7459843E-04  0.6999740E+03  0.7818609E-02  0.9717277E-01
        1   -1    0    0  501    0  0.00000000000E+00  0.00000000000E+00  0.14720141755E+03  0.14720141763E+03  0.50400001928E-02 0.  1.
       -1   -1    0    0    0  501  0.00000000000E+00  0.00000000000E+00 -0.83213132031E+03  0.83213132032E+03  0.50400001928E-02 0. -1.
    10030    2    1    2    0    0  0.00000000000E+00  0.00000000000E+00 -0.68492990276E+03  0.97933273795E+03  0.69997402804E+03 0.  0.
        2    1    3    3  502    0  0.33919162048E+03  0.44655062999E+02 -0.23921677797E+03  0.41745622156E+03  0.25500000920E-02 0. -1.
       -2    1    3    3    0  502 -0.33919162048E+03 -0.44655062999E+02 -0.44571312479E+03  0.56187651639E+03  0.25500000920E-02 0.  1.
</event>
<event>
 5   0  0.1265562E-03  0.6998212E+03  0.7818609E-02  0.9717538E-01
       -2   -1    0    0    0  501  0.00000000000E+00  0.00000000000E+00  0.17006806786E+04  0.17006806786E+04  0.25500000920E-02 0.  1.
        2   -1    0    0  501    0  0.00000000000E+00  0.00000000000E+00 -0.71993193398E+02  0.71993193443E+02  0.25500000920E-02 0. -1.
    10030    2    1    2    0    0  0.00000000000E+00  0.00000000000E+00  0.16286874852E+04  0.17726738720E+04  0.69982121444E+03 0.  0.
        1    1    3    3  502    0  0.96803243088E+02  0.11042957444E+03  0.98423779888E+01  0.14718162661E+03  0.50400001928E-02 0. -1.
       -1    1    3    3    0  502 -0.96803243088E+02 -0.11042957444E+03  0.16188451072E+04  0.16254922454E+04  0.50400001928E-02 0.  1.
</event>
<event>
 5   0  0.1265562E-03  0.7008480E+03  0.7818609E-02  0.9715783E-01
       -2   -1    0    0    0  501  0.00000000000E+00  0.00000000000E+00  0.17552278916E+03  0.17552278918E+03  0.25500000920E-02 0. -1.
        2   -1    0    0  501    0  0.00000000000E+00  0.00000000000E+00 -0.69960697883E+03  0.69960697884E+03  0.25500000920E-02 0.  1.
    10030    2    1    2    0    0  0.00000000000E+00  0.00000000000E+00 -0.52408418968E+03  0.87512976802E+03  0.70084796711E+03 0.  0.
        1    1    3    3  502    0 -0.11234339913E+03 -0.78969515188E+02 -0.66461029089E+03  0.67864870327E+03  0.50400001928E-02 0.  1.
       -1    1    3    3    0  502  0.11234339913E+03  0.78969515188E+02  0.14052610122E+03  0.19648106475E+03  0.50400001928E-02 0. -1.
</event>
<event>
 5   0  0.1222679E-03  0.6999843E+03  0.7818609E-02  0.9717259E-01
       -2   -1    0    0    0  501  0.00000000000E+00  0.00000000000E+00  0.42717137125E+02  0.42717137201E+02  0.25500000920E-02 0.  1.
        2   -1    0    0  501    0  0.00000000000E+00  0.00000000000E+00 -0.28675729736E+04  0.28675729736E+04  0.25500000920E-02 0. -1.
    10030    2    1    2    0    0  0.00000000000E+00  0.00000000000E+00 -0.28248558365E+04  0.29102901108E+04  0.69998430851E+03 0.  0.
        2    1    3    3  502    0  0.60417527700E+02  0.25881547413E+02  0.16826810140E+02  0.67847429545E+02  0.25500000920E-02 0.  1.
       -2    1    3    3    0  502 -0.60417527700E+02 -0.25881547413E+02 -0.28416826466E+04  0.28424426813E+04  0.25500000920E-02 0. -1.
</event>
<event>
 5   0  0.7572415E-04  0.7002336E+03  0.7818609E-02  0.9716833E-01
        1   -1    0    0  501    0  0.00000000000E+00  0.00000000000E+00  0.15620098054E+04  0.15620098054E+04  0.50400001928E-02 0. -1.
       -1   -1    0    0    0  501  0.00000000000E+00  0.00000000000E+00 -0.78476946386E+02  0.78476946548E+02  0.50400001928E-02 0.  1.
    10030    2    1    2    0    0  0.00000000000E+00  0.00000000000E+00  0.14835328590E+04  0.16404867520E+04  0.70023356073E+03 0.  0.
        4    1    3    3  502    0  0.14715033045E+02  0.26188265980E+03  0.19846031239E+03  0.32891817857E+03  0.12699999809E+01 0.  1.
       -4    1    3    3    0  502 -0.14715033045E+02 -0.26188265980E+03  0.12850725466E+04  0.13115685734E+04  0.12699999809E+01 0. -1.
</event>
<event>
 5   0  0.7572415E-04  0.6999959E+03  0.7818609E-02  0.9717239E-01
        1   -1    0    0  501    0  0.00000000000E+00  0.00000000000E+00  0.98142556534E+03  0.98142556536E+03  0.50400001928E-02 0. -1.
       -1   -1    0    0    0  501  0.00000000000E+00  0.00000000000E+00 -0.12481696694E+03  0.12481696704E+03  0.50400001928E-02 0.  1.
    10030    2    1    2    0    0  0.00000000000E+00  0.00000000000E+00  0.85660859840E+03  0.11062425324E+04  0.69999589258E+03 0.  0.
        4    1    3    3  502    0 -0.77280206778E+02  0.23719307645E+03  0.40346553436E+02  0.25270980027E+03  0.12699999809E+01 0.  1.
       -4    1    3    3    0  502  0.77280206778E+02 -0.23719307645E+03  0.81626204496E+03  0.85353273213E+03  0.12699999809E+01 0. -1.
</event>
<event>
 5   0  0.7013526E-04  0.7000451E+03  0.7818609E-02  0.9717155E-01
       -1   -1    0    0    0  501  0.00000000000E+00  0.00000000000E+00  0.19451462901E+03  0.19451462908E+03  0.50400001928E-02 0. -1.
        1   -1    0    0  501    0  0.00000000000E+00  0.00000000000E+00 -0.62985381718E+03  0.62985381720E+03  0.50400001928E-02 0.  1.
    10030    2    1    2    0    0  0.00000000000E+00  0.00000000000E+00 -0.43533918817E+03  0.82436844628E+03  0.70004508888E+03 0.  0.
        1    1    3    3  502    0 -0.93017048401E+02 -0.18315023746E+03  0.11606875846E+03  0.23594096187E+03  0.50400001928E-02 0. -1.
       -1    1    3    3    0  502  0.93017048401E+02  0.18315023746E+03 -0.55140794663E+03  0.58842748440E+03  0.50400001928E-02 0.  1.
</event>
<event>
 5   0  0.7459843E-04  0.7000871E+03  0.7818609E-02  0.9717083E-01
       -1   -1    0    0    0  501  0.00000000000E+00  0.00000000000E+00  0.35655501270E+03  0.35655501274E+03  0.50400001928E-02 0.  1.
        1   -1    0    0  501    0  0.00000000000E+00  0.00000000000E+00 -0.34365102963E+03  0.34365102966E+03  0.50400001928E-02 0. -1.
    10030    2    1    2    0    0  0.00000000000E+00  0.00000000000E+00  0.12903983078E+02  0.70020604240E+03  0.70008712960E+03 0.  0.
        2    1    3    3  502    0  0.29441384057E+03 -0.14091488857E+02  0.19530254128E+03  0.35358331721E+03  0.25500000920E-02 0.  1.
       -2    1    3    3    0  502 -0.29441384057E+03  0.14091488857E+02 -0.18239855820E+03  0.34662272519E+03  0.25500000920E-02 0. -1.
</event>
<event>
 5   0  0.4936000E-04  0.7001561E+03  0.7818609E-02  0.9716965E-01
       -4   -1    0    0    0  501  0.00000000000E+00  0.00000000000E+00  0.71778213898E+03  0.71778326251E+03  0.12699999809E+01 0.  1.
        4   -1    0    0  501    0  0.00000000000E+00  0.00000000000E+00 -0.17073711916E+03  0.17074184244E+03  0.12699999809E+01 0. -1.
    10030    2    1    2    0    0  0.00000000000E+00  0.00000000000E+00  0.54704501983E+03  0.88852510495E+03  0.70015613145E+03 0.  0.
        5    1    3    3  502    0 -0.13756955541E+03  0.91514777243E+02 -0.11809921194E+03  0.20314982375E+03  0.46999998093E+01 0. -1.
       -5    1    3    3    0  502  0.13756955541E+03 -0.91514777243E+02  0.66514423177E+03  0.68537528120E+03  0.46999998093E+01 0.  1.
</event>
<event>
 5   0  0.1224048E-03  0.6985876E+03  0.7818609E-02  0.9719651E-01
       -2   -1    0    0    0  501  0.00000000000E+00  0.00000000000E+00  0.89114617987E+02  0.89114618024E+02  0.25500000920E-02 0. -1.
        2   -1    0    0  501    0  0.00000000000E+00  0.00000000000E+00 -0.13690925801E+04  0.13690925801E+04  0.25500000920E-02 0.  1.
    10030    2    1    2    0    0  0.00000000000E+00  0.00000000000E+00 -0.12799779621E+04  0.14582071981E+04  0.69858761023E+03 0.  0.
        3    1    3    3  502    0 -0.47946014859E+02 -0.22372337321E+03 -0.11908919092E+04  0.12126724692E+04  0.10100000352E+00 0.  1.
       -3    1    3    3    0  502  0.47946014859E+02  0.22372337321E+03 -0.89086052916E+02  0.24553472888E+03  0.10100000352E+00 0. -1.
</event>
<event>
 5   0  0.1265562E-03  0.7002644E+03  0.7818609E-02  0.9716780E-01
        2   -1    0    0  501    0  0.00000000000E+00  0.00000000000E+00  0.11492253139E+04  0.11492253139E+04  0.25500000920E-02 0.  1.
       -2   -1    0    0    0  501  0.00000000000E+00  0.00000000000E+00 -0.10667407719E+03  0.10667407722E+03  0.25500000920E-02 0. -1.
    10030    2    1    2    0    0  0.00000000000E+00  0.00000000000E+00  0.10425512367E+04  0.12558993911E+04  0.70026437828E+03 0.  0.
        1    1    3    3  502    0  0.67534911133E+02  0.32653527386E+03  0.32973308792E+03  0.46894579494E+03  0.50400001928E-02 0. -1.
       -1    1    3    3    0  502 -0.67534911133E+02 -0.32653527386E+03  0.71281814879E+03  0.78695359620E+03  0.50400001928E-02 0.  1.
</event>
<event>
 5   0  0.1224048E-03  0.6999641E+03  0.7818609E-02  0.9717294E-01
       -2   -1    0    0    0  501  0.00000000000E+00  0.00000000000E+00  0.16865829211E+03  0.16865829212E+03  0.25500000920E-02 0. -1.
        2   -1    0    0  501    0  0.00000000000E+00  0.00000000000E+00 -0.72624609804E+03  0.72624609804E+03  0.25500000920E-02 0.  1.
    10030    2    1    2    0    0  0.00000000000E+00  0.00000000000E+00 -0.55758780593E+03  0.89490439016E+03  0.69996407494E+03 0.  0.
        3    1    3    3  502    0 -0.15270116178E+03 -0.58907576672E+02 -0.67430266166E+03  0.69388171695E+03  0.10100000352E+00 0.  1.
       -3    1    3    3    0  502  0.15270116178E+03  0.58907576672E+02  0.11671485573E+03  0.20102267321E+03  0.10100000352E+00 0. -1.
</event>
<event>
 5   0  0.7572415E-04  0.6986669E+03  0.7818609E-02  0.9719515E-01
       -1   -1    0    0    0  501  0.00000000000E+00  0.00000000000E+00  0.25664391263E+03  0.25664391268E+03  0.50400001928E-02 0. -1.
        1   -1    0    0  501    0  0.00000000000E+00  0.00000000000E+00 -0.47549881450E+03  0.47549881453E+03  0.50400001928E-02 0.  1.
    10030    2    1    2    0    0  0.00000000000E+00  0.00000000000E+00 -0.21885490187E+03  0.73214272721E+03  0.69866694851E+03 0.  0.
        4    1    3    3  502    0 -0.14189912577E+03  0.17407280233E+03 -0.38982137713E+03  0.44988778754E+03  0.12699999809E+01 0.  1.
       -4    1    3    3    0  502  0.14189912577E+03 -0.17407280233E+03  0.17096647526E+03  0.28225493967E+03  0.12699999809E+01 0. -1.
</event>
<event>
 5   0  0.1222679E-03  0.6998148E+03  0.7818609E-02  0.9717549E-01
       -2   -1    0    0    0  501  0.00000000000E+00  0.00000000000E+00  0.75195203935E+03  0.75195203935E+03  0.25500000920E-02 0.  1.
        2   -1    0    0  501    0  0.00000000000E+00  0.00000000000E+00 -0.16282311836E+03  0.16282311838E+03  0.25500000920E-02 0. -1.
    10030    2    1    2    0    0  0.00000000000E+00  0.00000000000E+00  0.58912892099E+03  0.91477515773E+03  0.69981476382E+03 0.  0.
        2    1    3    3  502    0  0.19996985835E+03  0.27113796285E+03  0.17102891839E+03  0.37782883702E+03  0.25500000920E-02 0. -1.
       -2    1    3    3    0  502 -0.19996985835E+03 -0.27113796285E+03  0.41810000260E+03  0.53694632072E+03  0.25500000920E-02 0.  1.
</event>
<event>
 5   0  0.1222679E-03  0.6998583E+03  0.7818609E-02  0.9717475E-01
       -2   -1    0    0    0  501  0.00000000000E+00  0.00000000000E+00  0.26053912112E+03  0.26053912113E+03  0.25500000920E-02 0. -1.
        2   -1    0    0  501    0  0.00000000000E+00  0.00000000000E+00 -0.46998851163E+03  0.46998851164E+03  0.25500000920E-02 0.  1.
    10030    2    1    2    0    0  0.00000000000E+00  0.00000000000E+00 -0.20944939051E+03  0.73052763277E+03  0.69985825355E+03 0.  0.
        2    1    3    3  502    0  0.10827627070E+03  0.30698691461E+03  0.29298496256E+02  0.32683806147E+03  0.25500000920E-02 0.  1.
       -2    1    3    3    0  502 -0.10827627070E+03 -0.30698691461E+03 -0.23874788677E+03  0.40368957130E+03  0.25500000920E-02 0. -1.
</event>
<event>
 5   0  0.7572415E-04  0.7002447E+03  0.7818609E-02  0.9716814E-01
        1   -1    0    0  501    0  0.00000000000E+00  0.00000000000E+00  0.79388360660E+03  0.79388360661E+03  0.50400001928E-02 0.  1.
       -1   -1    0    0    0  501  0.00000000000E+00  0.00000000000E+00 -0.15441263581E+03  0.15441263589E+03  0.50400001928E-02 0. -1.
    10030    2    1    2    0    0  0.00000000000E+00  0.00000000000E+00  0.63947097078E+03  0.94829624251E+03  0.70024470086E+03 0.  0.
        4    1    3    3  502    0  0.99605776404E+02  0.23065242990E+03 -0.10493097468E+02  0.25146286427E+03  0.12699999809E+01 0. -1.
       -4    1    3    3    0  502 -0.99605776404E+02 -0.23065242990E+03  0.64996406825E+03  0.69683337824E+03  0.12699999809E+01 0.  1.
</event>
<event>
 5   0  0.7459843E-04  0.6999156E+03  0.7818609E-02  0.9717377E-01
        1   -1    0    0  501    0  0.00000000000E+00  0.00000000000E+00  0.13702953069E+04  0.13702953069E+04  0.50400001928E-02 0. -1.
       -1   -1    0    0    0  501  0.00000000000E+00  0.00000000000E+00 -0.89375221218E+02  0.89375221360E+02  0.50400001928E-02 0.  1.
    10030    2    1    2    0    0  0.00000000000E+00  0.00000000000E+00  0.12809200856E+04  0.14596705282E+04  0.69991555575E+03 0.  0.
        2    1    3    3  502    0  0.20617062730E+03  0.60638146706E+02  0.12164764353E+04  0.12353130089E+04  0.25500000920E-02 0. -1.
       -2    1    3    3    0  502 -0.20617062730E+03 -0.60638146706E+02  0.64443650369E+02  0.22435751932E+03  0.25500000920E-02 0.  1.
</event>
<event>
 5   0  0.7570633E-04  0.6990848E+03  0.7818609E-02  0.9718799E-01
        1   -1    0    0  501    0  0.00000000000E+00  0.00000000000E+00  0.12689838162E+04  0.12689838162E+04  0.50400001928E-02 0.  1.
       -1   -1    0    0    0  501  0.00000000000E+00  0.00000000000E+00 -0.96281667464E+02  0.96281667596E+02  0.50400001928E-02 0. -1.
    10030    2    1    2    0    0  0.00000000000E+00  0.00000000000E+00  0.11727021488E+04  0.13652654838E+04  0.69908476713E+03 0.  0.
        5    1    3    3  502    0  0.31182156116E+03 -0.11318346734E+03  0.80130327428E+03  0.86726709303E+03  0.46999998093E+01 0. -1.
       -5    1    3    3    0  502 -0.31182156116E+03  0.11318346734E+03  0.37139887449E+03  0.49799839082E+03  0.46999998093E+01 0.  1.
</event>
<event>
 5   0  0.1243087E-03  0.7000270E+03  0.7818609E-02  0.9717186E-01
       -2   -1    0    0    0  501  0.00000000000E+00  0.00000000000E+00  0.38337640862E+03  0.38337640863E+03  0.25500000920E-02 0.  1.
        2   -1    0    0  501    0  0.00000000000E+00  0.00000000000E+00 -0.31955392004E+03  0.31955392005E+03  0.25500000920E-02 0. -1.
    10030    2    1    2    0    0  0.00000000000E+00  0.00000000000E+00  0.63822488579E+02  0.70293032868E+03  0.70002695443E+03 0.  0.
        4    1    3    3  502    0  0.30035643622E+03  0.93320769583E+02 -0.12230001078E+03  0.33746356893E+03  0.12699999809E+01 0. -1.
       -4    1    3    3    0  502 -0.30035643622E+03 -0.93320769583E+02  0.18612249936E+03  0.36546675975E+03  0.12699999809E+01 0.  1.
</event>
<event>
 5   0  0.7570633E-04  0.6998122E+03  0.7818609E-02  0.9717553E-01
       -1   -1    0    0    0  501  0.00000000000E+00  0.00000000000E+00  0.13946358887E+03  0.13946358896E+03  0.50400001928E-02 0.  1.
        1   -1    0    0  501    0  0.00000000000E+00  0.00000000000E+00 -0.87789428358E+03  0.87789428360E+03  0.50400001928E-02 0. -1.
    10030    2    1    2    0    0  0.00000000000E+00  0.00000000000E+00 -0.73843069471E+03  0.10173578726E+04  0.69981222479E+03 0.  0.
        5    1    3    3  502    0 -0.76932875944E+02  0.21558460578E+03  0.15459135637E+02  0.22946996432E+03  0.46999998093E+01 0. -1.
       -5    1    3    3    0  502  0.76932875944E+02 -0.21558460578E+03 -0.75388983035E+03  0.78788790824E+03  0.46999998093E+01 0.  1.
</event>
<event>
 5   0  0.1265562E-03  0.6998373E+03  0.7818609E-02  0.9717510E-01
       -2   -1    0    0    0  501  0.00000000000E+00  0.00000000000E+00  0.58229370123E+02  0.58229370179E+02  0.25500000920E-02 0.  1.
        2   -1    0    0  501    0  0.00000000000E+00  0.00000000000E+00 -0.21027716438E+04  0.21027716438E+04  0.25500000920E-02 0. -1.
    10030    2    1    2    0    0  0.00000000000E+00  0.00000000000E+00 -0.20445422736E+04  0.21610010139E+04  0.69983731936E+03 0.  0.
        1    1    3    3  502    0 -0.33827879142E+03 -0.52369688505E+02 -0.12463900055E+04  0.12925413614E+04  0.50400001928E-02 0.  1.
       -1    1    3    3    0  502  0.33827879142E+03  0.52369688505E+02 -0.79815226810E+03  0.86845965255E+03  0.50400001928E-02 0. -1.
</event>
<event>
 5   0  0.7570633E-04  0.7001006E+03  0.7818609E-02  0.9717060E-01
       -1   -1    0    0    0  501  0.00000000000E+00  0.00000000000E+00  0.17922442738E+03  0.17922442745E+03  0.50400001928E-02 0.  1.
        1   -1    0    0  501    0  0.00000000000E+00  0.00000000000E+00 -0.68369700523E+03  0.68369700525E+03  0.50400001928E-02 0. -1.
    10030    2    1    2    0    0  0.00000000000E+00  0.00000000000E+00 -0.50447257785E+03  0.86292143270E+03  0.70010057650E+03 0.  0.
        5    1    3    3  502    0  0.14501879077E+03 -0.10411860365E+03  0.11885051844E+03  0.21451962389E+03  0.46999998093E+01 0.  1.
       -5    1    3    3    0  502 -0.14501879077E+03  0.10411860365E+03 -0.62332309629E+03  0.64840180881E+03  0.46999998093E+01 0. -1.
</event>
<event>
 5   0  0.7013526E-04  0.7000067E+03  0.7818609E-02  0.9717221E-01
        1   -1    0    0  501    0  0.00000000000E+00  0.00000000000E+00  0.79906349937E+03  0.79906349939E+03  0.50400001928E-02 0. -1.
       -1   -1    0    0    0  501  0.00000000000E+00  0.00000000000E+00 -0.15330741252E+03  0.15330741260E+03  0.50400001928E-02 0.  1.
    10030    2    1    2    0    0  0.00000000000E+00  0.00000000000E+00  0.64575608685E+03  0.95237091199E+03  0.70000673590E+03 0.  0.
        1    1    3    3  502    0  0.10615130517E+03  0.11089466971E+03  0.75081762761E+03  0.76635033589E+03  0.50400001928E-02 0. -1.
       -1    1    3    3    0  502 -0.10615130517E+03 -0.11089466971E+03 -0.10506154076E+03  0.18602057610E+03  0.50400001928E-02 0.  1.
</event>
<event>
 5   0  0.7574241E-04  0.7000384E+03  0.7818609E-02  0.9717166E-01
       -1   -1    0    0    0  501  0.00000000000E+00  0.00000000000E+00  0.16414621462E+03  0.16414621470E+03  0.50400001928E-02 0.  1.
        1   -1    0    0  501    0  0.00000000000E+00  0.00000000000E+00 -0.74636779221E+03  0.74636779223E+03  0.50400001928E-02 0. -1.
    10030    2    1    2    0    0  0.00000000000E+00  0.00000000000E+00 -0.58222157760E+03  0.91051400693E+03  0.70003842137E+03 0.  0.
        3    1    3    3  502    0  0.23784574689E+03 -0.19842848675E+03 -0.50311873853E+03  0.59082394919E+03  0.10100000352E+00 0. -1.
       -3    1    3    3    0  502 -0.23784574689E+03  0.19842848675E+03 -0.79102839065E+02  0.31969005774E+03  0.10100000352E+00 0.  1.
</event>
<event>
 5   0  0.7570633E-04  0.7000349E+03  0.7818609E-02  0.9717172E-01
        1   -1    0    0  501    0  0.00000000000E+00  0.00000000000E+00  0.23830610119E+03  0.23830610125E+03  0.50400001928E-02 0. -1.
       -1   -1    0    0    0  501  0.00000000000E+00  0.00000000000E+00 -0.51409607765E+03  0.51409607768E+03  0.50400001928E-02 0.  1.
    10030    2    1    2    0    0  0.00000000000E+00  0.00000000000E+00 -0.27578997646E+03  0.75240217893E+03  0.70003494751E+03 0.  0.
        5    1    3    3  502    0  0.23894815798E+03 -0.11469590113E+03 -0.38355065917E+03  0.46624518238E+03  0.46999998093E+01 0.  1.
       -5    1    3    3    0  502 -0.23894815798E+03  0.11469590113E+03  0.10776068271E+03  0.28615699655E+03  0.46999998093E+01 0. -1.
</event>
<event>
 5   0  0.1243087E-03  0.7021000E+03  0.7818609E-02  0.9713648E-01
       -2   -1    0    0    0  501  0.00000000000E+00  0.00000000000E+00  0.13153657039E+03  0.13153657041E+03  0.25500000920E-02 0.  1.
        2   -1    0    0  501    0  0.00000000000E+00  0.00000000000E+00 -0.93689614204E+03  0.93689614205E+03  0.25500000920E-02 0. -1.
    10030    2    1    2    0    0  0.00000000000E+00  0.00000000000E+00 -0.80535957166E+03  0.10684327125E+04  0.70210000811E+03 0.  0.
        4    1    3    3  502    0  0.41735298225E+02 -0.15962389489E+03  0.68854116577E+02  0.17878513699E+03  0.12699999809E+01 0.  1.
       -4    1    3    3    0  502 -0.41735298225E+02  0.15962389489E+03 -0.87421368823E+03  0.88964757547E+03  0.12699999809E+01 0. -1.
</event>
<event>
 5   0  0.1224048E-03  0.7002931E+03  0.7818609E-02  0.9716731E-01
       -2   -1    0    0    0  501  0.00000000000E+00  0.00000000000E+00  0.18488418482E+03  0.18488418484E+03  0.25500000920E-02 0. -1.
        2   -1    0    0  501    0  0.00000000000E+00  0.00000000000E+00 -0.66313195019E+03  0.66313195019E+03  0.25500000920E-02 0.  1.
    10030    2    1    2    0    0  0.00000000000E+00  0.00000000000E+00 -0.47824776536E+03  0.84801613503E+03  0.70029311020E+03 0.  0.
        3    1    3    3  502    0 -0.61875938990E+02 -0.19000655021E+03  0.10905474992E+03  0.22764900534E+03  0.10100000352E+00 0. -1.
       -3    1    3    3    0  502  0.61875938990E+02  0.19000655021E+03 -0.58730251528E+03  0.62036712969E+03  0.10100000352E+00 0.  1.
</event>
<event>
 5   0  0.1222679E-03  0.7007015E+03  0.7818609E-02  0.9716033E-01
        2   -1    0    0  501    0  0.00000000000E+00  0.00000000000E+00  0.41260746649E+03  0.41260746650E+03  0.25500000920E-02 0.  1.
       -2   -1    0    0    0  501  0.00000000000E+00  0.00000000000E+00 -0.29748773288E+03  0.29748773289E+03  0.25500000920E-02 0. -1.
    10030    2    1    2    0    0  0.00000000000E+00  0.00000000000E+00  0.11511973361E+03  0.71009519939E+03  0.70070153355E+03 0.  0.
        2    1    3    3  502    0  0.26661488671E+03  0.52981350921E+02  0.28155502591E+03  0.39136141095E+03  0.25500000920E-02 0.  1.
       -2    1    3    3    0  502 -0.26661488671E+03 -0.52981350921E+02 -0.16643529230E+03  0.31873378844E+03  0.25500000920E-02 0. -1.
</event>
<event>
 5   0  0.1265562E-03  0.6998546E+03  0.7818609E-02  0.9717481E-01
       -2   -1    0    0    0  501  0.00000000000E+00  0.00000000000E+00  0.12700466752E+03  0.12700466755E+03  0.25500000920E-02 0.  1.
        2   -1    0    0  501    0  0.00000000000E+00  0.00000000000E+00 -0.96413077041E+03  0.96413077041E+03  0.25500000920E-02 0. -1.
    10030    2    1    2    0    0  0.00000000000E+00  0.00000000000E+00 -0.83712610289E+03  0.10911354380E+04  0.69985457906E+03 0.  0.
        1    1    3    3  502    0  0.52957903687E+02 -0.25106423398E+03 -0.78951912718E+03  0.83016759835E+03  0.50400001928E-02 0. -1.
       -1    1    3    3    0  502 -0.52957903687E+02  0.25106423398E+03 -0.47606975713E+02  0.26096783961E+03  0.50400001928E-02 0.  1.
</event>
<event>
 5   0  0.1282546E-03  0.7000762E+03  0.7818609E-02  0.9717102E-01
       -2   -1    0    0    0  501  0.00000000000E+00  0.00000000000E+00  0.83406134448E+02  0.83406134487E+02  0.25500000920E-02 0. -1.
        2   -1    0    0  501    0  0.00000000000E+00  0.00000000000E+00 -0.14690364855E+04  0.14690364855E+04  0.25500000920E-02 0.  1.
    10030    2    1    2    0    0  0.00000000000E+00  0.00000000000E+00 -0.13856303510E+04  0.15524426200E+04  0.70007615200E+03 0.  0.
        5    1    3    3  502    0 -0.15265378505E+02 -0.13635059368E+03 -0.14068474940E+04  0.14135297936E+04  0.46999998093E+01 0.  1.
       -5    1    3    3    0  502  0.15265378505E+02  0.13635059368E+03  0.21217142916E+02  0.13891282637E+03  0.46999998093E+01 0. -1.
</event>
<event>
 5   0  0.1224048E-03  0.6980595E+03  0.7818609E-02  0.9720556E-01
       -2   -1    0    0    0  501  0.00000000000E+00  0.00000000000E+00  0.21070667438E+03  0.21070667440E+03  0.25500000920E-02 0. -1.
        2   -1    0    0  501    0  0.00000000000E+00  0.00000000000E+00 -0.57815815359E+03  0.57815815359E+03  0.25500000920E-02 0.  1.
    10030    2    1    2    0    0  0.00000000000E+00  0.00000000000E+00 -0.36745147920E+03  0.78886482799E+03  0.69805954422E+03 0.  0.
        3    1    3    3  502    0  0.20237521969E+03  0.18239839051E+03  0.62821030462E+02  0.27959147783E+03  0.10100000352E+00 0. -1.
       -3    1    3    3    0  502 -0.20237521969E+03 -0.18239839051E+03 -0.43027250967E+03  0.50927335016E+03  0.10100000352E+00 0.  1.
</event>
<event>
 5   0  0.7013526E-04  0.6998321E+03  0.7818609E-02  0.9717519E-01
        1   -1    0    0  501    0  0.00000000000E+00  0.00000000000E+00  0.11602454746E+04  0.11602454746E+04  0.50400001928E-02 0.  1.
       -1   -1    0    0    0  501  0.00000000000E+00  0.00000000000E+00 -0.10553047681E+03  0.10553047693E+03  0.50400001928E-02 0. -1.
    10030    2    1    2    0    0  0.00000000000E+00  0.00000000000E+00  0.10547149978E+04  0.12657759516E+04  0.69983214626E+03 0.  0.
        1    1    3    3  502    0  0.21350816974E+03 -0.75808661175E+02  0.10096648871E+04  0.10347733452E+04  0.50400001928E-02 0.  1.
       -1    1    3    3    0  502 -0.21350816974E+03  0.75808661175E+02  0.45050110734E+02  0.23100260639E+03  0.50400001928E-02 0. -1.
</event>
<event>
 5   0  0.7574241E-04  0.7004595E+03  0.7818609E-02  0.9716447E-01
       -1   -1    0    0    0  501  0.00000000000E+00  0.00000000000E+00  0.17777844556E+03  0.17777844563E+03  0.50400001928E-02 0.  1.
        1   -1    0    0  501    0  0.00000000000E+00  0.00000000000E+00 -0.68996491280E+03  0.68996491281E+03  0.50400001928E-02 0. -1.
    10030    2    1    2    0    0  0.00000000000E+00  0.00000000000E+00 -0.51218646724E+03  0.86774335844E+03  0.70045953409E+03 0.  0.
        3    1    3    3  502    0  0.31420196504E+03 -0.14032509375E+03 -0.17536176155E+03  0.38621983945E+03  0.10100000352E+00 0.  1.
       -3    1    3    3    0  502 -0.31420196504E+03  0.14032509375E+03 -0.33682470570E+03  0.48152351899E+03  0.10100000352E+00 0. -1.
</event>
<event>
 5   0  0.7570633E-04  0.7007554E+03  0.7818609E-02  0.9715941E-01
        1   -1    0    0  501    0  0.00000000000E+00  0.00000000000E+00  0.24553461601E+03  0.24553461606E+03  0.50400001928E-02 0. -1.
       -1   -1    0    0    0  501  0.00000000000E+00  0.00000000000E+00 -0.49998864806E+03  0.49998864809E+03  0.50400001928E-02 0.  1.
    10030    2    1    2    0    0  0.00000000000E+00  0.00000000000E+00 -0.25445403206E+03  0.74552326415E+03  0.70075536598E+03 0.  0.
        5    1    3    3  502    0  0.25002396056E+03  0.20745028953E+03  0.12279237829E+02  0.32514684861E+03  0.46999998093E+01 0. -1.
       -5    1    3    3    0  502 -0.25002396056E+03 -0.20745028953E+03 -0.26673326989E+03  0.42037641554E+03  0.46999998093E+01 0.  1.
</event>
<event>
 5   0  0.7574241E-04  0.7003934E+03  0.7818609E-02  0.9716560E-01
       -1   -1    0    0    0  501  0.00000000000E+00  0.00000000000E+00  0.69919458154E+03  0.69919458155E+03  0.50400001928E-02 0.  1.
        1   -1    0    0  501    0  0.00000000000E+00  0.00000000000E+00 -0.17539856784E+03  0.17539856792E+03  0.50400001928E-02 0. -1.
    10030    2    1    2    0    0  0.00000000000E+00  0.00000000000E+00  0.52379601369E+03  0.87459314947E+03  0.70039339884E+03 0.  0.
        3    1    3    3  502    0  0.10664171173E+02  0.15477299894E+03 -0.13014606427E+03  0.20250040492E+03  0.10100000352E+00 0. -1.
       -3    1    3    3    0  502 -0.10664171173E+02 -0.15477299894E+03  0.65394207796E+03  0.67209274455E+03  0.10100000352E+00 0.  1.
</event>
<event>
 5   0  0.1222679E-03  0.6998934E+03  0.7818609E-02  0.9717414E-01
       -2   -1    0    0    0  501  0.00000000000E+00  0.00000000000E+00  0.86006623140E+02  0.86006623177E+02  0.25500000920E-02 0. -1.
        2   -1    0    0  501    0  0.00000000000E+00  0.00000000000E+00 -0.14238752604E+04  0.14238752604E+04  0.25500000920E-02 0.  1.
    10030    2    1    2    0    0  0.00000000000E+00  0.00000000000E+00 -0.13378686372E+04  0.15098818836E+04  0.69989342888E+03 0.  0.
        2    1    3    3  502    0  0.17151299155E+03  0.43577356822E+02 -0.17632526784E+02  0.17783868619E+03  0.25500000920E-02 0. -1.
       -2    1    3    3    0  502 -0.17151299155E+03 -0.43577356822E+02 -0.13202361105E+04  0.13320431974E+04  0.25500000920E-02 0.  1.
</event>
<event>
 5   0  0.1224048E-03  0.7001248E+03  0.7818609E-02  0.9717019E-01
        2   -1    0    0  501    0  0.00000000000E+00  0.00000000000E+00  0.64915390342E+03  0.64915390343E+03  0.25500000920E-02 0.  1.
       -2   -1    0    0    0  501  0.00000000000E+00  0.00000000000E+00 -0.18877447699E+03  0.18877447701E+03  0.25500000920E-02 0. -1.
    10030    2    1    2    0    0  0.00000000000E+00  0.00000000000E+00  0.46037942643E+03  0.83792838044E+03  0.70012481348E+03 0.  0.
        3    1    3    3  502    0  0.23969522691E+02  0.31025430856E+03  0.38281160654E+02  0.31352469035E+03  0.10100000352E+00 0. -1.
       -3    1    3    3    0  502 -0.23969522691E+02 -0.31025430856E+03  0.42209826578E+03  0.52440369008E+03  0.10100000352E+00 0.  1.
</event>
<event>
 5   0  0.7574241E-04  0.6999209E+03  0.7818609E-02  0.9717367E-01
       -1   -1    0    0    0  501  0.00000000000E+00  0.00000000000E+00  0.18450895937E+03  0.18450895943E+03  0.50400001928E-02 0.  1.
        1   -1    0    0  501    0  0.00000000000E+00  0.00000000000E+00 -0.66377435325E+03  0.66377435327E+03  0.50400001928E-02 0. -1.
    10030    2    1    2    0    0  0.00000000000E+00  0.00000000000E+00 -0.47926539389E+03  0.84828331270E+03  0.69992089613E+03 0.  0.
        3    1    3    3  502    0  0.33294033923E+03 -0.10091499454E+03 -0.28561094815E+03  0.45011857272E+03  0.10100000352E+00 0. -1.
       -3    1    3    3    0  502 -0.33294033923E+03  0.10091499454E+03 -0.19365444574E+03  0.39816473998E+03  0.10100000352E+00 0.  1.
</event>
<event>
 5   0  0.7459843E-04  0.6998532E+03  0.7818609E-02  0.9717483E-01
        1   -1    0    0  501    0  0.00000000000E+00  0.00000000000E+00  0.35738878019E+03  0.35738878022E+03  0.50400001928E-02 0. -1.
       -1   -1    0    0    0  501  0.00000000000E+00  0.00000000000E+00 -0.34262021492E+03  0.34262021495E+03  0.50400001928E-02 0.  1.
    10030    2    1    2    0    0  0.00000000000E+00  0.00000000000E+00  0.14768565273E+02  0.70000899518E+03  0.69985318661E+03 0.  0.
        2    1    3    3  502    0  0.21010909788E+02  0.26976502401E+03  0.22932102720E+03  0.35468684784E+03  0.25500000920E-02 0. -1.
       -2    1    3    3    0  502 -0.21010909788E+02 -0.26976502401E+03 -0.21455246193E+03  0.34532214733E+03  0.25500000920E-02 0.  1.
</event>
<event>
 5   0  0.1222679E-03  0.6999085E+03  0.7818609E-02  0.9717389E-01
       -2   -1    0    0    0  501  0.00000000000E+00  0.00000000000E+00  0.13846708706E+03  0.13846708708E+03  0.25500000920E-02 0.  1.
        2   -1    0    0  501    0  0.00000000000E+00  0.00000000000E+00 -0.88445558117E+03  0.88445558117E+03  0.25500000920E-02 0. -1.
    10030    2    1    2    0    0  0.00000000000E+00  0.00000000000E+00 -0.74598849411E+03  0.10229226683E+04  0.69990853109E+03 0.  0.
        2    1    3    3  502    0  0.16579917306E+03 -0.30153122509E+03 -0.46609068257E+03  0.57935392454E+03  0.25500000920E-02 0.  1.
       -2    1    3    3    0  502 -0.16579917306E+03  0.30153122509E+03 -0.27989781154E+03  0.44356874372E+03  0.25500000920E-02 0. -1.
</event>
<event>
 5   0  0.7459843E-04  0.6997010E+03  0.7818609E-02  0.9717744E-01
        1   -1    0    0  501    0  0.00000000000E+00  0.00000000000E+00  0.81719396519E+03  0.81719396520E+03  0.50400001928E-02 0. -1.
       -1   -1    0    0    0  501  0.00000000000E+00  0.00000000000E+00 -0.14977516317E+03  0.14977516325E+03  0.50400001928E-02 0.  1.
    10030    2    1    2    0    0  0.00000000000E+00  0.00000000000E+00  0.66741880202E+03  0.96696912845E+03  0.69970096333E+03 0.  0.
        2    1    3    3  502    0 -0.56940967829E+00  0.10991132778E+03  0.79271343998E+03  0.80029708368E+03  0.25500000920E-02 0. -1.
       -2    1    3    3    0  502  0.56940967829E+00 -0.10991132778E+03 -0.12529463796E+03  0.16667204478E+03  0.25500000920E-02 0.  1.
</event>
<event>
 5   0  0.4936000E-04  0.6994738E+03  0.7818609E-02  0.9718132E-01
        3   -1    0    0  501    0  0.00000000000E+00  0.00000000000E+00  0.41849358993E+03  0.41849360211E+03  0.10100000352E+00 0. -1.
       -3   -1    0    0    0  501  0.00000000000E+00  0.00000000000E+00 -0.29227662583E+03  0.29227664328E+03  0.10100000352E+00 0.  1.
    10030    2    1    2    0    0  0.00000000000E+00  0.00000000000E+00  0.12621696409E+03  0.71077024540E+03  0.69947381632E+03 0.  0.
        2    1    3    3  502    0  0.98663183995E+02 -0.10901376723E+02 -0.27766195865E+03  0.29487188265E+03  0.25500000920E-02 0.  1.
       -2    1    3    3    0  502 -0.98663183995E+02  0.10901376723E+02  0.40387892274E+03  0.41589836274E+03  0.25500000920E-02 0. -1.
</event>
<event>
 5   0  0.1265562E-03  0.6999004E+03  0.7818609E-02  0.9717403E-01
       -2   -1    0    0    0  501  0.00000000000E+00  0.00000000000E+00  0.83719375312E+02  0.83719375351E+02  0.25500000920E-02 0. -1.
        2   -1    0    0  501    0  0.00000000000E+00  0.00000000000E+00 -0.14628051667E+04  0.14628051667E+04  0.25500000920E-02 0.  1.
    10030    2    1    2    0    0  0.00000000000E+00  0.00000000000E+00 -0.13790857914E+04  0.15465245421E+04  0.69990037804E+03 0.  0.
        1    1    3    3  502    0  0.81073542060E+02  0.29007128166E+03 -0.10832727837E+04  0.11243639053E+04  0.50400001928E-02 0. -1.
       -1    1    3    3    0  502 -0.81073542060E+02 -0.29007128166E+03 -0.29581300772E+03  0.42216063676E+03  0.50400001928E-02 0.  1.
</event>
<event>
 5   0  0.7572415E-04  0.7010738E+03  0.7818609E-02  0.9715398E-01
        1   -1    0    0  501    0  0.00000000000E+00  0.00000000000E+00  0.26555279736E+03  0.26555279741E+03  0.50400001928E-02 0.  1.
       -1   -1    0    0    0  501  0.00000000000E+00  0.00000000000E+00 -0.46271824380E+03  0.46271824383E+03  0.50400001928E-02 0. -1.
    10030    2    1    2    0    0  0.00000000000E+00  0.00000000000E+00 -0.19716544644E+03  0.72827104124E+03  0.70107381654E+03 0.  0.
        4    1    3    3  502    0 -0.24147607279E+03 -0.74357665416E+02  0.15381368848E+03  0.29580402262E+03  0.12699999809E+01 0.  1.
       -4    1    3    3    0  502  0.24147607279E+03  0.74357665416E+02 -0.35097913492E+03  0.43246701861E+03  0.12699999809E+01 0. -1.
</event>
<event>
 5   0  0.7013526E-04  0.6999335E+03  0.7818609E-02  0.9717346E-01
       -1   -1    0    0    0  501  0.00000000000E+00  0.00000000000E+00  0.39912600715E+03  0.39912600718E+03  0.50400001928E-02 0. -1.
        1   -1    0    0  501    0  0.00000000000E+00  0.00000000000E+00 -0.30686228460E+03  0.30686228464E+03  0.50400001928E-02 0.  1.
    10030    2    1    2    0    0  0.00000000000E+00  0.00000000000E+00  0.92263722547E+02  0.70598829182E+03  0.69993347805E+03 0.  0.
        1    1    3    3  502    0  0.13445865422E+03 -0.24018060987E+03  0.26412844084E+03  0.38148353613E+03  0.50400001928E-02 0. -1.
       -1    1    3    3    0  502 -0.13445865422E+03  0.24018060987E+03 -0.17186471829E+03  0.32450475570E+03  0.50400001928E-02 0.  1.
</event>
<event>
 5   0  0.7459843E-04  0.6998637E+03  0.7818609E-02  0.9717465E-01
       -1   -1    0    0    0  501  0.00000000000E+00  0.00000000000E+00  0.47589589770E+03  0.47589589772E+03  0.50400001928E-02 0.  1.
        1   -1    0    0  501    0  0.00000000000E+00  0.00000000000E+00 -0.25730897911E+03  0.25730897916E+03  0.50400001928E-02 0. -1.
    10030    2    1    2    0    0  0.00000000000E+00  0.00000000000E+00  0.21858691858E+03  0.73320487689E+03  0.69986366566E+03 0.  0.
        2    1    3    3  502    0 -0.20474174556E+03  0.87134925987E+02 -0.17364800262E+03  0.28225043227E+03  0.25500000920E-02 0. -1.
       -2    1    3    3    0  502  0.20474174556E+03 -0.87134925987E+02  0.39223492120E+03  0.45095444461E+03  0.25500000920E-02 0.  1.
</event>
<event>
 5   0  0.1265562E-03  0.6994079E+03  0.7818609E-02  0.9718245E-01
        2   -1    0    0  501    0  0.00000000000E+00  0.00000000000E+00  0.41439750648E+03  0.41439750649E+03  0.25500000920E-02 0. -1.
       -2   -1    0    0    0  501  0.00000000000E+00  0.00000000000E+00 -0.29510998445E+03  0.29510998446E+03  0.25500000920E-02 0.  1.
    10030    2    1    2    0    0  0.00000000000E+00  0.00000000000E+00  0.11928752203E+03  0.70950749094E+03  0.69940786870E+03 0.  0.
        1    1    3    3  502    0 -0.85969272221E+02  0.86206681438E+02  0.39220465151E+03  0.41066628348E+03  0.50400001928E-02 0. -1.
       -1    1    3    3    0  502  0.85969272221E+02 -0.86206681438E+02 -0.27291712948E+03  0.29884120747E+03  0.50400001928E-02 0.  1.
</event>
<event>
 5   0  0.1282546E-03  0.6998055E+03  0.7818609E-02  0.9717565E-01
       -2   -1    0    0    0  501  0.00000000000E+00  0.00000000000E+00  0.51999399733E+02  0.51999399796E+02  0.25500000920E-02 0.  1.
        2   -1    0    0  501    0  0.00000000000E+00  0.00000000000E+00 -0.23544877640E+04  0.23544877640E+04  0.25500000920E-02 0. -1.
    10030    2    1    2    0    0  0.00000000000E+00  0.00000000000E+00 -0.23024883643E+04  0.24064871638E+04  0.69980554581E+03 0.  0.
        5    1    3    3  502    0 -0.31583790746E+03  0.79139952436E+02 -0.71095571994E+03  0.78198263508E+03  0.46999998093E+01 0.  1.
       -5    1    3    3    0  502  0.31583790746E+03 -0.79139952436E+02 -0.15915326444E+04  0.16245045288E+04  0.46999998093E+01 0. -1.
</event>
<event>
 5   0  0.7574241E-04  0.7004040E+03  0.7818609E-02  0.9716542E-01
       -1   -1    0    0    0  501  0.00000000000E+00  0.00000000000E+00  0.29506072821E+03  0.29506072825E+03  0.50400001928E-02 0. -1.
        1   -1    0    0  501    0  0.00000000000E+00  0.00000000000E+00 -0.41564811753E+03  0.41564811756E+03  0.50400001928E-02 0.  1.
    10030    2    1    2    0    0  0.00000000000E+00  0.00000000000E+00 -0.12058738932E+03  0.71070884582E+03  0.70040398704E+03 0.  0.
        3    1    3    3  502    0 -0.28133466578E+02 -0.15230683519E+03  0.25841748339E+03  0.30127806079E+03  0.10100000352E+00 0. -1.
       -3    1    3    3    0  502  0.28133466578E+02  0.15230683519E+03 -0.37900487271E+03  0.40943078503E+03  0.10100000352E+00 0.  1.
</event>
<event>
 5   0  0.1243087E-03  0.6996488E+03  0.7818609E-02  0.9717833E-01
       -2   -1    0    0    0  501  0.00000000000E+00  0.00000000000E+00  0.60274062915E+02  0.60274062969E+02  0.25500000920E-02 0. -1.
        2   -1    0    0  501    0  0.00000000000E+00  0.00000000000E+00 -0.20303444884E+04  0.20303444884E+04  0.25500000920E-02 0.  1.
    10030    2    1    2    0    0  0.00000000000E+00  0.00000000000E+00 -0.19700704255E+04  0.20906185514E+04  0.69964880188E+03 0.  0.
        4    1    3    3  502    0  0.39518450333E+02 -0.74890733139E+01 -0.20234052060E+04  0.20238053352E+04  0.12699999809E+01 0.  1.
       -4    1    3    3    0  502 -0.39518450333E+02  0.74890733139E+01  0.53334780554E+02  0.66813216151E+02  0.12699999809E+01 0. -1.
</event>
<event>
 5   0  0.7572415E-04  0.7002084E+03  0.7818609E-02  0.9716876E-01
       -1   -1    0    0    0  501  0.00000000000E+00  0.00000000000E+00  0.14815540728E+03  0.14815540737E+03  0.50400001928E-02 0. -1.
        1   -1    0    0  501    0  0.00000000000E+00  0.00000000000E+00 -0.82732684376E+03  0.82732684377E+03  0.50400001928E-02 0.  1.
    10030    2    1    2    0    0  0.00000000000E+00  0.00000000000E+00 -0.67917143647E+03  0.97548225114E+03  0.70020838482E+03 0.  0.
        4    1    3    3  502    0  0.12917672075E+03  0.22118231860E+03 -0.70878751050E+01  0.25624225670E+03  0.12699999809E+01 0. -1.
       -4    1    3    3    0  502 -0.12917672075E+03 -0.22118231860E+03 -0.67208356137E+03  0.71923999444E+03  0.12699999809E+01 0.  1.
</event>
<event>
 5   0  0.7570633E-04  0.7006920E+03  0.7818609E-02  0.9716050E-01
       -1   -1    0    0    0  501  0.00000000000E+00  0.00000000000E+00  0.25596874232E+03  0.25596874236E+03  0.50400001928E-02 0. -1.
        1   -1    0    0  501    0  0.00000000000E+00  0.00000000000E+00 -0.47952068869E+03  0.47952068872E+03  0.50400001928E-02 0.  1.
    10030    2    1    2    0    0  0.00000000000E+00  0.00000000000E+00 -0.22355194638E+03  0.73548943108E+03  0.70069196549E+03 0.  0.
        5    1    3    3  502    0 -0.29434310330E+03 -0.62505316400E+02 -0.30005916415E+03  0.42497337449E+03  0.46999998093E+01 0.  1.
       -5    1    3    3    0  502  0.29434310330E+03  0.62505316400E+02  0.76507217769E+02  0.31051605660E+03  0.46999998093E+01 0. -1.
</event>
<event>
 5   0  0.7459843E-04  0.7000874E+03  0.7818609E-02  0.9717083E-01
       -1   -1    0    0    0  501  0.00000000000E+00  0.00000000000E+00  0.76309449355E+03  0.76309449357E+03  0.50400001928E-02 0. -1.
        1   -1    0    0  501    0  0.00000000000E+00  0.00000000000E+00 -0.16057068653E+03  0.16057068661E+03  0.50400001928E-02 0.  1.
    10030    2    1    2    0    0  0.00000000000E+00  0.00000000000E+00  0.60252380702E+03  0.92366518018E+03  0.70008744243E+03 0.  0.
        2    1    3    3  502    0  0.34412786313E+03  0.59289348811E+02  0.33334679887E+03  0.48276215820E+03  0.25500000920E-02 0.  1.
       -2    1    3    3    0  502 -0.34412786313E+03 -0.59289348811E+02  0.26917700814E+03  0.44090302198E+03  0.25500000920E-02 0. -1.
</event>
<event>
 5   0  0.7459843E-04  0.7003968E+03  0.7818609E-02  0.9716554E-01
       -1   -1    0    0    0  501  0.00000000000E+00  0.00000000000E+00  0.11667511478E+03  0.11667511489E+03  0.50400001928E-02 0. -1.
        1   -1    0    0  501    0  0.00000000000E+00  0.00000000000E+00 -0.10511145515E+04  0.10511145515E+04  0.50400001928E-02 0.  1.
    10030    2    1    2    0    0  0.00000000000E+00  0.00000000000E+00 -0.93443943670E+03  0.11677896664E+04  0.70039677614E+03 0.  0.
        2    1    3    3  502    0 -0.85560061020E+00 -0.21590263122E+03 -0.92694301520E+03  0.95175523726E+03  0.25500000920E-02 0.  1.
       -2    1    3    3    0  502  0.85560061020E+00  0.21590263122E+03 -0.74964214960E+01  0.21603442911E+03  0.25500000920E-02 0. -1.
</event>
<event>
 5   0  0.7570633E-04  0.6992349E+03  0.7818609E-02  0.9718542E-01
        1   -1    0    0  501    0  0.00000000000E+00  0.00000000000E+00  0.17091730020E+04  0.17091730020E+04  0.50400001928E-02 0. -1.
       -1   -1    0    0    0  501  0.00000000000E+00  0.00000000000E+00 -0.71515489402E+02  0.71515489580E+02  0.50400001928E-02 0.  1.
    10030    2    1    2    0    0  0.00000000000E+00  0.00000000000E+00  0.16376575126E+04  0.17806884916E+04  0.69923485004E+03 0.  0.
        5    1    3    3  502    0 -0.20946402470E+03 -0.84246038794E+02  0.14985326749E+04  0.15154520251E+04  0.46999998093E+01 0. -1.
       -5    1    3    3    0  502  0.20946402470E+03  0.84246038794E+02  0.13912483775E+03  0.26523646652E+03  0.46999998093E+01 0.  1.
</event>
<event>
 5   0  0.7570633E-04  0.6997171E+03  0.7818609E-02  0.9717716E-01
       -1   -1    0    0    0  501  0.00000000000E+00  0.00000000000E+00  0.12728986240E+03  0.12728986250E+03  0.50400001928E-02 0.  1.
        1   -1    0    0  501    0  0.00000000000E+00  0.00000000000E+00 -0.96159277526E+03  0.96159277527E+03  0.50400001928E-02 0. -1.
    10030    2    1    2    0    0  0.00000000000E+00  0.00000000000E+00 -0.83430291285E+03  0.10888826378E+04  0.69971712031E+03 0.  0.
        5    1    3    3  502    0  0.20474688687E+03  0.15466501858E+03 -0.78716917372E+03  0.82794924585E+03  0.46999998093E+01 0. -1.
       -5    1    3    3    0  502 -0.20474688687E+03 -0.15466501858E+03 -0.47133739130E+02  0.26093339192E+03  0.46999998093E+01 0.  1.
</event>
<event>
 5   0  0.7459843E-04  0.7004532E+03  0.7818609E-02  0.9716458E-01
        1   -1    0    0  501    0  0.00000000000E+00  0.00000000000E+00  0.28934923846E+03  0.28934923850E+03  0.50400001928E-02 0.  1.
       -1   -1    0    0    0  501  0.00000000000E+00  0.00000000000E+00 -0.42391215460E+03  0.42391215463E+03  0.50400001928E-02 0. -1.
    10030    2    1    2    0    0  0.00000000000E+00  0.00000000000E+00 -0.13456291614E+03  0.71326139314E+03  0.70045316513E+03 0.  0.
        2    1    3    3  502    0 -0.93044558590E+02  0.17835671026E+03 -0.35921216200E+03  0.41170594277E+03  0.25500000920E-02 0. -1.
       -2    1    3    3    0  502  0.93044558590E+02 -0.17835671026E+03  0.22464924585E+03  0.30155545037E+03  0.25500000920E-02 0.  1.
</event>
<event>
 5   0  0.7459843E-04  0.7003885E+03  0.7818609E-02  0.9716568E-01
        1   -1    0    0  501    0  0.00000000000E+00  0.00000000000E+00  0.39800940147E+03  0.39800940150E+03  0.50400001928E-02 0. -1.
       -1   -1    0    0    0  501  0.00000000000E+00  0.00000000000E+00 -0.30812337900E+03  0.30812337904E+03  0.50400001928E-02 0.  1.
    10030    2    1    2    0    0  0.00000000000E+00  0.00000000000E+00  0.89886022475E+02  0.70613278054E+03  0.70038846844E+03 0.  0.
        2    1    3    3  502    0 -0.29515211888E+03  0.46995618869E+02 -0.13907143248E+03  0.32964257130E+03  0.25500000920E-02 0.  1.
       -2    1    3    3    0  502  0.29515211888E+03 -0.46995618869E+02  0.22895745496E+03  0.37649020925E+03  0.25500000920E-02 0. -1.
</event>
<event>
 5   0  0.4936000E-04  0.6999709E+03  0.7818609E-02  0.9717282E-01
        3   -1    0    0  501    0  0.00000000000E+00  0.00000000000E+00  0.27748438088E+03  0.27748439926E+03  0.10100000352E+00 0.  1.
       -3   -1    0    0    0  501  0.00000000000E+00  0.00000000000E+00 -0.44142957050E+03  0.44142958205E+03  0.10100000352E+00 0. -1.
    10030    2    1    2    0    0  0.00000000000E+00  0.00000000000E+00 -0.16394518961E+03  0.71891398131E+03  0.69997091892E+03 0.  0.
        5    1    3    3  502    0  0.26075445794E+03  0.28123245267E+02 -0.31994087586E+03  0.41372461651E+03  0.46999998093E+01 0. -1.
       -5    1    3    3    0  502 -0.26075445794E+03 -0.28123245267E+02  0.15599568625E+03  0.30518936480E+03  0.46999998093E+01 0.  1.
</event>
<event>
 5   0  0.4936000E-04  0.7005586E+03  0.7818609E-02  0.9716277E-01
       -4   -1    0    0    0  501  0.00000000000E+00  0.00000000000E+00  0.23926919361E+04  0.23926922732E+04  0.12699999809E+01 0.  1.
        4   -1    0    0  501    0  0.00000000000E+00  0.00000000000E+00 -0.51271105012E+02  0.51286831732E+02  0.12699999809E+01 0. -1.
    10030    2    1    2    0    0  0.00000000000E+00  0.00000000000E+00  0.23414208311E+04  0.24439791049E+04  0.70055860343E+03 0.  0.
        4    1    3    3  502    0  0.19765544084E+03  0.24794157431E+03  0.16899316181E+04  0.17194223403E+04  0.12699999809E+01 0.  1.
       -4    1    3    3    0  502 -0.19765544084E+03 -0.24794157431E+03  0.65148921305E+03  0.72455676465E+03  0.12699999809E+01 0. -1.
</event>
<event>
 5   0  0.1265562E-03  0.6995002E+03  0.7818609E-02  0.9718087E-01
       -2   -1    0    0    0  501  0.00000000000E+00  0.00000000000E+00  0.68085907168E+02  0.68085907216E+02  0.25500000920E-02 0. -1.
        2   -1    0    0  501    0  0.00000000000E+00  0.00000000000E+00 -0.17966290107E+04  0.17966290107E+04  0.25500000920E-02 0.  1.
    10030    2    1    2    0    0  0.00000000000E+00  0.00000000000E+00 -0.17285431036E+04  0.18647149179E+04  0.69950015321E+03 0.  0.
        1    1    3    3  502    0  0.27266892066E+03  0.70690405925E+02 -0.14169290027E+04  0.14446568009E+04  0.50400001928E-02 0. -1.
       -1    1    3    3    0  502 -0.27266892066E+03 -0.70690405925E+02 -0.31161410087E+03  0.42005811702E+03  0.50400001928E-02 0.  1.
</event>
<event>
 5   0  0.7570633E-04  0.6998081E+03  0.7818609E-02  0.9717560E-01
        1   -1    0    0  501    0  0.00000000000E+00  0.00000000000E+00  0.21392000761E+03  0.21392000767E+03  0.50400001928E-02 0. -1.
       -1   -1    0    0    0  501  0.00000000000E+00  0.00000000000E+00 -0.57233000940E+03  0.57233000942E+03  0.50400001928E-02 0.  1.
    10030    2    1    2    0    0  0.00000000000E+00  0.00000000000E+00 -0.35841000179E+03  0.78625001709E+03  0.69980808797E+03 0.  0.
        5    1    3    3  502    0  0.94589704105E+02 -0.40217233658E+01  0.19921921029E+03  0.22062132745E+03  0.46999998093E+01 0. -1.
       -5    1    3    3    0  502 -0.94589704105E+02  0.40217233658E+01 -0.55762921208E+03  0.56562868964E+03  0.46999998093E+01 0.  1.
</event>
<event>
 5   0  0.7459843E-04  0.7000282E+03  0.7818609E-02  0.9717184E-01
       -1   -1    0    0    0  501  0.00000000000E+00  0.00000000000E+00  0.32951833866E+03  0.32951833870E+03  0.50400001928E-02 0.  1.
        1   -1    0    0  501    0  0.00000000000E+00  0.00000000000E+00 -0.37178471272E+03  0.37178471275E+03  0.50400001928E-02 0. -1.
    10030    2    1    2    0    0  0.00000000000E+00  0.00000000000E+00 -0.42266374055E+02  0.70130305146E+03  0.70002823058E+03 0.  0.
        2    1    3    3  502    0 -0.15735440293E+02  0.30633935271E+03  0.14775161921E+03  0.34047311801E+03  0.25500000920E-02 0. -1.
       -2    1    3    3    0  502  0.15735440293E+02 -0.30633935271E+03 -0.19001799327E+03  0.36082993345E+03  0.25500000920E-02 0.  1.
</event>
<event>
 5   0  0.7013526E-04  0.6998603E+03  0.7818609E-02  0.9717471E-01
       -1   -1    0    0    0  501  0.00000000000E+00  0.00000000000E+00  0.15189590131E+03  0.15189590139E+03  0.50400001928E-02 0. -1.
        1   -1    0    0  501    0  0.00000000000E+00  0.00000000000E+00 -0.80615153123E+03  0.80615153124E+03  0.50400001928E-02 0.  1.
    10030    2    1    2    0    0  0.00000000000E+00  0.00000000000E+00 -0.65425562992E+03  0.95804743264E+03  0.69986031028E+03 0.  0.
        1    1    3    3  502    0  0.26938043318E+03  0.19564858870E+03 -0.17964743657E+03  0.37830859035E+03  0.50400001928E-02 0. -1.
       -1    1    3    3    0  502 -0.26938043318E+03 -0.19564858870E+03 -0.47460819334E+03  0.57973884228E+03  0.50400001928E-02 0.  1.
</event>
<event>
 5   0  0.1282546E-03  0.6994391E+03  0.7818609E-02  0.9718192E-01
       -2   -1    0    0    0  501  0.00000000000E+00  0.00000000000E+00  0.10989577681E+03  0.10989577684E+03  0.25500000920E-02 0. -1.
        2   -1    0    0  501    0  0.00000000000E+00  0.00000000000E+00 -0.11129067506E+04  0.11129067506E+04  0.25500000920E-02 0.  1.
    10030    2    1    2    0    0  0.00000000000E+00  0.00000000000E+00 -0.10030109738E+04  0.12228025274E+04  0.69943906637E+03 0.  0.
        5    1    3    3  502    0 -0.73645632918E+02  0.34163418665E+03 -0.48052160081E+03  0.59418910759E+03  0.46999998093E+01 0. -1.
       -5    1    3    3    0  502  0.73645632918E+02 -0.34163418665E+03 -0.52248937299E+03  0.62861341985E+03  0.46999998093E+01 0.  1.
</event>
<event>
 5   0  0.1282546E-03  0.7000479E+03  0.7818609E-02  0.9717150E-01
        2   -1    0    0  501    0  0.00000000000E+00  0.00000000000E+00  0.39283073381E+03  0.39283073382E+03  0.25500000920E-02 0. -1.
       -2   -1    0    0    0  501  0.00000000000E+00  0.00000000000E+00 -0.31188181437E+03  0.31188181439E+03  0.25500000920E-02 0.  1.
    10030    2    1    2    0    0  0.00000000000E+00  0.00000000000E+00  0.80948919437E+02  0.70471254821E+03  0.70004788982E+03 0.  0.
        5    1    3    3  502    0  0.11892538527E+03 -0.15668643332E+03 -0.25093812357E+03  0.31888229413E+03  0.46999998093E+01 0.  1.
       -5    1    3    3    0  502 -0.11892538527E+03  0.15668643332E+03  0.33188704300E+03  0.38583025408E+03  0.46999998093E+01 0. -1.
</event>
<event>
 5   0  0.1243087E-03  0.6988971E+03  0.7818609E-02  0.9719120E-01
       -2   -1    0    0    0  501  0.00000000000E+00  0.00000000000E+00  0.10798740441E+03  0.10798740444E+03  0.25500000920E-02 0. -1.
        2   -1    0    0  501    0  0.00000000000E+00  0.00000000000E+00 -0.11308196600E+04  0.11308196600E+04  0.25500000920E-02 0.  1.
    10030    2    1    2    0    0  0.00000000000E+00  0.00000000000E+00 -0.10228322555E+04  0.12388070644E+04  0.69889707383E+03 0.  0.
        4    1    3    3  502    0 -0.12699980352E+03 -0.21379642874E+03 -0.94658553309E+03  0.97870508704E+03  0.12699999809E+01 0.  1.
       -4    1    3    3    0  502  0.12699980352E+03  0.21379642874E+03 -0.76246722449E+02  0.26010197735E+03  0.12699999809E+01 0. -1.
</event>
<event>
 5   0  0.7570633E-04  0.7000036E+03  0.7818609E-02  0.9717226E-01
        1   -1    0    0  501    0  0.00000000000E+00  0.00000000000E+00  0.35325866978E+03  0.35325866982E+03  0.50400001928E-02 0.  1.
       -1   -1    0    0    0  501  0.00000000000E+00  0.00000000000E+00 -0.34677494328E+03  0.34677494332E+03  0.50400001928E-02 0. -1.
    10030    2    1    2    0    0  0.00000000000E+00  0.00000000000E+00  0.64837264999E+01  0.70003361313E+03  0.70000358628E+03 0.  0.
        5    1    3    3  502    0  0.82475907464E+02  0.78690532297E+02 -0.32765703819E+03  0.34695201377E+03  0.46999998093E+01 0. -1.
       -5    1    3    3    0  502 -0.82475907464E+02 -0.78690532297E+02  0.33414076469E+03  0.35308159936E+03  0.46999998093E+01 0.  1.
</event>
<event>
 5   0  0.1222679E-03  0.6999503E+03  0.7818609E-02  0.9717317E-01
       -2   -1    0    0    0  501  0.00000000000E+00  0.00000000000E+00  0.74699721817E+02  0.74699721861E+02  0.25500000920E-02 0.  1.
        2   -1    0    0  501    0  0.00000000000E+00  0.00000000000E+00 -0.16396663742E+04  0.16396663742E+04  0.25500000920E-02 0. -1.
    10030    2    1    2    0    0  0.00000000000E+00  0.00000000000E+00 -0.15649666524E+04  0.17143660961E+04  0.69995034701E+03 0.  0.
        2    1    3    3  502    0  0.20175011547E+03 -0.18905089222E+03 -0.13080170199E+04  0.13369187983E+04  0.25500000920E-02 0. -1.
       -2    1    3    3    0  502 -0.20175011547E+03  0.18905089222E+03 -0.25694963251E+03  0.37744729777E+03  0.25500000920E-02 0.  1.
</event>
<event>
 5   0  0.7459843E-04  0.6997095E+03  0.7818609E-02  0.9717729E-01
       -1   -1    0    0    0  501  0.00000000000E+00  0.00000000000E+00  0.18518528855E+03  0.18518528862E+03  0.50400001928E-02 0.  1.
        1   -1    0    0  501    0  0.00000000000E+00  0.00000000000E+00 -0.66095078896E+03  0.66095078898E+03  0.50400001928E-02 0. -1.
    10030    2    1    2    0    0  0.00000000000E+00  0.00000000000E+00 -0.47576550041E+03  0.84613607760E+03  0.69970954720E+03 0.  0.
        2    1    3    3  502    0 -0.21178920225E+03 -0.23802024700E+03 -0.63102546728E+02  0.32479260395E+03  0.25500000920E-02 0.  1.
       -2    1    3    3    0  502  0.21178920225E+03  0.23802024700E+03 -0.41266295368E+03  0.52134347365E+03  0.25500000920E-02 0. -1.
</event>
<event>
 5   0  0.1222679E-03  0.6998537E+03  0.7818609E-02  0.9717482E-01
        2   -1    0    0  501    0  0.00000000000E+00  0.00000000000E+00  0.56203501053E+03  0.56203501054E+03  0.25500000920E-02 0. -1.
       -2   -1    0    0    0  501  0.00000000000E+00  0.00000000000E+00 -0.21786682810E+03  0.21786682811E+03  0.25500000920E-02 0.  1.
    10030    2    1    2    0    0  0.00000000000E+00  0.00000000000E+00  0.34416818244E+03  0.77990183865E+03  0.69985365623E+03 0.  0.
        2    1    3    3  502    0 -0.44149403940E+02 -0.69134433252E+02  0.55116944534E+03  0.55724007144E+03  0.25500000920E-02 0. -1.
       -2    1    3    3    0  502  0.44149403940E+02  0.69134433252E+02 -0.20700126290E+03  0.22266176722E+03  0.25500000920E-02 0.  1.
</event>
<event>
 5   0  0.7570633E-04  0.7032820E+03  0.7818609E-02  0.9711636E-01
        1   -1    0    0  501    0  0.00000000000E+00  0.00000000000E+00  0.21446333505E+03  0.21446333511E+03  0.50400001928E-02 0. -1.
       -1   -1    0    0    0  501  0.00000000000E+00  0.00000000000E+00 -0.57656195387E+03  0.57656195389E+03  0.50400001928E-02 0.  1.
    10030    2    1    2    0    0  0.00000000000E+00  0.00000000000E+00 -0.36209861881E+03  0.79102528900E+03  0.70328201889E+03 0.  0.
        5    1    3    3  502    0 -0.15981847044E+03 -0.97199807430E+02  0.15381946957E+03  0.24222358530E+03  0.46999998093E+01 0. -1.
       -5    1    3    3    0  502  0.15981847044E+03  0.97199807430E+02 -0.51591808838E+03  0.54880170370E+03  0.46999998093E+01 0.  1.
</event>
<event>
 5   0  0.1243087E-03  0.6999691E+03  0.7818609E-02  0.9717285E-01
        2   -1    0    0  501    0  0.00000000000E+00  0.00000000000E+00  0.11104093922E+04  0.11104093922E+04  0.25500000920E-02 0. -1.
       -2   -1    0    0    0  501  0.00000000000E+00  0.00000000000E+00 -0.11030993153E+03  0.11030993156E+03  0.25500000920E-02 0.  1.
    10030    2    1    2    0    0  0.00000000000E+00  0.00000000000E+00  0.10000994607E+04  0.12207193238E+04  0.69996909661E+03 0.  0.
        4    1    3    3  502    0 -0.92342006552E+02  0.14369635032E+03  0.10327776175E+04  0.10468079610E+04  0.12699999809E+01 0. -1.
       -4    1    3    3    0  502  0.92342006552E+02 -0.14369635032E+03 -0.32678156758E+02  0.17391136276E+03  0.12699999809E+01 0.  1.
</event>
<event>
 5   0  0.7013526E-04  0.7000777E+03  0.7818609E-02  0.9717099E-01
        1   -1    0    0  501    0  0.00000000000E+00  0.00000000000E+00  0.13357536719E+03  0.13357536728E+03  0.50400001928E-02 0. -1.
       -1   -1    0    0    0  501  0.00000000000E+00  0.00000000000E+00 -0.91728877982E+03  0.91728877984E+03  0.50400001928E-02 0.  1.
    10030    2    1    2    0    0  0.00000000000E+00  0.00000000000E+00 -0.78371341264E+03  0.10508641471E+04  0.70007766895E+03 0.  0.
        1    1    3    3  502    0  0.14414717687E+03  0.24609410695E+03 -0.69649018026E+03  0.75262161097E+03  0.50400001928E-02 0.  1.
       -1    1    3    3    0  502 -0.14414717687E+03 -0.24609410695E+03 -0.87223232377E+02  0.29824253615E+03  0.50400001928E-02 0. -1.
</event>
<event>
 5   0  0.7570633E-04  0.6999424E+03  0.7818609E-02  0.9717331E-01
       -1   -1    0    0    0  501  0.00000000000E+00  0.00000000000E+00  0.18819427109E+03  0.18819427116E+03  0.50400001928E-02 0.  1.
        1   -1    0    0  501    0  0.00000000000E+00  0.00000000000E+00 -0.65081590793E+03  0.65081590795E+03  0.50400001928E-02 0. -1.
    10030    2    1    2    0    0  0.00000000000E+00  0.00000000000E+00 -0.46262163683E+03  0.83901017910E+03  0.69994235604E+03 0.  0.
        5    1    3    3  502    0  0.22427151407E+02 -0.34409247768E+03 -0.15983940013E+03  0.38009648005E+03  0.46999998093E+01 0.  1.
       -5    1    3    3    0  502 -0.22427151407E+02  0.34409247768E+03 -0.30278223670E+03  0.45891369905E+03  0.46999998093E+01 0. -1.
</event>
<event>
 5   0  0.7572415E-04  0.7001436E+03  0.7818609E-02  0.9716987E-01
       -1   -1    0    0    0  501  0.00000000000E+00  0.00000000000E+00  0.16665132175E+03  0.16665132183E+03  0.50400001928E-02 0.  1.
        1   -1    0    0  501    0  0.00000000000E+00  0.00000000000E+00 -0.73536923209E+03  0.73536923211E+03  0.50400001928E-02 0. -1.
    10030    2    1    2    0    0  0.00000000000E+00  0.00000000000E+00 -0.56871791034E+03  0.90202055394E+03  0.70014356970E+03 0.  0.
        4    1    3    3  502    0 -0.29057511388E+03 -0.47329040673E+02 -0.40340030439E+02  0.29715798131E+03  0.12699999809E+01 0.  1.
       -4    1    3    3    0  502  0.29057511388E+03  0.47329040673E+02 -0.52837787990E+03  0.60486257263E+03  0.12699999809E+01 0. -1.
</event>
<event>
 5   0  0.1222679E-03  0.7003483E+03  0.7818609E-02  0.9716637E-01
       -2   -1    0    0    0  501  0.00000000000E+00  0.00000000000E+00  0.45418997051E+03  0.45418997052E+03  0.25500000920E-02 0.  1.
        2   -1    0    0  501    0  0.00000000000E+00  0.00000000000E+00 -0.26997937549E+03  0.26997937551E+03  0.25500000920E-02 0. -1.
    10030    2    1    2    0    0  0.00000000000E+00  0.00000000000E+00  0.18421059502E+03  0.72416934603E+03  0.70034826937E+03 0.  0.
        2    1    3    3  502    0  0.27665908926E+03  0.23461196992E+01  0.31405995213E+03  0.41854439368E+03  0.25500000920E-02 0.  1.
       -2    1    3    3    0  502 -0.27665908926E+03 -0.23461196992E+01 -0.12984935711E+03  0.30562495234E+03  0.25500000920E-02 0. -1.
</event>
<event>
 5   0  0.1224048E-03  0.6999534E+03  0.7818609E-02  0.9717312E-01
       -2   -1    0    0    0  501  0.00000000000E+00  0.00000000000E+00  0.14728761943E+03  0.14728761945E+03  0.25500000920E-02 0. -1.
        2   -1    0    0  501    0  0.00000000000E+00  0.00000000000E+00 -0.83159530177E+03  0.83159530178E+03  0.25500000920E-02 0.  1.
    10030    2    1    2    0    0  0.00000000000E+00  0.00000000000E+00 -0.68430768235E+03  0.97888292122E+03  0.69995340512E+03 0.  0.
        3    1    3    3  502    0 -0.33639360675E+03 -0.77450042426E+02 -0.26151844389E+03  0.43307167355E+03  0.10100000352E+00 0. -1.
       -3    1    3    3    0  502  0.33639360675E+03  0.77450042426E+02 -0.42278923846E+03  0.54581124768E+03  0.10100000352E+00 0.  1.
</event>
<event>
 5   0  0.7574241E-04  0.7006990E+03  0.7818609E-02  0.9716038E-01
       -1   -1    0    0    0  501  0.00000000000E+00  0.00000000000E+00  0.72032873364E+02  0.72032873540E+02  0.50400001928E-02 0. -1.
        1   -1    0    0  501    0  0.00000000000E+00  0.00000000000E+00 -0.17040102964E+04  0.17040102964E+04  0.50400001928E-02 0.  1.
    10030    2    1    2    0    0  0.00000000000E+00  0.00000000000E+00 -0.16319774230E+04  0.17760431699E+04  0.70069895976E+03 0.  0.
        3    1    3    3  502    0 -0.23991147808E+03  0.19480600920E+03 -0.39766888220E+03  0.50363424090E+03  0.10100000352E+00 0.  1.
       -3    1    3    3    0  502  0.23991147808E+03 -0.19480600920E+03 -0.12343085408E+04  0.12724089290E+04  0.10100000352E+00 0. -1.
</event>
<event>
 5   0  0.1282546E-03  0.7011780E+03  0.7818609E-02  0.9715220E-01
        2   -1    0    0  501    0  0.00000000000E+00  0.00000000000E+00  0.93691245229E+02  0.93691245264E+02  0.25500000920E-02 0. -1.
       -2   -1    0    0    0  501  0.00000000000E+00  0.00000000000E+00 -0.13118903450E+04  0.13118903450E+04  0.25500000920E-02 0.  1.
    10030    2    1    2    0    0  0.00000000000E+00  0.00000000000E+00 -0.12181990997E+04  0.14055815902E+04  0.70117798040E+03 0.  0.
        5    1    3    3  502    0 -0.23509321318E+03 -0.47923521988E+02 -0.11214507098E+04  0.11468388149E+04  0.46999998093E+01 0.  1.
       -5    1    3    3    0  502  0.23509321318E+03  0.47923521988E+02 -0.96748389971E+02  0.25874277537E+03  0.46999998093E+01 0. -1.
</event>
<event>
 5   0  0.1282546E-03  0.7003633E+03  0.7818609E-02  0.9716611E-01
        2   -1    0    0  501    0  0.00000000000E+00  0.00000000000E+00  0.20684509115E+03  0.20684509117E+03  0.25500000920E-02 0.  1.
       -2   -1    0    0    0  501  0.00000000000E+00  0.00000000000E+00 -0.59284545582E+03  0.59284545583E+03  0.25500000920E-02 0. -1.
    10030    2    1    2    0    0  0.00000000000E+00  0.00000000000E+00 -0.38600036467E+03  0.79969054700E+03  0.70036325534E+03 0.  0.
        5    1    3    3  502    0 -0.24941318265E+03  0.24548585107E+03 -0.17974109045E+03  0.39344528000E+03  0.46999998093E+01 0.  1.
       -5    1    3    3    0  502  0.24941318265E+03 -0.24548585107E+03 -0.20625927422E+03  0.40624526700E+03  0.46999998093E+01 0. -1.
</event>
<event>
 5   0  0.1282546E-03  0.6999427E+03  0.7818609E-02  0.9717330E-01
       -2   -1    0    0    0  501  0.00000000000E+00  0.00000000000E+00  0.56457024284E+02  0.56457024341E+02  0.25500000920E-02 0. -1.
        2   -1    0    0  501    0  0.00000000000E+00  0.00000000000E+00 -0.21694365494E+04  0.21694365494E+04  0.25500000920E-02 0.  1.
    10030    2    1    2    0    0  0.00000000000E+00  0.00000000000E+00 -0.21129795251E+04  0.22258935737E+04  0.69994266056E+03 0.  0.
        5    1    3    3  502    0  0.18905611245E+03  0.23694894248E+03 -0.16125163076E+04  0.16407674872E+04  0.46999998093E+01 0.  1.
       -5    1    3    3    0  502 -0.18905611245E+03 -0.23694894248E+03 -0.50046321755E+03  0.58512608651E+03  0.46999998093E+01 0. -1.
</event>
<event>
 5   0  0.7572415E-04  0.6997762E+03  0.7818609E-02  0.9717615E-01
       -1   -1    0    0    0  501  0.00000000000E+00  0.00000000000E+00  0.51116346638E+03  0.51116346640E+03  0.50400001928E-02 0. -1.
        1   -1    0    0  501    0  0.00000000000E+00  0.00000000000E+00 -0.23949616936E+03  0.23949616941E+03  0.50400001928E-02 0.  1.
    10030    2    1    2    0    0  0.00000000000E+00  0.00000000000E+00  0.27166729702E+03  0.75065963581E+03  0.69977622750E+03 0.  0.
        4    1    3    3  502    0 -0.21020114836E+03 -0.17924171395E+03 -0.94507672863E+02  0.29196819676E+03  0.12699999809E+01 0.  1.
       -4    1    3    3    0  502  0.21020114836E+03  0.17924171395E+03  0.36617496988E+03  0.45869143905E+03  0.12699999809E+01 0. -1.
</event>
<event>
 5   0  0.1243087E-03  0.6999597E+03  0.7818609E-02  0.9717301E-01
       -2   -1    0    0    0  501  0.00000000000E+00  0.00000000000E+00  0.77226980295E+02  0.77226980337E+02  0.25500000920E-02 0. -1.
        2   -1    0    0  501    0  0.00000000000E+00  0.00000000000E+00 -0.15860506511E+04  0.15860506511E+04  0.25500000920E-02 0.  1.
    10030    2    1    2    0    0  0.00000000000E+00  0.00000000000E+00 -0.15088236708E+04  0.16632776314E+04  0.69995972002E+03 0.  0.
        4    1    3    3  502    0  0.42603516471E+02  0.31809443380E+02  0.67568560078E+02  0.85988508039E+02  0.12699999809E+01 0. -1.
       -4    1    3    3    0  502 -0.42603516471E+02 -0.31809443380E+02 -0.15763922309E+04  0.15772891234E+04  0.12699999809E+01 0.  1.
</event>
<event>
 5   0  0.7013526E-04  0.7012459E+03  0.7818609E-02  0.9715104E-01
        1   -1    0    0  501    0  0.00000000000E+00  0.00000000000E+00  0.13074867798E+04  0.13074867798E+04  0.50400001928E-02 0.  1.
       -1   -1    0    0    0  501  0.00000000000E+00  0.00000000000E+00 -0.94024995079E+02  0.94024995214E+02  0.50400001928E-02 0. -1.
    10030    2    1    2    0    0  0.00000000000E+00  0.00000000000E+00  0.12134617847E+04  0.14015117750E+04  0.70124585741E+03 0.  0.
        1    1    3    3  502    0  0.61646072940E+02  0.97862375309E+02 -0.54800990104E+02  0.12798605921E+03  0.50400001928E-02 0. -1.
       -1    1    3    3    0  502 -0.61646072940E+02 -0.97862375309E+02  0.12682627748E+04  0.12735257158E+04  0.50400001928E-02 0.  1.
</event>
<event>
 5   0  0.4936000E-04  0.6992679E+03  0.7818609E-02  0.9718485E-01
        3   -1    0    0  501    0  0.00000000000E+00  0.00000000000E+00  0.38219619295E+03  0.38219620630E+03  0.10100000352E+00 0.  1.
       -3   -1    0    0    0  501  0.00000000000E+00  0.00000000000E+00 -0.31984593859E+03  0.31984595454E+03  0.10100000352E+00 0. -1.
    10030    2    1    2    0    0  0.00000000000E+00  0.00000000000E+00  0.62350254362E+02  0.70204216083E+03  0.69926793246E+03 0.  0.
        1    1    3    3  502    0 -0.23433717343E+03 -0.35556538096E+02  0.28922741136E+03  0.37393939851E+03  0.50400001928E-02 0.  1.
       -1    1    3    3    0  502  0.23433717343E+03  0.35556538096E+02 -0.22687715700E+03  0.32810276232E+03  0.50400001928E-02 0. -1.
</event>
<event>
 5   0  0.7013526E-04  0.7011640E+03  0.7818609E-02  0.9715244E-01
       -1   -1    0    0    0  501  0.00000000000E+00  0.00000000000E+00  0.74511821964E+02  0.74511822135E+02  0.50400001928E-02 0.  1.
        1   -1    0    0  501    0  0.00000000000E+00  0.00000000000E+00 -0.16495063314E+04  0.16495063314E+04  0.50400001928E-02 0. -1.
    10030    2    1    2    0    0  0.00000000000E+00  0.00000000000E+00 -0.15749945094E+04  0.17240181535E+04  0.70116395300E+03 0.  0.
        1    1    3    3  502    0 -0.30746265983E+03 -0.12088537688E+03 -0.10759334689E+04  0.11255129458E+04  0.50400001928E-02 0. -1.
       -1    1    3    3    0  502  0.30746265983E+03  0.12088537688E+03 -0.49906104047E+03  0.59850520772E+03  0.50400001928E-02 0.  1.
</event>
<event>
 5   0  0.7459843E-04  0.6991179E+03  0.7818609E-02  0.9718742E-01
        1   -1    0    0  501    0  0.00000000000E+00  0.00000000000E+00  0.13729576597E+04  0.13729576597E+04  0.50400001928E-02 0.  1.
       -1   -1    0    0    0  501  0.00000000000E+00  0.00000000000E+00 -0.88998709659E+02  0.88998709801E+02  0.50400001928E-02 0. -1.
    10030    2    1    2    0    0  0.00000000000E+00  0.00000000000E+00  0.12839589501E+04  0.14619563695E+04  0.69911790206E+03 0.  0.
        2    1    3    3  502    0  0.34340665512E+03 -0.27816854525E+02  0.76550844776E+03  0.83946714752E+03  0.25500000920E-02 0. -1.
       -2    1    3    3    0  502 -0.34340665512E+03  0.27816854525E+02  0.51845050232E+03  0.62248922202E+03  0.25500000920E-02 0.  1.
</event>
<event>
 5   0  0.1243087E-03  0.6988448E+03  0.7818609E-02  0.9719210E-01
        2   -1    0    0  501    0  0.00000000000E+00  0.00000000000E+00  0.96666101124E+02  0.96666101158E+02  0.25500000920E-02 0. -1.
       -2   -1    0    0    0  501  0.00000000000E+00  0.00000000000E+00 -0.12630696742E+04  0.12630696742E+04  0.25500000920E-02 0.  1.
    10030    2    1    2    0    0  0.00000000000E+00  0.00000000000E+00 -0.11664035731E+04  0.13597357754E+04  0.69884482078E+03 0.  0.
        4    1    3    3  502    0  0.17925029788E+03 -0.29858610073E+03 -0.63857981613E+03  0.72737206663E+03  0.12699999809E+01 0. -1.
       -4    1    3    3    0  502 -0.17925029788E+03  0.29858610073E+03 -0.52782375699E+03  0.63236370878E+03  0.12699999809E+01 0.  1.
</event>
<event>
 5   0  0.7572415E-04  0.7000142E+03  0.7818609E-02  0.9717208E-01
        1   -1    0    0  501    0  0.00000000000E+00  0.00000000000E+00  0.16081401757E+03  0.16081401765E+03  0.50400001928E-02 0.  1.
       -1   -1    0    0    0  501  0.00000000000E+00  0.00000000000E+00 -0.76178041004E+03  0.76178041006E+03  0.50400001928E-02 0. -1.
    10030    2    1    2    0    0  0.00000000000E+00  0.00000000000E+00 -0.60096639247E+03  0.92259442770E+03  0.70001419496E+03 0.  0.
        4    1    3    3  502    0 -0.12543454821E+03  0.15343121983E+01 -0.73113161515E+03  0.74181617101E+03  0.12699999809E+01 0. -1.
       -4    1    3    3    0  502  0.12543454821E+03 -0.15343121983E+01  0.13016522268E+03  0.18077825669E+03  0.12699999809E+01 0.  1.
</event>
<event>
 5   0  0.7013526E-04  0.7003529E+03  0.7818609E-02  0.9716629E-01
        1   -1    0    0  501    0  0.00000000000E+00  0.00000000000E+00  0.99955379986E+03  0.99955379987E+03  0.50400001928E-02 0.  1.
       -1   -1    0    0    0  501  0.00000000000E+00  0.00000000000E+00 -0.12267826953E+03  0.12267826963E+03  0.50400001928E-02 0. -1.
    10030    2    1    2    0    0  0.00000000000E+00  0.00000000000E+00  0.87687553032E+03  0.11222320695E+04  0.70035285545E+03 0.  0.
        1    1    3    3  502    0  0.59140450406E+02  0.11834801528E+03 -0.81088844634E+02  0.15517488954E+03  0.50400001928E-02 0. -1.
       -1    1    3    3    0  502 -0.59140450406E+02 -0.11834801528E+03  0.95796437496E+03  0.96705717996E+03  0.50400001928E-02 0.  1.
</event>
<event>
 5   0  0.1265562E-03  0.6997167E+03  0.7818609E-02  0.9717717E-01
       -2   -1    0    0    0  501  0.00000000000E+00  0.00000000000E+00  0.53243897768E+02  0.53243897829E+02  0.25500000920E-02 0.  1.
        2   -1    0    0  501    0  0.00000000000E+00  0.00000000000E+00 -0.22988711397E+04  0.22988711397E+04  0.25500000920E-02 0. -1.
    10030    2    1    2    0    0  0.00000000000E+00  0.00000000000E+00 -0.22456272419E+04  0.23521150375E+04  0.69971668557E+03 0.  0.
        1    1    3    3  502    0  0.14600134555E+03 -0.16925558548E+03 -0.21808860781E+03  0.31229231018E+03  0.50400001928E-02 0.  1.
       -1    1    3    3    0  502 -0.14600134555E+03  0.16925558548E+03 -0.20275386341E+04  0.20398227273E+04  0.50400001928E-02 0. -1.
</event>
<event>
 5   0  0.1282546E-03  0.7000669E+03  0.7818609E-02  0.9717118E-01
        2   -1    0    0  501    0  0.00000000000E+00  0.00000000000E+00  0.68180577305E+03  0.68180577305E+03  0.25500000920E-02 0. -1.
       -2   -1    0    0    0  501  0.00000000000E+00  0.00000000000E+00 -0.17970427282E+03  0.17970427284E+03  0.25500000920E-02 0.  1.
    10030    2    1    2    0    0  0.00000000000E+00  0.00000000000E+00  0.50210150023E+03  0.86151004589E+03  0.70006688440E+03 0.  0.
        5    1    3    3  502    0 -0.27532177993E+03 -0.19976906693E+03  0.14963497358E+03  0.37164832560E+03  0.46999998093E+01 0. -1.
       -5    1    3    3    0  502  0.27532177993E+03  0.19976906693E+03  0.35246652664E+03  0.48986172029E+03  0.46999998093E+01 0.  1.
</event>
<event>
 5   0  0.7572415E-04  0.7025751E+03  0.7818609E-02  0.9712839E-01
        1   -1    0    0  501    0  0.00000000000E+00  0.00000000000E+00  0.65577121577E+03  0.65577121579E+03  0.50400001928E-02 0.  1.
       -1   -1    0    0    0  501  0.00000000000E+00  0.00000000000E+00 -0.18817986576E+03  0.18817986583E+03  0.50400001928E-02 0. -1.
    10030    2    1    2    0    0  0.00000000000E+00  0.00000000000E+00  0.46759135001E+03  0.84395108162E+03  0.70257509034E+03 0.  0.
        4    1    3    3  502    0  0.61192834076E+02 -0.16793481306E+03 -0.12947258271E+03  0.22070665362E+03  0.12699999809E+01 0. -1.
       -4    1    3    3    0  502 -0.61192834076E+02  0.16793481306E+03  0.59706393272E+03  0.62324442800E+03  0.12699999809E+01 0.  1.
</event>
<event>
 5   0  0.1243087E-03  0.7000860E+03  0.7818609E-02  0.9717085E-01
       -2   -1    0    0    0  501  0.00000000000E+00  0.00000000000E+00  0.21921030152E+03  0.21921030153E+03  0.25500000920E-02 0. -1.
        2   -1    0    0  501    0  0.00000000000E+00  0.00000000000E+00 -0.55896142591E+03  0.55896142591E+03  0.25500000920E-02 0.  1.
    10030    2    1    2    0    0  0.00000000000E+00  0.00000000000E+00 -0.33975112439E+03  0.77817172745E+03  0.70008600248E+03 0.  0.
        4    1    3    3  502    0 -0.88093072366E+02  0.12732216869E+02 -0.54616992654E+03  0.55337663513E+03  0.12699999809E+01 0.  1.
       -4    1    3    3    0  502  0.88093072366E+02 -0.12732216869E+02  0.20641880216E+03  0.22479509232E+03  0.12699999809E+01 0. -1.
</event>
<event>
 5   0  0.1222679E-03  0.7001169E+03  0.7818609E-02  0.9717032E-01
       -2   -1    0    0    0  501  0.00000000000E+00  0.00000000000E+00  0.22077181347E+03  0.22077181349E+03  0.25500000920E-02 0.  1.
        2   -1    0    0  501    0  0.00000000000E+00  0.00000000000E+00 -0.55505685983E+03  0.55505685983E+03  0.25500000920E-02 0. -1.
    10030    2    1    2    0    0  0.00000000000E+00  0.00000000000E+00 -0.33428504635E+03  0.77582867332E+03  0.70011687462E+03 0.  0.
        2    1    3    3  502    0  0.25999230322E+03 -0.16008115172E+03  0.22602060893E+02  0.30615817159E+03  0.25500000920E-02 0.  1.
       -2    1    3    3    0  502 -0.25999230322E+03  0.16008115172E+03 -0.35688710725E+03  0.46967050173E+03  0.25500000920E-02 0. -1.
</event>
<event>
 5   0  0.7013526E-04  0.7005334E+03  0.7818609E-02  0.9716320E-01
       -1   -1    0    0    0  501  0.00000000000E+00  0.00000000000E+00  0.22928715965E+03  0.22928715970E+03  0.50400001928E-02 0. -1.
        1   -1    0    0  501    0  0.00000000000E+00  0.00000000000E+00 -0.53507907312E+03  0.53507907314E+03  0.50400001928E-02 0.  1.
    10030    2    1    2    0    0  0.00000000000E+00  0.00000000000E+00 -0.30579191347E+03  0.76436623284E+03  0.70053339932E+03 0.  0.
        1    1    3    3  502    0 -0.25899894577E+03 -0.23439074424E+03 -0.12471026849E+03  0.37090716627E+03  0.50400001928E-02 0. -1.
       -1    1    3    3    0  502  0.25899894577E+03  0.23439074424E+03 -0.18108164498E+03  0.39345906658E+03  0.50400001928E-02 0.  1.
</event>
<event>
 5   0  0.1222679E-03  0.7000503E+03  0.7818609E-02  0.9717146E-01
        2   -1    0    0  501    0  0.00000000000E+00  0.00000000000E+00  0.61514881926E+03  0.61514881927E+03  0.25500000920E-02 0.  1.
       -2   -1    0    0    0  501  0.00000000000E+00  0.00000000000E+00 -0.19916741757E+03  0.19916741758E+03  0.25500000920E-02 0. -1.
    10030    2    1    2    0    0  0.00000000000E+00  0.00000000000E+00  0.41598140170E+03  0.81431623685E+03  0.70005028894E+03 0.  0.
        2    1    3    3  502    0  0.21068716248E+03  0.18409754630E+03 -0.36664694518E+02  0.28217952941E+03  0.25500000920E-02 0. -1.
       -2    1    3    3    0  502 -0.21068716248E+03 -0.18409754630E+03  0.45264609622E+03  0.53213670744E+03  0.25500000920E-02 0.  1.
</event>
<event>
 5   0  0.7459843E-04  0.6996541E+03  0.7818609E-02  0.9717824E-01
        1   -1    0    0  501    0  0.00000000000E+00  0.00000000000E+00  0.76318267703E+03  0.76318267704E+03  0.50400001928E-02 0. -1.
       -1   -1    0    0    0  501  0.00000000000E+00  0.00000000000E+00 -0.16035343705E+03  0.16035343712E+03  0.50400001928E-02 0.  1.
    10030    2    1    2    0    0  0.00000000000E+00  0.00000000000E+00  0.60282923998E+03  0.92353611417E+03  0.69965410139E+03 0.  0.
        2    1    3    3  502    0  0.12166856222E+03 -0.88647104700E+02  0.71824177976E+03  0.73384794229E+03  0.25500000920E-02 0. -1.
       -2    1    3    3    0  502 -0.12166856222E+03  0.88647104700E+02 -0.11541253978E+03  0.18968817187E+03  0.25500000920E-02 0.  1.
</event>
<event>
 5   0  0.7572415E-04  0.6994540E+03  0.7818609E-02  0.9718166E-01
        1   -1    0    0  501    0  0.00000000000E+00  0.00000000000E+00  0.25446663519E+03  0.25446663524E+03  0.50400001928E-02 0.  1.
       -1   -1    0    0    0  501  0.00000000000E+00  0.00000000000E+00 -0.48064837988E+03  0.48064837990E+03  0.50400001928E-02 0. -1.
    10030    2    1    2    0    0  0.00000000000E+00  0.00000000000E+00 -0.22618174469E+03  0.73511501514E+03  0.69945400410E+03 0.  0.
        4    1    3    3  502    0 -0.30056283191E+03  0.12055199538E+03 -0.25187077589E+03  0.41025760220E+03  0.12699999809E+01 0. -1.
       -4    1    3    3    0  502  0.30056283191E+03 -0.12055199538E+03  0.25689031203E+02  0.32485741294E+03  0.12699999809E+01 0.  1.
</event>
<event>
 5   0  0.1265562E-03  0.6989758E+03  0.7818609E-02  0.9718985E-01
        2   -1    0    0  501    0  0.00000000000E+00  0.00000000000E+00  0.43259385976E+03  0.43259385977E+03  0.25500000920E-02 0. -1.
       -2   -1    0    0    0  501  0.00000000000E+00  0.00000000000E+00 -0.28234745954E+03  0.28234745955E+03  0.25500000920E-02 0.  1.
    10030    2    1    2    0    0  0.00000000000E+00  0.00000000000E+00  0.15024640022E+03  0.71494131932E+03  0.69897575730E+03 0.  0.
        1    1    3    3  502    0 -0.91127239352E+02  0.14193417209E+03  0.38820672963E+03  0.42326581237E+03  0.50400001928E-02 0. -1.
       -1    1    3    3    0  502  0.91127239352E+02 -0.14193417209E+03 -0.23796032941E+03  0.29167550696E+03  0.50400001928E-02 0.  1.
</event>
<event>
 5   0  0.1222679E-03  0.7002798E+03  0.7818609E-02  0.9716754E-01
       -2   -1    0    0    0  501  0.00000000000E+00  0.00000000000E+00  0.15425688847E+03  0.15425688849E+03  0.25500000920E-02 0. -1.
        2   -1    0    0  501    0  0.00000000000E+00  0.00000000000E+00 -0.79476473227E+03  0.79476473228E+03  0.25500000920E-02 0.  1.
    10030    2    1    2    0    0  0.00000000000E+00  0.00000000000E+00 -0.64050784380E+03  0.94902162077E+03  0.70027975747E+03 0.  0.
        2    1    3    3  502    0  0.28187100433E+01 -0.26363462917E+03 -0.80073402278E+01  0.26377126517E+03  0.25500000920E-02 0. -1.
       -2    1    3    3    0  502 -0.28187100433E+01  0.26363462917E+03 -0.63250050357E+03  0.68525035560E+03  0.25500000920E-02 0.  1.
</event>
<event>
 5   0  0.7013526E-04  0.6998649E+03  0.7818609E-02  0.9717463E-01
       -1   -1    0    0    0  501  0.00000000000E+00  0.00000000000E+00  0.88916893921E+02  0.88916894064E+02  0.50400001928E-02 0.  1.
        1   -1    0    0  501    0  0.00000000000E+00  0.00000000000E+00 -0.13771593277E+04  0.13771593277E+04  0.50400001928E-02 0. -1.
    10030    2    1    2    0    0  0.00000000000E+00  0.00000000000E+00 -0.12882424337E+04  0.14660762217E+04  0.69986492972E+03 0.  0.
        1    1    3    3  502    0 -0.25080881627E+02 -0.30345695562E+03 -0.10053604823E+04  0.10504593633E+04  0.50400001928E-02 0. -1.
       -1    1    3    3    0  502  0.25080881627E+02  0.30345695562E+03 -0.28288195143E+03  0.41561685843E+03  0.50400001928E-02 0.  1.
</event>
<event>
 5   0  0.7459843E-04  0.7000836E+03  0.7818609E-02  0.9717089E-01
       -1   -1    0    0    0  501  0.00000000000E+00  0.00000000000E+00  0.11554022197E+03  0.11554022208E+03  0.50400001928E-02 0.  1.
        1   -1    0    0  501    0  0.00000000000E+00  0.00000000000E+00 -0.10604900223E+04  0.10604900223E+04  0.50400001928E-02 0. -1.
    10030    2    1    2    0    0  0.00000000000E+00  0.00000000000E+00 -0.94494980033E+03  0.11760302444E+04  0.70008357401E+03 0.  0.
        2    1    3    3  502    0  0.50415349664E+02 -0.32764134655E+03 -0.66132607396E+03  0.73975856572E+03  0.25500000920E-02 0. -1.
       -2    1    3    3    0  502 -0.50415349664E+02  0.32764134655E+03 -0.28362372637E+03  0.43627167868E+03  0.25500000920E-02 0.  1.
</event>
<event>
 5   0  0.1265562E-03  0.6998938E+03  0.7818609E-02  0.9717414E-01
        2   -1    0    0  501    0  0.00000000000E+00  0.00000000000E+00  0.42081791801E+03  0.42081791802E+03  0.25500000920E-02 0. -1.
       -2   -1    0    0    0  501  0.00000000000E+00  0.00000000000E+00 -0.29101147374E+03  0.29101147375E+03  0.25500000920E-02 0.  1.
    10030    2    1    2    0    0  0.00000000000E+00  0.00000000000E+00  0.12980644427E+03  0.71182939178E+03  0.69989382768E+03 0.  0.
        1    1    3    3  502    0 -0.45458898212E+02  0.77804117675E+02  0.40881595860E+03  0.41862928730E+03  0.50400001928E-02 0. -1.
       -1    1    3    3    0  502  0.45458898212E+02 -0.77804117675E+02 -0.27900951433E+03  0.29320010448E+03  0.50400001928E-02 0.  1.
</event>
<event>
 5   0  0.7459843E-04  0.6998392E+03  0.7818609E-02  0.9717507E-01
       -1   -1    0    0    0  501  0.00000000000E+00  0.00000000000E+00  0.23363031729E+03  0.23363031735E+03  0.50400001928E-02 0. -1.
        1   -1    0    0  501    0  0.00000000000E+00  0.00000000000E+00 -0.52409179179E+03  0.52409179182E+03  0.50400001928E-02 0.  1.
    10030    2    1    2    0    0  0.00000000000E+00  0.00000000000E+00 -0.29046147450E+03  0.75772210916E+03  0.69983921478E+03 0.  0.
        2    1    3    3  502    0  0.25948468657E+02 -0.31422793335E+03 -0.30954304886E+03  0.44184772969E+03  0.25500000920E-02 0.  1.
       -2    1    3    3    0  502 -0.25948468657E+02  0.31422793335E+03  0.19081574361E+02  0.31587437948E+03  0.25500000920E-02 0. -1.
</event>
<event>
 5   0  0.7013526E-04  0.7000959E+03  0.7818609E-02  0.9717068E-01
       -1   -1    0    0    0  501  0.00000000000E+00  0.00000000000E+00  0.10096434391E+03  0.10096434403E+03  0.50400001928E-02 0.  1.
        1   -1    0    0  501    0  0.00000000000E+00  0.00000000000E+00 -0.12136319851E+04  0.12136319851E+04  0.50400001928E-02 0. -1.
    10030    2    1    2    0    0  0.00000000000E+00  0.00000000000E+00 -0.11126676412E+04  0.13145963292E+04  0.70009587118E+03 0.  0.
        1    1    3    3  502    0  0.14634017627E+03  0.31630044943E+03 -0.49485015174E+03  0.60525870023E+03  0.50400001928E-02 0.  1.
       -1    1    3    3    0  502 -0.14634017627E+03 -0.31630044943E+03 -0.61781748946E+03  0.70933762893E+03  0.50400001928E-02 0. -1.
</event>
<event>
 5   0  0.4936000E-04  0.6995697E+03  0.7818609E-02  0.9717968E-01
        3   -1    0    0  501    0  0.00000000000E+00  0.00000000000E+00  0.19641632307E+03  0.19641634903E+03  0.10100000352E+00 0.  1.
       -3   -1    0    0    0  501  0.00000000000E+00  0.00000000000E+00 -0.62290873489E+03  0.62290874308E+03  0.10100000352E+00 0. -1.
    10030    2    1    2    0    0  0.00000000000E+00  0.00000000000E+00 -0.42649241182E+03  0.81932509211E+03  0.69956974579E+03 0.  0.
        5    1    3    3  502    0 -0.47875428265E+02  0.20785124320E+03  0.11139198978E+03  0.24067501183E+03  0.46999998093E+01 0.  1.
       -5    1    3    3    0  502  0.47875428265E+02 -0.20785124320E+03 -0.53788440160E+03  0.57865008029E+03  0.46999998093E+01 0. -1.
</event>
<event>
 5   0  0.1243087E-03  0.7002067E+03  0.7818609E-02  0.9716879E-01
       -2   -1    0    0    0  501  0.00000000000E+00  0.00000000000E+00  0.20895417990E+03  0.20895417991E+03  0.25500000920E-02 0. -1.
        2   -1    0    0  501    0  0.00000000000E+00  0.00000000000E+00 -0.58659917867E+03  0.58659917868E+03  0.25500000920E-02 0.  1.
    10030    2    1    2    0    0  0.00000000000E+00  0.00000000000E+00 -0.37764499877E+03  0.79555335859E+03  0.70020668468E+03 0.  0.
        4    1    3    3  502    0 -0.24557640606E+03 -0.19031983255E+03 -0.54751562441E+01  0.31074265898E+03  0.12699999809E+01 0. -1.
       -4    1    3    3    0  502  0.24557640606E+03  0.19031983255E+03 -0.37216984253E+03  0.48481069962E+03  0.12699999809E+01 0.  1.
</event>
<event>
 5   0  0.1243087E-03  0.6998462E+03  0.7818609E-02  0.9717495E-01
       -2   -1    0    0    0  501  0.00000000000E+00  0.00000000000E+00  0.66023792766E+02  0.66023792815E+02  0.25500000920E-02 0.  1.
        2   -1    0    0  501    0  0.00000000000E+00  0.00000000000E+00 -0.18545765990E+04  0.18545765990E+04  0.25500000920E-02 0. -1.
    10030    2    1    2    0    0  0.00000000000E+00  0.00000000000E+00 -0.17885528062E+04  0.19206003918E+04  0.69984621479E+03 0.  0.
        4    1    3    3  502    0  0.20311048011E+03 -0.16279402638E+03 -0.15360526159E+04  0.15579521860E+04  0.12699999809E+01 0. -1.
       -4    1    3    3    0  502 -0.20311048011E+03  0.16279402638E+03 -0.25250019030E+03  0.36264820578E+03  0.12699999809E+01 0.  1.
</event>
<event>
 5   0  0.1243087E-03  0.6997374E+03  0.7818609E-02  0.9717681E-01
        2   -1    0    0  501    0  0.00000000000E+00  0.00000000000E+00  0.48089402276E+03  0.48089402277E+03  0.25500000920E-02 0. -1.
       -2   -1    0    0    0  501  0.00000000000E+00  0.00000000000E+00 -0.25454277065E+03  0.25454277066E+03  0.25500000920E-02 0.  1.
    10030    2    1    2    0    0  0.00000000000E+00  0.00000000000E+00  0.22635125211E+03  0.73543679343E+03  0.69973737059E+03 0.  0.
        4    1    3    3  502    0 -0.14109232485E+01 -0.33733340059E+03  0.15647750913E+02  0.33770146412E+03  0.12699999809E+01 0.  1.
       -4    1    3    3    0  502  0.14109232485E+01  0.33733340059E+03  0.21070350120E+03  0.39773532931E+03  0.12699999809E+01 0. -1.
</event>
<event>
 5   0  0.1224048E-03  0.7004613E+03  0.7818609E-02  0.9716444E-01
       -2   -1    0    0    0  501  0.00000000000E+00  0.00000000000E+00  0.11545335005E+03  0.11545335008E+03  0.25500000920E-02 0. -1.
        2   -1    0    0  501    0  0.00000000000E+00  0.00000000000E+00 -0.10624333963E+04  0.10624333963E+04  0.25500000920E-02 0.  1.
    10030    2    1    2    0    0  0.00000000000E+00  0.00000000000E+00 -0.94698004624E+03  0.11778867464E+04  0.70046126182E+03 0.  0.
        3    1    3    3  502    0 -0.22533098207E+03 -0.83381000089E+01 -0.22843741609E+02  0.22663940991E+03  0.10100000352E+00 0. -1.
       -3    1    3    3    0  502  0.22533098207E+03  0.83381000089E+01 -0.92413630463E+03  0.95124733646E+03  0.10100000352E+00 0.  1.
</event>
<event>
 5   0  0.7013526E-04  0.6999049E+03  0.7818609E-02  0.9717395E-01
       -1   -1    0    0    0  501  0.00000000000E+00  0.00000000000E+00  0.13151377094E+03  0.13151377104E+03  0.50400001928E-02 0.  1.
        1   -1    0    0  501    0  0.00000000000E+00  0.00000000000E+00 -0.93120820935E+03  0.93120820936E+03  0.50400001928E-02 0. -1.
    10030    2    1    2    0    0  0.00000000000E+00  0.00000000000E+00 -0.79969443841E+03  0.10627219804E+04  0.69990485982E+03 0.  0.
        1    1    3    3  502    0  0.70052445746E+01  0.32379571067E+03 -0.19856029516E+03  0.37989330942E+03  0.50400001928E-02 0.  1.
       -1    1    3    3    0  502 -0.70052445746E+01 -0.32379571067E+03 -0.60113414325E+03  0.68282867098E+03  0.50400001928E-02 0. -1.
</event>
<event>
 5   0  0.1222679E-03  0.7002849E+03  0.7818609E-02  0.9716745E-01
       -2   -1    0    0    0  501  0.00000000000E+00  0.00000000000E+00  0.13648889541E+03  0.13648889544E+03  0.25500000920E-02 0. -1.
        2   -1    0    0  501    0  0.00000000000E+00  0.00000000000E+00 -0.89823963470E+03  0.89823963471E+03  0.25500000920E-02 0.  1.
    10030    2    1    2    0    0  0.00000000000E+00  0.00000000000E+00 -0.76175073929E+03  0.10347285301E+04  0.70028490080E+03 0.  0.
        2    1    3    3  502    0 -0.12546832129E+03  0.32439411486E+03 -0.44045499905E+03  0.56122584366E+03  0.25500000920E-02 0.  1.
       -2    1    3    3    0  502  0.12546832129E+03 -0.32439411486E+03 -0.32129574024E+03  0.47350268648E+03  0.25500000920E-02 0. -1.
</event>
<event>
 5   0  0.1265562E-03  0.7043856E+03  0.7818609E-02  0.9709762E-01
       -2   -1    0    0    0  501  0.00000000000E+00  0.00000000000E+00  0.32760981420E+03  0.32760981421E+03  0.25500000920E-02 0. -1.
        2   -1    0    0  501    0  0.00000000000E+00  0.00000000000E+00 -0.37862037860E+03  0.37862037861E+03  0.25500000920E-02 0.  1.
    10030    2    1    2    0    0  0.00000000000E+00  0.00000000000E+00 -0.51010564406E+02  0.70623019282E+03  0.70438555321E+03 0.  0.
        1    1    3    3  502    0  0.70555866023E+02 -0.17948919795E+03 -0.32097220831E+03  0.37445648738E+03  0.50400001928E-02 0.  1.
       -1    1    3    3    0  502 -0.70555866023E+02  0.17948919795E+03  0.26996164390E+03  0.33177370543E+03  0.50400001928E-02 0. -1.
</event>
<event>
 5   0  0.7459843E-04  0.6999397E+03  0.7818609E-02  0.9717335E-01
        1   -1    0    0  501    0  0.00000000000E+00  0.00000000000E+00  0.18844198997E+03  0.18844199004E+03  0.50400001928E-02 0.  1.
       -1   -1    0    0    0  501  0.00000000000E+00  0.00000000000E+00 -0.64995551268E+03  0.64995551270E+03  0.50400001928E-02 0. -1.
    10030    2    1    2    0    0  0.00000000000E+00  0.00000000000E+00 -0.46151352271E+03  0.83839750273E+03  0.69993974094E+03 0.  0.
        2    1    3    3  502    0 -0.16328184300E+02  0.28545916350E+03  0.10968381082E+02  0.28613606732E+03  0.25500000920E-02 0.  1.
       -2    1    3    3    0  502  0.16328184300E+02 -0.28545916350E+03 -0.47248190379E+03  0.55226143542E+03  0.25500000920E-02 0. -1.
</event>
<event>
 5   0  0.7459843E-04  0.7004501E+03  0.7818609E-02  0.9716463E-01
        1   -1    0    0  501    0  0.00000000000E+00  0.00000000000E+00  0.99942527720E+03  0.99942527721E+03  0.50400001928E-02 0. -1.
       -1   -1    0    0    0  501  0.00000000000E+00  0.00000000000E+00 -0.12272810999E+03  0.12272811010E+03  0.50400001928E-02 0.  1.
    10030    2    1    2    0    0  0.00000000000E+00  0.00000000000E+00  0.87669716721E+03  0.11221533873E+04  0.70045007079E+03 0.  0.
        2    1    3    3  502    0 -0.65833210129E+02 -0.98478357825E+01 -0.11250047545E+03  0.13071858478E+03  0.25500000920E-02 0.  1.
       -2    1    3    3    0  502  0.65833210129E+02  0.98478357825E+01  0.98919764265E+03  0.99143480253E+03  0.25500000920E-02 0. -1.
</event>
<event>
 5   0  0.1265562E-03  0.6998991E+03  0.7818609E-02  0.9717405E-01
        2   -1    0    0  501    0  0.00000000000E+00  0.00000000000E+00  0.21033804719E+03  0.21033804720E+03  0.25500000920E-02 0.  1.
       -2   -1    0    0    0  501  0.00000000000E+00  0.00000000000E+00 -0.58222785588E+03  0.58222785589E+03  0.25500000920E-02 0. -1.
    10030    2    1    2    0    0  0.00000000000E+00  0.00000000000E+00 -0.37188980870E+03  0.79256590309E+03  0.69989905053E+03 0.  0.
        1    1    3    3  502    0  0.14567697856E+03 -0.31774803760E+03 -0.20486218367E+03  0.40515936593E+03  0.50400001928E-02 0. -1.
       -1    1    3    3    0  502 -0.14567697856E+03  0.31774803760E+03 -0.16702762503E+03  0.38740653716E+03  0.50400001928E-02 0.  1.
</event>
<event>
 5   0  0.1243087E-03  0.7000025E+03  0.7818609E-02  0.9717228E-01
        2   -1    0    0  501    0  0.00000000000E+00  0.00000000000E+00  0.16813689452E+04  0.16813689452E+04  0.25500000920E-02 0.  1.
       -2   -1    0    0    0  501  0.00000000000E+00  0.00000000000E+00 -0.72857825323E+02  0.72857825368E+02  0.25500000920E-02 0. -1.
    10030    2    1    2    0    0  0.00000000000E+00  0.00000000000E+00  0.16085111198E+04  0.17542267705E+04  0.70000252843E+03 0.  0.
        4    1    3    3  502    0  0.28376862450E+03  0.11739795487E+03  0.12250324135E+04  0.12629382166E+04  0.12699999809E+01 0. -1.
       -4    1    3    3    0  502 -0.28376862450E+03 -0.11739795487E+03  0.38347870636E+03  0.49128855390E+03  0.12699999809E+01 0.  1.
</event>
<event>
 5   0  0.1243087E-03  0.7001078E+03  0.7818609E-02  0.9717048E-01
       -2   -1    0    0    0  501  0.00000000000E+00  0.00000000000E+00  0.40274629187E+03  0.40274629188E+03  0.25500000920E-02 0. -1.
        2   -1    0    0  501    0  0.00000000000E+00  0.00000000000E+00 -0.30425543954E+03  0.30425543956E+03  0.25500000920E-02 0.  1.
    10030    2    1    2    0    0  0.00000000000E+00  0.00000000000E+00  0.98490852325E+02  0.70700173143E+03  0.70010784902E+03 0.  0.
        4    1    3    3  502    0  0.36358659145E+02 -0.25608598337E+03 -0.18894608278E+03  0.32031893180E+03  0.12699999809E+01 0.  1.
       -4    1    3    3    0  502 -0.36358659145E+02  0.25608598337E+03  0.28743693510E+03  0.38668279963E+03  0.12699999809E+01 0. -1.
</event>
<event>
 5   0  0.7574241E-04  0.7004394E+03  0.7818609E-02  0.9716481E-01
        1   -1    0    0  501    0  0.00000000000E+00  0.00000000000E+00  0.97002417661E+02  0.97002417792E+02  0.50400001928E-02 0. -1.
       -1   -1    0    0    0  501  0.00000000000E+00  0.00000000000E+00 -0.12644409913E+04  0.12644409913E+04  0.50400001928E-02 0.  1.
    10030    2    1    2    0    0  0.00000000000E+00  0.00000000000E+00 -0.11674385736E+04  0.13614434091E+04  0.70043938565E+03 0.  0.
        3    1    3    3  502    0  0.54747554697E+02  0.81171480997E+02 -0.12372986800E+04  0.12411664424E+04  0.10100000352E+00 0.  1.
       -3    1    3    3    0  502 -0.54747554697E+02 -0.81171480997E+02  0.69860106305E+02  0.12027696673E+03  0.10100000352E+00 0. -1.
</event>
<event>
 5   0  0.4936000E-04  0.6995729E+03  0.7818609E-02  0.9717963E-01
       -3   -1    0    0    0  501  0.00000000000E+00  0.00000000000E+00  0.24798130399E+03  0.24798132455E+03  0.10100000352E+00 0.  1.
        3   -1    0    0  501    0  0.00000000000E+00  0.00000000000E+00 -0.49338619155E+03  0.49338620189E+03  0.10100000352E+00 0. -1.
    10030    2    1    2    0    0  0.00000000000E+00  0.00000000000E+00 -0.24540488756E+03  0.74136752644E+03  0.69957290572E+03 0.  0.
        4    1    3    3  502    0  0.12502528854E+03 -0.30208810013E+03  0.90658841517E+01  0.32706627183E+03  0.12699999809E+01 0.  1.
       -4    1    3    3    0  502 -0.12502528854E+03  0.30208810013E+03 -0.25447077172E+03  0.41430125461E+03  0.12699999809E+01 0. -1.
</event>
<event>
 5   0  0.7574241E-04  0.6962984E+03  0.7818609E-02  0.9723583E-01
        1   -1    0    0  501    0  0.00000000000E+00  0.00000000000E+00  0.23621216436E+03  0.23621216441E+03  0.50400001928E-02 0. -1.
       -1   -1    0    0    0  501  0.00000000000E+00  0.00000000000E+00 -0.51313138940E+03  0.51313138943E+03  0.50400001928E-02 0.  1.
    10030    2    1    2    0    0  0.00000000000E+00  0.00000000000E+00 -0.27691922504E+03  0.74934355384E+03  0.69629843062E+03 0.  0.
        3    1    3    3  502    0 -0.22319379780E+03  0.14602778919E+03 -0.37926538456E+03  0.46366132976E+03  0.10100000352E+00 0.  1.
       -3    1    3    3    0  502  0.22319379780E+03 -0.14602778919E+03  0.10234615951E+03  0.28568222408E+03  0.10100000352E+00 0. -1.
</event>
<event>
 5   0  0.1222679E-03  0.6996219E+03  0.7818609E-02  0.9717879E-01
        2   -1    0    0  501    0  0.00000000000E+00  0.00000000000E+00  0.11489401193E+04  0.11489401193E+04  0.25500000920E-02 0.  1.
       -2   -1    0    0    0  501  0.00000000000E+00  0.00000000000E+00 -0.10650486022E+03  0.10650486025E+03  0.25500000920E-02 0. -1.
    10030    2    1    2    0    0  0.00000000000E+00  0.00000000000E+00  0.10424352590E+04  0.12554449795E+04  0.69962191738E+03 0.  0.
        2    1    3    3  502    0 -0.17327560142E+03 -0.29985576154E+03  0.60967195967E+03  0.70116888850E+03  0.25500000920E-02 0.  1.
       -2    1    3    3    0  502  0.17327560142E+03  0.29985576154E+03  0.43276329936E+03  0.55427609100E+03  0.25500000920E-02 0. -1.
</event>
<event>
 5   0  0.7459843E-04  0.7000582E+03  0.7818609E-02  0.9717133E-01
       -1   -1    0    0    0  501  0.00000000000E+00  0.00000000000E+00  0.19769642268E+03  0.19769642275E+03  0.50400001928E-02 0.  1.
        1   -1    0    0  501    0  0.00000000000E+00  0.00000000000E+00 -0.61973994148E+03  0.61973994150E+03  0.50400001928E-02 0. -1.
    10030    2    1    2    0    0  0.00000000000E+00  0.00000000000E+00 -0.42204351880E+03  0.81743636425E+03  0.70005819603E+03 0.  0.
        2    1    3    3  502    0 -0.34466111573E+02 -0.28280609783E+03  0.26429348433E+02  0.28612184867E+03  0.25500000920E-02 0.  1.
       -2    1    3    3    0  502  0.34466111573E+02  0.28280609783E+03 -0.44847286723E+03  0.53131451558E+03  0.25500000920E-02 0. -1.
</event>
<event>
 5   0  0.7459843E-04  0.6999462E+03  0.7818609E-02  0.9717324E-01
        1   -1    0    0  501    0  0.00000000000E+00  0.00000000000E+00  0.17959715107E+04  0.17959715107E+04  0.50400001928E-02 0.  1.
       -1   -1    0    0    0  501  0.00000000000E+00  0.00000000000E+00 -0.68197718823E+02  0.68197719009E+02  0.50400001928E-02 0. -1.
    10030    2    1    2    0    0  0.00000000000E+00  0.00000000000E+00  0.17277737919E+04  0.18641692298E+04  0.69994617017E+03 0.  0.
        2    1    3    3  502    0 -0.29636269227E+03 -0.12018001945E+03  0.48529400852E+03  0.58119218608E+03  0.25500000920E-02 0. -1.
       -2    1    3    3    0  502  0.29636269227E+03  0.12018001945E+03  0.12424797834E+04  0.12829770437E+04  0.25500000920E-02 0.  1.
</event>
<event>
 5   0  0.7013526E-04  0.6998489E+03  0.7818609E-02  0.9717491E-01
       -1   -1    0    0    0  501  0.00000000000E+00  0.00000000000E+00  0.27428646718E+03  0.27428646723E+03  0.50400001928E-02 0. -1.
        1   -1    0    0  501    0  0.00000000000E+00  0.00000000000E+00 -0.44642061169E+03  0.44642061172E+03  0.50400001928E-02 0.  1.
    10030    2    1    2    0    0  0.00000000000E+00  0.00000000000E+00 -0.17213414451E+03  0.72070707894E+03  0.69984893365E+03 0.  0.
        1    1    3    3  502    0  0.18698881397E+03  0.25030234568E+03  0.76208085233E+02  0.32159563598E+03  0.50400001928E-02 0. -1.
       -1    1    3    3    0  502 -0.18698881397E+03 -0.25030234568E+03 -0.24834222974E+03  0.39911144296E+03  0.50400001928E-02 0.  1.
</event>
<event>
 5   0  0.1222679E-03  0.7002106E+03  0.7818609E-02  0.9716872E-01
       -2   -1    0    0    0  501  0.00000000000E+00  0.00000000000E+00  0.10257798251E+03  0.10257798254E+03  0.25500000920E-02 0. -1.
        2   -1    0    0  501    0  0.00000000000E+00  0.00000000000E+00 -0.11949321416E+04  0.11949321416E+04  0.25500000920E-02 0.  1.
    10030    2    1    2    0    0  0.00000000000E+00  0.00000000000E+00 -0.10923541591E+04  0.12975101241E+04  0.70021062071E+03 0.  0.
        2    1    3    3  502    0  0.15012237452E+03  0.31175433805E+03 -0.64503633612E+03  0.73198317573E+03  0.25500000920E-02 0.  1.
       -2    1    3    3    0  502 -0.15012237452E+03 -0.31175433805E+03 -0.44731782295E+03  0.56552694839E+03  0.25500000920E-02 0. -1.
</event>
<event>
 5   0  0.1243087E-03  0.7000532E+03  0.7818609E-02  0.9717141E-01
        2   -1    0    0  501    0  0.00000000000E+00  0.00000000000E+00  0.90415922737E+03  0.90415922737E+03  0.25500000920E-02 0. -1.
       -2   -1    0    0    0  501  0.00000000000E+00  0.00000000000E+00 -0.13550559174E+03  0.13550559176E+03  0.25500000920E-02 0.  1.
    10030    2    1    2    0    0  0.00000000000E+00  0.00000000000E+00  0.76865363563E+03  0.10396648191E+04  0.70005322982E+03 0.  0.
        4    1    3    3  502    0 -0.17042182582E+03  0.26898739796E+03  0.16850218606E+03  0.36026714891E+03  0.12699999809E+01 0.  1.
       -4    1    3    3    0  502  0.17042182582E+03 -0.26898739796E+03  0.60015144957E+03  0.67939767022E+03  0.12699999809E+01 0. -1.
</event>
<event>
 5   0  0.7013526E-04  0.7000144E+03  0.7818609E-02  0.9717208E-01
        1   -1    0    0  501    0  0.00000000000E+00  0.00000000000E+00  0.68405395721E+03  0.68405395723E+03  0.50400001928E-02 0. -1.
       -1   -1    0    0    0  501  0.00000000000E+00  0.00000000000E+00 -0.17908682366E+03  0.17908682373E+03  0.50400001928E-02 0.  1.
    10030    2    1    2    0    0  0.00000000000E+00  0.00000000000E+00  0.50496713355E+03  0.86314078096E+03  0.70001442969E+03 0.  0.
        1    1    3    3  502    0  0.22680893845E+03 -0.17377041235E+03  0.32199481339E+01  0.28574257446E+03  0.50400001928E-02 0. -1.
       -1    1    3    3    0  502 -0.22680893845E+03  0.17377041235E+03  0.50174718542E+03  0.57739820650E+03  0.50400001928E-02 0.  1.
</event>
<event>
 5   0  0.1265562E-03  0.7001107E+03  0.7818609E-02  0.9717043E-01
        2   -1    0    0  501    0  0.00000000000E+00  0.00000000000E+00  0.60014435118E+03  0.60014435119E+03  0.25500000920E-02 0. -1.
       -2   -1    0    0    0  501  0.00000000000E+00  0.00000000000E+00 -0.20418212355E+03  0.20418212356E+03  0.25500000920E-02 0.  1.
    10030    2    1    2    0    0  0.00000000000E+00  0.00000000000E+00  0.39596222764E+03  0.80432647475E+03  0.70011070001E+03 0.  0.
        1    1    3    3  502    0  0.16231400841E+03 -0.30955282344E+03  0.17588361292E+03  0.39128484911E+03  0.50400001928E-02 0.  1.
       -1    1    3    3    0  502 -0.16231400841E+03  0.30955282344E+03  0.22007861472E+03  0.41304162564E+03  0.50400001928E-02 0. -1.
</event>
<event>
 5   0  0.7459843E-04  0.6967867E+03  0.7818609E-02  0.9722743E-01
        1   -1    0    0  501    0  0.00000000000E+00  0.00000000000E+00  0.18948163630E+04  0.18948163630E+04  0.50400001928E-02 0. -1.
       -1   -1    0    0    0  501  0.00000000000E+00  0.00000000000E+00 -0.64057880616E+02  0.64057880815E+02  0.50400001928E-02 0.  1.
    10030    2    1    2    0    0  0.00000000000E+00  0.00000000000E+00  0.18307584824E+04  0.19588742439E+04  0.69678668349E+03 0.  0.
        2    1    3    3  502    0 -0.10618559817E+03  0.15297668498E+03  0.17431649962E+04  0.17530834126E+04  0.25500000920E-02 0. -1.
       -2    1    3    3    0  502  0.10618559817E+03 -0.15297668498E+03  0.87593486198E+02  0.20579083128E+03  0.25500000920E-02 0.  1.
</event>
<event>
 5   0  0.7572415E-04  0.6998778E+03  0.7818609E-02  0.9717441E-01
       -1   -1    0    0    0  501  0.00000000000E+00  0.00000000000E+00  0.64791782700E+03  0.64791782702E+03  0.50400001928E-02 0.  1.
        1   -1    0    0  501    0  0.00000000000E+00  0.00000000000E+00 -0.18900120475E+03  0.18900120482E+03  0.50400001928E-02 0. -1.
    10030    2    1    2    0    0  0.00000000000E+00  0.00000000000E+00  0.45891662225E+03  0.83691903184E+03  0.69987784625E+03 0.  0.
        4    1    3    3  502    0  0.21854676557E+03 -0.26143290267E+03  0.13419977630E+03  0.36622540081E+03  0.12699999809E+01 0.  1.
       -4    1    3    3    0  502 -0.21854676557E+03  0.26143290267E+03  0.32471684596E+03  0.47069363103E+03  0.12699999809E+01 0. -1.
</event>
<event>
 5   0  0.7013526E-04  0.7000757E+03  0.7818609E-02  0.9717103E-01
        1   -1    0    0  501    0  0.00000000000E+00  0.00000000000E+00  0.25015927836E+03  0.25015927841E+03  0.50400001928E-02 0. -1.
       -1   -1    0    0    0  501  0.00000000000E+00  0.00000000000E+00 -0.48979388983E+03  0.48979388986E+03  0.50400001928E-02 0.  1.
    10030    2    1    2    0    0  0.00000000000E+00  0.00000000000E+00 -0.23963461147E+03  0.73995316827E+03  0.70007567035E+03 0.  0.
        1    1    3    3  502    0  0.23957496653E+03 -0.73216374446E+02 -0.37822160128E+03  0.45366108691E+03  0.50400001928E-02 0.  1.
       -1    1    3    3    0  502 -0.23957496653E+03  0.73216374446E+02  0.13858698981E+03  0.28629208136E+03  0.50400001928E-02 0. -1.
</event>
<event>
 5   0  0.7013526E-04  0.6998203E+03  0.7818609E-02  0.9717540E-01
       -1   -1    0    0    0  501  0.00000000000E+00  0.00000000000E+00  0.22566110329E+03  0.22566110335E+03  0.50400001928E-02 0. -1.
        1   -1    0    0  501    0  0.00000000000E+00  0.00000000000E+00 -0.54257072772E+03  0.54257072774E+03  0.50400001928E-02 0.  1.
    10030    2    1    2    0    0  0.00000000000E+00  0.00000000000E+00 -0.31690962442E+03  0.76823183109E+03  0.69982028854E+03 0.  0.
        1    1    3    3  502    0  0.17525727312E+03  0.29749566421E+03 -0.96178791361E+02  0.35842592253E+03  0.50400001928E-02 0. -1.
       -1    1    3    3    0  502 -0.17525727312E+03 -0.29749566421E+03 -0.22073083306E+03  0.40980590857E+03  0.50400001928E-02 0.  1.
</event>
<event>
 5   0  0.7013526E-04  0.7001143E+03  0.7818609E-02  0.9717037E-01
       -1   -1    0    0    0  501  0.00000000000E+00  0.00000000000E+00  0.12611271431E+03  0.12611271441E+03  0.50400001928E-02 0. -1.
        1   -1    0    0  501    0  0.00000000000E+00  0.00000000000E+00 -0.97167046232E+03  0.97167046233E+03  0.50400001928E-02 0.  1.
    10030    2    1    2    0    0  0.00000000000E+00  0.00000000000E+00 -0.84555774801E+03  0.10977831767E+04  0.70011427491E+03 0.  0.
        1    1    3    3  502    0 -0.15716740403E+03 -0.31275896721E+03 -0.42983228566E+03  0.55432441610E+03  0.50400001928E-02 0. -1.
       -1    1    3    3    0  502  0.15716740403E+03  0.31275896721E+03 -0.41572546235E+03  0.54345876065E+03  0.50400001928E-02 0.  1.
</event>
<event>
 5   0  0.4936000E-04  0.6996334E+03  0.7818609E-02  0.9717859E-01
       -3   -1    0    0    0  501  0.00000000000E+00  0.00000000000E+00  0.84952536673E+03  0.84952537273E+03  0.10100000352E+00 0.  1.
        3   -1    0    0  501    0  0.00000000000E+00  0.00000000000E+00 -0.14404712874E+03  0.14404716415E+03  0.10100000352E+00 0. -1.
    10030    2    1    2    0    0  0.00000000000E+00  0.00000000000E+00  0.70547823799E+03  0.99357253688E+03  0.69963336239E+03 0.  0.
        5    1    3    3  502    0 -0.30879052217E+03 -0.27850699571E+02  0.12277236335E+03  0.33350021177E+03  0.46999998093E+01 0. -1.
       -5    1    3    3    0  502  0.30879052217E+03  0.27850699571E+02  0.58270587464E+03  0.66007232512E+03  0.46999998093E+01 0.  1.
</event>
<event>
 5   0  0.7459843E-04  0.7001232E+03  0.7818609E-02  0.9717021E-01
       -1   -1    0    0    0  501  0.00000000000E+00  0.00000000000E+00  0.98238463261E+03  0.98238463263E+03  0.50400001928E-02 0. -1.
        1   -1    0    0  501    0  0.00000000000E+00  0.00000000000E+00 -0.12474048334E+03  0.12474048344E+03  0.50400001928E-02 0.  1.
    10030    2    1    2    0    0  0.00000000000E+00  0.00000000000E+00  0.85764414928E+03  0.11071251161E+04  0.70012322903E+03 0.  0.
        2    1    3    3  502    0 -0.26411222432E+03 -0.64146684960E+02  0.79949697258E+02  0.28330552117E+03  0.25500000920E-02 0.  1.
       -2    1    3    3    0  502  0.26411222432E+03  0.64146684960E+02  0.77769445202E+03  0.82381959490E+03  0.25500000920E-02 0. -1.
</event>
<event>
 5   0  0.7572415E-04  0.6997709E+03  0.7818609E-02  0.9717624E-01
        1   -1    0    0  501    0  0.00000000000E+00  0.00000000000E+00  0.27431003576E+03  0.27431003581E+03  0.50400001928E-02 0.  1.
       -1   -1    0    0    0  501  0.00000000000E+00  0.00000000000E+00 -0.44628269219E+03  0.44628269222E+03  0.50400001928E-02 0. -1.
    10030    2    1    2    0    0  0.00000000000E+00  0.00000000000E+00 -0.17197265643E+03  0.72059272802E+03  0.69977088045E+03 0.  0.
        4    1    3    3  502    0  0.12647549880E+03 -0.13308833062E+03  0.22071767786E+03  0.28710009015E+03  0.12699999809E+01 0.  1.
       -4    1    3    3    0  502 -0.12647549880E+03  0.13308833062E+03 -0.39269033429E+03  0.43349263787E+03  0.12699999809E+01 0. -1.
</event>
<event>
 5   0  0.1222679E-03  0.6997423E+03  0.7818609E-02  0.9717673E-01
        2   -1    0    0  501    0  0.00000000000E+00  0.00000000000E+00  0.11237981546E+04  0.11237981546E+04  0.25500000920E-02 0.  1.
       -2   -1    0    0    0  501  0.00000000000E+00  0.00000000000E+00 -0.10892508184E+03  0.10892508187E+03  0.25500000920E-02 0. -1.
    10030    2    1    2    0    0  0.00000000000E+00  0.00000000000E+00  0.10148730728E+04  0.12327232365E+04  0.69974225536E+03 0.  0.
        2    1    3    3  502    0 -0.27479508150E+03 -0.68503872780E+02  0.86935257687E+03  0.91431888328E+03  0.25500000920E-02 0.  1.
       -2    1    3    3    0  502  0.27479508150E+03  0.68503872780E+02  0.14552049589E+03  0.31840435320E+03  0.25500000920E-02 0. -1.
</event>
<event>
 5   0  0.7459843E-04  0.7013166E+03  0.7818609E-02  0.9714983E-01
        1   -1    0    0  501    0  0.00000000000E+00  0.00000000000E+00  0.66266441583E+03  0.66266441585E+03  0.50400001928E-02 0. -1.
       -1   -1    0    0    0  501  0.00000000000E+00  0.00000000000E+00 -0.18555584005E+03  0.18555584012E+03  0.50400001928E-02 0.  1.
    10030    2    1    2    0    0  0.00000000000E+00  0.00000000000E+00  0.47710857578E+03  0.84822025597E+03  0.70131662576E+03 0.  0.
        2    1    3    3  502    0 -0.21576112516E+03  0.27629172569E+03  0.22834365518E+03  0.41836683148E+03  0.25500000920E-02 0. -1.
       -2    1    3    3    0  502  0.21576112516E+03 -0.27629172569E+03  0.24876492060E+03  0.42985342449E+03  0.25500000920E-02 0.  1.
</event>
<event>
 5   0  0.7570633E-04  0.7001619E+03  0.7818609E-02  0.9716955E-01
        1   -1    0    0  501    0  0.00000000000E+00  0.00000000000E+00  0.52728589198E+03  0.52728589201E+03  0.50400001928E-02 0.  1.
       -1   -1    0    0    0  501  0.00000000000E+00  0.00000000000E+00 -0.23242927371E+03  0.23242927377E+03  0.50400001928E-02 0. -1.
    10030    2    1    2    0    0  0.00000000000E+00  0.00000000000E+00  0.29485661827E+03  0.75971516577E+03  0.70016191540E+03 0.  0.
        5    1    3    3  502    0  0.24145392448E+03  0.21915021217E+03  0.92900446105E+01  0.32624409277E+03  0.46999998093E+01 0. -1.
       -5    1    3    3    0  502 -0.24145392448E+03 -0.21915021217E+03  0.28556657366E+03  0.43347107300E+03  0.46999998093E+01 0.  1.
</event>
<event>
 5   0  0.1265562E-03  0.6998962E+03  0.7818609E-02  0.9717410E-01
       -2   -1    0    0    0  501  0.00000000000E+00  0.00000000000E+00  0.11901803008E+03  0.11901803010E+03  0.25500000920E-02 0.  1.
        2   -1    0    0  501    0  0.00000000000E+00  0.00000000000E+00 -0.10289505796E+04  0.10289505796E+04  0.25500000920E-02 0. -1.
    10030    2    1    2    0    0  0.00000000000E+00  0.00000000000E+00 -0.90993254957E+03  0.11479686098E+04  0.69989619531E+03 0.  0.
        1    1    3    3  502    0  0.33924702505E+03 -0.22521920512E+02 -0.59089400012E+03  0.68172685168E+03  0.50400001928E-02 0. -1.
       -1    1    3    3    0  502 -0.33924702505E+03  0.22521920512E+02 -0.31903854945E+03  0.46624175807E+03  0.50400001928E-02 0.  1.
</event>
<event>
 5   0  0.1265562E-03  0.6991118E+03  0.7818609E-02  0.9718752E-01
        2   -1    0    0  501    0  0.00000000000E+00  0.00000000000E+00  0.52764523668E+03  0.52764523669E+03  0.25500000920E-02 0.  1.
       -2   -1    0    0    0  501  0.00000000000E+00  0.00000000000E+00 -0.23157478993E+03  0.23157478995E+03  0.25500000920E-02 0. -1.
    10030    2    1    2    0    0  0.00000000000E+00  0.00000000000E+00  0.29607044675E+03  0.75922002663E+03  0.69911182182E+03 0.  0.
        1    1    3    3  502    0  0.98073079371E+02 -0.85225722331E+02 -0.20437689185E+03  0.24218106159E+03  0.50400001928E-02 0. -1.
       -1    1    3    3    0  502 -0.98073079371E+02  0.85225722331E+02  0.50044733860E+03  0.51703896505E+03  0.50400001928E-02 0.  1.
</event>
<event>
 5   0  0.1222679E-03  0.6997534E+03  0.7818609E-02  0.9717654E-01
       -2   -1    0    0    0  501  0.00000000000E+00  0.00000000000E+00  0.68240301023E+03  0.68240301023E+03  0.25500000920E-02 0. -1.
        2   -1    0    0  501    0  0.00000000000E+00  0.00000000000E+00 -0.17938624953E+03  0.17938624954E+03  0.25500000920E-02 0.  1.
    10030    2    1    2    0    0  0.00000000000E+00  0.00000000000E+00  0.50301676070E+03  0.86178925978E+03  0.69975343280E+03 0.  0.
        2    1    3    3  502    0  0.23179178652E+03  0.25491759472E+03  0.32645477371E+03  0.47464000219E+03  0.25500000920E-02 0. -1.
       -2    1    3    3    0  502 -0.23179178652E+03 -0.25491759472E+03  0.17656198700E+03  0.38714925759E+03  0.25500000920E-02 0.  1.
</event>
<event>
 5   0  0.1282546E-03  0.6996788E+03  0.7818609E-02  0.9717782E-01
       -2   -1    0    0    0  501  0.00000000000E+00  0.00000000000E+00  0.15331413046E+03  0.15331413048E+03  0.25500000920E-02 0. -1.
        2   -1    0    0  501    0  0.00000000000E+00  0.00000000000E+00 -0.79827993741E+03  0.79827993742E+03  0.25500000920E-02 0.  1.
    10030    2    1    2    0    0  0.00000000000E+00  0.00000000000E+00 -0.64496580695E+03  0.95159406790E+03  0.69967876766E+03 0.  0.
        5    1    3    3  502    0  0.66844664435E+02 -0.18298582633E+03  0.72664325019E+02  0.20797647927E+03  0.46999998093E+01 0. -1.
       -5    1    3    3    0  502 -0.66844664435E+02  0.18298582633E+03 -0.71763013197E+03  0.74361758863E+03  0.46999998093E+01 0.  1.
</event>
<event>
 5   0  0.7459843E-04  0.6996534E+03  0.7818609E-02  0.9717825E-01
       -1   -1    0    0    0  501  0.00000000000E+00  0.00000000000E+00  0.23936750763E+03  0.23936750768E+03  0.50400001928E-02 0.  1.
        1   -1    0    0  501    0  0.00000000000E+00  0.00000000000E+00 -0.51125868486E+03  0.51125868489E+03  0.50400001928E-02 0. -1.
    10030    2    1    2    0    0  0.00000000000E+00  0.00000000000E+00 -0.27189117724E+03  0.75062619257E+03  0.69965339184E+03 0.  0.
        2    1    3    3  502    0 -0.26464775189E+03 -0.20343816292E+03 -0.23663301824E+02  0.33464230243E+03  0.25500000920E-02 0.  1.
       -2    1    3    3    0  502  0.26464775189E+03  0.20343816292E+03 -0.24822787541E+03  0.41598389014E+03  0.25500000920E-02 0. -1.
</event>
<event>
 5   0  0.1265562E-03  0.6999774E+03  0.7818609E-02  0.9717271E-01
        2   -1    0    0  501    0  0.00000000000E+00  0.00000000000E+00  0.63359115268E+03  0.63359115268E+03  0.25500000920E-02 0.  1.
       -2   -1    0    0    0  501  0.00000000000E+00  0.00000000000E+00 -0.19332986286E+03  0.19332986288E+03  0.25500000920E-02 0. -1.
    10030    2    1    2    0    0  0.00000000000E+00  0.00000000000E+00  0.44026128981E+03  0.82692101556E+03  0.69997740154E+03 0.  0.
        1    1    3    3  502    0 -0.12451825173E+03 -0.25242277680E+03 -0.25608105353E+02  0.28262665895E+03  0.50400001928E-02 0. -1.
       -1    1    3    3    0  502  0.12451825173E+03  0.25242277680E+03  0.46586939517E+03  0.54429435661E+03  0.50400001928E-02 0.  1.
</event>
<event>
 5   0  0.7013526E-04  0.6998442E+03  0.7818609E-02  0.9717499E-01
        1   -1    0    0  501    0  0.00000000000E+00  0.00000000000E+00  0.38188834043E+03  0.38188834046E+03  0.50400001928E-02 0.  1.
       -1   -1    0    0    0  501  0.00000000000E+00  0.00000000000E+00 -0.32063158735E+03  0.32063158739E+03  0.50400001928E-02 0. -1.
    10030    2    1    2    0    0  0.00000000000E+00  0.00000000000E+00  0.61256753081E+02  0.70251992785E+03  0.69984416782E+03 0.  0.
        1    1    3    3  502    0 -0.82486463317E+02  0.23881207451E+03 -0.21239276397E+03  0.33006955294E+03  0.50400001928E-02 0. -1.
       -1    1    3    3    0  502  0.82486463317E+02 -0.23881207451E+03  0.27364951706E+03  0.37245037491E+03  0.50400001928E-02 0.  1.
</event>
<event>
 5   0  0.4936000E-04  0.6997503E+03  0.7818609E-02  0.9717659E-01
       -4   -1    0    0    0  501  0.00000000000E+00  0.00000000000E+00  0.13203140715E+03  0.13203751502E+03  0.12699999809E+01 0.  1.
        4   -1    0    0  501    0  0.00000000000E+00  0.00000000000E+00 -0.92711970837E+03  0.92712057822E+03  0.12699999809E+01 0. -1.
    10030    2    1    2    0    0  0.00000000000E+00  0.00000000000E+00 -0.79508830123E+03  0.10591580932E+04  0.69975028383E+03 0.  0.
        3    1    3    3  502    0 -0.14352404020E+03  0.19595408103E+03 -0.16377185317E+02  0.24344480768E+03  0.10100000352E+00 0.  1.
       -3    1    3    3    0  502  0.14352404020E+03 -0.19595408103E+03 -0.77871111591E+03  0.81571328555E+03  0.10100000352E+00 0. -1.
</event>
<event>
 5   0  0.7013526E-04  0.6996221E+03  0.7818609E-02  0.9717879E-01
        1   -1    0    0  501    0  0.00000000000E+00  0.00000000000E+00  0.87603140197E+03  0.87603140199E+03  0.50400001928E-02 0.  1.
       -1   -1    0    0    0  501  0.00000000000E+00  0.00000000000E+00 -0.13968422503E+03  0.13968422512E+03  0.50400001928E-02 0. -1.
    10030    2    1    2    0    0  0.00000000000E+00  0.00000000000E+00  0.73634717695E+03  0.10157156271E+04  0.69962209096E+03 0.  0.
        1    1    3    3  502    0  0.28703051538E+03  0.18288343538E+03  0.25081143027E+03  0.42277563941E+03  0.50400001928E-02 0.  1.
       -1    1    3    3    0  502 -0.28703051538E+03 -0.18288343538E+03  0.48553574667E+03  0.59293998770E+03  0.50400001928E-02 0. -1.
</event>
<event>
 5   0  0.7570633E-04  0.7001945E+03  0.7818609E-02  0.9716900E-01
       -1   -1    0    0    0  501  0.00000000000E+00  0.00000000000E+00  0.48908578106E+02  0.48908578366E+02  0.50400001928E-02 0.  1.
        1   -1    0    0  501    0  0.00000000000E+00  0.00000000000E+00 -0.25060652168E+04  0.25060652168E+04  0.50400001928E-02 0. -1.
    10030    2    1    2    0    0  0.00000000000E+00  0.00000000000E+00 -0.24571566387E+04  0.25549737952E+04  0.70019450650E+03 0.  0.
        5    1    3    3  502    0  0.22838602445E+03  0.13625317439E+01 -0.21966435287E+04  0.22084897362E+04  0.46999998093E+01 0. -1.
       -5    1    3    3    0  502 -0.22838602445E+03 -0.13625317439E+01 -0.26051311001E+03  0.34648405900E+03  0.46999998093E+01 0.  1.
</event>
<event>
 5   0  0.4936000E-04  0.6988416E+03  0.7818609E-02  0.9719215E-01
       -4   -1    0    0    0  501  0.00000000000E+00  0.00000000000E+00  0.26630305737E+03  0.26630608566E+03  0.12699999809E+01 0.  1.
        4   -1    0    0  501    0  0.00000000000E+00  0.00000000000E+00 -0.45847444202E+03  0.45847620100E+03  0.12699999809E+01 0. -1.
    10030    2    1    2    0    0  0.00000000000E+00  0.00000000000E+00 -0.19217138466E+03  0.72478228667E+03  0.69884155714E+03 0.  0.
        5    1    3    3  502    0 -0.31867862406E+03  0.47647761310E+02  0.44007693976E+02  0.32524627856E+03  0.46999998093E+01 0.  1.
       -5    1    3    3    0  502  0.31867862406E+03 -0.47647761310E+02 -0.23617907863E+03  0.39953600811E+03  0.46999998093E+01 0. -1.
</event>
<event>
 5   0  0.1265562E-03  0.6997507E+03  0.7818609E-02  0.9717659E-01
       -2   -1    0    0    0  501  0.00000000000E+00  0.00000000000E+00  0.81905958246E+03  0.81905958246E+03  0.25500000920E-02 0. -1.
        2   -1    0    0  501    0  0.00000000000E+00  0.00000000000E+00 -0.14945527703E+03  0.14945527706E+03  0.25500000920E-02 0.  1.
    10030    2    1    2    0    0  0.00000000000E+00  0.00000000000E+00  0.66960430543E+03  0.96851485952E+03  0.69975074653E+03 0.  0.
        1    1    3    3  502    0  0.30810191331E+03 -0.12548005075E+03  0.48477434483E+03  0.58794404288E+03  0.50400001928E-02 0. -1.
       -1    1    3    3    0  502 -0.30810191331E+03  0.12548005075E+03  0.18482996059E+03  0.38057081664E+03  0.50400001928E-02 0.  1.
</event>
<event>
 5   0  0.1224048E-03  0.7004127E+03  0.7818609E-02  0.9716527E-01
        2   -1    0    0  501    0  0.00000000000E+00  0.00000000000E+00  0.59868951292E+03  0.59868951292E+03  0.25500000920E-02 0.  1.
       -2   -1    0    0    0  501  0.00000000000E+00  0.00000000000E+00 -0.20485491902E+03  0.20485491904E+03  0.25500000920E-02 0. -1.
    10030    2    1    2    0    0  0.00000000000E+00  0.00000000000E+00  0.39383459389E+03  0.80354443196E+03  0.70041271176E+03 0.  0.
        3    1    3    3  502    0  0.74988352655E+02 -0.29125862036E+03  0.40274980549E+03  0.50265520289E+03  0.10100000352E+00 0.  1.
       -3    1    3    3    0  502 -0.74988352655E+02  0.29125862036E+03 -0.89152116022E+01  0.30088922907E+03  0.10100000352E+00 0. -1.
</event>
<event>
 5   0  0.7013526E-04  0.6997661E+03  0.7818609E-02  0.9717632E-01
       -1   -1    0    0    0  501  0.00000000000E+00  0.00000000000E+00  0.59651146777E+03  0.59651146779E+03  0.50400001928E-02 0. -1.
        1   -1    0    0  501    0  0.00000000000E+00  0.00000000000E+00 -0.20522344360E+03  0.20522344366E+03  0.50400001928E-02 0.  1.
    10030    2    1    2    0    0  0.00000000000E+00  0.00000000000E+00  0.39128802417E+03  0.80173491146E+03  0.69976606833E+03 0.  0.
        1    1    3    3  502    0  0.12251000702E+03 -0.31620063967E+03  0.96908660816E+02  0.35267950736E+03  0.50400001928E-02 0.  1.
       -1    1    3    3    0  502 -0.12251000702E+03  0.31620063967E+03  0.29437936335E+03  0.44905540409E+03  0.50400001928E-02 0. -1.
</event>
<event>
 5   0  0.7459843E-04  0.7000417E+03  0.7818609E-02  0.9717161E-01
       -1   -1    0    0    0  501  0.00000000000E+00  0.00000000000E+00  0.45843792938E+03  0.45843792941E+03  0.50400001928E-02 0. -1.
        1   -1    0    0  501    0  0.00000000000E+00  0.00000000000E+00 -0.26724355241E+03  0.26724355246E+03  0.50400001928E-02 0.  1.
    10030    2    1    2    0    0  0.00000000000E+00  0.00000000000E+00  0.19119437697E+03  0.72568148187E+03  0.70004165829E+03 0.  0.
        2    1    3    3  502    0  0.97257636000E+02 -0.47514842120E+02 -0.24945744786E+03  0.27192963480E+03  0.25500000920E-02 0.  1.
       -2    1    3    3    0  502 -0.97257636000E+02  0.47514842120E+02  0.44065182483E+03  0.45375184707E+03  0.25500000920E-02 0. -1.
</event>
<event>
 5   0  0.4936000E-04  0.7000059E+03  0.7818609E-02  0.9717222E-01
        3   -1    0    0  501    0  0.00000000000E+00  0.00000000000E+00  0.13250344686E+04  0.13250344724E+04  0.10100000352E+00 0.  1.
       -3   -1    0    0    0  501  0.00000000000E+00  0.00000000000E+00 -0.92451963418E+02  0.92452018587E+02  0.10100000352E+00 0. -1.
    10030    2    1    2    0    0  0.00000000000E+00  0.00000000000E+00  0.12325825052E+04  0.14174864910E+04  0.70000594296E+03 0.  0.
        2    1    3    3  502    0 -0.18190128908E+03  0.16197419539E+03  0.10731047674E+03  0.26615645280E+03  0.25500000920E-02 0. -1.
       -2    1    3    3    0  502  0.18190128908E+03 -0.16197419539E+03  0.11252720284E+04  0.11513300382E+04  0.25500000920E-02 0.  1.
</event>
<event>
 5   0  0.7572415E-04  0.7000133E+03  0.7818609E-02  0.9717209E-01
       -1   -1    0    0    0  501  0.00000000000E+00  0.00000000000E+00  0.43898906259E+03  0.43898906262E+03  0.50400001928E-02 0.  1.
        1   -1    0    0  501    0  0.00000000000E+00  0.00000000000E+00 -0.27906083614E+03  0.27906083619E+03  0.50400001928E-02 0. -1.
    10030    2    1    2    0    0  0.00000000000E+00  0.00000000000E+00  0.15992822645E+03  0.71804989881E+03  0.70001329956E+03 0.  0.
        4    1    3    3  502    0  0.10992195392E+03  0.57419288223E+02  0.41569412557E+03  0.43380067951E+03  0.12699999809E+01 0.  1.
       -4    1    3    3    0  502 -0.10992195392E+03 -0.57419288223E+02 -0.25576589912E+03  0.28424921929E+03  0.12699999809E+01 0. -1.
</event>
<event>
 5   0  0.7459843E-04  0.6998380E+03  0.7818609E-02  0.9717509E-01
       -1   -1    0    0    0  501  0.00000000000E+00  0.00000000000E+00  0.20240377501E+03  0.20240377507E+03  0.50400001928E-02 0. -1.
        1   -1    0    0  501    0  0.00000000000E+00  0.00000000000E+00 -0.60494580676E+03  0.60494580678E+03  0.50400001928E-02 0.  1.
    10030    2    1    2    0    0  0.00000000000E+00  0.00000000000E+00 -0.40254203175E+03  0.80734958185E+03  0.69983802411E+03 0.  0.
        2    1    3    3  502    0 -0.29382942349E+03 -0.15356917311E+03 -0.33037428751E+03  0.46804528722E+03  0.25500000920E-02 0.  1.
       -2    1    3    3    0  502  0.29382942349E+03  0.15356917311E+03 -0.72167744247E+02  0.33930429463E+03  0.25500000920E-02 0. -1.
</event>
<event>
 5   0  0.7574241E-04  0.7001428E+03  0.7818609E-02  0.9716988E-01
       -1   -1    0    0    0  501  0.00000000000E+00  0.00000000000E+00  0.20659967049E+03  0.20659967055E+03  0.50400001928E-02 0. -1.
        1   -1    0    0  501    0  0.00000000000E+00  0.00000000000E+00 -0.59317610792E+03  0.59317610794E+03  0.50400001928E-02 0.  1.
    10030    2    1    2    0    0  0.00000000000E+00  0.00000000000E+00 -0.38657643744E+03  0.79977577849E+03  0.70014280963E+03 0.  0.
        3    1    3    3  502    0 -0.17830951159E+03 -0.17724731535E+03  0.84972587333E+02  0.26538885342E+03  0.10100000352E+00 0. -1.
       -3    1    3    3    0  502  0.17830951159E+03  0.17724731535E+03 -0.47154902477E+03  0.53438692507E+03  0.10100000352E+00 0.  1.
</event>
<event>
 5   0  0.1265562E-03  0.7001657E+03  0.7818609E-02  0.9716949E-01
        2   -1    0    0  501    0  0.00000000000E+00  0.00000000000E+00  0.38281749191E+03  0.38281749192E+03  0.25500000920E-02 0.  1.
       -2   -1    0    0    0  501  0.00000000000E+00  0.00000000000E+00 -0.32014729777E+03  0.32014729778E+03  0.25500000920E-02 0. -1.
    10030    2    1    2    0    0  0.00000000000E+00  0.00000000000E+00  0.62670194147E+02  0.70296478970E+03  0.70016565349E+03 0.  0.
        1    1    3    3  502    0 -0.20559343837E+03  0.10021542967E+03  0.29743465978E+03  0.37520550517E+03  0.50400001928E-02 0.  1.
       -1    1    3    3    0  502  0.20559343837E+03 -0.10021542967E+03 -0.23476446564E+03  0.32775928453E+03  0.50400001928E-02 0. -1.
</event>
<event>
 5   0  0.7570633E-04  0.6998773E+03  0.7818609E-02  0.9717442E-01
        1   -1    0    0  501    0  0.00000000000E+00  0.00000000000E+00  0.17216832702E+03  0.17216832710E+03  0.50400001928E-02 0.  1.
       -1   -1    0    0    0  501  0.00000000000E+00  0.00000000000E+00 -0.71126350539E+03  0.71126350541E+03  0.50400001928E-02 0. -1.
    10030    2    1    2    0    0  0.00000000000E+00  0.00000000000E+00 -0.53909517837E+03  0.88343183250E+03  0.69987726877E+03 0.  0.
        5    1    3    3  502    0 -0.23923545303E+03  0.11959269737E+03 -0.55432499910E+03  0.61549517453E+03  0.46999998093E+01 0. -1.
       -5    1    3    3    0  502  0.23923545303E+03 -0.11959269737E+03  0.15229820728E+02  0.26793665797E+03  0.46999998093E+01 0.  1.
</event>
<event>
 5   0  0.1222679E-03  0.7000825E+03  0.7818609E-02  0.9717091E-01
       -2   -1    0    0    0  501  0.00000000000E+00  0.00000000000E+00  0.65515503893E+03  0.65515503894E+03  0.25500000920E-02 0.  1.
        2   -1    0    0  501    0  0.00000000000E+00  0.00000000000E+00 -0.18702272509E+03  0.18702272511E+03  0.25500000920E-02 0. -1.
    10030    2    1    2    0    0  0.00000000000E+00  0.00000000000E+00  0.46813231384E+03  0.84217776405E+03  0.70008251156E+03 0.  0.
        2    1    3    3  502    0 -0.33335284062E+03  0.72797862141E+02  0.32806137456E+03  0.47333699472E+03  0.25500000920E-02 0.  1.
       -2    1    3    3    0  502  0.33335284062E+03 -0.72797862141E+02  0.14007093928E+03  0.36884076933E+03  0.25500000920E-02 0. -1.
</event>
<event>
 5   0  0.7459843E-04  0.6998131E+03  0.7818609E-02  0.9717552E-01
        1   -1    0    0  501    0  0.00000000000E+00  0.00000000000E+00  0.13742664513E+03  0.13742664522E+03  0.50400001928E-02 0.  1.
       -1   -1    0    0    0  501  0.00000000000E+00  0.00000000000E+00 -0.89090873060E+03  0.89090873062E+03  0.50400001928E-02 0. -1.
    10030    2    1    2    0    0  0.00000000000E+00  0.00000000000E+00 -0.75348208548E+03  0.10283353758E+04  0.69981311224E+03 0.  0.
        2    1    3    3  502    0  0.11383964941E+02  0.53564980472E+02 -0.88457291614E+03  0.88626635148E+03  0.25500000920E-02 0. -1.
       -2    1    3    3    0  502 -0.11383964941E+02 -0.53564980472E+02  0.13109083066E+03  0.14206902436E+03  0.25500000920E-02 0.  1.
</event>
<event>
 5   0  0.1224048E-03  0.6996367E+03  0.7818609E-02  0.9717854E-01
        2   -1    0    0  501    0  0.00000000000E+00  0.00000000000E+00  0.12719098646E+04  0.12719098646E+04  0.25500000920E-02 0.  1.
       -2   -1    0    0    0  501  0.00000000000E+00  0.00000000000E+00 -0.96211909750E+02  0.96211909784E+02  0.25500000920E-02 0. -1.
    10030    2    1    2    0    0  0.00000000000E+00  0.00000000000E+00  0.11756979548E+04  0.13681217744E+04  0.69963669751E+03 0.  0.
        3    1    3    3  502    0  0.11547337396E+02 -0.41396960114E+02 -0.91029776083E+02  0.10066518585E+03  0.10100000352E+00 0. -1.
       -3    1    3    3    0  502 -0.11547337396E+02  0.41396960114E+02  0.12667277309E+04  0.12674565885E+04  0.10100000352E+00 0.  1.
</event>
<event>
 5   0  0.7013526E-04  0.6999425E+03  0.7818609E-02  0.9717331E-01
        1   -1    0    0  501    0  0.00000000000E+00  0.00000000000E+00  0.11295391663E+04  0.11295391663E+04  0.50400001928E-02 0.  1.
       -1   -1    0    0    0  501  0.00000000000E+00  0.00000000000E+00 -0.10843349145E+03  0.10843349156E+03  0.50400001928E-02 0. -1.
    10030    2    1    2    0    0  0.00000000000E+00  0.00000000000E+00  0.10211056748E+04  0.12379726578E+04  0.69994249935E+03 0.  0.
        1    1    3    3  502    0  0.31062987135E+03  0.15228874476E+03  0.41701174474E+03  0.54183168423E+03  0.50400001928E-02 0.  1.
       -1    1    3    3    0  502 -0.31062987135E+03 -0.15228874476E+03  0.60409393007E+03  0.69614097360E+03  0.50400001928E-02 0. -1.
</event>
<event>
 5   0  0.1224048E-03  0.6997408E+03  0.7818609E-02  0.9717676E-01
       -2   -1    0    0    0  501  0.00000000000E+00  0.00000000000E+00  0.10688868796E+03  0.10688868799E+03  0.25500000920E-02 0. -1.
        2   -1    0    0  501    0  0.00000000000E+00  0.00000000000E+00 -0.11452035459E+04  0.11452035459E+04  0.25500000920E-02 0.  1.
    10030    2    1    2    0    0  0.00000000000E+00  0.00000000000E+00 -0.10383148579E+04  0.12520922339E+04  0.69974082198E+03 0.  0.
        3    1    3    3  502    0  0.58174826154E+02 -0.24543231527E+03 -0.95301113867E+03  0.98582532551E+03  0.10100000352E+00 0.  1.
       -3    1    3    3    0  502 -0.58174826154E+02  0.24543231527E+03 -0.85303719263E+02  0.26626690838E+03  0.10100000352E+00 0. -1.
</event>
<event>
 5   0  0.7574241E-04  0.7000334E+03  0.7818609E-02  0.9717175E-01
        1   -1    0    0  501    0  0.00000000000E+00  0.00000000000E+00  0.10215321705E+04  0.10215321705E+04  0.50400001928E-02 0.  1.
       -1   -1    0    0    0  501  0.00000000000E+00  0.00000000000E+00 -0.11992935796E+03  0.11992935806E+03  0.50400001928E-02 0. -1.
    10030    2    1    2    0    0  0.00000000000E+00  0.00000000000E+00  0.90160281252E+03  0.11414615285E+04  0.70003342036E+03 0.  0.
        3    1    3    3  502    0  0.24090687210E+03  0.17773832821E+03  0.15510970540E+03  0.33717364258E+03  0.10100000352E+00 0. -1.
       -3    1    3    3    0  502 -0.24090687210E+03 -0.17773832821E+03  0.74649310712E+03  0.80428788597E+03  0.10100000352E+00 0.  1.
</event>
<event>
 5   0  0.7570633E-04  0.7002561E+03  0.7818609E-02  0.9716794E-01
        1   -1    0    0  501    0  0.00000000000E+00  0.00000000000E+00  0.30329402629E+03  0.30329402633E+03  0.50400001928E-02 0.  1.
       -1   -1    0    0    0  501  0.00000000000E+00  0.00000000000E+00 -0.40419407582E+03  0.40419407585E+03  0.50400001928E-02 0. -1.
    10030    2    1    2    0    0  0.00000000000E+00  0.00000000000E+00 -0.10090004952E+03  0.70748810218E+03  0.70025609225E+03 0.  0.
        5    1    3    3  502    0  0.18705547074E+03  0.97930954130E+02  0.23169623175E+03  0.31350511115E+03  0.46999998093E+01 0.  1.
       -5    1    3    3    0  502 -0.18705547074E+03 -0.97930954130E+02 -0.33259628127E+03  0.39398299104E+03  0.46999998093E+01 0. -1.
</event>
<event>
 5   0  0.7574241E-04  0.6999769E+03  0.7818609E-02  0.9717272E-01
       -1   -1    0    0    0  501  0.00000000000E+00  0.00000000000E+00  0.44249886862E+03  0.44249886864E+03  0.50400001928E-02 0. -1.
        1   -1    0    0  501    0  0.00000000000E+00  0.00000000000E+00 -0.27681858756E+03  0.27681858760E+03  0.50400001928E-02 0.  1.
    10030    2    1    2    0    0  0.00000000000E+00  0.00000000000E+00  0.16568028106E+03  0.71931745625E+03  0.69997689057E+03 0.  0.
        3    1    3    3  502    0 -0.18403123777E+03  0.28722319540E+03  0.24006362747E+01  0.34113110926E+03  0.10100000352E+00 0. -1.
       -3    1    3    3    0  502  0.18403123777E+03 -0.28722319540E+03  0.16327964478E+03  0.37818634699E+03  0.10100000352E+00 0.  1.
</event>
<event>
 5   0  0.1282546E-03  0.6999247E+03  0.7818609E-02  0.9717361E-01
       -2   -1    0    0    0  501  0.00000000000E+00  0.00000000000E+00  0.19515968615E+03  0.19515968617E+03  0.25500000920E-02 0.  1.
        2   -1    0    0  501    0  0.00000000000E+00  0.00000000000E+00 -0.62755600303E+03  0.62755600303E+03  0.25500000920E-02 0. -1.
    10030    2    1    2    0    0  0.00000000000E+00  0.00000000000E+00 -0.43239631688E+03  0.82271568920E+03  0.69992466052E+03 0.  0.
        5    1    3    3  502    0 -0.53840389103E+02 -0.96453342919E+02  0.17409129305E+03  0.20623264332E+03  0.46999998093E+01 0.  1.
       -5    1    3    3    0  502  0.53840389103E+02  0.96453342919E+02 -0.60648760993E+03  0.61648304588E+03  0.46999998093E+01 0. -1.
</event>
<event>
 5   0  0.1265562E-03  0.6999554E+03  0.7818609E-02  0.9717309E-01
       -2   -1    0    0    0  501  0.00000000000E+00  0.00000000000E+00  0.87285122001E+02  0.87285122038E+02  0.25500000920E-02 0.  1.
        2   -1    0    0  501    0  0.00000000000E+00  0.00000000000E+00 -0.14032675653E+04  0.14032675653E+04  0.25500000920E-02 0. -1.
    10030    2    1    2    0    0  0.00000000000E+00  0.00000000000E+00 -0.13159824433E+04  0.14905526873E+04  0.69995537190E+03 0.  0.
        1    1    3    3  502    0  0.21842667058E+03 -0.17385234806E+03 -0.11074589868E+04  0.11421034352E+04  0.50400001928E-02 0. -1.
       -1    1    3    3    0  502 -0.21842667058E+03  0.17385234806E+03 -0.20852345651E+03  0.34844925210E+03  0.50400001928E-02 0.  1.
</event>
<event>
 5   0  0.1265562E-03  0.7005662E+03  0.7818609E-02  0.9716264E-01
       -2   -1    0    0    0  501  0.00000000000E+00  0.00000000000E+00  0.31740015800E+03  0.31740015801E+03  0.25500000920E-02 0. -1.
        2   -1    0    0  501    0  0.00000000000E+00  0.00000000000E+00 -0.38657273848E+03  0.38657273849E+03  0.25500000920E-02 0.  1.
    10030    2    1    2    0    0  0.00000000000E+00  0.00000000000E+00 -0.69172580478E+02  0.70397289650E+03  0.70056619467E+03 0.  0.
        1    1    3    3  502    0 -0.27427610407E+02 -0.22455037538E+03 -0.30332482003E+03  0.37839277394E+03  0.50400001928E-02 0.  1.
       -1    1    3    3    0  502  0.27427610407E+02  0.22455037538E+03  0.23415223955E+03  0.32558012256E+03  0.50400001928E-02 0. -1.
</event>
<event>
 5   0  0.7459843E-04  0.7000388E+03  0.7818609E-02  0.9717166E-01
        1   -1    0    0  501    0  0.00000000000E+00  0.00000000000E+00  0.63720175719E+03  0.63720175721E+03  0.50400001928E-02 0. -1.
       -1   -1    0    0    0  501  0.00000000000E+00  0.00000000000E+00 -0.19226813592E+03  0.19226813598E+03  0.50400001928E-02 0.  1.
    10030    2    1    2    0    0  0.00000000000E+00  0.00000000000E+00  0.44493362127E+03  0.82946989319E+03  0.70003883919E+03 0.  0.
        2    1    3    3  502    0 -0.62995035436E+02  0.34237890074E+03  0.26554714788E+03  0.43784354959E+03  0.25500000920E-02 0. -1.
       -2    1    3    3    0  502  0.62995035436E+02 -0.34237890074E+03  0.17938647339E+03  0.39162634360E+03  0.25500000920E-02 0.  1.
</event>
<event>
 5   0  0.4936000E-04  0.7007876E+03  0.7818609E-02  0.9715886E-01
        4   -1    0    0  501    0  0.00000000000E+00  0.00000000000E+00  0.10181646690E+04  0.10181654611E+04  0.12699999809E+01 0.  1.
       -4   -1    0    0    0  501  0.00000000000E+00  0.00000000000E+00 -0.12058122999E+03  0.12058791782E+03  0.12699999809E+01 0. -1.
    10030    2    1    2    0    0  0.00000000000E+00  0.00000000000E+00  0.89758343902E+03  0.11387533789E+04  0.70078757690E+03 0.  0.
        4    1    3    3  502    0 -0.34517996659E+03  0.36664711626E+02  0.37118920200E+03  0.50820915674E+03  0.12699999809E+01 0. -1.
       -4    1    3    3    0  502  0.34517996659E+03 -0.36664711626E+02  0.52639423702E+03  0.63054422215E+03  0.12699999809E+01 0.  1.
</event>
<event>
 5   0  0.1222679E-03  0.6998491E+03  0.7818609E-02  0.9717490E-01
       -2   -1    0    0    0  501  0.00000000000E+00  0.00000000000E+00  0.16743848258E+03  0.16743848260E+03  0.25500000920E-02 0. -1.
        2   -1    0    0  501    0  0.00000000000E+00  0.00000000000E+00 -0.73129661166E+03  0.73129661167E+03  0.25500000920E-02 0.  1.
    10030    2    1    2    0    0  0.00000000000E+00  0.00000000000E+00 -0.56385812909E+03  0.89873509427E+03  0.69984911226E+03 0.  0.
        2    1    3    3  502    0  0.29647184926E+03  0.41029389947E+02 -0.51474645741E+03  0.59543503732E+03  0.25500000920E-02 0.  1.
       -2    1    3    3    0  502 -0.29647184926E+03 -0.41029389947E+02 -0.49111671679E+02  0.30330005695E+03  0.25500000920E-02 0. -1.
</event>
<event>
 5   0  0.7570633E-04  0.6997324E+03  0.7818609E-02  0.9717690E-01
        1   -1    0    0  501    0  0.00000000000E+00  0.00000000000E+00  0.58934245675E+03  0.58934245678E+03  0.50400001928E-02 0.  1.
       -1   -1    0    0    0  501  0.00000000000E+00  0.00000000000E+00 -0.20769986760E+03  0.20769986766E+03  0.50400001928E-02 0. -1.
    10030    2    1    2    0    0  0.00000000000E+00  0.00000000000E+00  0.38164258915E+03  0.79704232444E+03  0.69973237819E+03 0.  0.
        5    1    3    3  502    0  0.30226964097E+03  0.11794699805E+03  0.33979907187E+03  0.46985522179E+03  0.46999998093E+01 0. -1.
       -5    1    3    3    0  502 -0.30226964097E+03 -0.11794699805E+03  0.41843517283E+02  0.32718710265E+03  0.46999998093E+01 0.  1.
</event>
<event>
 5   0  0.7572415E-04  0.7000892E+03  0.7818609E-02  0.9717080E-01
        1   -1    0    0  501    0  0.00000000000E+00  0.00000000000E+00  0.35348806149E+03  0.35348806152E+03  0.50400001928E-02 0. -1.
       -1   -1    0    0    0  501  0.00000000000E+00  0.00000000000E+00 -0.34663472946E+03  0.34663472949E+03  0.50400001928E-02 0.  1.
    10030    2    1    2    0    0  0.00000000000E+00  0.00000000000E+00  0.68533320308E+01  0.70012279101E+03  0.70008924741E+03 0.  0.
        4    1    3    3  502    0  0.74944937858E+02  0.12484127635E+03  0.32176178473E+03  0.35317750070E+03  0.12699999809E+01 0. -1.
       -4    1    3    3    0  502 -0.74944937858E+02 -0.12484127635E+03 -0.31490845270E+03  0.34694529031E+03  0.12699999809E+01 0.  1.
</event>
<event>
 5   0  0.7574241E-04  0.6992513E+03  0.7818609E-02  0.9718513E-01
        1   -1    0    0  501    0  0.00000000000E+00  0.00000000000E+00  0.36999327106E+03  0.36999327110E+03  0.50400001928E-02 0. -1.
       -1   -1    0    0    0  501  0.00000000000E+00  0.00000000000E+00 -0.33037925062E+03  0.33037925065E+03  0.50400001928E-02 0.  1.
    10030    2    1    2    0    0  0.00000000000E+00  0.00000000000E+00  0.39614020449E+02  0.70037252175E+03  0.69925131291E+03 0.  0.
        3    1    3    3  502    0 -0.11773446922E+03  0.32417587433E+03 -0.37614546563E+02  0.34693841969E+03  0.10100000352E+00 0.  1.
       -3    1    3    3    0  502  0.11773446922E+03 -0.32417587433E+03  0.77228567012E+02  0.35343410207E+03  0.10100000352E+00 0. -1.
</event>
<event>
 5   0  0.7574241E-04  0.6995458E+03  0.7818609E-02  0.9718009E-01
       -1   -1    0    0    0  501  0.00000000000E+00  0.00000000000E+00  0.18327555142E+03  0.18327555148E+03  0.50400001928E-02 0.  1.
        1   -1    0    0  501    0  0.00000000000E+00  0.00000000000E+00 -0.66752532615E+03  0.66752532617E+03  0.50400001928E-02 0. -1.
    10030    2    1    2    0    0  0.00000000000E+00  0.00000000000E+00 -0.48424977474E+03  0.85080087766E+03  0.69954577340E+03 0.  0.
        3    1    3    3  502    0  0.96360464341E+02  0.87703320490E+02  0.15265735464E+03  0.20070249036E+03  0.10100000352E+00 0.  1.
       -3    1    3    3    0  502 -0.96360464341E+02 -0.87703320490E+02 -0.63690712937E+03  0.65009838729E+03  0.10100000352E+00 0. -1.
</event>
<event>
 5   0  0.1222679E-03  0.7003657E+03  0.7818609E-02  0.9716607E-01
        2   -1    0    0  501    0  0.00000000000E+00  0.00000000000E+00  0.11922217034E+04  0.11922217034E+04  0.25500000920E-02 0.  1.
       -2   -1    0    0    0  501  0.00000000000E+00  0.00000000000E+00 -0.10285673027E+03  0.10285673030E+03  0.25500000920E-02 0. -1.
    10030    2    1    2    0    0  0.00000000000E+00  0.00000000000E+00  0.10893649731E+04  0.12950784337E+04  0.70036569358E+03 0.  0.
        2    1    3    3  502    0 -0.27185481633E+03 -0.14717746716E+03  0.24048937751E+03  0.39166489338E+03  0.25500000920E-02 0. -1.
       -2    1    3    3    0  502  0.27185481633E+03  0.14717746716E+03  0.84887559558E+03  0.90341354029E+03  0.25500000920E-02 0.  1.
</event>
<event>
 5   0  0.1222679E-03  0.6997146E+03  0.7818609E-02  0.9717720E-01
        2   -1    0    0  501    0  0.00000000000E+00  0.00000000000E+00  0.76422187425E+03  0.76422187425E+03  0.25500000920E-02 0. -1.
       -2   -1    0    0    0  501  0.00000000000E+00  0.00000000000E+00 -0.16016305970E+03  0.16016305972E+03  0.25500000920E-02 0.  1.
    10030    2    1    2    0    0  0.00000000000E+00  0.00000000000E+00  0.60405881455E+03  0.92438493398E+03  0.69971455232E+03 0.  0.
        2    1    3    3  502    0 -0.59134456825E+02  0.34037312479E+03  0.37498132310E+03  0.50986443369E+03  0.25500000920E-02 0. -1.
       -2    1    3    3    0  502  0.59134456825E+02 -0.34037312479E+03  0.22907749145E+03  0.41452050029E+03  0.25500000920E-02 0.  1.
</event>
<event>
 5   0  0.7572415E-04  0.6995429E+03  0.7818609E-02  0.9718014E-01
       -1   -1    0    0    0  501  0.00000000000E+00  0.00000000000E+00  0.22872309547E+03  0.22872309553E+03  0.50400001928E-02 0.  1.
        1   -1    0    0  501    0  0.00000000000E+00  0.00000000000E+00 -0.53488288587E+03  0.53488288590E+03  0.50400001928E-02 0. -1.
    10030    2    1    2    0    0  0.00000000000E+00  0.00000000000E+00 -0.30615979040E+03  0.76360598142E+03  0.69954290620E+03 0.  0.
        4    1    3    3  502    0  0.23350672555E+03 -0.24376490125E+03 -0.53084284537E+02  0.34171080188E+03  0.12699999809E+01 0.  1.
       -4    1    3    3    0  502 -0.23350672555E+03  0.24376490125E+03 -0.25307550586E+03  0.42189517955E+03  0.12699999809E+01 0. -1.
</event>
<event>
 5   0  0.7013526E-04  0.7000260E+03  0.7818609E-02  0.9717188E-01
       -1   -1    0    0    0  501  0.00000000000E+00  0.00000000000E+00  0.50106776927E+03  0.50106776930E+03  0.50400001928E-02 0.  1.
        1   -1    0    0  501    0  0.00000000000E+00  0.00000000000E+00 -0.24449608225E+03  0.24449608230E+03  0.50400001928E-02 0. -1.
    10030    2    1    2    0    0  0.00000000000E+00  0.00000000000E+00  0.25657168702E+03  0.74556385160E+03  0.70002601826E+03 0.  0.
        1    1    3    3  502    0  0.64163668564E+02  0.34068281856E+03  0.76904996450E+02  0.35510017985E+03  0.50400001928E-02 0. -1.
       -1    1    3    3    0  502 -0.64163668564E+02 -0.34068281856E+03  0.17966669057E+03  0.39046367175E+03  0.50400001928E-02 0.  1.
</event>
<event>
 5   0  0.7013526E-04  0.7000429E+03  0.7818609E-02  0.9717159E-01
       -1   -1    0    0    0  501  0.00000000000E+00  0.00000000000E+00  0.32629840442E+03  0.32629840446E+03  0.50400001928E-02 0. -1.
        1   -1    0    0  501    0  0.00000000000E+00  0.00000000000E+00 -0.37546923916E+03  0.37546923920E+03  0.50400001928E-02 0.  1.
    10030    2    1    2    0    0  0.00000000000E+00  0.00000000000E+00 -0.49170834740E+02  0.70176764366E+03  0.70004289490E+03 0.  0.
        1    1    3    3  502    0 -0.10092612955E+03  0.33324568992E+03  0.11227103636E+02  0.34837454177E+03  0.50400001928E-02 0.  1.
       -1    1    3    3    0  502  0.10092612955E+03 -0.33324568992E+03 -0.60397938377E+02  0.35339310189E+03  0.50400001928E-02 0. -1.
</event>
<event>
 5   0  0.4936000E-04  0.6986197E+03  0.7818609E-02  0.9719596E-01
       -3   -1    0    0    0  501  0.00000000000E+00  0.00000000000E+00  0.71105192393E+03  0.71105193110E+03  0.10100000352E+00 0.  1.
        3   -1    0    0  501    0  0.00000000000E+00  0.00000000000E+00 -0.17160116945E+03  0.17160119918E+03  0.10100000352E+00 0. -1.
    10030    2    1    2    0    0  0.00000000000E+00  0.00000000000E+00  0.53945075447E+03  0.88265313028E+03  0.69861966182E+03 0.  0.
        3    1    3    3  502    0 -0.25796505679E+03 -0.16460389936E+02  0.56656406499E+03  0.62274534515E+03  0.10100000352E+00 0.  1.
       -3    1    3    3    0  502  0.25796505679E+03  0.16460389936E+02 -0.27113310516E+02  0.25990778513E+03  0.10100000352E+00 0. -1.
</event>
<event>
 5   0  0.4936000E-04  0.7000827E+03  0.7818609E-02  0.9717091E-01
       -3   -1    0    0    0  501  0.00000000000E+00  0.00000000000E+00  0.10258038340E+04  0.10258038390E+04  0.10100000352E+00 0. -1.
        3   -1    0    0  501    0  0.00000000000E+00  0.00000000000E+00 -0.11944674935E+03  0.11944679205E+03  0.10100000352E+00 0.  1.
    10030    2    1    2    0    0  0.00000000000E+00  0.00000000000E+00  0.90635708464E+03  0.11452506310E+04  0.70008274009E+03 0.  0.
        4    1    3    3  502    0  0.30892597954E+03  0.13293423932E+03  0.61195637715E+03  0.69828288913E+03  0.12699999809E+01 0. -1.
       -4    1    3    3    0  502 -0.30892597954E+03 -0.13293423932E+03  0.29440070749E+03  0.44696774189E+03  0.12699999809E+01 0.  1.
</event>
<event>
 5   0  0.7570633E-04  0.6995835E+03  0.7818609E-02  0.9717945E-01
        1   -1    0    0  501    0  0.00000000000E+00  0.00000000000E+00  0.23572872722E+03  0.23572872727E+03  0.50400001928E-02 0.  1.
       -1   -1    0    0    0  501  0.00000000000E+00  0.00000000000E+00 -0.51904687572E+03  0.51904687575E+03  0.50400001928E-02 0. -1.
    10030    2    1    2    0    0  0.00000000000E+00  0.00000000000E+00 -0.28331814850E+03  0.75477560302E+03  0.69958347439E+03 0.  0.
        5    1    3    3  502    0  0.20275064996E+03 -0.15974779630E+03 -0.39629832183E+03  0.47297107139E+03  0.46999998093E+01 0. -1.
       -5    1    3    3    0  502 -0.20275064996E+03  0.15974779630E+03  0.11298017333E+03  0.28180453163E+03  0.46999998093E+01 0.  1.
</event>
<event>
 5   0  0.1243087E-03  0.6999130E+03  0.7818609E-02  0.9717381E-01
        2   -1    0    0  501    0  0.00000000000E+00  0.00000000000E+00  0.61983003902E+03  0.61983003903E+03  0.25500000920E-02 0.  1.
       -2   -1    0    0    0  501  0.00000000000E+00  0.00000000000E+00 -0.19758569848E+03  0.19758569850E+03  0.25500000920E-02 0. -1.
    10030    2    1    2    0    0  0.00000000000E+00  0.00000000000E+00  0.42224434054E+03  0.81741573752E+03  0.69991299804E+03 0.  0.
        4    1    3    3  502    0  0.28445186244E+03  0.17842640971E+02  0.44828191493E+03  0.53121512595E+03  0.12699999809E+01 0.  1.
       -4    1    3    3    0  502 -0.28445186244E+03 -0.17842640971E+02 -0.26037574388E+02  0.28620061157E+03  0.12699999809E+01 0. -1.
</event>
<event>
 5   0  0.1224048E-03  0.7000242E+03  0.7818609E-02  0.9717191E-01
       -2   -1    0    0    0  501  0.00000000000E+00  0.00000000000E+00  0.99416543103E+02  0.99416543136E+02  0.25500000920E-02 0.  1.
        2   -1    0    0  501    0  0.00000000000E+00  0.00000000000E+00 -0.12322746320E+04  0.12322746320E+04  0.25500000920E-02 0. -1.
    10030    2    1    2    0    0  0.00000000000E+00  0.00000000000E+00 -0.11328580889E+04  0.13316911751E+04  0.70002423984E+03 0.  0.
        3    1    3    3  502    0  0.36145352339E+02  0.79383247263E+02 -0.12112676063E+04  0.12144041381E+04  0.10100000352E+00 0. -1.
       -3    1    3    3    0  502 -0.36145352339E+02 -0.79383247263E+02  0.78409517371E+02  0.11728703704E+03  0.10100000352E+00 0.  1.
</event>
<event>
 5   0  0.1265562E-03  0.6999003E+03  0.7818609E-02  0.9717403E-01
        2   -1    0    0  501    0  0.00000000000E+00  0.00000000000E+00  0.24541882491E+03  0.24541882493E+03  0.25500000920E-02 0.  1.
       -2   -1    0    0    0  501  0.00000000000E+00  0.00000000000E+00 -0.49900457657E+03  0.49900457658E+03  0.25500000920E-02 0. -1.
    10030    2    1    2    0    0  0.00000000000E+00  0.00000000000E+00 -0.25358575166E+03  0.74442340150E+03  0.69990032666E+03 0.  0.
        1    1    3    3  502    0  0.12782757914E+03  0.90671024937E+02 -0.45959341491E+03  0.48557927448E+03  0.50400001928E-02 0. -1.
       -1    1    3    3    0  502 -0.12782757914E+03 -0.90671024937E+02  0.20600766325E+03  0.25884412702E+03  0.50400001928E-02 0.  1.
</event>
<event>
 5   0  0.4936000E-04  0.6981726E+03  0.7818609E-02  0.9720362E-01
       -3   -1    0    0    0  501  0.00000000000E+00  0.00000000000E+00  0.22017669964E+04  0.22017669987E+04  0.10100000352E+00 0.  1.
        3   -1    0    0  501    0  0.00000000000E+00  0.00000000000E+00 -0.55346971122E+02  0.55347063277E+02  0.10100000352E+00 0. -1.
    10030    2    1    2    0    0  0.00000000000E+00  0.00000000000E+00  0.21464200253E+04  0.22571140620E+04  0.69817258893E+03 0.  0.
        1    1    3    3  502    0 -0.54632867848E+01  0.16594348993E+03  0.80475566844E+02  0.18450855329E+03  0.50400001928E-02 0. -1.
       -1    1    3    3    0  502  0.54632867848E+01 -0.16594348993E+03  0.20659444584E+04  0.20726055087E+04  0.50400001928E-02 0.  1.
</event>
<event>
 5   0  0.1224048E-03  0.7003026E+03  0.7818609E-02  0.9716715E-01
        2   -1    0    0  501    0  0.00000000000E+00  0.00000000000E+00  0.58831562467E+03  0.58831562468E+03  0.25500000920E-02 0. -1.
       -2   -1    0    0    0  501  0.00000000000E+00  0.00000000000E+00 -0.20840162700E+03  0.20840162702E+03  0.25500000920E-02 0.  1.
    10030    2    1    2    0    0  0.00000000000E+00  0.00000000000E+00  0.37991399767E+03  0.79671725169E+03  0.70030260139E+03 0.  0.
        3    1    3    3  502    0 -0.17366538399E+03 -0.13541043512E+02  0.53552381116E+03  0.56314188974E+03  0.10100000352E+00 0. -1.
       -3    1    3    3    0  502  0.17366538399E+03  0.13541043512E+02 -0.15560981349E+03  0.23357536195E+03  0.10100000352E+00 0.  1.
</event>
<event>
 5   0  0.1282546E-03  0.6997363E+03  0.7818609E-02  0.9717683E-01
       -2   -1    0    0    0  501  0.00000000000E+00  0.00000000000E+00  0.25334855968E+03  0.25334855969E+03  0.25500000920E-02 0.  1.
        2   -1    0    0  501    0  0.00000000000E+00  0.00000000000E+00 -0.48315937757E+03  0.48315937758E+03  0.25500000920E-02 0. -1.
    10030    2    1    2    0    0  0.00000000000E+00  0.00000000000E+00 -0.22981081789E+03  0.73650793727E+03  0.69973632866E+03 0.  0.
        5    1    3    3  502    0 -0.89857290355E+02  0.16543740528E+03  0.19544852880E+03  0.27141496846E+03  0.46999998093E+01 0.  1.
       -5    1    3    3    0  502  0.89857290355E+02 -0.16543740528E+03 -0.42525934669E+03  0.46509296881E+03  0.46999998093E+01 0. -1.
</event>
<event>
 5   0  0.4936000E-04  0.7002926E+03  0.7818609E-02  0.9716732E-01
       -4   -1    0    0    0  501  0.00000000000E+00  0.00000000000E+00  0.32434144372E+03  0.32434393013E+03  0.12699999809E+01 0.  1.
        4   -1    0    0  501    0  0.00000000000E+00  0.00000000000E+00 -0.37799923999E+03  0.37800137345E+03  0.12699999809E+01 0. -1.
    10030    2    1    2    0    0  0.00000000000E+00  0.00000000000E+00 -0.53657796271E+02  0.70234530358E+03  0.70029262910E+03 0.  0.
        4    1    3    3  502    0  0.58781713289E+02  0.31191590682E+02 -0.37159897542E+03  0.37751240586E+03  0.12699999809E+01 0. -1.
       -4    1    3    3    0  502 -0.58781713289E+02 -0.31191590682E+02  0.31794117915E+03  0.32483289772E+03  0.12699999809E+01 0.  1.
</event>
<event>
 5   0  0.7013526E-04  0.7001927E+03  0.7818609E-02  0.9716903E-01
       -1   -1    0    0    0  501  0.00000000000E+00  0.00000000000E+00  0.86005898643E+02  0.86005898791E+02  0.50400001928E-02 0.  1.
        1   -1    0    0  501    0  0.00000000000E+00  0.00000000000E+00 -0.14251051012E+04  0.14251051012E+04  0.50400001928E-02 0. -1.
    10030    2    1    2    0    0  0.00000000000E+00  0.00000000000E+00 -0.13390992026E+04  0.15111110000E+04  0.70019267351E+03 0.  0.
        1    1    3    3  502    0 -0.30584182377E+03  0.16956585575E+03 -0.70538014306E+03  0.78730740302E+03  0.50400001928E-02 0.  1.
       -1    1    3    3    0  502  0.30584182377E+03 -0.16956585575E+03 -0.63371905953E+03  0.72380359701E+03  0.50400001928E-02 0. -1.
</event>
<event>
 5   0  0.1265562E-03  0.7002927E+03  0.7818609E-02  0.9716732E-01
       -2   -1    0    0    0  501  0.00000000000E+00  0.00000000000E+00  0.24414147105E+03  0.24414147107E+03  0.25500000920E-02 0.  1.
        2   -1    0    0  501    0  0.00000000000E+00  0.00000000000E+00 -0.50217797931E+03  0.50217797931E+03  0.25500000920E-02 0. -1.
    10030    2    1    2    0    0  0.00000000000E+00  0.00000000000E+00 -0.25803650825E+03  0.74631945038E+03  0.70029271196E+03 0.  0.
        1    1    3    3  502    0 -0.11836986888E+03  0.32568759556E+03 -0.18250273134E+03  0.39165173654E+03  0.50400001928E-02 0. -1.
       -1    1    3    3    0  502  0.11836986888E+03 -0.32568759556E+03 -0.75533776916E+02  0.35466771384E+03  0.50400001928E-02 0.  1.
</event>
<event>
 5   0  0.7574241E-04  0.6999915E+03  0.7818609E-02  0.9717247E-01
        1   -1    0    0  501    0  0.00000000000E+00  0.00000000000E+00  0.41430706750E+03  0.41430706753E+03  0.50400001928E-02 0.  1.
       -1   -1    0    0    0  501  0.00000000000E+00  0.00000000000E+00 -0.29566724058E+03  0.29566724062E+03  0.50400001928E-02 0. -1.
    10030    2    1    2    0    0  0.00000000000E+00  0.00000000000E+00  0.11863982693E+03  0.70997430815E+03  0.69999150688E+03 0.  0.
        3    1    3    3  502    0 -0.22395721914E+03 -0.20263703101E+03  0.23869917446E+03  0.38496221688E+03  0.10100000352E+00 0.  1.
       -3    1    3    3    0  502  0.22395721914E+03  0.20263703101E+03 -0.12005934753E+03  0.32501209127E+03  0.10100000352E+00 0. -1.
</event>
<event>
 5   0  0.7459843E-04  0.6998233E+03  0.7818609E-02  0.9717534E-01
        1   -1    0    0  501    0  0.00000000000E+00  0.00000000000E+00  0.41277969492E+03  0.41277969495E+03  0.50400001928E-02 0.  1.
       -1   -1    0    0    0  501  0.00000000000E+00  0.00000000000E+00 -0.29661865083E+03  0.29661865087E+03  0.50400001928E-02 0. -1.
    10030    2    1    2    0    0  0.00000000000E+00  0.00000000000E+00  0.11616104409E+03  0.70939834582E+03  0.69982328118E+03 0.  0.
        2    1    3    3  502    0 -0.31329238917E+03  0.15411429056E+03  0.34637919272E+02  0.35086054370E+03  0.25500000920E-02 0.  1.
       -2    1    3    3    0  502  0.31329238917E+03 -0.15411429056E+03  0.81523124817E+02  0.35853780212E+03  0.25500000920E-02 0. -1.
</event>
<event>
 5   0  0.7572415E-04  0.6994396E+03  0.7818609E-02  0.9718191E-01
        1   -1    0    0  501    0  0.00000000000E+00  0.00000000000E+00  0.53419001224E+03  0.53419001226E+03  0.50400001928E-02 0.  1.
       -1   -1    0    0    0  501  0.00000000000E+00  0.00000000000E+00 -0.22895215139E+03  0.22895215144E+03  0.50400001928E-02 0. -1.
    10030    2    1    2    0    0  0.00000000000E+00  0.00000000000E+00  0.30523786085E+03  0.76314216370E+03  0.69943964023E+03 0.  0.
        4    1    3    3  502    0 -0.18483731143E+03  0.10399268135E+03  0.45601478299E+03  0.50292186737E+03  0.12699999809E+01 0.  1.
       -4    1    3    3    0  502  0.18483731143E+03 -0.10399268135E+03 -0.15077692214E+03  0.26022029633E+03  0.12699999809E+01 0. -1.
</event>
<event>
 5   0  0.1243087E-03  0.6999847E+03  0.7818609E-02  0.9717258E-01
        2   -1    0    0  501    0  0.00000000000E+00  0.00000000000E+00  0.65705893585E+03  0.65705893585E+03  0.25500000920E-02 0. -1.
       -2   -1    0    0    0  501  0.00000000000E+00  0.00000000000E+00 -0.18642871672E+03  0.18642871674E+03  0.25500000920E-02 0.  1.
    10030    2    1    2    0    0  0.00000000000E+00  0.00000000000E+00  0.47063021912E+03  0.84348765259E+03  0.69998472621E+03 0.  0.
        4    1    3    3  502    0 -0.25205647371E+03  0.24034747950E+03  0.27694749569E+03  0.44497292626E+03  0.12699999809E+01 0.  1.
       -4    1    3    3    0  502  0.25205647371E+03 -0.24034747950E+03  0.19368272344E+03  0.39851472633E+03  0.12699999809E+01 0. -1.
</event>
<event>
 5   0  0.7570633E-04  0.7001775E+03  0.7818609E-02  0.9716929E-01
       -1   -1    0    0    0  501  0.00000000000E+00  0.00000000000E+00  0.22267551201E+03  0.22267551206E+03  0.50400001928E-02 0. -1.
        1   -1    0    0  501    0  0.00000000000E+00  0.00000000000E+00 -0.55040685709E+03  0.55040685712E+03  0.50400001928E-02 0.  1.
    10030    2    1    2    0    0  0.00000000000E+00  0.00000000000E+00 -0.32773134509E+03  0.77308236918E+03  0.70017748820E+03 0.  0.
        5    1    3    3  502    0  0.24830497788E+03 -0.22671271031E+02 -0.43515374257E+03  0.50154782249E+03  0.46999998093E+01 0.  1.
       -5    1    3    3    0  502 -0.24830497788E+03  0.22671271031E+02  0.10742239749E+03  0.27153454669E+03  0.46999998093E+01 0. -1.
</event>
<event>
 5   0  0.7574241E-04  0.6999697E+03  0.7818609E-02  0.9717284E-01
        1   -1    0    0  501    0  0.00000000000E+00  0.00000000000E+00  0.20454509296E+03  0.20454509302E+03  0.50400001928E-02 0. -1.
       -1   -1    0    0    0  501  0.00000000000E+00  0.00000000000E+00 -0.59883815168E+03  0.59883815170E+03  0.50400001928E-02 0.  1.
    10030    2    1    2    0    0  0.00000000000E+00  0.00000000000E+00 -0.39429305872E+03  0.80338324473E+03  0.69996972917E+03 0.  0.
        3    1    3    3  502    0 -0.10773677462E+03 -0.42274640547E+02 -0.57623974190E+03  0.58774706140E+03  0.10100000352E+00 0.  1.
       -3    1    3    3    0  502  0.10773677462E+03  0.42274640547E+02  0.18194668318E+03  0.21563618333E+03  0.10100000352E+00 0. -1.
</event>
<event>
 5   0  0.7570633E-04  0.6999809E+03  0.7818609E-02  0.9717265E-01
       -1   -1    0    0    0  501  0.00000000000E+00  0.00000000000E+00  0.12845586442E+04  0.12845586443E+04  0.50400001928E-02 0. -1.
        1   -1    0    0  501    0  0.00000000000E+00  0.00000000000E+00 -0.95358286441E+02  0.95358286574E+02  0.50400001928E-02 0.  1.
    10030    2    1    2    0    0  0.00000000000E+00  0.00000000000E+00  0.11892003578E+04  0.13799169308E+04  0.69998088901E+03 0.  0.
        5    1    3    3  502    0  0.71730877784E+02  0.25610336952E+03  0.10430018691E+04  0.10763871254E+04  0.46999998093E+01 0. -1.
       -5    1    3    3    0  502 -0.71730877784E+02 -0.25610336952E+03  0.14619848870E+03  0.30352980546E+03  0.46999998093E+01 0.  1.
</event>
<event>
 5   0  0.1282546E-03  0.6963300E+03  0.7818609E-02  0.9723529E-01
        2   -1    0    0  501    0  0.00000000000E+00  0.00000000000E+00  0.87750991034E+03  0.87750991034E+03  0.25500000920E-02 0.  1.
       -2   -1    0    0    0  501  0.00000000000E+00  0.00000000000E+00 -0.13813959644E+03  0.13813959647E+03  0.25500000920E-02 0. -1.
    10030    2    1    2    0    0  0.00000000000E+00  0.00000000000E+00  0.73937031390E+03  0.10156495068E+04  0.69632999333E+03 0.  0.
        5    1    3    3  502    0  0.20918516890E+03 -0.27030333061E+03  0.46615475351E+03  0.57805248001E+03  0.46999998093E+01 0.  1.
       -5    1    3    3    0  502 -0.20918516890E+03  0.27030333061E+03  0.27321556038E+03  0.43759702680E+03  0.46999998093E+01 0. -1.
</event>
<event>
 5   0  0.1265562E-03  0.6994437E+03  0.7818609E-02  0.9718184E-01
        2   -1    0    0  501    0  0.00000000000E+00  0.00000000000E+00  0.78476577597E+03  0.78476577597E+03  0.25500000920E-02 0.  1.
       -2   -1    0    0    0  501  0.00000000000E+00  0.00000000000E+00 -0.15584952569E+03  0.15584952571E+03  0.25500000920E-02 0. -1.
    10030    2    1    2    0    0  0.00000000000E+00  0.00000000000E+00  0.62891625027E+03  0.94061530168E+03  0.69944370460E+03 0.  0.
        1    1    3    3  502    0 -0.34615254084E+03  0.46602193712E+02  0.29070307061E+03  0.45442449458E+03  0.50400001928E-02 0.  1.
       -1    1    3    3    0  502  0.34615254084E+03 -0.46602193712E+02  0.33821317967E+03  0.48619080710E+03  0.50400001928E-02 0. -1.
</event>
<event>
 5   0  0.7459843E-04  0.7001491E+03  0.7818609E-02  0.9716977E-01
        1   -1    0    0  501    0  0.00000000000E+00  0.00000000000E+00  0.10790250578E+03  0.10790250590E+03  0.50400001928E-02 0.  1.
       -1   -1    0    0    0  501  0.00000000000E+00  0.00000000000E+00 -0.11357677690E+04  0.11357677690E+04  0.50400001928E-02 0. -1.
    10030    2    1    2    0    0  0.00000000000E+00  0.00000000000E+00 -0.10278652632E+04  0.12436702749E+04  0.70014909365E+03 0.  0.
        2    1    3    3  502    0  0.93415297771E+02  0.92747241250E+01 -0.11129933707E+04  0.11169452456E+04  0.25500000920E-02 0. -1.
       -2    1    3    3    0  502 -0.93415297771E+02 -0.92747241250E+01  0.85128107495E+02  0.12672502932E+03  0.25500000920E-02 0.  1.
</event>
<event>
 5   0  0.4936000E-04  0.7002218E+03  0.7818609E-02  0.9716853E-01
       -4   -1    0    0    0  501  0.00000000000E+00  0.00000000000E+00  0.22502456807E+03  0.22502815187E+03  0.12699999809E+01 0. -1.
        4   -1    0    0  501    0  0.00000000000E+00  0.00000000000E+00 -0.54472136552E+03  0.54472284600E+03  0.12699999809E+01 0.  1.
    10030    2    1    2    0    0  0.00000000000E+00  0.00000000000E+00 -0.31969679746E+03  0.76975099787E+03  0.70022179088E+03 0.  0.
        2    1    3    3  502    0 -0.25846108757E+03  0.10963879279E+03 -0.38979536851E+03  0.48037821349E+03  0.25500000920E-02 0.  1.
       -2    1    3    3    0  502  0.25846108757E+03 -0.10963879279E+03  0.70098571055E+02  0.28937278439E+03  0.25500000920E-02 0. -1.
</event>
<event>
 5   0  0.1265562E-03  0.7006855E+03  0.7818609E-02  0.9716061E-01
       -2   -1    0    0    0  501  0.00000000000E+00  0.00000000000E+00  0.27531656570E+03  0.27531656571E+03  0.25500000920E-02 0.  1.
        2   -1    0    0  501    0  0.00000000000E+00  0.00000000000E+00 -0.44581425645E+03  0.44581425646E+03  0.25500000920E-02 0. -1.
    10030    2    1    2    0    0  0.00000000000E+00  0.00000000000E+00 -0.17049769075E+03  0.72113082217E+03  0.70068552157E+03 0.  0.
        1    1    3    3  502    0  0.25457053643E+03  0.14884584100E+03  0.10942331392E+03  0.31453887527E+03  0.50400001928E-02 0.  1.
       -1    1    3    3    0  502 -0.25457053643E+03 -0.14884584100E+03 -0.27992100467E+03  0.40659194690E+03  0.50400001928E-02 0. -1.
</event>
<event>
 5   0  0.4936000E-04  0.6998724E+03  0.7818609E-02  0.9717450E-01
        3   -1    0    0  501    0  0.00000000000E+00  0.00000000000E+00  0.41778417642E+03  0.41778418863E+03  0.10100000352E+00 0.  1.
       -3   -1    0    0    0  501  0.00000000000E+00  0.00000000000E+00 -0.29310667989E+03  0.29310669729E+03  0.10100000352E+00 0. -1.
    10030    2    1    2    0    0  0.00000000000E+00  0.00000000000E+00  0.12467749653E+03  0.71089088592E+03  0.69987239804E+03 0.  0.
        2    1    3    3  502    0  0.83194060065E+02  0.22502488122E+03  0.32110008395E+03  0.40082753488E+03  0.25500000920E-02 0.  1.
       -2    1    3    3    0  502 -0.83194060065E+02 -0.22502488122E+03 -0.19642258742E+03  0.31006335104E+03  0.25500000920E-02 0. -1.
</event>
<event>
 5   0  0.1265562E-03  0.7005131E+03  0.7818609E-02  0.9716355E-01
       -2   -1    0    0    0  501  0.00000000000E+00  0.00000000000E+00  0.17962319741E+03  0.17962319743E+03  0.25500000920E-02 0. -1.
        2   -1    0    0  501    0  0.00000000000E+00  0.00000000000E+00 -0.68298335705E+03  0.68298335705E+03  0.25500000920E-02 0.  1.
    10030    2    1    2    0    0  0.00000000000E+00  0.00000000000E+00 -0.50336015964E+03  0.86260655448E+03  0.70051311017E+03 0.  0.
        1    1    3    3  502    0 -0.18389556317E+03 -0.22427505489E+03 -0.98665309518E+01  0.29019687604E+03  0.50400001928E-02 0. -1.
       -1    1    3    3    0  502  0.18389556317E+03  0.22427505489E+03 -0.49349362868E+03  0.57240967845E+03  0.50400001928E-02 0.  1.
</event>
<event>
 5   0  0.1224048E-03  0.6999234E+03  0.7818609E-02  0.9717363E-01
        2   -1    0    0  501    0  0.00000000000E+00  0.00000000000E+00  0.28234285692E+03  0.28234285693E+03  0.25500000920E-02 0.  1.
       -2   -1    0    0    0  501  0.00000000000E+00  0.00000000000E+00 -0.43377467307E+03  0.43377467308E+03  0.25500000920E-02 0. -1.
    10030    2    1    2    0    0  0.00000000000E+00  0.00000000000E+00 -0.15143181615E+03  0.71611753001E+03  0.69992336855E+03 0.  0.
        3    1    3    3  502    0 -0.93852275330E+02  0.17949002070E+03 -0.36771042646E+03  0.41980457959E+03  0.10100000352E+00 0. -1.
       -3    1    3    3    0  502  0.93852275330E+02 -0.17949002070E+03  0.21627861030E+03  0.29631295043E+03  0.10100000352E+00 0.  1.
</event>
<event>
 5   0  0.7572415E-04  0.6999751E+03  0.7818609E-02  0.9717275E-01
       -1   -1    0    0    0  501  0.00000000000E+00  0.00000000000E+00  0.20552582065E+03  0.20552582071E+03  0.50400001928E-02 0.  1.
        1   -1    0    0  501    0  0.00000000000E+00  0.00000000000E+00 -0.59598968665E+03  0.59598968667E+03  0.50400001928E-02 0. -1.
    10030    2    1    2    0    0  0.00000000000E+00  0.00000000000E+00 -0.39046386600E+03  0.80151550738E+03  0.69997505522E+03 0.  0.
        4    1    3    3  502    0  0.19124029748E+03  0.62349242367E+02 -0.52318679432E+03  0.56052325023E+03  0.12699999809E+01 0. -1.
       -4    1    3    3    0  502 -0.19124029748E+03 -0.62349242367E+02  0.13272292832E+03  0.24099225715E+03  0.12699999809E+01 0.  1.
</event>
<event>
 5   0  0.7572415E-04  0.7002342E+03  0.7818609E-02  0.9716832E-01
       -1   -1    0    0    0  501  0.00000000000E+00  0.00000000000E+00  0.82502795304E+02  0.82502795458E+02  0.50400001928E-02 0.  1.
        1   -1    0    0  501    0  0.00000000000E+00  0.00000000000E+00 -0.14857919076E+04  0.14857919076E+04  0.50400001928E-02 0. -1.
    10030    2    1    2    0    0  0.00000000000E+00  0.00000000000E+00 -0.14032891123E+04  0.15682947031E+04  0.70023420581E+03 0.  0.
        4    1    3    3  502    0 -0.18933579792E+03 -0.23518741031E+03 -0.10986367688E+04  0.11393706706E+04  0.12699999809E+01 0. -1.
       -4    1    3    3    0  502  0.18933579792E+03  0.23518741031E+03 -0.30465234351E+03  0.42892403249E+03  0.12699999809E+01 0.  1.
</event>
<event>
 5   0  0.7013526E-04  0.6999545E+03  0.7818609E-02  0.9717310E-01
        1   -1    0    0  501    0  0.00000000000E+00  0.00000000000E+00  0.14210951529E+04  0.14210951529E+04  0.50400001928E-02 0. -1.
       -1   -1    0    0    0  501  0.00000000000E+00  0.00000000000E+00 -0.86189928825E+02  0.86189928973E+02  0.50400001928E-02 0.  1.
    10030    2    1    2    0    0  0.00000000000E+00  0.00000000000E+00  0.13349052241E+04  0.15072850819E+04  0.69995454196E+03 0.  0.
        1    1    3    3  502    0  0.26969634581E+03 -0.15532969803E+02  0.18831799924E+03  0.32930390365E+03  0.50400001928E-02 0.  1.
       -1    1    3    3    0  502 -0.26969634581E+03  0.15532969803E+02  0.11465872248E+04  0.11779811782E+04  0.50400001928E-02 0. -1.
</event>
<event>
 5   0  0.1282546E-03  0.6991546E+03  0.7818609E-02  0.9718679E-01
       -2   -1    0    0    0  501  0.00000000000E+00  0.00000000000E+00  0.10373586396E+03  0.10373586399E+03  0.25500000920E-02 0. -1.
        2   -1    0    0  501    0  0.00000000000E+00  0.00000000000E+00 -0.11780333365E+04  0.11780333365E+04  0.25500000920E-02 0.  1.
    10030    2    1    2    0    0  0.00000000000E+00  0.00000000000E+00 -0.10742974725E+04  0.12817692005E+04  0.69915464943E+03 0.  0.
        5    1    3    3  502    0  0.10077966004E+03 -0.32816832816E+03 -0.65780279272E+03  0.74200916140E+03  0.46999998093E+01 0.  1.
       -5    1    3    3    0  502 -0.10077966004E+03  0.32816832816E+03 -0.41649467978E+03  0.53976003906E+03  0.46999998093E+01 0. -1.
</event>
<event>
 5   0  0.7013526E-04  0.7001262E+03  0.7818609E-02  0.9717016E-01
       -1   -1    0    0    0  501  0.00000000000E+00  0.00000000000E+00  0.14043306647E+03  0.14043306656E+03  0.50400001928E-02 0. -1.
        1   -1    0    0  501    0  0.00000000000E+00  0.00000000000E+00 -0.87261618549E+03  0.87261618551E+03  0.50400001928E-02 0.  1.
    10030    2    1    2    0    0  0.00000000000E+00  0.00000000000E+00 -0.73218311902E+03  0.10130492521E+04  0.70012617959E+03 0.  0.
        1    1    3    3  502    0  0.48423284937E+01  0.34517503104E+03 -0.28203226006E+03  0.44577062032E+03  0.50400001928E-02 0. -1.
       -1    1    3    3    0  502 -0.48423284937E+01 -0.34517503104E+03 -0.45015085896E+03  0.56727863175E+03  0.50400001928E-02 0.  1.
</event>
<event>
 5   0  0.4936000E-04  0.6999299E+03  0.7818609E-02  0.9717352E-01
        3   -1    0    0  501    0  0.00000000000E+00  0.00000000000E+00  0.64132933732E+03  0.64132934528E+03  0.10100000352E+00 0.  1.
       -3   -1    0    0    0  501  0.00000000000E+00  0.00000000000E+00 -0.19097124488E+03  0.19097127159E+03  0.10100000352E+00 0. -1.
    10030    2    1    2    0    0  0.00000000000E+00  0.00000000000E+00  0.45035809244E+03  0.83230061686E+03  0.69992992892E+03 0.  0.
        2    1    3    3  502    0  0.19447364019E+03 -0.24484374781E+02  0.56993359013E+03  0.60269708686E+03  0.25500000920E-02 0.  1.
       -2    1    3    3    0  502 -0.19447364019E+03  0.24484374781E+02 -0.11957549769E+03  0.22960353001E+03  0.25500000920E-02 0. -1.
</event>
<event>
 5   0  0.1282546E-03  0.7001971E+03  0.7818609E-02  0.9716895E-01
        2   -1    0    0  501    0  0.00000000000E+00  0.00000000000E+00  0.61174805228E+03  0.61174805229E+03  0.25500000920E-02 0. -1.
       -2   -1    0    0    0  501  0.00000000000E+00  0.00000000000E+00 -0.20035861452E+03  0.20035861454E+03  0.25500000920E-02 0.  1.
    10030    2    1    2    0    0  0.00000000000E+00  0.00000000000E+00  0.41138943776E+03  0.81210666682E+03  0.70019709282E+03 0.  0.
        5    1    3    3  502    0 -0.29659259577E+02 -0.33174090452E+03  0.33069361301E+03  0.46937410995E+03  0.46999998093E+01 0. -1.
       -5    1    3    3    0  502  0.29659259577E+02  0.33174090452E+03  0.80695824756E+02  0.34273255687E+03  0.46999998093E+01 0.  1.
</event>
<event>
 5   0  0.1265562E-03  0.6991394E+03  0.7818609E-02  0.9718705E-01
        2   -1    0    0  501    0  0.00000000000E+00  0.00000000000E+00  0.12474769226E+04  0.12474769226E+04  0.25500000920E-02 0.  1.
       -2   -1    0    0    0  501  0.00000000000E+00  0.00000000000E+00 -0.97956892076E+02  0.97956892109E+02  0.25500000920E-02 0. -1.
    10030    2    1    2    0    0  0.00000000000E+00  0.00000000000E+00  0.11495200305E+04  0.13454338147E+04  0.69913936321E+03 0.  0.
        1    1    3    3  502    0  0.30399108274E+03  0.17027564601E+03  0.62900625725E+03  0.71906414575E+03  0.50400001928E-02 0.  1.
       -1    1    3    3    0  502 -0.30399108274E+03 -0.17027564601E+03  0.52051377327E+03  0.62636966897E+03  0.50400001928E-02 0. -1.
</event>
<event>
 5   0  0.1243087E-03  0.7005979E+03  0.7818609E-02  0.9716210E-01
        2   -1    0    0  501    0  0.00000000000E+00  0.00000000000E+00  0.86345653222E+03  0.86345653222E+03  0.25500000920E-02 0. -1.
       -2   -1    0    0    0  501  0.00000000000E+00  0.00000000000E+00 -0.14211409842E+03  0.14211409845E+03  0.25500000920E-02 0.  1.
    10030    2    1    2    0    0  0.00000000000E+00  0.00000000000E+00  0.72134243380E+03  0.10055706307E+04  0.70059787787E+03 0.  0.
        4    1    3    3  502    0  0.14236084816E+03  0.17511398681E+03 -0.23862155901E+02  0.22694169923E+03  0.12699999809E+01 0.  1.
       -4    1    3    3    0  502 -0.14236084816E+03 -0.17511398681E+03  0.74520458970E+03  0.77862893144E+03  0.12699999809E+01 0. -1.
</event>
<event>
 5   0  0.1282546E-03  0.6991106E+03  0.7818609E-02  0.9718754E-01
       -2   -1    0    0    0  501  0.00000000000E+00  0.00000000000E+00  0.28113870348E+03  0.28113870349E+03  0.25500000920E-02 0. -1.
        2   -1    0    0  501    0  0.00000000000E+00  0.00000000000E+00 -0.43462144354E+03  0.43462144355E+03  0.25500000920E-02 0.  1.
    10030    2    1    2    0    0  0.00000000000E+00  0.00000000000E+00 -0.15348274006E+03  0.71576014705E+03  0.69911060398E+03 0.  0.
        5    1    3    3  502    0  0.24669658544E+03  0.32324562643E+02  0.17458962384E+03  0.30398636379E+03  0.46999998093E+01 0. -1.
       -5    1    3    3    0  502 -0.24669658544E+03 -0.32324562643E+02 -0.32807236391E+03  0.41177378325E+03  0.46999998093E+01 0.  1.
</event>
<event>
 5   0  0.7572415E-04  0.7000240E+03  0.7818609E-02  0.9717191E-01
        1   -1    0    0  501    0  0.00000000000E+00  0.00000000000E+00  0.11330484556E+04  0.11330484556E+04  0.50400001928E-02 0. -1.
       -1   -1    0    0    0  501  0.00000000000E+00  0.00000000000E+00 -0.10812282341E+03  0.10812282353E+03  0.50400001928E-02 0.  1.
    10030    2    1    2    0    0  0.00000000000E+00  0.00000000000E+00  0.10249256321E+04  0.12411712791E+04  0.70002399432E+03 0.  0.
        4    1    3    3  502    0  0.19174934141E+02  0.30186238253E+03  0.20019505372E+03  0.36272337741E+03  0.12699999809E+01 0.  1.
       -4    1    3    3    0  502 -0.19174934141E+02 -0.30186238253E+03  0.82473057843E+03  0.87844790169E+03  0.12699999809E+01 0. -1.
</event>
<event>
 5   0  0.1265562E-03  0.6984671E+03  0.7818609E-02  0.9719857E-01
        2   -1    0    0  501    0  0.00000000000E+00  0.00000000000E+00  0.14029467363E+04  0.14029467363E+04  0.25500000920E-02 0. -1.
       -2   -1    0    0    0  501  0.00000000000E+00  0.00000000000E+00 -0.86934221513E+02  0.86934221550E+02  0.25500000920E-02 0.  1.
    10030    2    1    2    0    0  0.00000000000E+00  0.00000000000E+00  0.13160125148E+04  0.14898809579E+04  0.69846712844E+03 0.  0.
        1    1    3    3  502    0 -0.36895731451E+02  0.12812594992E+03  0.13465180465E+04  0.13531032494E+04  0.50400001928E-02 0. -1.
       -1    1    3    3    0  502  0.36895731451E+02 -0.12812594992E+03 -0.30505531682E+02  0.13677770845E+03  0.50400001928E-02 0.  1.
</event>
<event>
 5   0  0.7572415E-04  0.6985208E+03  0.7818609E-02  0.9719765E-01
        1   -1    0    0  501    0  0.00000000000E+00  0.00000000000E+00  0.35544405131E+03  0.35544405135E+03  0.50400001928E-02 0.  1.
       -1   -1    0    0    0  501  0.00000000000E+00  0.00000000000E+00 -0.34318432199E+03  0.34318432203E+03  0.50400001928E-02 0. -1.
    10030    2    1    2    0    0  0.00000000000E+00  0.00000000000E+00  0.12259729321E+02  0.69862837338E+03  0.69852079649E+03 0.  0.
        4    1    3    3  502    0 -0.13563703014E+02  0.34168264022E+03  0.77205654270E+02  0.35056144485E+03  0.12699999809E+01 0. -1.
       -4    1    3    3    0  502  0.13563703014E+02 -0.34168264022E+03 -0.64945924949E+02  0.34806692853E+03  0.12699999809E+01 0.  1.
</event>
<event>
 5   0  0.7459843E-04  0.7003973E+03  0.7818609E-02  0.9716553E-01
        1   -1    0    0  501    0  0.00000000000E+00  0.00000000000E+00  0.26926218440E+03  0.26926218445E+03  0.50400001928E-02 0.  1.
       -1   -1    0    0    0  501  0.00000000000E+00  0.00000000000E+00 -0.45546350877E+03  0.45546350879E+03  0.50400001928E-02 0. -1.
    10030    2    1    2    0    0  0.00000000000E+00  0.00000000000E+00 -0.18620132437E+03  0.72472569324E+03  0.70039731385E+03 0.  0.
        2    1    3    3  502    0  0.22396585729E+03  0.25700572359E+02  0.18419652284E+03  0.29111781754E+03  0.25500000920E-02 0.  1.
       -2    1    3    3    0  502 -0.22396585729E+03 -0.25700572359E+02 -0.37039784721E+03  0.43360787571E+03  0.25500000920E-02 0. -1.
</event>
<event>
 5   0  0.4936000E-04  0.6991945E+03  0.7818609E-02  0.9718611E-01
        4   -1    0    0  501    0  0.00000000000E+00  0.00000000000E+00  0.10688540160E+04  0.10688547705E+04  0.12699999809E+01 0.  1.
       -4   -1    0    0    0  501  0.00000000000E+00  0.00000000000E+00 -0.11434080193E+03  0.11434785475E+03  0.12699999809E+01 0. -1.
    10030    2    1    2    0    0  0.00000000000E+00  0.00000000000E+00  0.95451321407E+03  0.11832026252E+04  0.69919451982E+03 0.  0.
        1    1    3    3  502    0  0.91454149168E+02  0.13755776774E+03  0.99865294979E+03  0.10122221668E+04  0.50400001928E-02 0.  1.
       -1    1    3    3    0  502 -0.91454149168E+02 -0.13755776774E+03 -0.44139735716E+02  0.17098045842E+03  0.50400001928E-02 0. -1.
</event>
<event>
 5   0  0.7013526E-04  0.6997766E+03  0.7818609E-02  0.9717614E-01
       -1   -1    0    0    0  501  0.00000000000E+00  0.00000000000E+00  0.17740378091E+03  0.17740378099E+03  0.50400001928E-02 0. -1.
        1   -1    0    0  501    0  0.00000000000E+00  0.00000000000E+00 -0.69007455362E+03  0.69007455364E+03  0.50400001928E-02 0.  1.
    10030    2    1    2    0    0  0.00000000000E+00  0.00000000000E+00 -0.51267077271E+03  0.86747833463E+03  0.69977663569E+03 0.  0.
        1    1    3    3  502    0 -0.12845736603E+03 -0.24158726299E+03 -0.52667050768E+03  0.59350444329E+03  0.50400001928E-02 0. -1.
       -1    1    3    3    0  502  0.12845736603E+03  0.24158726299E+03  0.13999734969E+02  0.27397389133E+03  0.50400001928E-02 0.  1.
</event>
<event>
 5   0  0.7572415E-04  0.6997473E+03  0.7818609E-02  0.9717664E-01
        1   -1    0    0  501    0  0.00000000000E+00  0.00000000000E+00  0.70211193763E+03  0.70211193765E+03  0.50400001928E-02 0.  1.
       -1   -1    0    0    0  501  0.00000000000E+00  0.00000000000E+00 -0.17434767601E+03  0.17434767609E+03  0.50400001928E-02 0. -1.
    10030    2    1    2    0    0  0.00000000000E+00  0.00000000000E+00  0.52776426162E+03  0.87645961373E+03  0.69974733916E+03 0.  0.
        4    1    3    3  502    0  0.21378838965E+03 -0.25851700468E+03  0.38834081872E+03  0.51317318874E+03  0.12699999809E+01 0.  1.
       -4    1    3    3    0  502 -0.21378838965E+03  0.25851700468E+03  0.13942344289E+03  0.36328642499E+03  0.12699999809E+01 0. -1.
</event>
<event>
 5   0  0.1243087E-03  0.6998949E+03  0.7818609E-02  0.9717412E-01
       -2   -1    0    0    0  501  0.00000000000E+00  0.00000000000E+00  0.56092744936E+03  0.56092744936E+03  0.25500000920E-02 0.  1.
        2   -1    0    0  501    0  0.00000000000E+00  0.00000000000E+00 -0.21832274560E+03  0.21832274561E+03  0.25500000920E-02 0. -1.
    10030    2    1    2    0    0  0.00000000000E+00  0.00000000000E+00  0.34260470376E+03  0.77925019497E+03  0.69989490877E+03 0.  0.
        4    1    3    3  502    0 -0.98512398276E+02  0.19599916442E+03 -0.13226774835E+03  0.25615763745E+03  0.12699999809E+01 0. -1.
       -4    1    3    3    0  502  0.98512398276E+02 -0.19599916442E+03  0.47487245211E+03  0.52309255753E+03  0.12699999809E+01 0.  1.
</event>
<event>
 5   0  0.1243087E-03  0.7006436E+03  0.7818609E-02  0.9716132E-01
        2   -1    0    0  501    0  0.00000000000E+00  0.00000000000E+00  0.14867931342E+03  0.14867931344E+03  0.25500000920E-02 0. -1.
       -2   -1    0    0    0  501  0.00000000000E+00  0.00000000000E+00 -0.82543680957E+03  0.82543680957E+03  0.25500000920E-02 0.  1.
    10030    2    1    2    0    0  0.00000000000E+00  0.00000000000E+00 -0.67675749615E+03  0.97411612301E+03  0.70064364160E+03 0.  0.
        4    1    3    3  502    0  0.57327819396E+02  0.28533701253E+03 -0.60947282866E+03  0.67539797998E+03  0.12699999809E+01 0.  1.
       -4    1    3    3    0  502 -0.57327819396E+02 -0.28533701253E+03 -0.67284667497E+02  0.29871814303E+03  0.12699999809E+01 0. -1.
</event>
<event>
 5   0  0.7574241E-04  0.7001982E+03  0.7818609E-02  0.9716893E-01
       -1   -1    0    0    0  501  0.00000000000E+00  0.00000000000E+00  0.12016667716E+03  0.12016667726E+03  0.50400001928E-02 0. -1.
        1   -1    0    0  501    0  0.00000000000E+00  0.00000000000E+00 -0.10199946610E+04  0.10199946610E+04  0.50400001928E-02 0.  1.
    10030    2    1    2    0    0  0.00000000000E+00  0.00000000000E+00 -0.89982798382E+03  0.11401613383E+04  0.70019816965E+03 0.  0.
        3    1    3    3  502    0  0.36573279002E+02  0.17376959991E+02 -0.10161689250E+04  0.10169753477E+04  0.10100000352E+00 0.  1.
       -3    1    3    3    0  502 -0.36573279002E+02 -0.17376959991E+02  0.11634094118E+03  0.12318599056E+03  0.10100000352E+00 0. -1.
</event>
<event>
 5   0  0.1222679E-03  0.7000649E+03  0.7818609E-02  0.9717121E-01
        2   -1    0    0  501    0  0.00000000000E+00  0.00000000000E+00  0.95040022314E+03  0.95040022315E+03  0.25500000920E-02 0. -1.
       -2   -1    0    0    0  501  0.00000000000E+00  0.00000000000E+00 -0.12891695946E+03  0.12891695948E+03  0.25500000920E-02 0.  1.
    10030    2    1    2    0    0  0.00000000000E+00  0.00000000000E+00  0.82148326369E+03  0.10793171826E+04  0.70006487428E+03 0.  0.
        2    1    3    3  502    0 -0.32767573302E+03  0.27710797988E+01  0.60046724838E+03  0.68406138707E+03  0.25500000920E-02 0. -1.
       -2    1    3    3    0  502  0.32767573302E+03 -0.27710797988E+01  0.22101601531E+03  0.39525579556E+03  0.25500000920E-02 0.  1.
</event>
<event>
 5   0  0.7570633E-04  0.6999782E+03  0.7818609E-02  0.9717269E-01
        1   -1    0    0  501    0  0.00000000000E+00  0.00000000000E+00  0.10426594058E+04  0.10426594059E+04  0.50400001928E-02 0. -1.
       -1   -1    0    0    0  501  0.00000000000E+00  0.00000000000E+00 -0.11748072550E+03  0.11748072561E+03  0.50400001928E-02 0.  1.
    10030    2    1    2    0    0  0.00000000000E+00  0.00000000000E+00  0.92517868034E+03  0.11601401315E+04  0.69997823828E+03 0.  0.
        5    1    3    3  502    0 -0.18662989474E+03 -0.22607732319E+03  0.14582043501E+03  0.32745589465E+03  0.46999998093E+01 0.  1.
       -5    1    3    3    0  502  0.18662989474E+03  0.22607732319E+03  0.77935824534E+03  0.83268423682E+03  0.46999998093E+01 0. -1.
</event>
<event>
 5   0  0.1265562E-03  0.6969143E+03  0.7818609E-02  0.9722524E-01
       -2   -1    0    0    0  501  0.00000000000E+00  0.00000000000E+00  0.80492926383E+02  0.80492926424E+02  0.25500000920E-02 0.  1.
        2   -1    0    0  501    0  0.00000000000E+00  0.00000000000E+00 -0.15084852427E+04  0.15084852427E+04  0.25500000920E-02 0. -1.
    10030    2    1    2    0    0  0.00000000000E+00  0.00000000000E+00 -0.14279923164E+04  0.15889781692E+04  0.69691431792E+03 0.  0.
        1    1    3    3  502    0  0.24558623886E+03 -0.65936180887E+02 -0.12572067070E+04  0.12826647593E+04  0.50400001928E-02 0. -1.
       -1    1    3    3    0  502 -0.24558623886E+03  0.65936180887E+02 -0.17078560939E+03  0.30631340987E+03  0.50400001928E-02 0.  1.
</event>
<event>
 5   0  0.1243087E-03  0.6996904E+03  0.7818609E-02  0.9717762E-01
       -2   -1    0    0    0  501  0.00000000000E+00  0.00000000000E+00  0.13062898880E+03  0.13062898882E+03  0.25500000920E-02 0.  1.
        2   -1    0    0  501    0  0.00000000000E+00  0.00000000000E+00 -0.93694113273E+03  0.93694113274E+03  0.25500000920E-02 0. -1.
    10030    2    1    2    0    0  0.00000000000E+00  0.00000000000E+00 -0.80631214393E+03  0.10675701216E+04  0.69969042511E+03 0.  0.
        4    1    3    3  502    0  0.31616892194E+03 -0.12473009306E+03 -0.27669448605E+03  0.43827141685E+03  0.12699999809E+01 0. -1.
       -4    1    3    3    0  502 -0.31616892194E+03  0.12473009306E+03 -0.52961765788E+03  0.62929870471E+03  0.12699999809E+01 0.  1.
</event>
<event>
 5   0  0.7574241E-04  0.7004484E+03  0.7818609E-02  0.9716466E-01
        1   -1    0    0  501    0  0.00000000000E+00  0.00000000000E+00  0.33092968817E+03  0.33092968821E+03  0.50400001928E-02 0.  1.
       -1   -1    0    0    0  501  0.00000000000E+00  0.00000000000E+00 -0.37064365733E+03  0.37064365737E+03  0.50400001928E-02 0. -1.
    10030    2    1    2    0    0  0.00000000000E+00  0.00000000000E+00 -0.39713969159E+02  0.70157334558E+03  0.70044839916E+03 0.  0.
        3    1    3    3  502    0  0.27300122182E+03  0.21083352897E+03  0.40874839926E+02  0.34734882581E+03  0.10100000352E+00 0.  1.
       -3    1    3    3    0  502 -0.27300122182E+03 -0.21083352897E+03 -0.80588809085E+02  0.35422451977E+03  0.10100000352E+00 0. -1.
</event>
<event>
 5   0  0.1243087E-03  0.7001568E+03  0.7818609E-02  0.9716964E-01
       -2   -1    0    0    0  501  0.00000000000E+00  0.00000000000E+00  0.14052966002E+03  0.14052966004E+03  0.25500000920E-02 0.  1.
        2   -1    0    0  501    0  0.00000000000E+00  0.00000000000E+00 -0.87209255671E+03  0.87209255671E+03  0.25500000920E-02 0. -1.
    10030    2    1    2    0    0  0.00000000000E+00  0.00000000000E+00 -0.73156289669E+03  0.10126222168E+04  0.70015675535E+03 0.  0.
        4    1    3    3  502    0 -0.28640571956E+03 -0.13994255208E+03 -0.57507312159E+03  0.65751263270E+03  0.12699999809E+01 0. -1.
       -4    1    3    3    0  502  0.28640571956E+03  0.13994255208E+03 -0.15648977509E+03  0.35510958406E+03  0.12699999809E+01 0.  1.
</event>
<event>
 5   0  0.1282546E-03  0.7001224E+03  0.7818609E-02  0.9717023E-01
       -2   -1    0    0    0  501  0.00000000000E+00  0.00000000000E+00  0.21408025235E+03  0.21408025237E+03  0.25500000920E-02 0. -1.
        2   -1    0    0  501    0  0.00000000000E+00  0.00000000000E+00 -0.57241544664E+03  0.57241544664E+03  0.25500000920E-02 0.  1.
    10030    2    1    2    0    0  0.00000000000E+00  0.00000000000E+00 -0.35833519429E+03  0.78649569901E+03  0.70012239866E+03 0.  0.
        5    1    3    3  502    0 -0.22876759735E+03 -0.60764698282E+01 -0.47669967238E+03  0.52880639626E+03  0.46999998093E+01 0.  1.
       -5    1    3    3    0  502  0.22876759735E+03  0.60764698282E+01  0.11836447809E+03  0.25768930275E+03  0.46999998093E+01 0. -1.
</event>
<event>
 5   0  0.1265562E-03  0.7000125E+03  0.7818609E-02  0.9717211E-01
       -2   -1    0    0    0  501  0.00000000000E+00  0.00000000000E+00  0.13225765782E+03  0.13225765784E+03  0.25500000920E-02 0.  1.
        2   -1    0    0  501    0  0.00000000000E+00  0.00000000000E+00 -0.92625540652E+03  0.92625540653E+03  0.25500000920E-02 0. -1.
    10030    2    1    2    0    0  0.00000000000E+00  0.00000000000E+00 -0.79399774870E+03  0.10585130644E+04  0.70001248739E+03 0.  0.
        1    1    3    3  502    0 -0.45539770386E+02  0.30855854495E+03 -0.63714814143E+03  0.70939410803E+03  0.50400001928E-02 0. -1.
       -1    1    3    3    0  502  0.45539770386E+02 -0.30855854495E+03 -0.15684960727E+03  0.34911895634E+03  0.50400001928E-02 0.  1.
</event>
<event>
 5   0  0.7572415E-04  0.7001740E+03  0.7818609E-02  0.9716935E-01
        1   -1    0    0  501    0  0.00000000000E+00  0.00000000000E+00  0.49158182105E+03  0.49158182107E+03  0.50400001928E-02 0. -1.
       -1   -1    0    0    0  501  0.00000000000E+00  0.00000000000E+00 -0.24931947458E+03  0.24931947463E+03  0.50400001928E-02 0.  1.
    10030    2    1    2    0    0  0.00000000000E+00  0.00000000000E+00  0.24226234646E+03  0.74090129571E+03  0.70017403941E+03 0.  0.
        4    1    3    3  502    0 -0.19768261645E+03 -0.23659196039E+02  0.42584135523E+03  0.47008578699E+03  0.12699999809E+01 0. -1.
       -4    1    3    3    0  502  0.19768261645E+03  0.23659196039E+02 -0.18357900876E+03  0.27081550872E+03  0.12699999809E+01 0.  1.
</event>
<event>
 5   0  0.1265562E-03  0.7001165E+03  0.7818609E-02  0.9717033E-01
       -2   -1    0    0    0  501  0.00000000000E+00  0.00000000000E+00  0.51535529496E+03  0.51535529496E+03  0.25500000920E-02 0.  1.
        2   -1    0    0  501    0  0.00000000000E+00  0.00000000000E+00 -0.23777921244E+03  0.23777921246E+03  0.25500000920E-02 0. -1.
    10030    2    1    2    0    0  0.00000000000E+00  0.00000000000E+00  0.27757608251E+03  0.75313450742E+03  0.70011649365E+03 0.  0.
        1    1    3    3  502    0  0.29238121403E+03 -0.18392600026E+01 -0.68273752252E+02  0.30025233132E+03  0.50400001928E-02 0. -1.
       -1    1    3    3    0  502 -0.29238121403E+03  0.18392600026E+01  0.34584983477E+03  0.45288217610E+03  0.50400001928E-02 0.  1.
</event>
<event>
 5   0  0.7459843E-04  0.6998277E+03  0.7818609E-02  0.9717527E-01
       -1   -1    0    0    0  501  0.00000000000E+00  0.00000000000E+00  0.46909480655E+03  0.46909480658E+03  0.50400001928E-02 0.  1.
        1   -1    0    0  501    0  0.00000000000E+00  0.00000000000E+00 -0.26101268532E+03  0.26101268537E+03  0.50400001928E-02 0. -1.
    10030    2    1    2    0    0  0.00000000000E+00  0.00000000000E+00  0.20808212124E+03  0.73010749195E+03  0.69982767923E+03 0.  0.
        2    1    3    3  502    0  0.30153986677E+03 -0.68562790136E+02  0.27487129258E+03  0.41374070978E+03  0.25500000920E-02 0.  1.
       -2    1    3    3    0  502 -0.30153986677E+03  0.68562790136E+02 -0.66789171339E+02  0.31636678216E+03  0.25500000920E-02 0. -1.
</event>
<event>
 5   0  0.1224048E-03  0.7000806E+03  0.7818609E-02  0.9717094E-01
       -2   -1    0    0    0  501  0.00000000000E+00  0.00000000000E+00  0.13611681522E+03  0.13611681525E+03  0.25500000920E-02 0. -1.
        2   -1    0    0  501    0  0.00000000000E+00  0.00000000000E+00 -0.90016966356E+03  0.90016966356E+03  0.25500000920E-02 0.  1.
    10030    2    1    2    0    0  0.00000000000E+00  0.00000000000E+00 -0.76405284834E+03  0.10362864788E+04  0.70008064615E+03 0.  0.
        3    1    3    3  502    0  0.33098743795E+03  0.69150595012E+02 -0.24803637384E+03  0.41935252690E+03  0.10100000352E+00 0. -1.
       -3    1    3    3    0  502 -0.33098743795E+03 -0.69150595012E+02 -0.51601647450E+03  0.61693395191E+03  0.10100000352E+00 0.  1.
</event>
<event>
 5   0  0.7572415E-04  0.7000236E+03  0.7818609E-02  0.9717192E-01
       -1   -1    0    0    0  501  0.00000000000E+00  0.00000000000E+00  0.17707989029E+03  0.17707989036E+03  0.50400001928E-02 0.  1.
        1   -1    0    0  501    0  0.00000000000E+00  0.00000000000E+00 -0.69182480353E+03  0.69182480355E+03  0.50400001928E-02 0. -1.
    10030    2    1    2    0    0  0.00000000000E+00  0.00000000000E+00 -0.51474491324E+03  0.86890469391E+03  0.70002360060E+03 0.  0.
        4    1    3    3  502    0 -0.23692781690E+03 -0.29087013409E+02  0.60362967034E+02  0.24622377111E+03  0.12699999809E+01 0.  1.
       -4    1    3    3    0  502  0.23692781690E+03  0.29087013409E+02 -0.57510788027E+03  0.62268092280E+03  0.12699999809E+01 0. -1.
</event>
<event>
 5   0  0.7572415E-04  0.7001015E+03  0.7818609E-02  0.9717059E-01
       -1   -1    0    0    0  501  0.00000000000E+00  0.00000000000E+00  0.33223032969E+03  0.33223032973E+03  0.50400001928E-02 0. -1.
        1   -1    0    0  501    0  0.00000000000E+00  0.00000000000E+00 -0.36882705683E+03  0.36882705686E+03  0.50400001928E-02 0.  1.
    10030    2    1    2    0    0  0.00000000000E+00  0.00000000000E+00 -0.36596727138E+02  0.70105738659E+03  0.70010152040E+03 0.  0.
        4    1    3    3  502    0 -0.27596180827E+03  0.15307278513E+03 -0.16999025403E+03  0.35844734137E+03  0.12699999809E+01 0.  1.
       -4    1    3    3    0  502  0.27596180827E+03 -0.15307278513E+03  0.13339352689E+03  0.34261004522E+03  0.12699999809E+01 0. -1.
</event>
<event>
 5   0  0.1265562E-03  0.7003483E+03  0.7818609E-02  0.9716637E-01
        2   -1    0    0  501    0  0.00000000000E+00  0.00000000000E+00  0.22005119469E+03  0.22005119470E+03  0.25500000920E-02 0. -1.
       -2   -1    0    0    0  501  0.00000000000E+00  0.00000000000E+00 -0.55724276204E+03  0.55724276204E+03  0.25500000920E-02 0.  1.
    10030    2    1    2    0    0  0.00000000000E+00  0.00000000000E+00 -0.33719156735E+03  0.77729395674E+03  0.70034830056E+03 0.  0.
        1    1    3    3  502    0 -0.32963125549E+03  0.11349913726E+03 -0.20512234988E+03  0.40449227088E+03  0.50400001928E-02 0.  1.
       -1    1    3    3    0  502  0.32963125549E+03 -0.11349913726E+03 -0.13206921747E+03  0.37280168587E+03  0.50400001928E-02 0. -1.
</event>
<event>
 5   0  0.1243087E-03  0.6998713E+03  0.7818609E-02  0.9717452E-01
       -2   -1    0    0    0  501  0.00000000000E+00  0.00000000000E+00  0.15134226869E+03  0.15134226871E+03  0.25500000920E-02 0.  1.
        2   -1    0    0  501    0  0.00000000000E+00  0.00000000000E+00 -0.80912597489E+03  0.80912597489E+03  0.25500000920E-02 0. -1.
    10030    2    1    2    0    0  0.00000000000E+00  0.00000000000E+00 -0.65778370620E+03  0.96046824360E+03  0.69987130447E+03 0.  0.
        4    1    3    3  502    0  0.39950991762E+02 -0.25099952374E+03 -0.65898835421E+03  0.70630312653E+03  0.12699999809E+01 0. -1.
       -4    1    3    3    0  502 -0.39950991762E+02  0.25099952374E+03  0.12046480126E+01  0.25416511707E+03  0.12699999809E+01 0.  1.
</event>
<event>
 5   0  0.7570633E-04  0.7000716E+03  0.7818609E-02  0.9717110E-01
       -1   -1    0    0    0  501  0.00000000000E+00  0.00000000000E+00  0.99513689827E+02  0.99513689955E+02  0.50400001928E-02 0.  1.
        1   -1    0    0  501    0  0.00000000000E+00  0.00000000000E+00 -0.12312381506E+04  0.12312381506E+04  0.50400001928E-02 0. -1.
    10030    2    1    2    0    0  0.00000000000E+00  0.00000000000E+00 -0.11317244608E+04  0.13307518406E+04  0.70007157211E+03 0.  0.
        5    1    3    3  502    0 -0.12938620420E+03  0.24828800629E+03 -0.16660853520E+03  0.32583464810E+03  0.46999998093E+01 0. -1.
       -5    1    3    3    0  502  0.12938620420E+03 -0.24828800629E+03 -0.96511592561E+03  0.10049171925E+04  0.46999998093E+01 0.  1.
</event>
<event>
 5   0  0.1265562E-03  0.7001122E+03  0.7818609E-02  0.9717040E-01
        2   -1    0    0  501    0  0.00000000000E+00  0.00000000000E+00  0.17208536260E+04  0.17208536260E+04  0.25500000920E-02 0. -1.
       -2   -1    0    0    0  501  0.00000000000E+00  0.00000000000E+00 -0.71208418213E+02  0.71208418259E+02  0.25500000920E-02 0.  1.
    10030    2    1    2    0    0  0.00000000000E+00  0.00000000000E+00  0.16496452078E+04  0.17920620443E+04  0.70011217595E+03 0.  0.
        1    1    3    3  502    0  0.10212846892E+02 -0.10755911495E+03  0.16771071206E+04  0.16805836960E+04  0.50400001928E-02 0. -1.
       -1    1    3    3    0  502 -0.10212846892E+02  0.10755911495E+03 -0.27461912771E+02  0.11147834825E+03  0.50400001928E-02 0.  1.
</event>
<event>
 5   0  0.1224048E-03  0.6998559E+03  0.7818609E-02  0.9717479E-01
       -2   -1    0    0    0  501  0.00000000000E+00  0.00000000000E+00  0.34532399078E+03  0.34532399079E+03  0.25500000920E-02 0. -1.
        2   -1    0    0  501    0  0.00000000000E+00  0.00000000000E+00 -0.35459330527E+03  0.35459330528E+03  0.25500000920E-02 0.  1.
    10030    2    1    2    0    0  0.00000000000E+00  0.00000000000E+00 -0.92693144911E+01  0.69991729607E+03  0.69985591457E+03 0.  0.
        3    1    3    3  502    0  0.10623782265E+03 -0.18742407402E+03 -0.28040384458E+03  0.35361078142E+03  0.10100000352E+00 0.  1.
       -3    1    3    3    0  502 -0.10623782265E+03  0.18742407402E+03  0.27113453008E+03  0.34630651465E+03  0.10100000352E+00 0. -1.
</event>
<event>
 5   0  0.7013526E-04  0.7001792E+03  0.7818609E-02  0.9716926E-01
        1   -1    0    0  501    0  0.00000000000E+00  0.00000000000E+00  0.20079129672E+03  0.20079129679E+03  0.50400001928E-02 0.  1.
       -1   -1    0    0    0  501  0.00000000000E+00  0.00000000000E+00 -0.61039853881E+03  0.61039853883E+03  0.50400001928E-02 0. -1.
    10030    2    1    2    0    0  0.00000000000E+00  0.00000000000E+00 -0.40960724208E+03  0.81118983562E+03  0.70017916039E+03 0.  0.
        1    1    3    3  502    0 -0.89385585899E+02  0.32163553811E+03 -0.32699323124E+03  0.46729409973E+03  0.50400001928E-02 0. -1.
       -1    1    3    3    0  502  0.89385585899E+02 -0.32163553811E+03 -0.82614010840E+02  0.34389573588E+03  0.50400001928E-02 0.  1.
</event>
<event>
 5   0  0.7572415E-04  0.7003508E+03  0.7818609E-02  0.9716633E-01
        1   -1    0    0  501    0  0.00000000000E+00  0.00000000000E+00  0.40470280229E+03  0.40470280232E+03  0.50400001928E-02 0.  1.
       -1   -1    0    0    0  501  0.00000000000E+00  0.00000000000E+00 -0.30299469362E+03  0.30299469366E+03  0.50400001928E-02 0. -1.
    10030    2    1    2    0    0  0.00000000000E+00  0.00000000000E+00  0.10170810867E+03  0.70769749599E+03  0.70035077387E+03 0.  0.
        4    1    3    3  502    0 -0.62555187600E+02  0.36028970414E+02  0.39709984200E+03  0.40361012824E+03  0.12699999809E+01 0.  1.
       -4    1    3    3    0  502  0.62555187600E+02 -0.36028970414E+02 -0.29539173333E+03  0.30408736774E+03  0.12699999809E+01 0. -1.
</event>
<event>
 5   0  0.7574241E-04  0.7016739E+03  0.7818609E-02  0.9714374E-01
        1   -1    0    0  501    0  0.00000000000E+00  0.00000000000E+00  0.21736358667E+04  0.21736358667E+04  0.50400001928E-02 0. -1.
       -1   -1    0    0    0  501  0.00000000000E+00  0.00000000000E+00 -0.56627047572E+02  0.56627047796E+02  0.50400001928E-02 0.  1.
    10030    2    1    2    0    0  0.00000000000E+00  0.00000000000E+00  0.21170088192E+04  0.22302629145E+04  0.70167394675E+03 0.  0.
        3    1    3    3  502    0 -0.22831342447E+03  0.18558576953E+03  0.16658992187E+04  0.16916823918E+04  0.10100000352E+00 0. -1.
       -3    1    3    3    0  502  0.22831342447E+03 -0.18558576953E+03  0.45110960049E+03  0.53858052276E+03  0.10100000352E+00 0.  1.
</event>
<event>
 5   0  0.7570633E-04  0.7000026E+03  0.7818609E-02  0.9717228E-01
        1   -1    0    0  501    0  0.00000000000E+00  0.00000000000E+00  0.20885827732E+03  0.20885827738E+03  0.50400001928E-02 0. -1.
       -1   -1    0    0    0  501  0.00000000000E+00  0.00000000000E+00 -0.58652654470E+03  0.58652654472E+03  0.50400001928E-02 0.  1.
    10030    2    1    2    0    0  0.00000000000E+00  0.00000000000E+00 -0.37766826738E+03  0.79538482210E+03  0.70000263931E+03 0.  0.
        5    1    3    3  502    0  0.17929673219E+03 -0.22669238550E+03 -0.41306076002E+03  0.50416072564E+03  0.46999998093E+01 0. -1.
       -5    1    3    3    0  502 -0.17929673219E+03  0.22669238550E+03  0.35392492636E+02  0.29122409645E+03  0.46999998093E+01 0.  1.
</event>
<event>
 5   0  0.4936000E-04  0.7001307E+03  0.7818609E-02  0.9717009E-01
        3   -1    0    0  501    0  0.00000000000E+00  0.00000000000E+00  0.17624033919E+03  0.17624036813E+03  0.10100000352E+00 0. -1.
       -3   -1    0    0    0  501  0.00000000000E+00  0.00000000000E+00 -0.69533301514E+03  0.69533302247E+03  0.10100000352E+00 0.  1.
    10030    2    1    2    0    0  0.00000000000E+00  0.00000000000E+00 -0.51909267595E+03  0.87157339060E+03  0.70013067993E+03 0.  0.
        5    1    3    3  502    0 -0.18080112026E+03  0.14742752926E+02  0.11312044167E+03  0.21383338882E+03  0.46999998093E+01 0. -1.
       -5    1    3    3    0  502  0.18080112026E+03 -0.14742752926E+02 -0.63221311762E+03  0.65774000178E+03  0.46999998093E+01 0.  1.
</event>
<event>
 5   0  0.4936000E-04  0.7002689E+03  0.7818609E-02  0.9716773E-01
        3   -1    0    0  501    0  0.00000000000E+00  0.00000000000E+00  0.36310838155E+03  0.36310839560E+03  0.10100000352E+00 0.  1.
       -3   -1    0    0    0  501  0.00000000000E+00  0.00000000000E+00 -0.33762401216E+03  0.33762402727E+03  0.10100000352E+00 0. -1.
    10030    2    1    2    0    0  0.00000000000E+00  0.00000000000E+00  0.25484369391E+02  0.70073242286E+03  0.70026885934E+03 0.  0.
        4    1    3    3  502    0  0.34347995119E+03  0.66280360729E+01 -0.54905068252E+02  0.34790600333E+03  0.12699999809E+01 0.  1.
       -4    1    3    3    0  502 -0.34347995119E+03 -0.66280360729E+01  0.80389437644E+02  0.35282641953E+03  0.12699999809E+01 0. -1.
</event>
<event>
 5   0  0.7574241E-04  0.7001852E+03  0.7818609E-02  0.9716916E-01
       -1   -1    0    0    0  501  0.00000000000E+00  0.00000000000E+00  0.67897337446E+02  0.67897337633E+02  0.50400001928E-02 0. -1.
        1   -1    0    0  501    0  0.00000000000E+00  0.00000000000E+00 -0.18051492101E+04  0.18051492101E+04  0.50400001928E-02 0.  1.
    10030    2    1    2    0    0  0.00000000000E+00  0.00000000000E+00 -0.17372518726E+04  0.18730465477E+04  0.70018519047E+03 0.  0.
        3    1    3    3  502    0 -0.17974679238E+03  0.29036027268E+02 -0.68726237978E+02  0.19461579134E+03  0.10100000352E+00 0. -1.
       -3    1    3    3    0  502  0.17974679238E+03 -0.29036027268E+02 -0.16685256346E+04  0.16784307564E+04  0.10100000352E+00 0.  1.
</event>
<event>
 5   0  0.1243087E-03  0.6998356E+03  0.7818609E-02  0.9717513E-01
        2   -1    0    0  501    0  0.00000000000E+00  0.00000000000E+00  0.88876780389E+03  0.88876780389E+03  0.25500000920E-02 0. -1.
       -2   -1    0    0    0  501  0.00000000000E+00  0.00000000000E+00 -0.13776652784E+03  0.13776652786E+03  0.25500000920E-02 0.  1.
    10030    2    1    2    0    0  0.00000000000E+00  0.00000000000E+00  0.75100127605E+03  0.10265343318E+04  0.69983556471E+03 0.  0.
        4    1    3    3  502    0  0.23283862713E+03 -0.21511276092E+03  0.59283555497E+03  0.67226701119E+03  0.12699999809E+01 0. -1.
       -4    1    3    3    0  502 -0.23283862713E+03  0.21511276092E+03  0.15816572108E+03  0.35426732056E+03  0.12699999809E+01 0.  1.
</event>
<event>
 5   0  0.1265562E-03  0.6996314E+03  0.7818609E-02  0.9717863E-01
       -2   -1    0    0    0  501  0.00000000000E+00  0.00000000000E+00  0.13340168744E+03  0.13340168746E+03  0.25500000920E-02 0. -1.
        2   -1    0    0  501    0  0.00000000000E+00  0.00000000000E+00 -0.91731231873E+03  0.91731231873E+03  0.25500000920E-02 0.  1.
    10030    2    1    2    0    0  0.00000000000E+00  0.00000000000E+00 -0.78391063129E+03  0.10507140062E+04  0.69963136362E+03 0.  0.
        1    1    3    3  502    0  0.19020036477E+03  0.23887400151E+03 -0.13561575465E+03  0.33410866539E+03  0.50400001928E-02 0. -1.
       -1    1    3    3    0  502 -0.19020036477E+03 -0.23887400151E+03 -0.64829487664E+03  0.71660534080E+03  0.50400001928E-02 0.  1.
</event>
<event>
 5   0  0.7459843E-04  0.6992404E+03  0.7818609E-02  0.9718532E-01
        1   -1    0    0  501    0  0.00000000000E+00  0.00000000000E+00  0.52616528874E+03  0.52616528876E+03  0.50400001928E-02 0.  1.
       -1   -1    0    0    0  501  0.00000000000E+00  0.00000000000E+00 -0.23231159999E+03  0.23231160004E+03  0.50400001928E-02 0. -1.
    10030    2    1    2    0    0  0.00000000000E+00  0.00000000000E+00  0.29385368875E+03  0.75847688881E+03  0.69924044539E+03 0.  0.
        2    1    3    3  502    0 -0.31525117506E+03 -0.10776623528E+03  0.26191402162E+03  0.42378746981E+03  0.25500000920E-02 0.  1.
       -2    1    3    3    0  502  0.31525117506E+03  0.10776623528E+03  0.31939667134E+02  0.33468941900E+03  0.25500000920E-02 0. -1.
</event>
<event>
 5   0  0.1282546E-03  0.6980738E+03  0.7818609E-02  0.9720532E-01
       -2   -1    0    0    0  501  0.00000000000E+00  0.00000000000E+00  0.21088335114E+03  0.21088335115E+03  0.25500000920E-02 0. -1.
        2   -1    0    0  501    0  0.00000000000E+00  0.00000000000E+00 -0.57769745291E+03  0.57769745292E+03  0.25500000920E-02 0.  1.
    10030    2    1    2    0    0  0.00000000000E+00  0.00000000000E+00 -0.36681410178E+03  0.78858080407E+03  0.69807384945E+03 0.  0.
        5    1    3    3  502    0 -0.15666954309E+03 -0.51237593227E+02 -0.53091803875E+03  0.55593766787E+03  0.46999998093E+01 0.  1.
       -5    1    3    3    0  502  0.15666954309E+03  0.51237593227E+02  0.16410393697E+03  0.23264313620E+03  0.46999998093E+01 0. -1.
</event>
<event>
 5   0  0.4936000E-04  0.7001325E+03  0.7818609E-02  0.9717006E-01
        3   -1    0    0  501    0  0.00000000000E+00  0.00000000000E+00  0.82775141403E+03  0.82775142019E+03  0.10100000352E+00 0. -1.
       -3   -1    0    0    0  501  0.00000000000E+00  0.00000000000E+00 -0.14804730769E+03  0.14804734214E+03  0.10100000352E+00 0.  1.
    10030    2    1    2    0    0  0.00000000000E+00  0.00000000000E+00  0.67970410634E+03  0.97579876234E+03  0.70013252489E+03 0.  0.
        5    1    3    3  502    0  0.15301831875E+03 -0.65821444683E+01  0.77852730006E+03  0.79346378458E+03  0.46999998093E+01 0. -1.
       -5    1    3    3    0  502 -0.15301831875E+03  0.65821444683E+01 -0.98823193723E+02  0.18233497776E+03  0.46999998093E+01 0.  1.
</event>
<event>
 5   0  0.4936000E-04  0.7008115E+03  0.7818609E-02  0.9715845E-01
        3   -1    0    0  501    0  0.00000000000E+00  0.00000000000E+00  0.25706845309E+03  0.25706847293E+03  0.10100000352E+00 0.  1.
       -3   -1    0    0    0  501  0.00000000000E+00  0.00000000000E+00 -0.47763217864E+03  0.47763218931E+03  0.10100000352E+00 0. -1.
    10030    2    1    2    0    0  0.00000000000E+00  0.00000000000E+00 -0.22056372555E+03  0.73470066224E+03  0.70081146257E+03 0.  0.
        5    1    3    3  502    0  0.25422354757E+02 -0.30728988847E+03  0.64163983950E+02  0.31498012399E+03  0.46999998093E+01 0.  1.
       -5    1    3    3    0  502 -0.25422354757E+02  0.30728988847E+03 -0.28472770950E+03  0.41972053825E+03  0.46999998093E+01 0. -1.
</event>
<event>
 5   0  0.7459843E-04  0.6998446E+03  0.7818609E-02  0.9717498E-01
       -1   -1    0    0    0  501  0.00000000000E+00  0.00000000000E+00  0.39728560941E+03  0.39728560944E+03  0.50400001928E-02 0.  1.
        1   -1    0    0  501    0  0.00000000000E+00  0.00000000000E+00 -0.30820548627E+03  0.30820548631E+03  0.50400001928E-02 0. -1.
    10030    2    1    2    0    0  0.00000000000E+00  0.00000000000E+00  0.89080123138E+02  0.70549109576E+03  0.69984456693E+03 0.  0.
        2    1    3    3  502    0 -0.27574714279E+03  0.94739302238E+02 -0.15049856786E+03  0.32811863872E+03  0.25500000920E-02 0. -1.
       -2    1    3    3    0  502  0.27574714279E+03 -0.94739302238E+02  0.23957869100E+03  0.37737245704E+03  0.25500000920E-02 0.  1.
</event>
<event>
 5   0  0.1222679E-03  0.6999375E+03  0.7818609E-02  0.9717339E-01
       -2   -1    0    0    0  501  0.00000000000E+00  0.00000000000E+00  0.19581135658E+03  0.19581135659E+03  0.25500000920E-02 0.  1.
        2   -1    0    0  501    0  0.00000000000E+00  0.00000000000E+00 -0.62549043576E+03  0.62549043576E+03  0.25500000920E-02 0. -1.
    10030    2    1    2    0    0  0.00000000000E+00  0.00000000000E+00 -0.42967907918E+03  0.82130179235E+03  0.69993751367E+03 0.  0.
        2    1    3    3  502    0 -0.12884822742E+03  0.70372024324E+02  0.15793034620E+03  0.21562950117E+03  0.25500000920E-02 0.  1.
       -2    1    3    3    0  502  0.12884822742E+03 -0.70372024324E+02 -0.58760942537E+03  0.60567229119E+03  0.25500000920E-02 0. -1.
</event>
<event>
 5   0  0.1224048E-03  0.7002614E+03  0.7818609E-02  0.9716785E-01
       -2   -1    0    0    0  501  0.00000000000E+00  0.00000000000E+00  0.64358608708E+02  0.64358608758E+02  0.25500000920E-02 0.  1.
        2   -1    0    0  501    0  0.00000000000E+00  0.00000000000E+00 -0.19048189021E+04  0.19048189021E+04  0.25500000920E-02 0. -1.
    10030    2    1    2    0    0  0.00000000000E+00  0.00000000000E+00 -0.18404602934E+04  0.19691775109E+04  0.70026136387E+03 0.  0.
        3    1    3    3  502    0 -0.70041672216E+02  0.34297723348E+03 -0.94055994539E+03  0.10035896769E+04  0.10100000352E+00 0. -1.
       -3    1    3    3    0  502  0.70041672216E+02 -0.34297723348E+03 -0.89990034805E+03  0.96558783399E+03  0.10100000352E+00 0.  1.
</event>
<event>
 5   0  0.4936000E-04  0.6996767E+03  0.7818609E-02  0.9717785E-01
       -3   -1    0    0    0  501  0.00000000000E+00  0.00000000000E+00  0.44804793492E+03  0.44804794631E+03  0.10100000352E+00 0. -1.
        3   -1    0    0  501    0  0.00000000000E+00  0.00000000000E+00 -0.27315574539E+03  0.27315576406E+03  0.10100000352E+00 0.  1.
    10030    2    1    2    0    0  0.00000000000E+00  0.00000000000E+00  0.17489218954E+03  0.72120371037E+03  0.69967672098E+03 0.  0.
        2    1    3    3  502    0  0.12598633345E+03  0.25374590215E+03  0.29901047177E+03  0.41190630161E+03  0.25500000920E-02 0. -1.
       -2    1    3    3    0  502 -0.12598633345E+03 -0.25374590215E+03 -0.12411828223E+03  0.30929740875E+03  0.25500000920E-02 0.  1.
</event>
<event>
 5   0  0.1265562E-03  0.6995335E+03  0.7818609E-02  0.9718030E-01
        2   -1    0    0  501    0  0.00000000000E+00  0.00000000000E+00  0.15318780448E+04  0.15318780448E+04  0.25500000920E-02 0.  1.
       -2   -1    0    0    0  501  0.00000000000E+00  0.00000000000E+00 -0.79860647416E+02  0.79860647457E+02  0.25500000920E-02 0. -1.
    10030    2    1    2    0    0  0.00000000000E+00  0.00000000000E+00  0.14520173974E+04  0.16117386922E+04  0.69953348012E+03 0.  0.
        1    1    3    3  502    0  0.18960944758E+03 -0.17038814009E+03  0.12777860396E+04  0.13029662405E+04  0.50400001928E-02 0.  1.
       -1    1    3    3    0  502 -0.18960944758E+03  0.17038814009E+03  0.17423135779E+03  0.30877245175E+03  0.50400001928E-02 0. -1.
</event>
<event>
 5   0  0.1243087E-03  0.6999951E+03  0.7818609E-02  0.9717241E-01
       -2   -1    0    0    0  501  0.00000000000E+00  0.00000000000E+00  0.80175087409E+02  0.80175087449E+02  0.25500000920E-02 0. -1.
        2   -1    0    0  501    0  0.00000000000E+00  0.00000000000E+00 -0.15278847379E+04  0.15278847379E+04  0.25500000920E-02 0.  1.
    10030    2    1    2    0    0  0.00000000000E+00  0.00000000000E+00 -0.14477096505E+04  0.16080598254E+04  0.69999512126E+03 0.  0.
        4    1    3    3  502    0 -0.91307429676E+02  0.24467463757E+03 -0.18857247169E+03  0.32212406766E+03  0.12699999809E+01 0. -1.
       -4    1    3    3    0  502  0.91307429676E+02 -0.24467463757E+03 -0.12591371788E+04  0.12859357577E+04  0.12699999809E+01 0.  1.
</event>
<event>
 5   0  0.7570633E-04  0.7002270E+03  0.7818609E-02  0.9716844E-01
        1   -1    0    0  501    0  0.00000000000E+00  0.00000000000E+00  0.47780132584E+03  0.47780132587E+03  0.50400001928E-02 0.  1.
       -1   -1    0    0    0  501  0.00000000000E+00  0.00000000000E+00 -0.25654898837E+03  0.25654898842E+03  0.50400001928E-02 0. -1.
    10030    2    1    2    0    0  0.00000000000E+00  0.00000000000E+00  0.22125233747E+03  0.73435031428E+03  0.70022695410E+03 0.  0.
        5    1    3    3  502    0  0.13663535417E+03 -0.29128980769E+03 -0.34077489423E+02  0.32357740551E+03  0.46999998093E+01 0. -1.
       -5    1    3    3    0  502 -0.13663535417E+03  0.29128980769E+03  0.25532982690E+03  0.41077290877E+03  0.46999998093E+01 0.  1.
</event>
<event>
 5   0  0.7459843E-04  0.6990603E+03  0.7818609E-02  0.9718841E-01
       -1   -1    0    0    0  501  0.00000000000E+00  0.00000000000E+00  0.79801928340E+02  0.79801928499E+02  0.50400001928E-02 0.  1.
        1   -1    0    0  501    0  0.00000000000E+00  0.00000000000E+00 -0.15309319519E+04  0.15309319519E+04  0.50400001928E-02 0. -1.
    10030    2    1    2    0    0  0.00000000000E+00  0.00000000000E+00 -0.14511300236E+04  0.16107338804E+04  0.69906028940E+03 0.  0.
        2    1    3    3  502    0 -0.23825769583E+03 -0.10600141416E+03 -0.12618328292E+04  0.12884972325E+04  0.25500000920E-02 0. -1.
       -2    1    3    3    0  502  0.23825769583E+03  0.10600141416E+03 -0.18929719437E+03  0.32223664787E+03  0.25500000920E-02 0.  1.
</event>
<event>
 5   0  0.7570633E-04  0.6999722E+03  0.7818609E-02  0.9717280E-01
       -1   -1    0    0    0  501  0.00000000000E+00  0.00000000000E+00  0.28686554325E+03  0.28686554330E+03  0.50400001928E-02 0.  1.
        1   -1    0    0  501    0  0.00000000000E+00  0.00000000000E+00 -0.42699544772E+03  0.42699544775E+03  0.50400001928E-02 0. -1.
    10030    2    1    2    0    0  0.00000000000E+00  0.00000000000E+00 -0.14012990447E+03  0.71386099104E+03  0.69997223117E+03 0.  0.
        5    1    3    3  502    0  0.31620994561E+03 -0.49648936826E+02 -0.21434444583E+03  0.38525235637E+03  0.46999998093E+01 0. -1.
       -5    1    3    3    0  502 -0.31620994561E+03  0.49648936826E+02  0.74214541363E+02  0.32860863467E+03  0.46999998093E+01 0.  1.
</event>
<event>
 5   0  0.1224048E-03  0.6999476E+03  0.7818609E-02  0.9717322E-01
       -2   -1    0    0    0  501  0.00000000000E+00  0.00000000000E+00  0.12190285275E+03  0.12190285277E+03  0.25500000920E-02 0.  1.
        2   -1    0    0  501    0  0.00000000000E+00  0.00000000000E+00 -0.10047480915E+04  0.10047480915E+04  0.25500000920E-02 0. -1.
    10030    2    1    2    0    0  0.00000000000E+00  0.00000000000E+00 -0.88284523878E+03  0.11266509443E+04  0.69994759422E+03 0.  0.
        3    1    3    3  502    0 -0.20887573455E+03  0.60599626496E+02 -0.80094611399E-01  0.21748885910E+03  0.10100000352E+00 0.  1.
       -3    1    3    3    0  502  0.20887573455E+03 -0.60599626496E+02 -0.88276514417E+03  0.90916208520E+03  0.10100000352E+00 0. -1.
</event>
<event>
 5   0  0.1222679E-03  0.7000402E+03  0.7818609E-02  0.9717163E-01
       -2   -1    0    0    0  501  0.00000000000E+00  0.00000000000E+00  0.75681235557E+03  0.75681235558E+03  0.25500000920E-02 0.  1.
        2   -1    0    0  501    0  0.00000000000E+00  0.00000000000E+00 -0.16188170489E+03  0.16188170491E+03  0.25500000920E-02 0. -1.
    10030    2    1    2    0    0  0.00000000000E+00  0.00000000000E+00  0.59493065068E+03  0.91869406048E+03  0.70004021145E+03 0.  0.
        2    1    3    3  502    0 -0.19598491684E+03 -0.14871685862E+02 -0.82622913855E+02  0.21320835014E+03  0.25500000920E-02 0. -1.
       -2    1    3    3    0  502  0.19598491684E+03  0.14871685862E+02  0.67755356454E+03  0.70548571034E+03  0.25500000920E-02 0.  1.
</event>
<event>
 5   0  0.1282546E-03  0.6997666E+03  0.7818609E-02  0.9717631E-01
        2   -1    0    0  501    0  0.00000000000E+00  0.00000000000E+00  0.60156264230E+03  0.60156264231E+03  0.25500000920E-02 0.  1.
       -2   -1    0    0    0  501  0.00000000000E+00  0.00000000000E+00 -0.20350054150E+03  0.20350054152E+03  0.25500000920E-02 0. -1.
    10030    2    1    2    0    0  0.00000000000E+00  0.00000000000E+00  0.39806210080E+03  0.80506318383E+03  0.69976659956E+03 0.  0.
        5    1    3    3  502    0 -0.83626733970E+02  0.20811118676E+03  0.50793389733E+03  0.55526807106E+03  0.46999998093E+01 0.  1.
       -5    1    3    3    0  502  0.83626733970E+02 -0.20811118676E+03 -0.10987179653E+03  0.24979511276E+03  0.46999998093E+01 0. -1.
</event>
<event>
 5   0  0.7572415E-04  0.6997782E+03  0.7818609E-02  0.9717612E-01
       -1   -1    0    0    0  501  0.00000000000E+00  0.00000000000E+00  0.11112647111E+04  0.11112647111E+04  0.50400001928E-02 0.  1.
        1   -1    0    0  501    0  0.00000000000E+00  0.00000000000E+00 -0.11016490706E+03  0.11016490718E+03  0.50400001928E-02 0. -1.
    10030    2    1    2    0    0  0.00000000000E+00  0.00000000000E+00  0.10010998040E+04  0.12214296183E+04  0.69977817541E+03 0.  0.
        4    1    3    3  502    0 -0.23848630382E+02  0.31779936350E+03  0.75261868602E+03  0.81731370480E+03  0.12699999809E+01 0.  1.
       -4    1    3    3    0  502  0.23848630382E+02 -0.31779936350E+03  0.24848111801E+03  0.40411591347E+03  0.12699999809E+01 0. -1.
</event>
<event>
 5   0  0.7013526E-04  0.7012175E+03  0.7818609E-02  0.9715152E-01
        1   -1    0    0  501    0  0.00000000000E+00  0.00000000000E+00  0.14778596237E+04  0.14778596237E+04  0.50400001928E-02 0. -1.
       -1   -1    0    0    0  501  0.00000000000E+00  0.00000000000E+00 -0.83178734923E+02  0.83178735076E+02  0.50400001928E-02 0.  1.
    10030    2    1    2    0    0  0.00000000000E+00  0.00000000000E+00  0.13946808888E+04  0.15610383588E+04  0.70121749555E+03 0.  0.
        1    1    3    3  502    0 -0.12998703869E+03 -0.16596021734E+03  0.13210176765E+04  0.13377320829E+04  0.50400001928E-02 0. -1.
       -1    1    3    3    0  502  0.12998703869E+03  0.16596021734E+03  0.73663212236E+02  0.22330627584E+03  0.50400001928E-02 0.  1.
</event>
<event>
 5   0  0.1222679E-03  0.7003565E+03  0.7818609E-02  0.9716623E-01
       -2   -1    0    0    0  501  0.00000000000E+00  0.00000000000E+00  0.10084005851E+04  0.10084005851E+04  0.25500000920E-02 0. -1.
        2   -1    0    0  501    0  0.00000000000E+00  0.00000000000E+00 -0.12160326034E+03  0.12160326037E+03  0.25500000920E-02 0.  1.
    10030    2    1    2    0    0  0.00000000000E+00  0.00000000000E+00  0.88679732475E+03  0.11300038455E+04  0.70035647749E+03 0.  0.
        2    1    3    3  502    0 -0.22917296921E+03  0.29860736372E+02  0.86787574654E+03  0.89812038438E+03  0.25500000920E-02 0. -1.
       -2    1    3    3    0  502  0.22917296921E+03 -0.29860736372E+02  0.18921578213E+02  0.23188346108E+03  0.25500000920E-02 0.  1.
</event>
<event>
 5   0  0.7570633E-04  0.7001022E+03  0.7818609E-02  0.9717057E-01
       -1   -1    0    0    0  501  0.00000000000E+00  0.00000000000E+00  0.47239050422E+03  0.47239050424E+03  0.50400001928E-02 0.  1.
        1   -1    0    0  501    0  0.00000000000E+00  0.00000000000E+00 -0.25939509150E+03  0.25939509155E+03  0.50400001928E-02 0. -1.
    10030    2    1    2    0    0  0.00000000000E+00  0.00000000000E+00  0.21299541272E+03  0.73178559579E+03  0.70010221566E+03 0.  0.
        5    1    3    3  502    0  0.17798805125E+03 -0.27293063584E+03 -0.27126693243E+02  0.32699973372E+03  0.46999998093E+01 0. -1.
       -5    1    3    3    0  502 -0.17798805125E+03  0.27293063584E+03  0.24012210596E+03  0.40478586207E+03  0.46999998093E+01 0.  1.
</event>
<event>
 5   0  0.7572415E-04  0.7013803E+03  0.7818609E-02  0.9714875E-01
        1   -1    0    0  501    0  0.00000000000E+00  0.00000000000E+00  0.11023516474E+04  0.11023516474E+04  0.50400001928E-02 0.  1.
       -1   -1    0    0    0  501  0.00000000000E+00  0.00000000000E+00 -0.11156474363E+03  0.11156474374E+03  0.50400001928E-02 0. -1.
    10030    2    1    2    0    0  0.00000000000E+00  0.00000000000E+00  0.99078690377E+03  0.12139163912E+04  0.70138029343E+03 0.  0.
        4    1    3    3  502    0 -0.26233456711E+03 -0.35503672181E+02  0.97312510225E+02  0.28204835293E+03  0.12699999809E+01 0. -1.
       -4    1    3    3    0  502  0.26233456711E+03  0.35503672181E+02  0.89347439355E+03  0.93186803823E+03  0.12699999809E+01 0.  1.
</event>
<event>
 5   0  0.1243087E-03  0.7001333E+03  0.7818609E-02  0.9717004E-01
       -2   -1    0    0    0  501  0.00000000000E+00  0.00000000000E+00  0.22487996372E+03  0.22487996374E+03  0.25500000920E-02 0. -1.
        2   -1    0    0  501    0  0.00000000000E+00  0.00000000000E+00 -0.54494255204E+03  0.54494255205E+03  0.25500000920E-02 0.  1.
    10030    2    1    2    0    0  0.00000000000E+00  0.00000000000E+00 -0.32006258832E+03  0.76982251578E+03  0.70013330542E+03 0.  0.
        4    1    3    3  502    0 -0.25846173615E+03  0.70986537133E+02  0.87556255883E+02  0.28197387885E+03  0.12699999809E+01 0. -1.
       -4    1    3    3    0  502  0.25846173615E+03 -0.70986537133E+02 -0.40761884420E+03  0.48784863693E+03  0.12699999809E+01 0.  1.
</event>
<event>
 5   0  0.7570633E-04  0.6998184E+03  0.7818609E-02  0.9717543E-01
       -1   -1    0    0    0  501  0.00000000000E+00  0.00000000000E+00  0.16195269710E+03  0.16195269718E+03  0.50400001928E-02 0. -1.
        1   -1    0    0  501    0  0.00000000000E+00  0.00000000000E+00 -0.75600132313E+03  0.75600132314E+03  0.50400001928E-02 0.  1.
    10030    2    1    2    0    0  0.00000000000E+00  0.00000000000E+00 -0.59404862603E+03  0.91795402032E+03  0.69981841454E+03 0.  0.
        5    1    3    3  502    0 -0.91842559284E+02  0.23039089090E+03  0.26675071122E+02  0.24949682909E+03  0.46999998093E+01 0. -1.
       -5    1    3    3    0  502  0.91842559284E+02 -0.23039089090E+03 -0.62072369715E+03  0.66845719123E+03  0.46999998093E+01 0.  1.
</event>
<event>
 5   0  0.1282546E-03  0.6959337E+03  0.7818609E-02  0.9724211E-01
        2   -1    0    0  501    0  0.00000000000E+00  0.00000000000E+00  0.11265849633E+04  0.11265849633E+04  0.25500000920E-02 0.  1.
       -2   -1    0    0    0  501  0.00000000000E+00  0.00000000000E+00 -0.10747607520E+03  0.10747607523E+03  0.25500000920E-02 0. -1.
    10030    2    1    2    0    0  0.00000000000E+00  0.00000000000E+00  0.10191088881E+04  0.12340610385E+04  0.69593370445E+03 0.  0.
        5    1    3    3  502    0  0.12378070426E+03  0.17547153947E+00  0.10861649677E+04  0.10932054339E+04  0.46999998093E+01 0.  1.
       -5    1    3    3    0  502 -0.12378070426E+03 -0.17547153947E+00 -0.67056079650E+02  0.14085560463E+03  0.46999998093E+01 0. -1.
</event>
<event>
 5   0  0.1265562E-03  0.7006493E+03  0.7818609E-02  0.9716122E-01
       -2   -1    0    0    0  501  0.00000000000E+00  0.00000000000E+00  0.11378469352E+03  0.11378469355E+03  0.25500000920E-02 0. -1.
        2   -1    0    0  501    0  0.00000000000E+00  0.00000000000E+00 -0.10785928692E+04  0.10785928692E+04  0.25500000920E-02 0.  1.
    10030    2    1    2    0    0  0.00000000000E+00  0.00000000000E+00 -0.96480817564E+03  0.11923775627E+04  0.70064929622E+03 0.  0.
        1    1    3    3  502    0  0.23005956904E+03 -0.25672236696E+03 -0.58859507516E+03  0.68211285102E+03  0.50400001928E-02 0.  1.
       -1    1    3    3    0  502 -0.23005956904E+03  0.25672236696E+03 -0.37621310048E+03  0.51026471170E+03  0.50400001928E-02 0. -1.
</event>
<event>
 5   0  0.7013526E-04  0.7004551E+03  0.7818609E-02  0.9716454E-01
       -1   -1    0    0    0  501  0.00000000000E+00  0.00000000000E+00  0.45489108493E+03  0.45489108496E+03  0.50400001928E-02 0. -1.
        1   -1    0    0  501    0  0.00000000000E+00  0.00000000000E+00 -0.26964547693E+03  0.26964547697E+03  0.50400001928E-02 0.  1.
    10030    2    1    2    0    0  0.00000000000E+00  0.00000000000E+00  0.18524560801E+03  0.72453656193E+03  0.70045506229E+03 0.  0.
        1    1    3    3  502    0 -0.23499308367E+03  0.23833770649E+03 -0.14037311517E+02  0.33499799678E+03  0.50400001928E-02 0. -1.
       -1    1    3    3    0  502  0.23499308367E+03 -0.23833770649E+03  0.19928291952E+03  0.38953856516E+03  0.50400001928E-02 0.  1.
</event>
<event>
 5   0  0.4936000E-04  0.6999839E+03  0.7818609E-02  0.9717260E-01
       -3   -1    0    0    0  501  0.00000000000E+00  0.00000000000E+00  0.13309078453E+03  0.13309082285E+03  0.10100000352E+00 0. -1.
        3   -1    0    0  501    0  0.00000000000E+00  0.00000000000E+00 -0.92038177215E+03  0.92038177769E+03  0.10100000352E+00 0.  1.
    10030    2    1    2    0    0  0.00000000000E+00  0.00000000000E+00 -0.78729098761E+03  0.10534726005E+04  0.69998387189E+03 0.  0.
        4    1    3    3  502    0 -0.85530670266E+02  0.23758527954E+03 -0.75837171952E+03  0.79930691132E+03  0.12699999809E+01 0.  1.
       -4    1    3    3    0  502  0.85530670266E+02 -0.23758527954E+03 -0.28919268096E+02  0.25416568923E+03  0.12699999809E+01 0. -1.
</event>
<event>
 5   0  0.7459843E-04  0.6996849E+03  0.7818609E-02  0.9717771E-01
        1   -1    0    0  501    0  0.00000000000E+00  0.00000000000E+00  0.27046712373E+04  0.27046712373E+04  0.50400001928E-02 0. -1.
       -1   -1    0    0    0  501  0.00000000000E+00  0.00000000000E+00 -0.45251247206E+02  0.45251247487E+02  0.50400001928E-02 0.  1.
    10030    2    1    2    0    0  0.00000000000E+00  0.00000000000E+00  0.26594199901E+04  0.27499224848E+04  0.69968492098E+03 0.  0.
        2    1    3    3  502    0 -0.33556781602E+03 -0.97679942194E+02  0.13909278995E+04  0.14341644090E+04  0.25500000920E-02 0.  1.
       -2    1    3    3    0  502  0.33556781602E+03  0.97679942194E+02  0.12684920905E+04  0.13157580758E+04  0.25500000920E-02 0. -1.
</event>
<event>
 5   0  0.7572415E-04  0.6999586E+03  0.7818609E-02  0.9717303E-01
       -1   -1    0    0    0  501  0.00000000000E+00  0.00000000000E+00  0.70622457030E+03  0.70622457032E+03  0.50400001928E-02 0. -1.
        1   -1    0    0  501    0  0.00000000000E+00  0.00000000000E+00 -0.17343707686E+03  0.17343707693E+03  0.50400001928E-02 0.  1.
    10030    2    1    2    0    0  0.00000000000E+00  0.00000000000E+00  0.53278749344E+03  0.87966164725E+03  0.69995864197E+03 0.  0.
        4    1    3    3  502    0  0.70006643782E+02 -0.31274532449E+03  0.44311278487E+03  0.54686481070E+03  0.12699999809E+01 0. -1.
       -4    1    3    3    0  502 -0.70006643782E+02  0.31274532449E+03  0.89674708570E+02  0.33279683655E+03  0.12699999809E+01 0.  1.
</event>
<event>
 5   0  0.7572415E-04  0.7003001E+03  0.7818609E-02  0.9716719E-01
        1   -1    0    0  501    0  0.00000000000E+00  0.00000000000E+00  0.33016218170E+03  0.33016218173E+03  0.50400001928E-02 0. -1.
       -1   -1    0    0    0  501  0.00000000000E+00  0.00000000000E+00 -0.37134798114E+03  0.37134798117E+03  0.50400001928E-02 0.  1.
    10030    2    1    2    0    0  0.00000000000E+00  0.00000000000E+00 -0.41185799445E+02  0.70151016291E+03  0.70030010609E+03 0.  0.
        4    1    3    3  502    0 -0.79807640716E+02  0.10813312578E+03 -0.34448023068E+03  0.36977057027E+03  0.12699999809E+01 0.  1.
       -4    1    3    3    0  502  0.79807640716E+02 -0.10813312578E+03  0.30329443123E+03  0.33173959264E+03  0.12699999809E+01 0. -1.
</event>
<event>
 5   0  0.7013526E-04  0.7008974E+03  0.7818609E-02  0.9715699E-01
        1   -1    0    0  501    0  0.00000000000E+00  0.00000000000E+00  0.16488927839E+04  0.16488927840E+04  0.50400001928E-02 0. -1.
       -1   -1    0    0    0  501  0.00000000000E+00  0.00000000000E+00 -0.74482876118E+02  0.74482876289E+02  0.50400001928E-02 0.  1.
    10030    2    1    2    0    0  0.00000000000E+00  0.00000000000E+00  0.15744099078E+04  0.17233756602E+04  0.70089735942E+03 0.  0.
        1    1    3    3  502    0  0.28676977526E+03  0.18444812831E+03  0.98629688076E+03  0.10435705789E+04  0.50400001928E-02 0. -1.
       -1    1    3    3    0  502 -0.28676977526E+03 -0.18444812831E+03  0.58811302707E+03  0.67980508138E+03  0.50400001928E-02 0.  1.
</event>
<event>
 5   0  0.1282546E-03  0.6999840E+03  0.7818609E-02  0.9717260E-01
       -2   -1    0    0    0  501  0.00000000000E+00  0.00000000000E+00  0.74334690726E+02  0.74334690770E+02  0.25500000920E-02 0.  1.
        2   -1    0    0  501    0  0.00000000000E+00  0.00000000000E+00 -0.16478766195E+04  0.16478766195E+04  0.25500000920E-02 0. -1.
    10030    2    1    2    0    0  0.00000000000E+00  0.00000000000E+00 -0.15735419288E+04  0.17222113103E+04  0.69998399669E+03 0.  0.
        5    1    3    3  502    0  0.11523702778E+03 -0.12639341037E+03 -0.35585947577E+02  0.17476646251E+03  0.46999998093E+01 0.  1.
       -5    1    3    3    0  502 -0.11523702778E+03  0.12639341037E+03 -0.15379559812E+04  0.15474448478E+04  0.46999998093E+01 0. -1.
</event>
<event>
 5   0  0.1222679E-03  0.7001077E+03  0.7818609E-02  0.9717048E-01
       -2   -1    0    0    0  501  0.00000000000E+00  0.00000000000E+00  0.31565675933E+03  0.31565675934E+03  0.25500000920E-02 0.  1.
        2   -1    0    0  501    0  0.00000000000E+00  0.00000000000E+00 -0.38819922136E+03  0.38819922137E+03  0.25500000920E-02 0. -1.
    10030    2    1    2    0    0  0.00000000000E+00  0.00000000000E+00 -0.72542462037E+02  0.70385598071E+03  0.70010772941E+03 0.  0.
        2    1    3    3  502    0 -0.54620073073E+02 -0.24867517937E+03  0.20525445484E+03  0.32703530154E+03  0.25500000920E-02 0.  1.
       -2    1    3    3    0  502  0.54620073073E+02  0.24867517937E+03 -0.27779691687E+03  0.37682067917E+03  0.25500000920E-02 0. -1.
</event>
<event>
 5   0  0.7459843E-04  0.6999271E+03  0.7818609E-02  0.9717357E-01
       -1   -1    0    0    0  501  0.00000000000E+00  0.00000000000E+00  0.23142325687E+03  0.23142325693E+03  0.50400001928E-02 0. -1.
        1   -1    0    0  501    0  0.00000000000E+00  0.00000000000E+00 -0.52922285839E+03  0.52922285841E+03  0.50400001928E-02 0.  1.
    10030    2    1    2    0    0  0.00000000000E+00  0.00000000000E+00 -0.29779960152E+03  0.76064611534E+03  0.69992707486E+03 0.  0.
        2    1    3    3  502    0 -0.27107844601E+03  0.67281882749E+01  0.91529317771E+02  0.28619295663E+03  0.25500000920E-02 0. -1.
       -2    1    3    3    0  502  0.27107844601E+03 -0.67281882749E+01 -0.38932891929E+03  0.47445315871E+03  0.25500000920E-02 0.  1.
</event>
<event>
 5   0  0.7572415E-04  0.6999140E+03  0.7818609E-02  0.9717379E-01
       -1   -1    0    0    0  501  0.00000000000E+00  0.00000000000E+00  0.77510596959E+03  0.77510596961E+03  0.50400001928E-02 0. -1.
        1   -1    0    0  501    0  0.00000000000E+00  0.00000000000E+00 -0.15800408349E+03  0.15800408357E+03  0.50400001928E-02 0.  1.
    10030    2    1    2    0    0  0.00000000000E+00  0.00000000000E+00  0.61710188610E+03  0.93311005318E+03  0.69991401866E+03 0.  0.
        4    1    3    3  502    0  0.19895585062E+03  0.22390668212E+03  0.54981810875E+03  0.62611436528E+03  0.12699999809E+01 0. -1.
       -4    1    3    3    0  502 -0.19895585062E+03 -0.22390668212E+03  0.67283777349E+02  0.30699568790E+03  0.12699999809E+01 0.  1.
</event>
<event>
 5   0  0.7013526E-04  0.7052944E+03  0.7818609E-02  0.9708221E-01
        1   -1    0    0  501    0  0.00000000000E+00  0.00000000000E+00  0.19968278989E+03  0.19968278996E+03  0.50400001928E-02 0.  1.
       -1   -1    0    0    0  501  0.00000000000E+00  0.00000000000E+00 -0.62278808393E+03  0.62278808395E+03  0.50400001928E-02 0. -1.
    10030    2    1    2    0    0  0.00000000000E+00  0.00000000000E+00 -0.42310529404E+03  0.82247087391E+03  0.70529444106E+03 0.  0.
        1    1    3    3  502    0  0.26866957943E+03  0.57197132846E+02  0.46333265124E+02  0.27857068475E+03  0.50400001928E-02 0.  1.
       -1    1    3    3    0  502 -0.26866957943E+03 -0.57197132846E+02 -0.46943855916E+03  0.54390018916E+03  0.50400001928E-02 0. -1.
</event>
<event>
 5   0  0.7013526E-04  0.7001390E+03  0.7818609E-02  0.9716994E-01
       -1   -1    0    0    0  501  0.00000000000E+00  0.00000000000E+00  0.27996932888E+03  0.27996932892E+03  0.50400001928E-02 0.  1.
        1   -1    0    0  501    0  0.00000000000E+00  0.00000000000E+00 -0.43772173521E+03  0.43772173523E+03  0.50400001928E-02 0. -1.
    10030    2    1    2    0    0  0.00000000000E+00  0.00000000000E+00 -0.15775240633E+03  0.71769106416E+03  0.70013901610E+03 0.  0.
        1    1    3    3  502    0 -0.24455964787E+03  0.12432345801E+03 -0.30177380150E+03  0.40783963868E+03  0.50400001928E-02 0. -1.
       -1    1    3    3    0  502  0.24455964787E+03 -0.12432345801E+03  0.14402139517E+03  0.30985142548E+03  0.50400001928E-02 0.  1.
</event>
<event>
 5   0  0.7459843E-04  0.6997995E+03  0.7818609E-02  0.9717575E-01
       -1   -1    0    0    0  501  0.00000000000E+00  0.00000000000E+00  0.93332196451E+02  0.93332196587E+02  0.50400001928E-02 0. -1.
        1   -1    0    0  501    0  0.00000000000E+00  0.00000000000E+00 -0.13117640316E+04  0.13117640316E+04  0.50400001928E-02 0.  1.
    10030    2    1    2    0    0  0.00000000000E+00  0.00000000000E+00 -0.12184318351E+04  0.14050962282E+04  0.69979945241E+03 0.  0.
        2    1    3    3  502    0 -0.74010587898E+02  0.17220232040E+03 -0.15968113528E+02  0.18811216581E+03  0.25500000920E-02 0. -1.
       -2    1    3    3    0  502  0.74010587898E+02 -0.17220232040E+03 -0.12024637216E+04  0.12169840624E+04  0.25500000920E-02 0.  1.
</event>
<event>
 5   0  0.7572415E-04  0.7000430E+03  0.7818609E-02  0.9717159E-01
        1   -1    0    0  501    0  0.00000000000E+00  0.00000000000E+00  0.36416862605E+03  0.36416862608E+03  0.50400001928E-02 0. -1.
       -1   -1    0    0    0  501  0.00000000000E+00  0.00000000000E+00 -0.33642394000E+03  0.33642394004E+03  0.50400001928E-02 0.  1.
    10030    2    1    2    0    0  0.00000000000E+00  0.00000000000E+00  0.27744686044E+02  0.70059256612E+03  0.70004298161E+03 0.  0.
        4    1    3    3  502    0 -0.18766524938E+03  0.29459584862E+03  0.36439353475E+02  0.35118997598E+03  0.12699999809E+01 0.  1.
       -4    1    3    3    0  502  0.18766524938E+03 -0.29459584862E+03 -0.86946674313E+01  0.34940259013E+03  0.12699999809E+01 0. -1.
</event>
<event>
 5   0  0.7574241E-04  0.7001402E+03  0.7818609E-02  0.9716992E-01
       -1   -1    0    0    0  501  0.00000000000E+00  0.00000000000E+00  0.12348342541E+03  0.12348342551E+03  0.50400001928E-02 0.  1.
        1   -1    0    0  501    0  0.00000000000E+00  0.00000000000E+00 -0.99243343565E+03  0.99243343566E+03  0.50400001928E-02 0. -1.
    10030    2    1    2    0    0  0.00000000000E+00  0.00000000000E+00 -0.86895001024E+03  0.11159168612E+04  0.70014021506E+03 0.  0.
        3    1    3    3  502    0 -0.27542267042E+02 -0.15737749750E+03 -0.93093442513E+03  0.94454495250E+03  0.10100000352E+00 0. -1.
       -3    1    3    3    0  502  0.27542267042E+02  0.15737749750E+03  0.61984414887E+02  0.17137190867E+03  0.10100000352E+00 0.  1.
</event>
<event>
 5   0  0.1222679E-03  0.7002100E+03  0.7818609E-02  0.9716873E-01
        2   -1    0    0  501    0  0.00000000000E+00  0.00000000000E+00  0.93719516351E+03  0.93719516352E+03  0.25500000920E-02 0.  1.
       -2   -1    0    0    0  501  0.00000000000E+00  0.00000000000E+00 -0.13078758876E+03  0.13078758878E+03  0.25500000920E-02 0. -1.
    10030    2    1    2    0    0  0.00000000000E+00  0.00000000000E+00  0.80640757476E+03  0.10679827523E+04  0.70020995608E+03 0.  0.
        2    1    3    3  502    0 -0.13755158280E+02  0.88124800052E+02 -0.11316853908E+03  0.14409130094E+03  0.25500000920E-02 0. -1.
       -2    1    3    3    0  502  0.13755158280E+02 -0.88124800052E+02  0.91957611383E+03  0.92389145136E+03  0.25500000920E-02 0.  1.
</event>
<event>
 5   0  0.7570633E-04  0.6994812E+03  0.7818609E-02  0.9718120E-01
       -1   -1    0    0    0  501  0.00000000000E+00  0.00000000000E+00  0.99280101983E+03  0.99280101984E+03  0.50400001928E-02 0. -1.
        1   -1    0    0  501    0  0.00000000000E+00  0.00000000000E+00 -0.12320543819E+03  0.12320543829E+03  0.50400001928E-02 0.  1.
    10030    2    1    2    0    0  0.00000000000E+00  0.00000000000E+00  0.86959558164E+03  0.11160064581E+04  0.69948119273E+03 0.  0.
        5    1    3    3  502    0  0.34548049300E+03 -0.33924353181E+02  0.36731905428E+03  0.50542359503E+03  0.46999998093E+01 0. -1.
       -5    1    3    3    0  502 -0.34548049300E+03  0.33924353181E+02  0.50227652737E+03  0.61058286311E+03  0.46999998093E+01 0.  1.
</event>
<event>
 5   0  0.1265562E-03  0.6998982E+03  0.7818609E-02  0.9717406E-01
        2   -1    0    0  501    0  0.00000000000E+00  0.00000000000E+00  0.10115209468E+04  0.10115209468E+04  0.25500000920E-02 0. -1.
       -2   -1    0    0    0  501  0.00000000000E+00  0.00000000000E+00 -0.12106953817E+03  0.12106953820E+03  0.25500000920E-02 0.  1.
    10030    2    1    2    0    0  0.00000000000E+00  0.00000000000E+00  0.89045140863E+03  0.11325904850E+04  0.69989820374E+03 0.  0.
        1    1    3    3  502    0 -0.10011879425E+03  0.19550638869E+03  0.88607710291E+03  0.91289602547E+03  0.50400001928E-02 0. -1.
       -1    1    3    3    0  502  0.10011879425E+03 -0.19550638869E+03  0.43743057219E+01  0.21969445955E+03  0.50400001928E-02 0.  1.
</event>
<event>
 5   0  0.7574241E-04  0.7002296E+03  0.7818609E-02  0.9716840E-01
        1   -1    0    0  501    0  0.00000000000E+00  0.00000000000E+00  0.15129573713E+03  0.15129573722E+03  0.50400001928E-02 0. -1.
       -1   -1    0    0    0  501  0.00000000000E+00  0.00000000000E+00 -0.81020380933E+03  0.81020380935E+03  0.50400001928E-02 0.  1.
    10030    2    1    2    0    0  0.00000000000E+00  0.00000000000E+00 -0.65890807220E+03  0.96149954656E+03  0.70022962693E+03 0.  0.
        3    1    3    3  502    0 -0.11026640945E+02 -0.72825645370E+02 -0.79944489050E+03  0.80283080695E+03  0.10100000352E+00 0.  1.
       -3    1    3    3    0  502  0.11026640945E+02  0.72825645370E+02  0.14053681830E+03  0.15866873962E+03  0.10100000352E+00 0. -1.
</event>
<event>
 5   0  0.1265562E-03  0.6998708E+03  0.7818609E-02  0.9717453E-01
       -2   -1    0    0    0  501  0.00000000000E+00  0.00000000000E+00  0.10187111429E+03  0.10187111432E+03  0.25500000920E-02 0.  1.
        2   -1    0    0  501    0  0.00000000000E+00  0.00000000000E+00 -0.12020560891E+04  0.12020560891E+04  0.25500000920E-02 0. -1.
    10030    2    1    2    0    0  0.00000000000E+00  0.00000000000E+00 -0.11001849748E+04  0.13039272034E+04  0.69987082595E+03 0.  0.
        1    1    3    3  502    0 -0.90169704935E+02  0.11968986869E+03 -0.11392512117E+04  0.11490646474E+04  0.50400001928E-02 0. -1.
       -1    1    3    3    0  502  0.90169704935E+02 -0.11968986869E+03  0.39066236986E+02  0.15486255600E+03  0.50400001928E-02 0.  1.
</event>
<event>
 5   0  0.7013526E-04  0.7000020E+03  0.7818609E-02  0.9717229E-01
        1   -1    0    0  501    0  0.00000000000E+00  0.00000000000E+00  0.69367051308E+03  0.69367051310E+03  0.50400001928E-02 0. -1.
       -1   -1    0    0    0  501  0.00000000000E+00  0.00000000000E+00 -0.17659783634E+03  0.17659783641E+03  0.50400001928E-02 0.  1.
    10030    2    1    2    0    0  0.00000000000E+00  0.00000000000E+00  0.51707267674E+03  0.87026834951E+03  0.70000203365E+03 0.  0.
        1    1    3    3  502    0 -0.19921092968E+03  0.28670152733E+03  0.28944150391E+03  0.45349657605E+03  0.50400001928E-02 0.  1.
       -1    1    3    3    0  502  0.19921092968E+03 -0.28670152733E+03  0.22763117283E+03  0.41677177346E+03  0.50400001928E-02 0. -1.
</event>
<event>
 5   0  0.1282546E-03  0.7005779E+03  0.7818609E-02  0.9716244E-01
       -2   -1    0    0    0  501  0.00000000000E+00  0.00000000000E+00  0.19816450435E+03  0.19816450437E+03  0.25500000920E-02 0. -1.
        2   -1    0    0  501    0  0.00000000000E+00  0.00000000000E+00 -0.61919447337E+03  0.61919447337E+03  0.25500000920E-02 0.  1.
    10030    2    1    2    0    0  0.00000000000E+00  0.00000000000E+00 -0.42102996902E+03  0.81735897774E+03  0.70057794975E+03 0.  0.
        5    1    3    3  502    0 -0.19249027137E+03 -0.15446229553E+03  0.79447797685E+02  0.25931669415E+03  0.46999998093E+01 0. -1.
       -5    1    3    3    0  502  0.19249027137E+03  0.15446229553E+03 -0.50047776670E+03  0.55804228359E+03  0.46999998093E+01 0.  1.
</event>
<event>
 5   0  0.7459843E-04  0.7014672E+03  0.7818609E-02  0.9714726E-01
       -1   -1    0    0    0  501  0.00000000000E+00  0.00000000000E+00  0.10210688358E+03  0.10210688370E+03  0.50400001928E-02 0. -1.
        1   -1    0    0  501    0  0.00000000000E+00  0.00000000000E+00 -0.12047576463E+04  0.12047576463E+04  0.50400001928E-02 0.  1.
    10030    2    1    2    0    0  0.00000000000E+00  0.00000000000E+00 -0.11026507627E+04  0.13068645300E+04  0.70146717333E+03 0.  0.
        2    1    3    3  502    0 -0.22646347967E+03  0.25713333236E+03 -0.41177364384E+03  0.53568721471E+03  0.25500000920E-02 0.  1.
       -2    1    3    3    0  502  0.22646347967E+03 -0.25713333236E+03 -0.69087711886E+03  0.77117731528E+03  0.25500000920E-02 0. -1.
</event>
<event>
 5   0  0.1224048E-03  0.6998960E+03  0.7818609E-02  0.9717410E-01
       -2   -1    0    0    0  501  0.00000000000E+00  0.00000000000E+00  0.96866976441E+02  0.96866976475E+02  0.25500000920E-02 0. -1.
        2   -1    0    0  501    0  0.00000000000E+00  0.00000000000E+00 -0.12642450831E+04  0.12642450831E+04  0.25500000920E-02 0.  1.
    10030    2    1    2    0    0  0.00000000000E+00  0.00000000000E+00 -0.11673781066E+04  0.13611120596E+04  0.69989598857E+03 0.  0.
        3    1    3    3  502    0  0.11688231255E+03  0.18341245110E+03 -0.50526668569E+02  0.22328133967E+03  0.10100000352E+00 0. -1.
       -3    1    3    3    0  502 -0.11688231255E+03 -0.18341245110E+03 -0.11168514381E+04  0.11378307199E+04  0.10100000352E+00 0.  1.
</event>
<event>
 5   0  0.1222679E-03  0.6998290E+03  0.7818609E-02  0.9717525E-01
        2   -1    0    0  501    0  0.00000000000E+00  0.00000000000E+00  0.15021975295E+04  0.15021975296E+04  0.25500000920E-02 0.  1.
       -2   -1    0    0    0  501  0.00000000000E+00  0.00000000000E+00 -0.81507357509E+02  0.81507357549E+02  0.25500000920E-02 0. -1.
    10030    2    1    2    0    0  0.00000000000E+00  0.00000000000E+00  0.14206901720E+04  0.15837048871E+04  0.69982898232E+03 0.  0.
        2    1    3    3  502    0  0.12129129947E+03  0.19847058781E+03  0.13019250509E+04  0.13225395993E+04  0.25500000920E-02 0.  1.
       -2    1    3    3    0  502 -0.12129129947E+03 -0.19847058781E+03  0.11876512116E+03  0.26116528782E+03  0.25500000920E-02 0. -1.
</event>
<event>
 5   0  0.4936000E-04  0.7001819E+03  0.7818609E-02  0.9716921E-01
        4   -1    0    0  501    0  0.00000000000E+00  0.00000000000E+00  0.64202097164E+03  0.64202222775E+03  0.12699999809E+01 0. -1.
       -4   -1    0    0    0  501  0.00000000000E+00  0.00000000000E+00 -0.19089933180E+03  0.19090355623E+03  0.12699999809E+01 0.  1.
    10030    2    1    2    0    0  0.00000000000E+00  0.00000000000E+00  0.45112163984E+03  0.83292578398E+03  0.70018185329E+03 0.  0.
        3    1    3    3  502    0 -0.34943518255E+02  0.17741493951E+03 -0.13104995191E+03  0.22331862960E+03  0.10100000352E+00 0.  1.
       -3    1    3    3    0  502  0.34943518255E+02 -0.17741493951E+03  0.58217159175E+03  0.60960715438E+03  0.10100000352E+00 0. -1.
</event>
<event>
 5   0  0.1282546E-03  0.6995362E+03  0.7818609E-02  0.9718026E-01
        2   -1    0    0  501    0  0.00000000000E+00  0.00000000000E+00  0.23917274912E+04  0.23917274912E+04  0.25500000920E-02 0. -1.
       -2   -1    0    0    0  501  0.00000000000E+00  0.00000000000E+00 -0.51150355861E+02  0.51150355925E+02  0.25500000920E-02 0.  1.
    10030    2    1    2    0    0  0.00000000000E+00  0.00000000000E+00  0.23405771353E+04  0.24428778471E+04  0.69953616740E+03 0.  0.
        5    1    3    3  502    0  0.79748779713E+02  0.95372591463E+02  0.28728407366E+02  0.12768402585E+03  0.46999998093E+01 0.  1.
       -5    1    3    3    0  502 -0.79748779713E+02 -0.95372591463E+02  0.23118487280E+04  0.23151938213E+04  0.46999998093E+01 0. -1.
</event>
<event>
 5   0  0.1282546E-03  0.6997287E+03  0.7818609E-02  0.9717696E-01
        2   -1    0    0  501    0  0.00000000000E+00  0.00000000000E+00  0.90282743239E+03  0.90282743239E+03  0.25500000920E-02 0.  1.
       -2   -1    0    0    0  501  0.00000000000E+00  0.00000000000E+00 -0.13557967917E+03  0.13557967919E+03  0.25500000920E-02 0. -1.
    10030    2    1    2    0    0  0.00000000000E+00  0.00000000000E+00  0.76724775322E+03  0.10384071116E+04  0.69972867210E+03 0.  0.
        5    1    3    3  502    0  0.20421200549E+03  0.14380083758E+03  0.74713684133E+03  0.78779234177E+03  0.46999998093E+01 0.  1.
       -5    1    3    3    0  502 -0.20421200549E+03 -0.14380083758E+03  0.20110911890E+02  0.25061476982E+03  0.46999998093E+01 0. -1.
</event>
<event>
 5   0  0.1224048E-03  0.7036421E+03  0.7818609E-02  0.9711024E-01
        2   -1    0    0  501    0  0.00000000000E+00  0.00000000000E+00  0.16656737913E+04  0.16656737913E+04  0.25500000920E-02 0.  1.
       -2   -1    0    0    0  501  0.00000000000E+00  0.00000000000E+00 -0.74311103702E+02  0.74311103746E+02  0.25500000920E-02 0. -1.
    10030    2    1    2    0    0  0.00000000000E+00  0.00000000000E+00  0.15913626876E+04  0.17399848950E+04  0.70364211891E+03 0.  0.
        3    1    3    3  502    0  0.17643289350E+03 -0.93234596882E+00  0.15483660821E+04  0.15583860143E+04  0.10100000352E+00 0.  1.
       -3    1    3    3    0  502 -0.17643289350E+03  0.93234596882E+00  0.42996605406E+02  0.18159888065E+03  0.10100000352E+00 0. -1.
</event>
<event>
 5   0  0.1265562E-03  0.6995544E+03  0.7818609E-02  0.9717994E-01
        2   -1    0    0  501    0  0.00000000000E+00  0.00000000000E+00  0.80828732744E+03  0.80828732744E+03  0.25500000920E-02 0.  1.
       -2   -1    0    0    0  501  0.00000000000E+00  0.00000000000E+00 -0.15136214225E+03  0.15136214227E+03  0.25500000920E-02 0. -1.
    10030    2    1    2    0    0  0.00000000000E+00  0.00000000000E+00  0.65692518519E+03  0.95964946971E+03  0.69955443375E+03 0.  0.
        1    1    3    3  502    0  0.32921796972E+03  0.66337648332E+02  0.46258338910E+03  0.57163672649E+03  0.50400001928E-02 0.  1.
       -1    1    3    3    0  502 -0.32921796972E+03 -0.66337648332E+02  0.19434179609E+03  0.38801274322E+03  0.50400001928E-02 0. -1.
</event>
<event>
 5   0  0.7570633E-04  0.6999328E+03  0.7818609E-02  0.9717347E-01
        1   -1    0    0  501    0  0.00000000000E+00  0.00000000000E+00  0.21243852709E+03  0.21243852715E+03  0.50400001928E-02 0. -1.
       -1   -1    0    0    0  501  0.00000000000E+00  0.00000000000E+00 -0.57652669653E+03  0.57652669656E+03  0.50400001928E-02 0.  1.
    10030    2    1    2    0    0  0.00000000000E+00  0.00000000000E+00 -0.36408816944E+03  0.78896522370E+03  0.69993280326E+03 0.  0.
        5    1    3    3  502    0 -0.39318189707E+02 -0.82807150262E+02 -0.56271694456E+03  0.57015383351E+03  0.46999998093E+01 0.  1.
       -5    1    3    3    0  502  0.39318189707E+02  0.82807150262E+02  0.19862877511E+03  0.21881139019E+03  0.46999998093E+01 0. -1.
</event>
<event>
 5   0  0.7013526E-04  0.7001293E+03  0.7818609E-02  0.9717011E-01
        1   -1    0    0  501    0  0.00000000000E+00  0.00000000000E+00  0.89380349240E+03  0.89380349241E+03  0.50400001928E-02 0. -1.
       -1   -1    0    0    0  501  0.00000000000E+00  0.00000000000E+00 -0.13710538188E+03  0.13710538198E+03  0.50400001928E-02 0.  1.
    10030    2    1    2    0    0  0.00000000000E+00  0.00000000000E+00  0.75669811052E+03  0.10309088744E+04  0.70012932865E+03 0.  0.
        1    1    3    3  502    0 -0.25051122494E+03 -0.37698275738E+02  0.73408707993E+03  0.77656994197E+03  0.50400001928E-02 0. -1.
       -1    1    3    3    0  502  0.25051122494E+03  0.37698275738E+02  0.22611030583E+02  0.25433893242E+03  0.50400001928E-02 0.  1.
</event>
<event>
 5   0  0.4936000E-04  0.7002272E+03  0.7818609E-02  0.9716844E-01
       -3   -1    0    0    0  501  0.00000000000E+00  0.00000000000E+00  0.91687605211E+02  0.91687660841E+02  0.10100000352E+00 0. -1.
        3   -1    0    0  501    0  0.00000000000E+00  0.00000000000E+00 -0.13369254855E+04  0.13369254893E+04  0.10100000352E+00 0.  1.
    10030    2    1    2    0    0  0.00000000000E+00  0.00000000000E+00 -0.12452378803E+04  0.14286131502E+04  0.70022721619E+03 0.  0.
        4    1    3    3  502    0 -0.34551331858E+03 -0.33680021310E+02 -0.52992656203E+03  0.63351209238E+03  0.12699999809E+01 0. -1.
       -4    1    3    3    0  502  0.34551331858E+03  0.33680021310E+02 -0.71531131828E+03  0.79510105780E+03  0.12699999809E+01 0.  1.
</event>
<event>
 5   0  0.1222679E-03  0.7001386E+03  0.7818609E-02  0.9716995E-01
       -2   -1    0    0    0  501  0.00000000000E+00  0.00000000000E+00  0.15501471208E+03  0.15501471210E+03  0.25500000920E-02 0. -1.
        2   -1    0    0  501    0  0.00000000000E+00  0.00000000000E+00 -0.79056052714E+03  0.79056052714E+03  0.25500000920E-02 0.  1.
    10030    2    1    2    0    0  0.00000000000E+00  0.00000000000E+00 -0.63554581506E+03  0.94557523924E+03  0.70013859343E+03 0.  0.
        2    1    3    3  502    0 -0.25592046946E+03 -0.22704158232E+02  0.33574202666E+01  0.25694753894E+03  0.25500000920E-02 0.  1.
       -2    1    3    3    0  502  0.25592046946E+03  0.22704158232E+02 -0.63890323533E+03  0.68862770029E+03  0.25500000920E-02 0. -1.
</event>
<event>
 5   0  0.7459843E-04  0.7003645E+03  0.7818609E-02  0.9716609E-01
        1   -1    0    0  501    0  0.00000000000E+00  0.00000000000E+00  0.52673114620E+03  0.52673114622E+03  0.50400001928E-02 0.  1.
       -1   -1    0    0    0  501  0.00000000000E+00  0.00000000000E+00 -0.23280870071E+03  0.23280870076E+03  0.50400001928E-02 0. -1.
    10030    2    1    2    0    0  0.00000000000E+00  0.00000000000E+00  0.29392244549E+03  0.75953984698E+03  0.70036445883E+03 0.  0.
        2    1    3    3  502    0 -0.22894104194E+03 -0.19124371281E+03 -0.51946118781E+02  0.30279788248E+03  0.25500000920E-02 0. -1.
       -2    1    3    3    0  502  0.22894104194E+03  0.19124371281E+03  0.34586856427E+03  0.45674196450E+03  0.25500000920E-02 0.  1.
</event>
<event>
 5   0  0.1265562E-03  0.7002657E+03  0.7818609E-02  0.9716778E-01
       -2   -1    0    0    0  501  0.00000000000E+00  0.00000000000E+00  0.60268446273E+02  0.60268446327E+02  0.25500000920E-02 0. -1.
        2   -1    0    0  501    0  0.00000000000E+00  0.00000000000E+00 -0.20341160885E+04  0.20341160885E+04  0.25500000920E-02 0.  1.
    10030    2    1    2    0    0  0.00000000000E+00  0.00000000000E+00 -0.19738476422E+04  0.20943845348E+04  0.70026571028E+03 0.  0.
        1    1    3    3  502    0  0.15504589977E+03  0.30031665443E+03 -0.12604460229E+04  0.13049726053E+04  0.50400001928E-02 0.  1.
       -1    1    3    3    0  502 -0.15504589977E+03 -0.30031665443E+03 -0.71340161930E+03  0.78941192948E+03  0.50400001928E-02 0. -1.
</event>
<event>
 5   0  0.1282546E-03  0.7000200E+03  0.7818609E-02  0.9717198E-01
       -2   -1    0    0    0  501  0.00000000000E+00  0.00000000000E+00  0.12586402825E+03  0.12586402827E+03  0.25500000920E-02 0.  1.
        2   -1    0    0  501    0  0.00000000000E+00  0.00000000000E+00 -0.97332824657E+03  0.97332824657E+03  0.25500000920E-02 0. -1.
    10030    2    1    2    0    0  0.00000000000E+00  0.00000000000E+00 -0.84746421832E+03  0.10991922748E+04  0.70002003953E+03 0.  0.
        5    1    3    3  502    0  0.46512753088E+02 -0.10611795340E+03  0.94825334361E+02  0.14979449345E+03  0.46999998093E+01 0.  1.
       -5    1    3    3    0  502 -0.46512753088E+02  0.10611795340E+03 -0.94228955268E+03  0.94939778140E+03  0.46999998093E+01 0. -1.
</event>
<event>
 5   0  0.4936000E-04  0.7001267E+03  0.7818609E-02  0.9717016E-01
        3   -1    0    0  501    0  0.00000000000E+00  0.00000000000E+00  0.16232151491E+04  0.16232151522E+04  0.10100000352E+00 0.  1.
       -3   -1    0    0    0  501  0.00000000000E+00  0.00000000000E+00 -0.75494787469E+02  0.75494855030E+02  0.10100000352E+00 0. -1.
    10030    2    1    2    0    0  0.00000000000E+00  0.00000000000E+00  0.15477203616E+04  0.16987100072E+04  0.70012668210E+03 0.  0.
        4    1    3    3  502    0 -0.29745000193E+03 -0.31391469877E+02  0.12151568301E+04  0.12514270505E+04  0.12699999809E+01 0.  1.
       -4    1    3    3    0  502  0.29745000193E+03  0.31391469877E+02  0.33256353152E+03  0.44728295678E+03  0.12699999809E+01 0. -1.
</event>
<event>
 5   0  0.7574241E-04  0.6999522E+03  0.7818609E-02  0.9717314E-01
        1   -1    0    0  501    0  0.00000000000E+00  0.00000000000E+00  0.59547542066E+03  0.59547542068E+03  0.50400001928E-02 0. -1.
       -1   -1    0    0    0  501  0.00000000000E+00  0.00000000000E+00 -0.20568988968E+03  0.20568988974E+03  0.50400001928E-02 0.  1.
    10030    2    1    2    0    0  0.00000000000E+00  0.00000000000E+00  0.38978553098E+03  0.80116531042E+03  0.69995220870E+03 0.  0.
        3    1    3    3  502    0  0.20819814864E+03 -0.22508919336E+03  0.38802735526E+03  0.49454711878E+03  0.10100000352E+00 0. -1.
       -3    1    3    3    0  502 -0.20819814864E+03  0.22508919336E+03  0.17581757194E+01  0.30661819164E+03  0.10100000352E+00 0.  1.
</event>
<event>
 5   0  0.7570633E-04  0.6999853E+03  0.7818609E-02  0.9717257E-01
       -1   -1    0    0    0  501  0.00000000000E+00  0.00000000000E+00  0.56213418408E+03  0.56213418411E+03  0.50400001928E-02 0.  1.
        1   -1    0    0  501    0  0.00000000000E+00  0.00000000000E+00 -0.21791032415E+03  0.21791032420E+03  0.50400001928E-02 0. -1.
    10030    2    1    2    0    0  0.00000000000E+00  0.00000000000E+00  0.34422385994E+03  0.78004450831E+03  0.69998526356E+03 0.  0.
        5    1    3    3  502    0  0.74236387260E+02 -0.73049221952E+02 -0.20020453159E+03  0.22572366843E+03  0.46999998093E+01 0. -1.
       -5    1    3    3    0  502 -0.74236387260E+02  0.73049221952E+02  0.54442839153E+03  0.55432083988E+03  0.46999998093E+01 0.  1.
</event>
<event>
 5   0  0.1265562E-03  0.7000406E+03  0.7818609E-02  0.9717163E-01
        2   -1    0    0  501    0  0.00000000000E+00  0.00000000000E+00  0.26721403377E+04  0.26721403377E+04  0.25500000920E-02 0. -1.
       -2   -1    0    0    0  501  0.00000000000E+00  0.00000000000E+00 -0.45848717238E+02  0.45848717309E+02  0.25500000920E-02 0.  1.
    10030    2    1    2    0    0  0.00000000000E+00  0.00000000000E+00  0.26262916205E+04  0.27179890550E+04  0.70004058986E+03 0.  0.
        1    1    3    3  502    0 -0.17557831194E+03  0.13674520131E+03  0.26421251225E+03  0.34544933834E+03  0.50400001928E-02 0.  1.
       -1    1    3    3    0  502  0.17557831194E+03 -0.13674520131E+03  0.23620791083E+04  0.23725397167E+04  0.50400001928E-02 0. -1.
</event>
<event>
 5   0  0.1243087E-03  0.6999402E+03  0.7818609E-02  0.9717334E-01
        2   -1    0    0  501    0  0.00000000000E+00  0.00000000000E+00  0.59709624175E+03  0.59709624176E+03  0.25500000920E-02 0.  1.
       -2   -1    0    0    0  501  0.00000000000E+00  0.00000000000E+00 -0.20512450759E+03  0.20512450760E+03  0.25500000920E-02 0. -1.
    10030    2    1    2    0    0  0.00000000000E+00  0.00000000000E+00  0.39197173417E+03  0.80222074936E+03  0.69994020482E+03 0.  0.
        4    1    3    3  502    0 -0.34774443058E+03 -0.17212863146E+02  0.15538337031E+03  0.38127165686E+03  0.12699999809E+01 0. -1.
       -4    1    3    3    0  502  0.34774443058E+03  0.17212863146E+02  0.23658836386E+03  0.42094909250E+03  0.12699999809E+01 0.  1.
</event>
<event>
 5   0  0.4936000E-04  0.6996028E+03  0.7818609E-02  0.9717912E-01
       -4   -1    0    0    0  501  0.00000000000E+00  0.00000000000E+00  0.61836313799E+03  0.61836444215E+03  0.12699999809E+01 0.  1.
        4   -1    0    0  501    0  0.00000000000E+00  0.00000000000E+00 -0.19787534078E+03  0.19787941628E+03  0.12699999809E+01 0. -1.
    10030    2    1    2    0    0  0.00000000000E+00  0.00000000000E+00  0.42048779721E+03  0.81624385844E+03  0.69960277932E+03 0.  0.
        1    1    3    3  502    0  0.34442053683E+03 -0.17857180740E+01  0.28152225449E+03  0.44484095448E+03  0.50400001928E-02 0.  1.
       -1    1    3    3    0  502 -0.34442053683E+03  0.17857180740E+01  0.13896554272E+03  0.37140290396E+03  0.50400001928E-02 0. -1.
</event>
<event>
 5   0  0.7459843E-04  0.7000522E+03  0.7818609E-02  0.9717143E-01
       -1   -1    0    0    0  501  0.00000000000E+00  0.00000000000E+00  0.20268165448E+03  0.20268165455E+03  0.50400001928E-02 0. -1.
        1   -1    0    0  501    0  0.00000000000E+00  0.00000000000E+00 -0.60448625668E+03  0.60448625670E+03  0.50400001928E-02 0.  1.
    10030    2    1    2    0    0  0.00000000000E+00  0.00000000000E+00 -0.40180460219E+03  0.80716791125E+03  0.70005221134E+03 0.  0.
        2    1    3    3  502    0  0.18115421124E+03  0.25584914888E+03 -0.38042666946E+03  0.49295038906E+03  0.25500000920E-02 0.  1.
       -2    1    3    3    0  502 -0.18115421124E+03 -0.25584914888E+03 -0.21377932733E+02  0.31421752218E+03  0.25500000920E-02 0. -1.
</event>
<event>
 5   0  0.1224048E-03  0.6990188E+03  0.7818609E-02  0.9718912E-01
        2   -1    0    0  501    0  0.00000000000E+00  0.00000000000E+00  0.15544335317E+04  0.15544335317E+04  0.25500000920E-02 0. -1.
       -2   -1    0    0    0  501  0.00000000000E+00  0.00000000000E+00 -0.78586066662E+02  0.78586066703E+02  0.25500000920E-02 0.  1.
    10030    2    1    2    0    0  0.00000000000E+00  0.00000000000E+00  0.14758474651E+04  0.16330195984E+04  0.69901878997E+03 0.  0.
        3    1    3    3  502    0 -0.40076123096E+00  0.15475229491E+03  0.14700345204E+04  0.14781576150E+04  0.10100000352E+00 0. -1.
       -3    1    3    3    0  502  0.40076123096E+00 -0.15475229491E+03  0.58129446708E+01  0.15486198345E+03  0.10100000352E+00 0.  1.
</event>
<event>
 5   0  0.7013526E-04  0.7003773E+03  0.7818609E-02  0.9716587E-01
        1   -1    0    0  501    0  0.00000000000E+00  0.00000000000E+00  0.24986377618E+03  0.24986377623E+03  0.50400001928E-02 0.  1.
       -1   -1    0    0    0  501  0.00000000000E+00  0.00000000000E+00 -0.49079573548E+03  0.49079573551E+03  0.50400001928E-02 0. -1.
    10030    2    1    2    0    0  0.00000000000E+00  0.00000000000E+00 -0.24093195930E+03  0.74065951174E+03  0.70037725785E+03 0.  0.
        1    1    3    3  502    0  0.14034173730E+03  0.57145214798E+02  0.21339857716E+03  0.26172567999E+03  0.50400001928E-02 0.  1.
       -1    1    3    3    0  502 -0.14034173730E+03 -0.57145214798E+02 -0.45433053647E+03  0.47893383175E+03  0.50400001928E-02 0. -1.
</event>
<event>
 5   0  0.1282546E-03  0.7009734E+03  0.7818609E-02  0.9715569E-01
       -2   -1    0    0    0  501  0.00000000000E+00  0.00000000000E+00  0.16477636422E+03  0.16477636424E+03  0.25500000920E-02 0. -1.
        2   -1    0    0  501    0  0.00000000000E+00  0.00000000000E+00 -0.74550099121E+03  0.74550099122E+03  0.25500000920E-02 0.  1.
    10030    2    1    2    0    0  0.00000000000E+00  0.00000000000E+00 -0.58072462699E+03  0.91027735546E+03  0.70097344562E+03 0.  0.
        5    1    3    3  502    0  0.98746886548E+02 -0.26235762894E+03 -0.17236994261E+02  0.28089442329E+03  0.46999998093E+01 0. -1.
       -5    1    3    3    0  502 -0.98746886548E+02  0.26235762894E+03 -0.56348763273E+03  0.62938293217E+03  0.46999998093E+01 0.  1.
</event>
<event>
 5   0  0.7459843E-04  0.7000513E+03  0.7818609E-02  0.9717144E-01
       -1   -1    0    0    0  501  0.00000000000E+00  0.00000000000E+00  0.44068872428E+03  0.44068872431E+03  0.50400001928E-02 0. -1.
        1   -1    0    0  501    0  0.00000000000E+00  0.00000000000E+00 -0.27801475251E+03  0.27801475255E+03  0.50400001928E-02 0.  1.
    10030    2    1    2    0    0  0.00000000000E+00  0.00000000000E+00  0.16267397178E+03  0.71870347686E+03  0.70005133138E+03 0.  0.
        2    1    3    3  502    0  0.13927112793E+02 -0.30893130794E+02 -0.27632670180E+03  0.27839683212E+03  0.25500000920E-02 0.  1.
       -2    1    3    3    0  502 -0.13927112793E+02  0.30893130794E+02  0.43900067357E+03  0.44030664474E+03  0.25500000920E-02 0. -1.
</event>
<event>
 5   0  0.1265562E-03  0.6999878E+03  0.7818609E-02  0.9717253E-01
        2   -1    0    0  501    0  0.00000000000E+00  0.00000000000E+00  0.20315454626E+03  0.20315454628E+03  0.25500000920E-02 0. -1.
       -2   -1    0    0    0  501  0.00000000000E+00  0.00000000000E+00 -0.60296820130E+03  0.60296820131E+03  0.25500000920E-02 0.  1.
    10030    2    1    2    0    0  0.00000000000E+00  0.00000000000E+00 -0.39981365504E+03  0.80612274758E+03  0.69998780376E+03 0.  0.
        1    1    3    3  502    0  0.22951181793E+03  0.24473682634E+03 -0.31463044293E+03  0.45996098137E+03  0.50400001928E-02 0.  1.
       -1    1    3    3    0  502 -0.22951181793E+03 -0.24473682634E+03 -0.85183212113E+02  0.34616176621E+03  0.50400001928E-02 0. -1.
</event>
<event>
 5   0  0.1222679E-03  0.6996499E+03  0.7818609E-02  0.9717831E-01
       -2   -1    0    0    0  501  0.00000000000E+00  0.00000000000E+00  0.57384662827E+03  0.57384662828E+03  0.25500000920E-02 0.  1.
        2   -1    0    0  501    0  0.00000000000E+00  0.00000000000E+00 -0.21325820910E+03  0.21325820911E+03  0.25500000920E-02 0. -1.
    10030    2    1    2    0    0  0.00000000000E+00  0.00000000000E+00  0.36058841918E+03  0.78710483739E+03  0.69964992461E+03 0.  0.
        2    1    3    3  502    0  0.60942939443E+02 -0.10851083515E+03  0.54809953625E+03  0.56205137208E+03  0.25500000920E-02 0.  1.
       -2    1    3    3    0  502 -0.60942939443E+02  0.10851083515E+03 -0.18751111708E+03  0.22505346531E+03  0.25500000920E-02 0. -1.
</event>
<event>
 5   0  0.7570633E-04  0.7001900E+03  0.7818609E-02  0.9716907E-01
        1   -1    0    0  501    0  0.00000000000E+00  0.00000000000E+00  0.15436349873E+04  0.15436349873E+04  0.50400001928E-02 0. -1.
       -1   -1    0    0    0  501  0.00000000000E+00  0.00000000000E+00 -0.79401227142E+02  0.79401227302E+02  0.50400001928E-02 0.  1.
    10030    2    1    2    0    0  0.00000000000E+00  0.00000000000E+00  0.14642337602E+04  0.16230362146E+04  0.70019000961E+03 0.  0.
        5    1    3    3  502    0  0.33334363865E+03 -0.70798482307E+02  0.54647441980E+03  0.64403943049E+03  0.46999998093E+01 0.  1.
       -5    1    3    3    0  502 -0.33334363865E+03  0.70798482307E+02  0.91775934036E+03  0.97899678413E+03  0.46999998093E+01 0. -1.
</event>
<event>
 5   0  0.7572415E-04  0.6999105E+03  0.7818609E-02  0.9717385E-01
        1   -1    0    0  501    0  0.00000000000E+00  0.00000000000E+00  0.43951221196E+03  0.43951221199E+03  0.50400001928E-02 0. -1.
       -1   -1    0    0    0  501  0.00000000000E+00  0.00000000000E+00 -0.27864678978E+03  0.27864678982E+03  0.50400001928E-02 0.  1.
    10030    2    1    2    0    0  0.00000000000E+00  0.00000000000E+00  0.16086542219E+03  0.71815900181E+03  0.69991047130E+03 0.  0.
        4    1    3    3  502    0  0.83067787952E+02 -0.21046053039E+02  0.42857821386E+03  0.43706302982E+03  0.12699999809E+01 0. -1.
       -4    1    3    3    0  502 -0.83067787952E+02  0.21046053039E+02 -0.26771279167E+03  0.28109597199E+03  0.12699999809E+01 0.  1.
</event>
<event>
 5   0  0.4936000E-04  0.7000834E+03  0.7818609E-02  0.9717090E-01
        3   -1    0    0  501    0  0.00000000000E+00  0.00000000000E+00  0.41764742696E+03  0.41764743918E+03  0.10100000352E+00 0.  1.
       -3   -1    0    0    0  501  0.00000000000E+00  0.00000000000E+00 -0.29337944267E+03  0.29337946006E+03  0.10100000352E+00 0. -1.
    10030    2    1    2    0    0  0.00000000000E+00  0.00000000000E+00  0.12426798429E+03  0.71102689923E+03  0.70008336612E+03 0.  0.
        2    1    3    3  502    0  0.68779273549E+00 -0.19191165599E+03 -0.23518537123E+03  0.30355018632E+03  0.25500000920E-02 0. -1.
       -2    1    3    3    0  502 -0.68779273549E+00  0.19191165599E+03  0.35945335553E+03  0.40747671292E+03  0.25500000920E-02 0.  1.
</event>
<event>
 5   0  0.1243087E-03  0.6998792E+03  0.7818609E-02  0.9717439E-01
        2   -1    0    0  501    0  0.00000000000E+00  0.00000000000E+00  0.62426430374E+03  0.62426430375E+03  0.25500000920E-02 0.  1.
       -2   -1    0    0    0  501  0.00000000000E+00  0.00000000000E+00 -0.19616324007E+03  0.19616324009E+03  0.25500000920E-02 0. -1.
    10030    2    1    2    0    0  0.00000000000E+00  0.00000000000E+00  0.42810106367E+03  0.82042754383E+03  0.69987915668E+03 0.  0.
        4    1    3    3  502    0 -0.78102410816E+02  0.25380665592E+03 -0.53103047786E+02  0.27081239216E+03  0.12699999809E+01 0. -1.
       -4    1    3    3    0  502  0.78102410816E+02 -0.25380665592E+03  0.48120411146E+03  0.54961515167E+03  0.12699999809E+01 0.  1.
</event>
<event>
 5   0  0.1282546E-03  0.6998420E+03  0.7818609E-02  0.9717502E-01
       -2   -1    0    0    0  501  0.00000000000E+00  0.00000000000E+00  0.59504766053E+02  0.59504766108E+02  0.25500000920E-02 0.  1.
        2   -1    0    0  501    0  0.00000000000E+00  0.00000000000E+00 -0.20577295630E+04  0.20577295630E+04  0.25500000920E-02 0. -1.
    10030    2    1    2    0    0  0.00000000000E+00  0.00000000000E+00 -0.19982247969E+04  0.21172343291E+04  0.69984202876E+03 0.  0.
        5    1    3    3  502    0  0.20243187047E+03  0.17519133665E+03 -0.31756617616E+03  0.41538058796E+03  0.46999998093E+01 0. -1.
       -5    1    3    3    0  502 -0.20243187047E+03 -0.17519133665E+03 -0.16806586208E+04  0.17018537411E+04  0.46999998093E+01 0.  1.
</event>
<event>
 5   0  0.7572415E-04  0.7000429E+03  0.7818609E-02  0.9717159E-01
        1   -1    0    0  501    0  0.00000000000E+00  0.00000000000E+00  0.16744145178E+03  0.16744145185E+03  0.50400001928E-02 0.  1.
       -1   -1    0    0    0  501  0.00000000000E+00  0.00000000000E+00 -0.73168863597E+03  0.73168863599E+03  0.50400001928E-02 0. -1.
    10030    2    1    2    0    0  0.00000000000E+00  0.00000000000E+00 -0.56424718419E+03  0.89913008784E+03  0.70004287726E+03 0.  0.
        4    1    3    3  502    0 -0.24991157554E+03  0.19406449262E+03 -0.47433920566E+03  0.57018954551E+03  0.12699999809E+01 0. -1.
       -4    1    3    3    0  502  0.24991157554E+03 -0.19406449262E+03 -0.89907978528E+02  0.32894054233E+03  0.12699999809E+01 0.  1.
</event>
<event>
 5   0  0.1243087E-03  0.6997963E+03  0.7818609E-02  0.9717581E-01
       -2   -1    0    0    0  501  0.00000000000E+00  0.00000000000E+00  0.11528906786E+03  0.11528906789E+03  0.25500000920E-02 0. -1.
        2   -1    0    0  501    0  0.00000000000E+00  0.00000000000E+00 -0.10619282285E+04  0.10619282285E+04  0.25500000920E-02 0.  1.
    10030    2    1    2    0    0  0.00000000000E+00  0.00000000000E+00 -0.94663916064E+03  0.11772172964E+04  0.69979630070E+03 0.  0.
        4    1    3    3  502    0  0.73777091330E+02  0.79789892460E+02 -0.10328157792E+04  0.10385179502E+04  0.12699999809E+01 0.  1.
       -4    1    3    3    0  502 -0.73777091330E+02 -0.79789892460E+02  0.86176618594E+02  0.13869934620E+03  0.12699999809E+01 0. -1.
</event>
<event>
 5   0  0.4936000E-04  0.6991138E+03  0.7818609E-02  0.9718749E-01
       -3   -1    0    0    0  501  0.00000000000E+00  0.00000000000E+00  0.10872887414E+04  0.10872887461E+04  0.10100000352E+00 0.  1.
        3   -1    0    0  501    0  0.00000000000E+00  0.00000000000E+00 -0.11238043679E+03  0.11238048218E+03  0.10100000352E+00 0. -1.
    10030    2    1    2    0    0  0.00000000000E+00  0.00000000000E+00  0.97490830460E+03  0.11996692283E+04  0.69911376390E+03 0.  0.
        2    1    3    3  502    0 -0.10386481333E+03 -0.19669445159E+03  0.24731336833E+02  0.22380403429E+03  0.25500000920E-02 0. -1.
       -2    1    3    3    0  502  0.10386481333E+03  0.19669445159E+03  0.95017696777E+03  0.97586519398E+03  0.25500000920E-02 0.  1.
</event>
<event>
 5   0  0.7574241E-04  0.7000073E+03  0.7818609E-02  0.9717220E-01
        1   -1    0    0  501    0  0.00000000000E+00  0.00000000000E+00  0.19322800128E+04  0.19322800128E+04  0.50400001928E-02 0. -1.
       -1   -1    0    0    0  501  0.00000000000E+00  0.00000000000E+00 -0.63397932278E+02  0.63397932479E+02  0.50400001928E-02 0.  1.
    10030    2    1    2    0    0  0.00000000000E+00  0.00000000000E+00  0.18688820805E+04  0.19956779453E+04  0.70000730740E+03 0.  0.
        3    1    3    3  502    0 -0.11586402463E+03 -0.16845928627E+03  0.17443261696E+04  0.17562678610E+04  0.10100000352E+00 0. -1.
       -3    1    3    3    0  502  0.11586402463E+03  0.16845928627E+03  0.12455591096E+03  0.23941008435E+03  0.10100000352E+00 0.  1.
</event>
<event>
 5   0  0.7459843E-04  0.7000071E+03  0.7818609E-02  0.9717220E-01
        1   -1    0    0  501    0  0.00000000000E+00  0.00000000000E+00  0.51333395370E+03  0.51333395373E+03  0.50400001928E-02 0. -1.
       -1   -1    0    0    0  501  0.00000000000E+00  0.00000000000E+00 -0.23864092026E+03  0.23864092032E+03  0.50400001928E-02 0.  1.
    10030    2    1    2    0    0  0.00000000000E+00  0.00000000000E+00  0.27469303344E+03  0.75197487404E+03  0.70000710609E+03 0.  0.
        2    1    3    3  502    0  0.13153390105E+03 -0.30840434262E+03  0.24524247368E+03  0.41540134397E+03  0.25500000920E-02 0.  1.
       -2    1    3    3    0  502 -0.13153390105E+03  0.30840434262E+03  0.29450559762E+02  0.33657353007E+03  0.25500000920E-02 0. -1.
</event>
<event>
 5   0  0.7459843E-04  0.6993887E+03  0.7818609E-02  0.9718278E-01
        1   -1    0    0  501    0  0.00000000000E+00  0.00000000000E+00  0.38419259890E+03  0.38419259894E+03  0.50400001928E-02 0. -1.
       -1   -1    0    0    0  501  0.00000000000E+00  0.00000000000E+00 -0.31829384881E+03  0.31829384885E+03  0.50400001928E-02 0.  1.
    10030    2    1    2    0    0  0.00000000000E+00  0.00000000000E+00  0.65898750092E+02  0.70248644779E+03  0.69938870742E+03 0.  0.
        2    1    3    3  502    0  0.29809575141E+03  0.14796880876E+03  0.14080419444E+03  0.36136085365E+03  0.25500000920E-02 0.  1.
       -2    1    3    3    0  502 -0.29809575141E+03 -0.14796880876E+03 -0.74905444350E+02  0.34112559414E+03  0.25500000920E-02 0. -1.
</event>
<event>
 5   0  0.7013526E-04  0.6999156E+03  0.7818609E-02  0.9717376E-01
        1   -1    0    0  501    0  0.00000000000E+00  0.00000000000E+00  0.45905390776E+03  0.45905390779E+03  0.50400001928E-02 0.  1.
       -1   -1    0    0    0  501  0.00000000000E+00  0.00000000000E+00 -0.26678888057E+03  0.26678888062E+03  0.50400001928E-02 0. -1.
    10030    2    1    2    0    0  0.00000000000E+00  0.00000000000E+00  0.19226502719E+03  0.72584278840E+03  0.69991564691E+03 0.  0.
        1    1    3    3  502    0  0.21940099385E+03  0.87299555978E+02 -0.17172286576E+03  0.29197046293E+03  0.50400001928E-02 0. -1.
       -1    1    3    3    0  502 -0.21940099385E+03 -0.87299555978E+02  0.36398789295E+03  0.43387232547E+03  0.50400001928E-02 0.  1.
</event>
<event>
 5   0  0.7570633E-04  0.6999942E+03  0.7818609E-02  0.9717242E-01
        1   -1    0    0  501    0  0.00000000000E+00  0.00000000000E+00  0.52920193630E+03  0.52920193633E+03  0.50400001928E-02 0.  1.
       -1   -1    0    0    0  501  0.00000000000E+00  0.00000000000E+00 -0.23147678667E+03  0.23147678673E+03  0.50400001928E-02 0. -1.
    10030    2    1    2    0    0  0.00000000000E+00  0.00000000000E+00  0.29772514963E+03  0.76067872305E+03  0.69999418211E+03 0.  0.
        5    1    3    3  502    0 -0.33505375307E+03 -0.49140529044E+02  0.24483709312E+03  0.41790321990E+03  0.46999998093E+01 0.  1.
       -5    1    3    3    0  502  0.33505375307E+03  0.49140529044E+02  0.52888056511E+02  0.34277550315E+03  0.46999998093E+01 0. -1.
</event>
<event>
 5   0  0.7459843E-04  0.7004892E+03  0.7818609E-02  0.9716396E-01
       -1   -1    0    0    0  501  0.00000000000E+00  0.00000000000E+00  0.71018663716E+03  0.71018663718E+03  0.50400001928E-02 0. -1.
        1   -1    0    0  501    0  0.00000000000E+00  0.00000000000E+00 -0.17273102897E+03  0.17273102904E+03  0.50400001928E-02 0.  1.
    10030    2    1    2    0    0  0.00000000000E+00  0.00000000000E+00  0.53745560820E+03  0.88291766622E+03  0.70048916804E+03 0.  0.
        2    1    3    3  502    0  0.45716796651E+02  0.16198094465E+02  0.70593333326E+03  0.70759753729E+03  0.25500000920E-02 0. -1.
       -2    1    3    3    0  502 -0.45716796651E+02 -0.16198094465E+02 -0.16847772506E+03  0.17532012893E+03  0.25500000920E-02 0.  1.
</event>
<event>
 5   0  0.1243087E-03  0.7001463E+03  0.7818609E-02  0.9716982E-01
        2   -1    0    0  501    0  0.00000000000E+00  0.00000000000E+00  0.23528662142E+03  0.23528662143E+03  0.25500000920E-02 0.  1.
       -2   -1    0    0    0  501  0.00000000000E+00  0.00000000000E+00 -0.52085920000E+03  0.52085920001E+03  0.25500000920E-02 0. -1.
    10030    2    1    2    0    0  0.00000000000E+00  0.00000000000E+00 -0.28557257858E+03  0.75614582144E+03  0.70014627446E+03 0.  0.
        4    1    3    3  502    0  0.16704786957E+03  0.24287096589E+03 -0.34672376577E+03  0.45509370404E+03  0.12699999809E+01 0. -1.
       -4    1    3    3    0  502 -0.16704786957E+03 -0.24287096589E+03  0.61151187195E+02  0.30105211741E+03  0.12699999809E+01 0.  1.
</event>
<event>
 5   0  0.1243087E-03  0.6999859E+03  0.7818609E-02  0.9717256E-01
        2   -1    0    0  501    0  0.00000000000E+00  0.00000000000E+00  0.50684252497E+03  0.50684252498E+03  0.25500000920E-02 0.  1.
       -2   -1    0    0    0  501  0.00000000000E+00  0.00000000000E+00 -0.24168268244E+03  0.24168268245E+03  0.25500000920E-02 0. -1.
    10030    2    1    2    0    0  0.00000000000E+00  0.00000000000E+00  0.26515984254E+03  0.74852520743E+03  0.69998588847E+03 0.  0.
        4    1    3    3  502    0  0.18312097647E+03  0.11924629193E+03 -0.15976468181E+03  0.27070156375E+03  0.12699999809E+01 0. -1.
       -4    1    3    3    0  502 -0.18312097647E+03 -0.11924629193E+03  0.42492452435E+03  0.47782364368E+03  0.12699999809E+01 0.  1.
</event>
<event>
 5   0  0.1265562E-03  0.6999076E+03  0.7818609E-02  0.9717390E-01
        2   -1    0    0  501    0  0.00000000000E+00  0.00000000000E+00  0.13357827369E+03  0.13357827372E+03  0.25500000920E-02 0.  1.
       -2   -1    0    0    0  501  0.00000000000E+00  0.00000000000E+00 -0.91682312790E+03  0.91682312791E+03  0.25500000920E-02 0. -1.
    10030    2    1    2    0    0  0.00000000000E+00  0.00000000000E+00 -0.78324485421E+03  0.10504014016E+04  0.69990756739E+03 0.  0.
        1    1    3    3  502    0 -0.10722815640E+03  0.17670998832E+03 -0.81542330337E+03  0.84121308906E+03  0.50400001928E-02 0. -1.
       -1    1    3    3    0  502  0.10722815640E+03 -0.17670998832E+03  0.32178449164E+02  0.20918831256E+03  0.50400001928E-02 0.  1.
</event>
<event>
 5   0  0.7572415E-04  0.6993665E+03  0.7818609E-02  0.9718316E-01
        1   -1    0    0  501    0  0.00000000000E+00  0.00000000000E+00  0.61746200795E+03  0.61746200797E+03  0.50400001928E-02 0. -1.
       -1   -1    0    0    0  501  0.00000000000E+00  0.00000000000E+00 -0.19803387103E+03  0.19803387110E+03  0.50400001928E-02 0.  1.
    10030    2    1    2    0    0  0.00000000000E+00  0.00000000000E+00  0.41942813691E+03  0.81549587906E+03  0.69936654676E+03 0.  0.
        4    1    3    3  502    0  0.99832685251E+02 -0.26480992106E+03  0.44921139823E+03  0.53092688059E+03  0.12699999809E+01 0. -1.
       -4    1    3    3    0  502 -0.99832685251E+02  0.26480992106E+03 -0.29783261318E+02  0.28456899847E+03  0.12699999809E+01 0.  1.
</event>
<event>
 5   0  0.7572415E-04  0.7000465E+03  0.7818609E-02  0.9717153E-01
       -1   -1    0    0    0  501  0.00000000000E+00  0.00000000000E+00  0.63246139632E+03  0.63246139634E+03  0.50400001928E-02 0. -1.
        1   -1    0    0  501    0  0.00000000000E+00  0.00000000000E+00 -0.19371344687E+03  0.19371344693E+03  0.50400001928E-02 0.  1.
    10030    2    1    2    0    0  0.00000000000E+00  0.00000000000E+00  0.43874794945E+03  0.82617484328E+03  0.70004650454E+03 0.  0.
        4    1    3    3  502    0 -0.75654326740E+02 -0.20528654880E+03 -0.10307104688E+03  0.24184994910E+03  0.12699999809E+01 0.  1.
       -4    1    3    3    0  502  0.75654326740E+02  0.20528654880E+03  0.54181899633E+03  0.58432489418E+03  0.12699999809E+01 0. -1.
</event>
<event>
 5   0  0.1282546E-03  0.6998300E+03  0.7818609E-02  0.9717523E-01
       -2   -1    0    0    0  501  0.00000000000E+00  0.00000000000E+00  0.86680999595E+02  0.86680999632E+02  0.25500000920E-02 0.  1.
        2   -1    0    0  501    0  0.00000000000E+00  0.00000000000E+00 -0.14125416158E+04  0.14125416158E+04  0.25500000920E-02 0. -1.
    10030    2    1    2    0    0  0.00000000000E+00  0.00000000000E+00 -0.13258606162E+04  0.14992226154E+04  0.69983003438E+03 0.  0.
        5    1    3    3  502    0  0.20791102274E+03 -0.26232269346E+03 -0.44468977668E+03  0.55660693165E+03  0.46999998093E+01 0.  1.
       -5    1    3    3    0  502 -0.20791102274E+03  0.26232269346E+03 -0.88117083950E+03  0.94261568376E+03  0.46999998093E+01 0. -1.
</event>
<event>
 5   0  0.7570633E-04  0.6998367E+03  0.7818609E-02  0.9717512E-01
        1   -1    0    0  501    0  0.00000000000E+00  0.00000000000E+00  0.56295337127E+03  0.56295337129E+03  0.50400001928E-02 0. -1.
       -1   -1    0    0    0  501  0.00000000000E+00  0.00000000000E+00 -0.21750086178E+03  0.21750086184E+03  0.50400001928E-02 0.  1.
    10030    2    1    2    0    0  0.00000000000E+00  0.00000000000E+00  0.34545250948E+03  0.78045423313E+03  0.69983667644E+03 0.  0.
        5    1    3    3  502    0 -0.11147238262E+03  0.32481335941E+03  0.97992034493E+02  0.35714750365E+03  0.46999998093E+01 0.  1.
       -5    1    3    3    0  502  0.11147238262E+03 -0.32481335941E+03  0.24746047499E+03  0.42330672948E+03  0.46999998093E+01 0. -1.
</event>
<event>
 5   0  0.7570633E-04  0.7001620E+03  0.7818609E-02  0.9716955E-01
        1   -1    0    0  501    0  0.00000000000E+00  0.00000000000E+00  0.12467396636E+04  0.12467396637E+04  0.50400001928E-02 0.  1.
       -1   -1    0    0    0  501  0.00000000000E+00  0.00000000000E+00 -0.98301756794E+02  0.98301756924E+02  0.50400001928E-02 0. -1.
    10030    2    1    2    0    0  0.00000000000E+00  0.00000000000E+00  0.11484379069E+04  0.13450414206E+04  0.70016197925E+03 0.  0.
        5    1    3    3  502    0 -0.13795391220E+03 -0.22914436194E+03  0.10080353825E+04  0.10429265759E+04  0.46999998093E+01 0.  1.
       -5    1    3    3    0  502  0.13795391220E+03  0.22914436194E+03  0.14040252439E+03  0.30211484464E+03  0.46999998093E+01 0. -1.
</event>
<event>
 5   0  0.1222679E-03  0.6997707E+03  0.7818609E-02  0.9717624E-01
        2   -1    0    0  501    0  0.00000000000E+00  0.00000000000E+00  0.15281040595E+04  0.15281040595E+04  0.25500000920E-02 0. -1.
       -2   -1    0    0    0  501  0.00000000000E+00  0.00000000000E+00 -0.80112193031E+02  0.80112193071E+02  0.25500000920E-02 0.  1.
    10030    2    1    2    0    0  0.00000000000E+00  0.00000000000E+00  0.14479918665E+04  0.16082162526E+04  0.69977072652E+03 0.  0.
        2    1    3    3  502    0  0.20196410637E+03  0.15962365842E+03  0.17941089935E+03  0.31377935464E+03  0.25500000920E-02 0.  1.
       -2    1    3    3    0  502 -0.20196410637E+03 -0.15962365842E+03  0.12685809672E+04  0.12944368980E+04  0.25500000920E-02 0. -1.
</event>
<event>
 5   0  0.7574241E-04  0.6999451E+03  0.7818609E-02  0.9717326E-01
        1   -1    0    0  501    0  0.00000000000E+00  0.00000000000E+00  0.11629460983E+04  0.11629460983E+04  0.50400001928E-02 0.  1.
       -1   -1    0    0    0  501  0.00000000000E+00  0.00000000000E+00 -0.10531940319E+03  0.10531940331E+03  0.50400001928E-02 0. -1.
    10030    2    1    2    0    0  0.00000000000E+00  0.00000000000E+00  0.10576266951E+04  0.12682655016E+04  0.69994510956E+03 0.  0.
        3    1    3    3  502    0 -0.24517946943E+03 -0.11492051438E+02  0.76784530030E+02  0.25717875832E+03  0.10100000352E+00 0. -1.
       -3    1    3    3    0  502  0.24517946943E+03  0.11492051438E+02  0.98084216508E+03  0.10110867433E+04  0.10100000352E+00 0.  1.
</event>
<event>
 5   0  0.1224048E-03  0.7027390E+03  0.7818609E-02  0.9712560E-01
       -2   -1    0    0    0  501  0.00000000000E+00  0.00000000000E+00  0.34554777782E+03  0.34554777783E+03  0.25500000920E-02 0. -1.
        2   -1    0    0  501    0  0.00000000000E+00  0.00000000000E+00 -0.35728929622E+03  0.35728929623E+03  0.25500000920E-02 0.  1.
    10030    2    1    2    0    0  0.00000000000E+00  0.00000000000E+00 -0.11741518400E+02  0.70283707406E+03  0.70273899096E+03 0.  0.
        3    1    3    3  502    0  0.29864203687E+03  0.89706159308E+02 -0.16783857203E+03  0.35412435339E+03  0.10100000352E+00 0.  1.
       -3    1    3    3    0  502 -0.29864203687E+03 -0.89706159308E+02  0.15609705363E+03  0.34871272067E+03  0.10100000352E+00 0. -1.
</event>
<event>
 5   0  0.4936000E-04  0.7000267E+03  0.7818609E-02  0.9717187E-01
        3   -1    0    0  501    0  0.00000000000E+00  0.00000000000E+00  0.10351223662E+04  0.10351223711E+04  0.10100000352E+00 0. -1.
       -3   -1    0    0    0  501  0.00000000000E+00  0.00000000000E+00 -0.11835248832E+03  0.11835253141E+03  0.10100000352E+00 0.  1.
    10030    2    1    2    0    0  0.00000000000E+00  0.00000000000E+00  0.91676987788E+03  0.11534749025E+04  0.70002667220E+03 0.  0.
        2    1    3    3  502    0 -0.17048180494E+03  0.10808021694E+02 -0.45000500808E+02  0.17665192959E+03  0.25500000920E-02 0.  1.
       -2    1    3    3    0  502  0.17048180494E+03 -0.10808021694E+02  0.96177037868E+03  0.97682297294E+03  0.25500000920E-02 0. -1.
</event>
<event>
 5   0  0.1243087E-03  0.6999417E+03  0.7818609E-02  0.9717332E-01
        2   -1    0    0  501    0  0.00000000000E+00  0.00000000000E+00  0.71727174442E+03  0.71727174443E+03  0.25500000920E-02 0.  1.
       -2   -1    0    0    0  501  0.00000000000E+00  0.00000000000E+00 -0.17075758443E+03  0.17075758445E+03  0.25500000920E-02 0. -1.
    10030    2    1    2    0    0  0.00000000000E+00  0.00000000000E+00  0.54651416000E+03  0.88802932887E+03  0.69994168462E+03 0.  0.
        4    1    3    3  502    0  0.24062365127E+02  0.25898185895E+03 -0.23816606219E+02  0.26118852255E+03  0.12699999809E+01 0. -1.
       -4    1    3    3    0  502 -0.24062365127E+02 -0.25898185895E+03  0.57033076621E+03  0.62684080632E+03  0.12699999809E+01 0.  1.
</event>
<event>
 5   0  0.1243087E-03  0.7000165E+03  0.7818609E-02  0.9717204E-01
       -2   -1    0    0    0  501  0.00000000000E+00  0.00000000000E+00  0.12681599579E+03  0.12681599582E+03  0.25500000920E-02 0. -1.
        2   -1    0    0  501    0  0.00000000000E+00  0.00000000000E+00 -0.96601204259E+03  0.96601204259E+03  0.25500000920E-02 0.  1.
    10030    2    1    2    0    0  0.00000000000E+00  0.00000000000E+00 -0.83919604680E+03  0.10928280384E+04  0.70001651164E+03 0.  0.
        4    1    3    3  502    0 -0.32153866521E+03 -0.12622153547E+03 -0.33149104030E+03  0.47875558685E+03  0.12699999809E+01 0. -1.
       -4    1    3    3    0  502  0.32153866521E+03  0.12622153547E+03 -0.50770500650E+03  0.61407245156E+03  0.12699999809E+01 0.  1.
</event>
<event>
 5   0  0.7459843E-04  0.6995941E+03  0.7818609E-02  0.9717927E-01
       -1   -1    0    0    0  501  0.00000000000E+00  0.00000000000E+00  0.15687577510E+04  0.15687577510E+04  0.50400001928E-02 0.  1.
        1   -1    0    0  501    0  0.00000000000E+00  0.00000000000E+00 -0.77996728859E+02  0.77996729021E+02  0.50400001928E-02 0. -1.
    10030    2    1    2    0    0  0.00000000000E+00  0.00000000000E+00  0.14907610221E+04  0.16467544800E+04  0.69959409114E+03 0.  0.
        2    1    3    3  502    0 -0.24697471848E+03 -0.99702060723E+02  0.12791488550E+04  0.13065828737E+04  0.25500000920E-02 0.  1.
       -2    1    3    3    0  502  0.24697471848E+03  0.99702060723E+02  0.21161216709E+03  0.34017160632E+03  0.25500000920E-02 0. -1.
</event>
<event>
 5   0  0.1265562E-03  0.7000796E+03  0.7818609E-02  0.9717096E-01
       -2   -1    0    0    0  501  0.00000000000E+00  0.00000000000E+00  0.15567493018E+03  0.15567493020E+03  0.25500000920E-02 0. -1.
        2   -1    0    0  501    0  0.00000000000E+00  0.00000000000E+00 -0.78707499945E+03  0.78707499945E+03  0.25500000920E-02 0.  1.
    10030    2    1    2    0    0  0.00000000000E+00  0.00000000000E+00 -0.63140006927E+03  0.94274992965E+03  0.70007955432E+03 0.  0.
        1    1    3    3  502    0  0.14371159941E+03 -0.50610568630E+02  0.10867812214E+03  0.18715070858E+03  0.50400001928E-02 0. -1.
       -1    1    3    3    0  502 -0.14371159941E+03  0.50610568630E+02 -0.74007819141E+03  0.75559922108E+03  0.50400001928E-02 0.  1.
</event>
<event>
 5   0  0.7013526E-04  0.6996078E+03  0.7818609E-02  0.9717903E-01
       -1   -1    0    0    0  501  0.00000000000E+00  0.00000000000E+00  0.29438837302E+03  0.29438837306E+03  0.50400001928E-02 0.  1.
        1   -1    0    0  501    0  0.00000000000E+00  0.00000000000E+00 -0.41565085258E+03  0.41565085261E+03  0.50400001928E-02 0. -1.
    10030    2    1    2    0    0  0.00000000000E+00  0.00000000000E+00 -0.12126247955E+03  0.71003922567E+03  0.69960782803E+03 0.  0.
        1    1    3    3  502    0 -0.20180312038E+03  0.24925820930E+03 -0.20238709289E+03  0.37922907285E+03  0.50400001928E-02 0. -1.
       -1    1    3    3    0  502  0.20180312038E+03 -0.24925820930E+03  0.81124613337E+02  0.33081015282E+03  0.50400001928E-02 0.  1.
</event>
<event>
 5   0  0.7570633E-04  0.6954796E+03  0.7818609E-02  0.9724994E-01
        1   -1    0    0  501    0  0.00000000000E+00  0.00000000000E+00  0.37909422911E+03  0.37909422915E+03  0.50400001928E-02 0. -1.
       -1   -1    0    0    0  501  0.00000000000E+00  0.00000000000E+00 -0.31897865238E+03  0.31897865242E+03  0.50400001928E-02 0.  1.
    10030    2    1    2    0    0  0.00000000000E+00  0.00000000000E+00  0.60115576738E+02  0.69807288156E+03  0.69547959381E+03 0.  0.
        5    1    3    3  502    0  0.18787374750E+03 -0.17553718687E+03 -0.20488985716E+03  0.32880357744E+03  0.46999998093E+01 0.  1.
       -5    1    3    3    0  502 -0.18787374750E+03  0.17553718687E+03  0.26500543390E+03  0.36926930412E+03  0.46999998093E+01 0. -1.
</event>
<event>
 5   0  0.1265562E-03  0.6996728E+03  0.7818609E-02  0.9717792E-01
       -2   -1    0    0    0  501  0.00000000000E+00  0.00000000000E+00  0.14150754666E+03  0.14150754668E+03  0.25500000920E-02 0. -1.
        2   -1    0    0  501    0  0.00000000000E+00  0.00000000000E+00 -0.86486922855E+03  0.86486922855E+03  0.25500000920E-02 0.  1.
    10030    2    1    2    0    0  0.00000000000E+00  0.00000000000E+00 -0.72336168189E+03  0.10063767752E+04  0.69967284562E+03 0.  0.
        1    1    3    3  502    0 -0.27288530810E+03  0.89595766534E+02 -0.64896191887E+03  0.70967976224E+03  0.50400001928E-02 0.  1.
       -1    1    3    3    0  502  0.27288530810E+03 -0.89595766534E+02 -0.74399763021E+02  0.29669701299E+03  0.50400001928E-02 0. -1.
</event>
<event>
 5   0  0.7570633E-04  0.6999941E+03  0.7818609E-02  0.9717242E-01
       -1   -1    0    0    0  501  0.00000000000E+00  0.00000000000E+00  0.58512598675E+03  0.58512598678E+03  0.50400001928E-02 0.  1.
        1   -1    0    0  501    0  0.00000000000E+00  0.00000000000E+00 -0.20935306602E+03  0.20935306608E+03  0.50400001928E-02 0. -1.
    10030    2    1    2    0    0  0.00000000000E+00  0.00000000000E+00  0.37577292074E+03  0.79447905285E+03  0.69999405530E+03 0.  0.
        5    1    3    3  502    0 -0.12304507035E+03  0.29810147758E+03  0.33632532390E+02  0.32428046118E+03  0.46999998093E+01 0. -1.
       -5    1    3    3    0  502  0.12304507035E+03 -0.29810147758E+03  0.34214038835E+03  0.47019859167E+03  0.46999998093E+01 0.  1.
</event>
<event>
 5   0  0.7574241E-04  0.6993027E+03  0.7818609E-02  0.9718425E-01
       -1   -1    0    0    0  501  0.00000000000E+00  0.00000000000E+00  0.10987254896E+03  0.10987254907E+03  0.50400001928E-02 0. -1.
        1   -1    0    0  501    0  0.00000000000E+00  0.00000000000E+00 -0.11127079780E+04  0.11127079780E+04  0.50400001928E-02 0.  1.
    10030    2    1    2    0    0  0.00000000000E+00  0.00000000000E+00 -0.10028354290E+04  0.12225805270E+04  0.69930268657E+03 0.  0.
        3    1    3    3  502    0  0.21136912012E+02  0.19522649352E+03  0.43654465275E+01  0.19641593659E+03  0.10100000352E+00 0. -1.
       -3    1    3    3    0  502 -0.21136912012E+02 -0.19522649352E+03 -0.10072008755E+04  0.10261645904E+04  0.10100000352E+00 0.  1.
</event>
<event>
 5   0  0.7572415E-04  0.6999542E+03  0.7818609E-02  0.9717310E-01
       -1   -1    0    0    0  501  0.00000000000E+00  0.00000000000E+00  0.17779340491E+03  0.17779340498E+03  0.50400001928E-02 0.  1.
        1   -1    0    0  501    0  0.00000000000E+00  0.00000000000E+00 -0.68891180419E+03  0.68891180421E+03  0.50400001928E-02 0. -1.
    10030    2    1    2    0    0  0.00000000000E+00  0.00000000000E+00 -0.51111839928E+03  0.86670520919E+03  0.69995421390E+03 0.  0.
        4    1    3    3  502    0 -0.31876298728E+03 -0.14338170715E+03 -0.23361047214E+03  0.42040887431E+03  0.12699999809E+01 0. -1.
       -4    1    3    3    0  502  0.31876298728E+03  0.14338170715E+03 -0.27750792714E+03  0.44629633488E+03  0.12699999809E+01 0.  1.
</event>
<event>
 5   0  0.1282546E-03  0.6997858E+03  0.7818609E-02  0.9717599E-01
        2   -1    0    0  501    0  0.00000000000E+00  0.00000000000E+00  0.52743233354E+03  0.52743233355E+03  0.25500000920E-02 0.  1.
       -2   -1    0    0    0  501  0.00000000000E+00  0.00000000000E+00 -0.23211513672E+03  0.23211513673E+03  0.25500000920E-02 0. -1.
    10030    2    1    2    0    0  0.00000000000E+00  0.00000000000E+00  0.29531719682E+03  0.75954747028E+03  0.69978576212E+03 0.  0.
        5    1    3    3  502    0  0.15341893328E+03  0.55195627658E+02  0.48364032950E+03  0.51040570601E+03  0.46999998093E+01 0.  1.
       -5    1    3    3    0  502 -0.15341893328E+03 -0.55195627658E+02 -0.18832313268E+03  0.24914176427E+03  0.46999998093E+01 0. -1.
</event>
<event>
 5   0  0.1265562E-03  0.6993606E+03  0.7818609E-02  0.9718326E-01
        2   -1    0    0  501    0  0.00000000000E+00  0.00000000000E+00  0.84636501964E+03  0.84636501964E+03  0.25500000920E-02 0. -1.
       -2   -1    0    0    0  501  0.00000000000E+00  0.00000000000E+00 -0.14447232167E+03  0.14447232169E+03  0.25500000920E-02 0.  1.
    10030    2    1    2    0    0  0.00000000000E+00  0.00000000000E+00  0.70189269797E+03  0.99083734133E+03  0.69936062051E+03 0.  0.
        1    1    3    3  502    0 -0.12317261869E+03 -0.12613620953E+03 -0.76897676003E+02  0.19234107712E+03  0.50400001928E-02 0.  1.
       -1    1    3    3    0  502  0.12317261869E+03  0.12613620953E+03  0.77879037397E+03  0.79849626421E+03  0.50400001928E-02 0. -1.
</event>
<event>
 5   0  0.7459843E-04  0.6998711E+03  0.7818609E-02  0.9717453E-01
       -1   -1    0    0    0  501  0.00000000000E+00  0.00000000000E+00  0.20442196778E+03  0.20442196785E+03  0.50400001928E-02 0. -1.
        1   -1    0    0  501    0  0.00000000000E+00  0.00000000000E+00 -0.59902998346E+03  0.59902998348E+03  0.50400001928E-02 0.  1.
    10030    2    1    2    0    0  0.00000000000E+00  0.00000000000E+00 -0.39460801568E+03  0.80345195133E+03  0.69987109674E+03 0.  0.
        2    1    3    3  502    0  0.93616399136E+02 -0.18751770597E+03 -0.51900620768E+03  0.55972704407E+03  0.25500000920E-02 0.  1.
       -2    1    3    3    0  502 -0.93616399136E+02  0.18751770597E+03  0.12439819200E+03  0.24372490726E+03  0.25500000920E-02 0. -1.
</event>
<event>
 5   0  0.7570633E-04  0.6999824E+03  0.7818609E-02  0.9717262E-01
       -1   -1    0    0    0  501  0.00000000000E+00  0.00000000000E+00  0.14933448133E+03  0.14933448142E+03  0.50400001928E-02 0. -1.
        1   -1    0    0  501    0  0.00000000000E+00  0.00000000000E+00 -0.82026491594E+03  0.82026491596E+03  0.50400001928E-02 0.  1.
    10030    2    1    2    0    0  0.00000000000E+00  0.00000000000E+00 -0.67093043461E+03  0.96959939738E+03  0.69998238786E+03 0.  0.
        5    1    3    3  502    0  0.56044047087E+02  0.22789865681E+03  0.24128967619E+02  0.23597251973E+03  0.46999998093E+01 0. -1.
       -5    1    3    3    0  502 -0.56044047087E+02 -0.22789865681E+03 -0.69505940223E+03  0.73362687765E+03  0.46999998093E+01 0.  1.
</event>
<event>
 5   0  0.1224048E-03  0.6999395E+03  0.7818609E-02  0.9717336E-01
        2   -1    0    0  501    0  0.00000000000E+00  0.00000000000E+00  0.46791354737E+03  0.46791354738E+03  0.25500000920E-02 0. -1.
       -2   -1    0    0    0  501  0.00000000000E+00  0.00000000000E+00 -0.26175527319E+03  0.26175527320E+03  0.25500000920E-02 0.  1.
    10030    2    1    2    0    0  0.00000000000E+00  0.00000000000E+00  0.20615827418E+03  0.72966882058E+03  0.69993953576E+03 0.  0.
        3    1    3    3  502    0 -0.25856631276E+03 -0.21162568545E+03  0.21160093567E+03  0.39549580910E+03  0.10100000352E+00 0. -1.
       -3    1    3    3    0  502  0.25856631276E+03  0.21162568545E+03 -0.54426614903E+01  0.33417301148E+03  0.10100000352E+00 0.  1.
</event>
<event>
 5   0  0.1265562E-03  0.6946481E+03  0.7818609E-02  0.9726429E-01
       -2   -1    0    0    0  501  0.00000000000E+00  0.00000000000E+00  0.37586795646E+03  0.37586795647E+03  0.25500000920E-02 0. -1.
        2   -1    0    0  501    0  0.00000000000E+00  0.00000000000E+00 -0.32094776186E+03  0.32094776187E+03  0.25500000920E-02 0.  1.
    10030    2    1    2    0    0  0.00000000000E+00  0.00000000000E+00  0.54920194599E+02  0.69681571833E+03  0.69464805300E+03 0.  0.
        1    1    3    3  502    0 -0.34332730291E+03  0.12334793579E+02  0.78689957454E+02  0.35244558939E+03  0.50400001928E-02 0. -1.
       -1    1    3    3    0  502  0.34332730291E+03 -0.12334793579E+02 -0.23769762855E+02  0.34437012894E+03  0.50400001928E-02 0.  1.
</event>
<event>
 5   0  0.4936000E-04  0.7008487E+03  0.7818609E-02  0.9715782E-01
       -3   -1    0    0    0  501  0.00000000000E+00  0.00000000000E+00  0.50101357320E+03  0.50101358338E+03  0.10100000352E+00 0. -1.
        3   -1    0    0  501    0  0.00000000000E+00  0.00000000000E+00 -0.24509759901E+03  0.24509761982E+03  0.10100000352E+00 0.  1.
    10030    2    1    2    0    0  0.00000000000E+00  0.00000000000E+00  0.25591597419E+03  0.74611120320E+03  0.70084872953E+03 0.  0.
        4    1    3    3  502    0  0.21617461010E+03 -0.13745739521E+03 -0.12658547246E+03  0.28574725246E+03  0.12699999809E+01 0.  1.
       -4    1    3    3    0  502 -0.21617461010E+03  0.13745739521E+03  0.38250144665E+03  0.46036395074E+03  0.12699999809E+01 0. -1.
</event>
<event>
 5   0  0.7570633E-04  0.7002799E+03  0.7818609E-02  0.9716754E-01
        1   -1    0    0  501    0  0.00000000000E+00  0.00000000000E+00  0.72770048219E+03  0.72770048221E+03  0.50400001928E-02 0. -1.
       -1   -1    0    0    0  501  0.00000000000E+00  0.00000000000E+00 -0.16847316157E+03  0.16847316164E+03  0.50400001928E-02 0.  1.
    10030    2    1    2    0    0  0.00000000000E+00  0.00000000000E+00  0.55922732062E+03  0.89617364385E+03  0.70027994674E+03 0.  0.
        5    1    3    3  502    0  0.29213232511E+03 -0.17052168874E+03  0.16403307494E+03  0.37596260636E+03  0.46999998093E+01 0.  1.
       -5    1    3    3    0  502 -0.29213232511E+03  0.17052168874E+03  0.39519424568E+03  0.52021103749E+03  0.46999998093E+01 0. -1.
</event>
<event>
 5   0  0.7459843E-04  0.7001691E+03  0.7818609E-02  0.9716943E-01
       -1   -1    0    0    0  501  0.00000000000E+00  0.00000000000E+00  0.15734677391E+03  0.15734677399E+03  0.50400001928E-02 0. -1.
        1   -1    0    0  501    0  0.00000000000E+00  0.00000000000E+00 -0.77891145096E+03  0.77891145098E+03  0.50400001928E-02 0.  1.
    10030    2    1    2    0    0  0.00000000000E+00  0.00000000000E+00 -0.62156467706E+03  0.93625822497E+03  0.70016913389E+03 0.  0.
        2    1    3    3  502    0 -0.22334062725E+03  0.59260856169E+02 -0.66245614048E+03  0.70159890459E+03  0.25500000920E-02 0.  1.
       -2    1    3    3    0  502  0.22334062725E+03 -0.59260856169E+02  0.40891463423E+02  0.23465932038E+03  0.25500000920E-02 0. -1.
</event>
<event>
 5   0  0.7570633E-04  0.6960496E+03  0.7818609E-02  0.9724012E-01
        1   -1    0    0  501    0  0.00000000000E+00  0.00000000000E+00  0.25555523235E+03  0.25555523240E+03  0.50400001928E-02 0.  1.
       -1   -1    0    0    0  501  0.00000000000E+00  0.00000000000E+00 -0.47395331089E+03  0.47395331091E+03  0.50400001928E-02 0. -1.
    10030    2    1    2    0    0  0.00000000000E+00  0.00000000000E+00 -0.21839807854E+03  0.72950854331E+03  0.69604956293E+03 0.  0.
        5    1    3    3  502    0  0.18278602988E+03  0.14952975168E+02  0.20076189135E+03  0.27195909840E+03  0.46999998093E+01 0.  1.
       -5    1    3    3    0  502 -0.18278602988E+03 -0.14952975168E+02 -0.41915996989E+03  0.45754944491E+03  0.46999998093E+01 0. -1.
</event>
<event>
 5   0  0.7459843E-04  0.7002820E+03  0.7818609E-02  0.9716750E-01
       -1   -1    0    0    0  501  0.00000000000E+00  0.00000000000E+00  0.15798762051E+03  0.15798762059E+03  0.50400001928E-02 0. -1.
        1   -1    0    0  501    0  0.00000000000E+00  0.00000000000E+00 -0.77600199995E+03  0.77600199997E+03  0.50400001928E-02 0.  1.
    10030    2    1    2    0    0  0.00000000000E+00  0.00000000000E+00 -0.61801437944E+03  0.93398962056E+03  0.70028197044E+03 0.  0.
        2    1    3    3  502    0  0.26358937412E+03 -0.10013422103E+03 -0.32141018206E+02  0.28379440697E+03  0.25500000920E-02 0. -1.
       -2    1    3    3    0  502 -0.26358937412E+03  0.10013422103E+03 -0.58587336123E+03  0.65019521359E+03  0.25500000920E-02 0.  1.
</event>
<event>
 5   0  0.7570633E-04  0.6997805E+03  0.7818609E-02  0.9717608E-01
        1   -1    0    0  501    0  0.00000000000E+00  0.00000000000E+00  0.74237404026E+03  0.74237404028E+03  0.50400001928E-02 0. -1.
       -1   -1    0    0    0  501  0.00000000000E+00  0.00000000000E+00 -0.16490769598E+03  0.16490769605E+03  0.50400001928E-02 0.  1.
    10030    2    1    2    0    0  0.00000000000E+00  0.00000000000E+00  0.57746634429E+03  0.90728173633E+03  0.69978051580E+03 0.  0.
        5    1    3    3  502    0  0.21536954760E+03  0.15488825734E+03  0.58446183084E+03  0.64186613558E+03  0.46999998093E+01 0. -1.
       -5    1    3    3    0  502 -0.21536954760E+03 -0.15488825734E+03 -0.69954865552E+01  0.26541560075E+03  0.46999998093E+01 0.  1.
</event>
<event>
 5   0  0.4936000E-04  0.6999540E+03  0.7818609E-02  0.9717311E-01
       -4   -1    0    0    0  501  0.00000000000E+00  0.00000000000E+00  0.21595674744E+03  0.21596048172E+03  0.12699999809E+01 0. -1.
        4   -1    0    0  501    0  0.00000000000E+00  0.00000000000E+00 -0.56715934353E+03  0.56716076543E+03  0.12699999809E+01 0.  1.
    10030    2    1    2    0    0  0.00000000000E+00  0.00000000000E+00 -0.35120259609E+03  0.78312124715E+03  0.69995401580E+03 0.  0.
        3    1    3    3  502    0  0.32999189928E+03  0.74746599425E+02 -0.27568511886E+03  0.43644473038E+03  0.10100000352E+00 0.  1.
       -3    1    3    3    0  502 -0.32999189928E+03 -0.74746599425E+02 -0.75517477229E+02  0.34667651677E+03  0.10100000352E+00 0. -1.
</event>
<event>
 5   0  0.1224048E-03  0.7005435E+03  0.7818609E-02  0.9716303E-01
        2   -1    0    0  501    0  0.00000000000E+00  0.00000000000E+00  0.35800263188E+03  0.35800263188E+03  0.25500000920E-02 0.  1.
       -2   -1    0    0    0  501  0.00000000000E+00  0.00000000000E+00 -0.34270778062E+03  0.34270778063E+03  0.25500000920E-02 0. -1.
    10030    2    1    2    0    0  0.00000000000E+00  0.00000000000E+00  0.15294851260E+02  0.70071041251E+03  0.70054346741E+03 0.  0.
        3    1    3    3  502    0  0.11732732753E+02 -0.34552822133E+03  0.63900213374E+02  0.35158307158E+03  0.10100000352E+00 0. -1.
       -3    1    3    3    0  502 -0.11732732753E+02  0.34552822133E+03 -0.48605362114E+02  0.34912734093E+03  0.10100000352E+00 0.  1.
</event>
<event>
 5   0  0.1222679E-03  0.6999997E+03  0.7818609E-02  0.9717233E-01
        2   -1    0    0  501    0  0.00000000000E+00  0.00000000000E+00  0.10007999060E+04  0.10007999060E+04  0.25500000920E-02 0. -1.
       -2   -1    0    0    0  501  0.00000000000E+00  0.00000000000E+00 -0.12240197425E+03  0.12240197428E+03  0.25500000920E-02 0.  1.
    10030    2    1    2    0    0  0.00000000000E+00  0.00000000000E+00  0.87839793173E+03  0.11232018803E+04  0.69999966953E+03 0.  0.
        2    1    3    3  502    0 -0.11755812286E+03  0.30203938877E+03  0.65117405426E+03  0.72737566193E+03  0.25500000920E-02 0.  1.
       -2    1    3    3    0  502  0.11755812286E+03 -0.30203938877E+03  0.22722387747E+03  0.39582621833E+03  0.25500000920E-02 0. -1.
</event>
<event>
 5   0  0.1265562E-03  0.6998639E+03  0.7818609E-02  0.9717465E-01
       -2   -1    0    0    0  501  0.00000000000E+00  0.00000000000E+00  0.15780407111E+03  0.15780407113E+03  0.25500000920E-02 0. -1.
        2   -1    0    0  501    0  0.00000000000E+00  0.00000000000E+00 -0.77597719762E+03  0.77597719762E+03  0.25500000920E-02 0.  1.
    10030    2    1    2    0    0  0.00000000000E+00  0.00000000000E+00 -0.61817312650E+03  0.93378126875E+03  0.69986387501E+03 0.  0.
        1    1    3    3  502    0 -0.10908295819E+03  0.23818532439E+03 -0.61861998190E+03  0.67180504803E+03  0.50400001928E-02 0.  1.
       -1    1    3    3    0  502  0.10908295819E+03 -0.23818532439E+03  0.44685539755E+00  0.26197622073E+03  0.50400001928E-02 0. -1.
</event>
<event>
 5   0  0.7459843E-04  0.7001844E+03  0.7818609E-02  0.9716917E-01
       -1   -1    0    0    0  501  0.00000000000E+00  0.00000000000E+00  0.16604830420E+03  0.16604830427E+03  0.50400001928E-02 0.  1.
        1   -1    0    0  501    0  0.00000000000E+00  0.00000000000E+00 -0.73812587961E+03  0.73812587963E+03  0.50400001928E-02 0. -1.
    10030    2    1    2    0    0  0.00000000000E+00  0.00000000000E+00 -0.57207757541E+03  0.90417418390E+03  0.70018440610E+03 0.  0.
        2    1    3    3  502    0  0.25957952223E+03  0.19696209222E+03 -0.12072262354E+03  0.34749035378E+03  0.25500000920E-02 0.  1.
       -2    1    3    3    0  502 -0.25957952223E+03 -0.19696209222E+03 -0.45135495188E+03  0.55668383012E+03  0.25500000920E-02 0. -1.
</event>
<event>
 5   0  0.1243087E-03  0.6999052E+03  0.7818609E-02  0.9717394E-01
       -2   -1    0    0    0  501  0.00000000000E+00  0.00000000000E+00  0.98675223449E+02  0.98675223482E+02  0.25500000920E-02 0.  1.
        2   -1    0    0  501    0  0.00000000000E+00  0.00000000000E+00 -0.12411102486E+04  0.12411102486E+04  0.25500000920E-02 0. -1.
    10030    2    1    2    0    0  0.00000000000E+00  0.00000000000E+00 -0.11424350251E+04  0.13397854721E+04  0.69990522538E+03 0.  0.
        4    1    3    3  502    0  0.21620135460E+03 -0.27394695906E+03 -0.62096032006E+03  0.71230842625E+03  0.12699999809E+01 0. -1.
       -4    1    3    3    0  502 -0.21620135460E+03  0.27394695906E+03 -0.52147470508E+03  0.62747704583E+03  0.12699999809E+01 0.  1.
</event>
<event>
 5   0  0.7572415E-04  0.7013373E+03  0.7818609E-02  0.9714948E-01
        1   -1    0    0  501    0  0.00000000000E+00  0.00000000000E+00  0.39377232596E+03  0.39377232599E+03  0.50400001928E-02 0. -1.
       -1   -1    0    0    0  501  0.00000000000E+00  0.00000000000E+00 -0.31228322316E+03  0.31228322320E+03  0.50400001928E-02 0.  1.
    10030    2    1    2    0    0  0.00000000000E+00  0.00000000000E+00  0.81489102797E+02  0.70605554919E+03  0.70133726884E+03 0.  0.
        4    1    3    3  502    0 -0.10972811141E+03 -0.55446953645E+02 -0.28987350476E+03  0.31486963138E+03  0.12699999809E+01 0.  1.
       -4    1    3    3    0  502  0.10972811141E+03  0.55446953645E+02  0.37136260756E+03  0.39118591781E+03  0.12699999809E+01 0. -1.
</event>
<event>
 5   0  0.7459843E-04  0.7019919E+03  0.7818609E-02  0.9713832E-01
        1   -1    0    0  501    0  0.00000000000E+00  0.00000000000E+00  0.20059958756E+03  0.20059958762E+03  0.50400001928E-02 0.  1.
       -1   -1    0    0    0  501  0.00000000000E+00  0.00000000000E+00 -0.61414963246E+03  0.61414963248E+03  0.50400001928E-02 0. -1.
    10030    2    1    2    0    0  0.00000000000E+00  0.00000000000E+00 -0.41355004491E+03  0.81474922010E+03  0.70199191734E+03 0.  0.
        2    1    3    3  502    0  0.18496809946E+03 -0.13102349541E+03 -0.51780905928E+03  0.56524912742E+03  0.25500000920E-02 0. -1.
       -2    1    3    3    0  502 -0.18496809946E+03  0.13102349541E+03  0.10425901437E+03  0.24950009268E+03  0.25500000920E-02 0.  1.
</event>
<event>
 5   0  0.1224048E-03  0.7000425E+03  0.7818609E-02  0.9717160E-01
       -2   -1    0    0    0  501  0.00000000000E+00  0.00000000000E+00  0.56261534440E+03  0.56261534440E+03  0.25500000920E-02 0. -1.
        2   -1    0    0  501    0  0.00000000000E+00  0.00000000000E+00 -0.21775956991E+03  0.21775956992E+03  0.25500000920E-02 0.  1.
    10030    2    1    2    0    0  0.00000000000E+00  0.00000000000E+00  0.34485577449E+03  0.78037491432E+03  0.70004249993E+03 0.  0.
        3    1    3    3  502    0 -0.11744053829E+03  0.25166038647E+03  0.40992440091E+03  0.49513963163E+03  0.10100000352E+00 0. -1.
       -3    1    3    3    0  502  0.11744053829E+03 -0.25166038647E+03 -0.65068626415E+02  0.28523528270E+03  0.10100000352E+00 0.  1.
</event>
<event>
 5   0  0.7574241E-04  0.7000681E+03  0.7818609E-02  0.9717116E-01
        1   -1    0    0  501    0  0.00000000000E+00  0.00000000000E+00  0.99067609868E+03  0.99067609869E+03  0.50400001928E-02 0. -1.
       -1   -1    0    0    0  501  0.00000000000E+00  0.00000000000E+00 -0.12367699037E+03  0.12367699047E+03  0.50400001928E-02 0.  1.
    10030    2    1    2    0    0  0.00000000000E+00  0.00000000000E+00  0.86699910830E+03  0.11143530892E+04  0.70006810635E+03 0.  0.
        3    1    3    3  502    0 -0.82590399722E+02  0.25219944479E+03  0.79682301859E+03  0.83985276521E+03  0.10100000352E+00 0. -1.
       -3    1    3    3    0  502  0.82590399722E+02 -0.25219944479E+03  0.70176089712E+02  0.27450032395E+03  0.10100000352E+00 0.  1.
</event>
<event>
 5   0  0.1224048E-03  0.7000876E+03  0.7818609E-02  0.9717082E-01
        2   -1    0    0  501    0  0.00000000000E+00  0.00000000000E+00  0.52380552895E+03  0.52380552895E+03  0.25500000920E-02 0.  1.
       -2   -1    0    0    0  501  0.00000000000E+00  0.00000000000E+00 -0.23392394126E+03  0.23392394127E+03  0.25500000920E-02 0. -1.
    10030    2    1    2    0    0  0.00000000000E+00  0.00000000000E+00  0.28988158769E+03  0.75772947023E+03  0.70008757679E+03 0.  0.
        3    1    3    3  502    0  0.99280661372E+02 -0.29617808934E+03  0.31591048573E+03  0.44427193871E+03  0.10100000352E+00 0.  1.
       -3    1    3    3    0  502 -0.99280661372E+02  0.29617808934E+03 -0.26028898046E+02  0.31345753152E+03  0.10100000352E+00 0. -1.
</event>
<event>
 5   0  0.4936000E-04  0.7000658E+03  0.7818609E-02  0.9717120E-01
       -3   -1    0    0    0  501  0.00000000000E+00  0.00000000000E+00  0.18962973380E+03  0.18962976070E+03  0.10100000352E+00 0. -1.
        3   -1    0    0  501    0  0.00000000000E+00  0.00000000000E+00 -0.64611718994E+03  0.64611719783E+03  0.10100000352E+00 0.  1.
    10030    2    1    2    0    0  0.00000000000E+00  0.00000000000E+00 -0.45648745613E+03  0.83574695853E+03  0.70006584053E+03 0.  0.
        1    1    3    3  502    0  0.16669246496E+03 -0.23398836134E+03 -0.46696466947E+03  0.54826356224E+03  0.50400001928E-02 0.  1.
       -1    1    3    3    0  502 -0.16669246496E+03  0.23398836134E+03  0.10477213337E+02  0.28748339629E+03  0.50400001928E-02 0. -1.
</event>
<event>
 5   0  0.7572415E-04  0.7003956E+03  0.7818609E-02  0.9716556E-01
       -1   -1    0    0    0  501  0.00000000000E+00  0.00000000000E+00  0.13538944566E+03  0.13538944576E+03  0.50400001928E-02 0. -1.
        1   -1    0    0  501    0  0.00000000000E+00  0.00000000000E+00 -0.90582027601E+03  0.90582027603E+03  0.50400001928E-02 0.  1.
    10030    2    1    2    0    0  0.00000000000E+00  0.00000000000E+00 -0.77043083035E+03  0.10412097218E+04  0.70039561705E+03 0.  0.
        4    1    3    3  502    0  0.15231958944E+03  0.62875299319E+02 -0.84457872312E+03  0.86050531261E+03  0.12699999809E+01 0.  1.
       -4    1    3    3    0  502 -0.15231958944E+03 -0.62875299319E+02  0.74147892767E+02  0.18070440917E+03  0.12699999809E+01 0. -1.
</event>
<event>
 5   0  0.7570633E-04  0.7002519E+03  0.7818609E-02  0.9716802E-01
       -1   -1    0    0    0  501  0.00000000000E+00  0.00000000000E+00  0.29351928294E+03  0.29351928298E+03  0.50400001928E-02 0. -1.
        1   -1    0    0  501    0  0.00000000000E+00  0.00000000000E+00 -0.41764948663E+03  0.41764948666E+03  0.50400001928E-02 0.  1.
    10030    2    1    2    0    0  0.00000000000E+00  0.00000000000E+00 -0.12413020369E+03  0.71116876964E+03  0.70025189142E+03 0.  0.
        5    1    3    3  502    0 -0.11474848247E+03  0.16376857755E+03  0.22978004589E+03  0.30464458096E+03  0.46999998093E+01 0. -1.
       -5    1    3    3    0  502  0.11474848247E+03 -0.16376857755E+03 -0.35391024958E+03  0.40652418868E+03  0.46999998093E+01 0.  1.
</event>
<event>
 5   0  0.1282546E-03  0.6992159E+03  0.7818609E-02  0.9718574E-01
        2   -1    0    0  501    0  0.00000000000E+00  0.00000000000E+00  0.16715006908E+04  0.16715006908E+04  0.25500000920E-02 0.  1.
       -2   -1    0    0    0  501  0.00000000000E+00  0.00000000000E+00 -0.73123342573E+02  0.73123342617E+02  0.25500000920E-02 0. -1.
    10030    2    1    2    0    0  0.00000000000E+00  0.00000000000E+00  0.15983773482E+04  0.17446240334E+04  0.69921589702E+03 0.  0.
        5    1    3    3  502    0  0.94291362999E+02  0.29445283529E+03  0.39216900559E+03  0.49941160608E+03  0.46999998093E+01 0. -1.
       -5    1    3    3    0  502 -0.94291362999E+02 -0.29445283529E+03  0.12062083426E+04  0.12452124273E+04  0.46999998093E+01 0.  1.
</event>
<event>
 5   0  0.7013526E-04  0.7004620E+03  0.7818609E-02  0.9716442E-01
        1   -1    0    0  501    0  0.00000000000E+00  0.00000000000E+00  0.51474161211E+03  0.51474161213E+03  0.50400001928E-02 0. -1.
       -1   -1    0    0    0  501  0.00000000000E+00  0.00000000000E+00 -0.23829774537E+03  0.23829774542E+03  0.50400001928E-02 0.  1.
    10030    2    1    2    0    0  0.00000000000E+00  0.00000000000E+00  0.27644386674E+03  0.75303935756E+03  0.70046203507E+03 0.  0.
        1    1    3    3  502    0 -0.25910000617E+03  0.15853475889E+02  0.39098158058E+03  0.46930879203E+03  0.50400001928E-02 0. -1.
       -1    1    3    3    0  502  0.25910000617E+03 -0.15853475889E+02 -0.11453771384E+03  0.28373056553E+03  0.50400001928E-02 0.  1.
</event>
<event>
 5   0  0.1282546E-03  0.7002553E+03  0.7818609E-02  0.9716796E-01
        2   -1    0    0  501    0  0.00000000000E+00  0.00000000000E+00  0.21716350482E+04  0.21716350482E+04  0.25500000920E-02 0. -1.
       -2   -1    0    0    0  501  0.00000000000E+00  0.00000000000E+00 -0.56450270454E+02  0.56450270512E+02  0.25500000920E-02 0.  1.
    10030    2    1    2    0    0  0.00000000000E+00  0.00000000000E+00  0.21151847778E+04  0.22280853187E+04  0.70025534162E+03 0.  0.
        5    1    3    3  502    0  0.16465064107E+03  0.22592975765E+02  0.77163599865E+02  0.18329371866E+03  0.46999998093E+01 0.  1.
       -5    1    3    3    0  502 -0.16465064107E+03 -0.22592975765E+02  0.20380211779E+04  0.20447916001E+04  0.46999998093E+01 0. -1.
</event>
<event>
 5   0  0.7459843E-04  0.6998464E+03  0.7818609E-02  0.9717495E-01
       -1   -1    0    0    0  501  0.00000000000E+00  0.00000000000E+00  0.51984792343E+03  0.51984792346E+03  0.50400001928E-02 0. -1.
        1   -1    0    0  501    0  0.00000000000E+00  0.00000000000E+00 -0.23554243682E+03  0.23554243688E+03  0.50400001928E-02 0.  1.
    10030    2    1    2    0    0  0.00000000000E+00  0.00000000000E+00  0.28430548661E+03  0.75539036034E+03  0.69984640227E+03 0.  0.
        2    1    3    3  502    0  0.19648014528E+03  0.28693226867E+03  0.10018674629E+03  0.36190048139E+03  0.25500000920E-02 0. -1.
       -2    1    3    3    0  502 -0.19648014528E+03 -0.28693226867E+03  0.18411874032E+03  0.39348987895E+03  0.25500000920E-02 0.  1.
</event>
<event>
 5   0  0.7574241E-04  0.7005569E+03  0.7818609E-02  0.9716280E-01
        1   -1    0    0  501    0  0.00000000000E+00  0.00000000000E+00  0.63384960453E+03  0.63384960455E+03  0.50400001928E-02 0.  1.
       -1   -1    0    0    0  501  0.00000000000E+00  0.00000000000E+00 -0.19357115870E+03  0.19357115877E+03  0.50400001928E-02 0. -1.
    10030    2    1    2    0    0  0.00000000000E+00  0.00000000000E+00  0.44027844583E+03  0.82742076332E+03  0.70055692824E+03 0.  0.
        3    1    3    3  502    0 -0.34582282731E+03 -0.48921186886E+02  0.25157223701E+03  0.43043618697E+03  0.10100000352E+00 0.  1.
       -3    1    3    3    0  502  0.34582282731E+03  0.48921186886E+02  0.18870620882E+03  0.39698457635E+03  0.10100000352E+00 0. -1.
</event>
<event>
 5   0  0.4936000E-04  0.6999041E+03  0.7818609E-02  0.9717396E-01
       -3   -1    0    0    0  501  0.00000000000E+00  0.00000000000E+00  0.19473688532E+03  0.19473691151E+03  0.10100000352E+00 0. -1.
        3   -1    0    0  501    0  0.00000000000E+00  0.00000000000E+00 -0.62888150477E+03  0.62888151288E+03  0.10100000352E+00 0.  1.
    10030    2    1    2    0    0  0.00000000000E+00  0.00000000000E+00 -0.43414461945E+03  0.82361842439E+03  0.69990410657E+03 0.  0.
        1    1    3    3  502    0  0.26138767379E+03  0.22793511881E+03 -0.16202180549E+03  0.38279106556E+03  0.50400001928E-02 0.  1.
       -1    1    3    3    0  502 -0.26138767379E+03 -0.22793511881E+03 -0.27212281395E+03  0.44082735883E+03  0.50400001928E-02 0. -1.
</event>
<event>
 5   0  0.7570633E-04  0.7012078E+03  0.7818609E-02  0.9715169E-01
       -1   -1    0    0    0  501  0.00000000000E+00  0.00000000000E+00  0.92474495613E+02  0.92474495751E+02  0.50400001928E-02 0.  1.
        1   -1    0    0  501    0  0.00000000000E+00  0.00000000000E+00 -0.13292648606E+04  0.13292648606E+04  0.50400001928E-02 0. -1.
    10030    2    1    2    0    0  0.00000000000E+00  0.00000000000E+00 -0.12367903650E+04  0.14217393563E+04  0.70120780835E+03 0.  0.
        5    1    3    3  502    0  0.25403339400E+03 -0.23295610051E+03 -0.48857609264E+03  0.59793828974E+03  0.46999998093E+01 0.  1.
       -5    1    3    3    0  502 -0.25403339400E+03  0.23295610051E+03 -0.74821427233E+03  0.82380106661E+03  0.46999998093E+01 0. -1.
</event>
<event>
 5   0  0.1222679E-03  0.7000749E+03  0.7818609E-02  0.9717104E-01
        2   -1    0    0  501    0  0.00000000000E+00  0.00000000000E+00  0.22598510116E+04  0.22598510116E+04  0.25500000920E-02 0. -1.
       -2   -1    0    0    0  501  0.00000000000E+00  0.00000000000E+00 -0.54218714506E+02  0.54218714566E+02  0.25500000920E-02 0.  1.
    10030    2    1    2    0    0  0.00000000000E+00  0.00000000000E+00  0.22056322971E+04  0.23140697262E+04  0.70007490141E+03 0.  0.
        2    1    3    3  502    0 -0.22464478373E+03 -0.15274634174E+03  0.18324884822E+04  0.18525147128E+04  0.25500000920E-02 0.  1.
       -2    1    3    3    0  502  0.22464478373E+03  0.15274634174E+03  0.37314381498E+03  0.46155501344E+03  0.25500000920E-02 0. -1.
</event>
<event>
 5   0  0.1265562E-03  0.6997232E+03  0.7818609E-02  0.9717706E-01
        2   -1    0    0  501    0  0.00000000000E+00  0.00000000000E+00  0.19424778856E+03  0.19424778858E+03  0.25500000920E-02 0.  1.
       -2   -1    0    0    0  501  0.00000000000E+00  0.00000000000E+00 -0.63013909066E+03  0.63013909067E+03  0.25500000920E-02 0. -1.
    10030    2    1    2    0    0  0.00000000000E+00  0.00000000000E+00 -0.43589130210E+03  0.82438687925E+03  0.69972315913E+03 0.  0.
        1    1    3    3  502    0  0.15022430870E+02  0.17965556925E+03  0.13530898970E+03  0.22541144539E+03  0.50400001928E-02 0.  1.
       -1    1    3    3    0  502 -0.15022430870E+02 -0.17965556925E+03 -0.57120029180E+03  0.59897543386E+03  0.50400001928E-02 0. -1.
</event>
<event>
 5   0  0.7572415E-04  0.7002679E+03  0.7818609E-02  0.9716774E-01
       -1   -1    0    0    0  501  0.00000000000E+00  0.00000000000E+00  0.24114503136E+03  0.24114503141E+03  0.50400001928E-02 0.  1.
        1   -1    0    0  501    0  0.00000000000E+00  0.00000000000E+00 -0.50838194520E+03  0.50838194522E+03  0.50400001928E-02 0. -1.
    10030    2    1    2    0    0  0.00000000000E+00  0.00000000000E+00 -0.26723691384E+03  0.74952697663E+03  0.70026789201E+03 0.  0.
        4    1    3    3  502    0  0.10045806148E+03 -0.93966740951E+02  0.21100977631E+03  0.25188947799E+03  0.12699999809E+01 0.  1.
       -4    1    3    3    0  502 -0.10045806148E+03  0.93966740951E+02 -0.47824669015E+03  0.49763749865E+03  0.12699999809E+01 0. -1.
</event>
<event>
 5   0  0.7574241E-04  0.7000099E+03  0.7818609E-02  0.9717215E-01
       -1   -1    0    0    0  501  0.00000000000E+00  0.00000000000E+00  0.10031210007E+03  0.10031210020E+03  0.50400001928E-02 0. -1.
        1   -1    0    0  501    0  0.00000000000E+00  0.00000000000E+00 -0.12212230883E+04  0.12212230883E+04  0.50400001928E-02 0.  1.
    10030    2    1    2    0    0  0.00000000000E+00  0.00000000000E+00 -0.11209109883E+04  0.13215351885E+04  0.70000986488E+03 0.  0.
        3    1    3    3  502    0  0.15473969006E+03 -0.13874973944E+03 -0.10921129663E+04  0.11117133638E+04  0.10100000352E+00 0.  1.
       -3    1    3    3    0  502 -0.15473969006E+03  0.13874973944E+03 -0.28798021976E+02  0.20982182476E+03  0.10100000352E+00 0. -1.
</event>
<event>
 5   0  0.7013526E-04  0.6982185E+03  0.7818609E-02  0.9720284E-01
        1   -1    0    0  501    0  0.00000000000E+00  0.00000000000E+00  0.43030511749E+03  0.43030511751E+03  0.50400001928E-02 0.  1.
       -1   -1    0    0    0  501  0.00000000000E+00  0.00000000000E+00 -0.28323450550E+03  0.28323450554E+03  0.50400001928E-02 0. -1.
    10030    2    1    2    0    0  0.00000000000E+00  0.00000000000E+00  0.14707061199E+03  0.71353962305E+03  0.69821846779E+03 0.  0.
        1    1    3    3  502    0 -0.18614522535E+03 -0.15203477431E+02 -0.22788782124E+03  0.29464224025E+03  0.50400001928E-02 0. -1.
       -1    1    3    3    0  502  0.18614522535E+03  0.15203477431E+02  0.37495843323E+03  0.41889738280E+03  0.50400001928E-02 0.  1.
</event>
<event>
 5   0  0.7459843E-04  0.7001334E+03  0.7818609E-02  0.9717004E-01
        1   -1    0    0  501    0  0.00000000000E+00  0.00000000000E+00  0.53861176849E+03  0.53861176852E+03  0.50400001928E-02 0.  1.
       -1   -1    0    0    0  501  0.00000000000E+00  0.00000000000E+00 -0.22752321841E+03  0.22752321847E+03  0.50400001928E-02 0. -1.
    10030    2    1    2    0    0  0.00000000000E+00  0.00000000000E+00  0.31108855008E+03  0.76613498698E+03  0.70013336750E+03 0.  0.
        2    1    3    3  502    0 -0.26750631963E+03 -0.18424844299E+03  0.29838556036E+03  0.44106809273E+03  0.25500000920E-02 0. -1.
       -2    1    3    3    0  502  0.26750631963E+03  0.18424844299E+03  0.12702989721E+02  0.32506689426E+03  0.25500000920E-02 0.  1.
</event>
<event>
 5   0  0.1265562E-03  0.6997545E+03  0.7818609E-02  0.9717652E-01
       -2   -1    0    0    0  501  0.00000000000E+00  0.00000000000E+00  0.79624608298E+02  0.79624608339E+02  0.25500000920E-02 0.  1.
        2   -1    0    0  501    0  0.00000000000E+00  0.00000000000E+00 -0.15373901128E+04  0.15373901128E+04  0.25500000920E-02 0. -1.
    10030    2    1    2    0    0  0.00000000000E+00  0.00000000000E+00 -0.14577655045E+04  0.16170147211E+04  0.69975448713E+03 0.  0.
        1    1    3    3  502    0 -0.20589383707E+03  0.16905148192E+03 -0.12530056765E+04  0.12810128418E+04  0.50400001928E-02 0. -1.
       -1    1    3    3    0  502  0.20589383707E+03 -0.16905148192E+03 -0.20475982802E+03  0.33600187928E+03  0.50400001928E-02 0.  1.
</event>
<event>
 5   0  0.1224048E-03  0.6999308E+03  0.7818609E-02  0.9717350E-01
       -2   -1    0    0    0  501  0.00000000000E+00  0.00000000000E+00  0.48608971022E+03  0.48608971022E+03  0.25500000920E-02 0.  1.
        2   -1    0    0  501    0  0.00000000000E+00  0.00000000000E+00 -0.25196130657E+03  0.25196130659E+03  0.25500000920E-02 0. -1.
    10030    2    1    2    0    0  0.00000000000E+00  0.00000000000E+00  0.23412840364E+03  0.73805101681E+03  0.69993084946E+03 0.  0.
        3    1    3    3  502    0  0.43173800753E+02 -0.70540946171E+02 -0.24150862588E+03  0.25527716062E+03  0.10100000352E+00 0. -1.
       -3    1    3    3    0  502 -0.43173800753E+02  0.70540946171E+02  0.47563702953E+03  0.48277385619E+03  0.10100000352E+00 0.  1.
</event>
<event>
 5   0  0.7574241E-04  0.7004785E+03  0.7818609E-02  0.9716414E-01
        1   -1    0    0  501    0  0.00000000000E+00  0.00000000000E+00  0.72530035858E+03  0.72530035860E+03  0.50400001928E-02 0.  1.
       -1   -1    0    0    0  501  0.00000000000E+00  0.00000000000E+00 -0.16912654530E+03  0.16912654537E+03  0.50400001928E-02 0. -1.
    10030    2    1    2    0    0  0.00000000000E+00  0.00000000000E+00  0.55617381329E+03  0.89442690397E+03  0.70047853355E+03 0.  0.
        3    1    3    3  502    0  0.32710879454E+03 -0.12516936413E+03  0.27811836609E+03  0.44723301414E+03  0.10100000352E+00 0. -1.
       -3    1    3    3    0  502 -0.32710879454E+03  0.12516936413E+03  0.27805544720E+03  0.44719388983E+03  0.10100000352E+00 0.  1.
</event>
<event>
 5   0  0.1243087E-03  0.6999495E+03  0.7818609E-02  0.9717319E-01
       -2   -1    0    0    0  501  0.00000000000E+00  0.00000000000E+00  0.22933040230E+03  0.22933040232E+03  0.25500000920E-02 0.  1.
        2   -1    0    0  501    0  0.00000000000E+00  0.00000000000E+00 -0.53408672588E+03  0.53408672589E+03  0.25500000920E-02 0. -1.
    10030    2    1    2    0    0  0.00000000000E+00  0.00000000000E+00 -0.30475632358E+03  0.76341712820E+03  0.69994949451E+03 0.  0.
        4    1    3    3  502    0 -0.22700928313E+02 -0.18398455499E+03  0.17137966147E+03  0.25246435369E+03  0.12699999809E+01 0.  1.
       -4    1    3    3    0  502  0.22700928313E+02  0.18398455499E+03 -0.47613598505E+03  0.51095277451E+03  0.12699999809E+01 0. -1.
</event>
<event>
 5   0  0.7574241E-04  0.7000196E+03  0.7818609E-02  0.9717199E-01
       -1   -1    0    0    0  501  0.00000000000E+00  0.00000000000E+00  0.13355023530E+03  0.13355023540E+03  0.50400001928E-02 0.  1.
        1   -1    0    0  501    0  0.00000000000E+00  0.00000000000E+00 -0.91730918259E+03  0.91730918261E+03  0.50400001928E-02 0. -1.
    10030    2    1    2    0    0  0.00000000000E+00  0.00000000000E+00 -0.78375894729E+03  0.10508594180E+04  0.70001959184E+03 0.  0.
        3    1    3    3  502    0 -0.11928422837E+03  0.26069505236E+03 -0.69330100565E+03  0.75023791699E+03  0.10100000352E+00 0. -1.
       -3    1    3    3    0  502  0.11928422837E+03 -0.26069505236E+03 -0.90457941639E+02  0.30062150101E+03  0.10100000352E+00 0.  1.
</event>
<event>
 5   0  0.7574241E-04  0.6996818E+03  0.7818609E-02  0.9717777E-01
        1   -1    0    0  501    0  0.00000000000E+00  0.00000000000E+00  0.34643428823E+03  0.34643428826E+03  0.50400001928E-02 0. -1.
       -1   -1    0    0    0  501  0.00000000000E+00  0.00000000000E+00 -0.35328099196E+03  0.35328099199E+03  0.50400001928E-02 0.  1.
    10030    2    1    2    0    0  0.00000000000E+00  0.00000000000E+00 -0.68467037295E+01  0.69971528025E+03  0.69968178200E+03 0.  0.
        3    1    3    3  502    0  0.19589735297E+03 -0.21889433333E+03  0.18658084107E+03  0.34799845189E+03  0.10100000352E+00 0. -1.
       -3    1    3    3    0  502 -0.19589735297E+03  0.21889433333E+03 -0.19342754480E+03  0.35171682836E+03  0.10100000352E+00 0.  1.
</event>
<event>
 5   0  0.1282546E-03  0.7029354E+03  0.7818609E-02  0.9712225E-01
       -2   -1    0    0    0  501  0.00000000000E+00  0.00000000000E+00  0.53194176943E+03  0.53194176944E+03  0.25500000920E-02 0. -1.
        2   -1    0    0  501    0  0.00000000000E+00  0.00000000000E+00 -0.23222377971E+03  0.23222377972E+03  0.25500000920E-02 0.  1.
    10030    2    1    2    0    0  0.00000000000E+00  0.00000000000E+00  0.29971798972E+03  0.76416554915E+03  0.70293535489E+03 0.  0.
        5    1    3    3  502    0  0.19055678946E+03  0.15944212712E+03  0.42005198207E+03  0.48805679952E+03  0.46999998093E+01 0. -1.
       -5    1    3    3    0  502 -0.19055678946E+03 -0.15944212712E+03 -0.12033399235E+03  0.27610874964E+03  0.46999998093E+01 0.  1.
</event>
<event>
 5   0  0.7572415E-04  0.6998600E+03  0.7818609E-02  0.9717472E-01
       -1   -1    0    0    0  501  0.00000000000E+00  0.00000000000E+00  0.75132908803E+03  0.75132908805E+03  0.50400001928E-02 0.  1.
        1   -1    0    0  501    0  0.00000000000E+00  0.00000000000E+00 -0.16297917318E+03  0.16297917326E+03  0.50400001928E-02 0. -1.
    10030    2    1    2    0    0  0.00000000000E+00  0.00000000000E+00  0.58834991485E+03  0.91430826131E+03  0.69985996770E+03 0.  0.
        4    1    3    3  502    0 -0.23046668446E+03  0.49757780321E+02 -0.43625549881E+02  0.23978225716E+03  0.12699999809E+01 0. -1.
       -4    1    3    3    0  502  0.23046668446E+03 -0.49757780321E+02  0.63197546473E+03  0.67452600415E+03  0.12699999809E+01 0.  1.
</event>
<event>
 5   0  0.7574241E-04  0.7002756E+03  0.7818609E-02  0.9716761E-01
       -1   -1    0    0    0  501  0.00000000000E+00  0.00000000000E+00  0.78873862128E+03  0.78873862130E+03  0.50400001928E-02 0.  1.
        1   -1    0    0  501    0  0.00000000000E+00  0.00000000000E+00 -0.15543359150E+03  0.15543359159E+03  0.50400001928E-02 0. -1.
    10030    2    1    2    0    0  0.00000000000E+00  0.00000000000E+00  0.63330502978E+03  0.94417221289E+03  0.70027559349E+03 0.  0.
        3    1    3    3  502    0  0.22866827130E+03 -0.17658614204E+03  0.49962162272E+02  0.29320312365E+03  0.10100000352E+00 0. -1.
       -3    1    3    3    0  502 -0.22866827130E+03  0.17658614204E+03  0.58334286751E+03  0.65096908923E+03  0.10100000352E+00 0.  1.
</event>
<event>
 5   0  0.1222679E-03  0.6993585E+03  0.7818609E-02  0.9718330E-01
       -2   -1    0    0    0  501  0.00000000000E+00  0.00000000000E+00  0.28739739361E+03  0.28739739363E+03  0.25500000920E-02 0.  1.
        2   -1    0    0  501    0  0.00000000000E+00  0.00000000000E+00 -0.42545821974E+03  0.42545821975E+03  0.25500000920E-02 0. -1.
    10030    2    1    2    0    0  0.00000000000E+00  0.00000000000E+00 -0.13806082613E+03  0.71285561338E+03  0.69935851593E+03 0.  0.
        2    1    3    3  502    0 -0.52781405544E+02  0.33517211618E+03  0.17155297239E+02  0.33973596876E+03  0.25500000920E-02 0. -1.
       -2    1    3    3    0  502  0.52781405544E+02 -0.33517211618E+03 -0.15521612337E+03  0.37311964462E+03  0.25500000920E-02 0.  1.
</event>
<event>
 5   0  0.7572415E-04  0.7008449E+03  0.7818609E-02  0.9715788E-01
       -1   -1    0    0    0  501  0.00000000000E+00  0.00000000000E+00  0.72396468490E+03  0.72396468492E+03  0.50400001928E-02 0. -1.
        1   -1    0    0  501    0  0.00000000000E+00  0.00000000000E+00 -0.16961587962E+03  0.16961587969E+03  0.50400001928E-02 0.  1.
    10030    2    1    2    0    0  0.00000000000E+00  0.00000000000E+00  0.55434880528E+03  0.89358056461E+03  0.70084493829E+03 0.  0.
        4    1    3    3  502    0  0.86059270552E+02 -0.24925523792E+03  0.57142139844E+03  0.62933170839E+03  0.12699999809E+01 0. -1.
       -4    1    3    3    0  502 -0.86059270552E+02  0.24925523792E+03 -0.17072593163E+02  0.26424885622E+03  0.12699999809E+01 0.  1.
</event>
<event>
 5   0  0.1265562E-03  0.7002068E+03  0.7818609E-02  0.9716879E-01
       -2   -1    0    0    0  501  0.00000000000E+00  0.00000000000E+00  0.65567703367E+02  0.65567703416E+02  0.25500000920E-02 0. -1.
        2   -1    0    0  501    0  0.00000000000E+00  0.00000000000E+00 -0.18694018782E+04  0.18694018782E+04  0.25500000920E-02 0.  1.
    10030    2    1    2    0    0  0.00000000000E+00  0.00000000000E+00 -0.18038341748E+04  0.19349695816E+04  0.70020679195E+03 0.  0.
        1    1    3    3  502    0 -0.26621330698E+03 -0.18436910104E+03 -0.53415402319E+03  0.62464550806E+03  0.50400001928E-02 0. -1.
       -1    1    3    3    0  502  0.26621330698E+03  0.18436910104E+03 -0.12696801516E+04  0.13103240735E+04  0.50400001928E-02 0.  1.
</event>
<event>
 5   0  0.4936000E-04  0.7003847E+03  0.7818609E-02  0.9716575E-01
        4   -1    0    0  501    0  0.00000000000E+00  0.00000000000E+00  0.13500358977E+03  0.13500956318E+03  0.12699999809E+01 0. -1.
       -4   -1    0    0    0  501  0.00000000000E+00  0.00000000000E+00 -0.90835439222E+03  0.90835528003E+03  0.12699999809E+01 0.  1.
    10030    2    1    2    0    0  0.00000000000E+00  0.00000000000E+00 -0.77335080245E+03  0.10433648432E+04  0.70038470315E+03 0.  0.
        3    1    3    3  502    0  0.20267248895E+03  0.79804102389E+02 -0.79516323665E+03  0.82445704294E+03  0.10100000352E+00 0.  1.
       -3    1    3    3    0  502 -0.20267248895E+03 -0.79804102389E+02  0.21812434203E+02  0.21890780027E+03  0.10100000352E+00 0. -1.
</event>
<event>
 5   0  0.7572415E-04  0.6995464E+03  0.7818609E-02  0.9718008E-01
       -1   -1    0    0    0  501  0.00000000000E+00  0.00000000000E+00  0.16353838431E+03  0.16353838438E+03  0.50400001928E-02 0.  1.
        1   -1    0    0  501    0  0.00000000000E+00  0.00000000000E+00 -0.74808923373E+03  0.74808923374E+03  0.50400001928E-02 0. -1.
    10030    2    1    2    0    0  0.00000000000E+00  0.00000000000E+00 -0.58455084942E+03  0.91162761813E+03  0.69954643775E+03 0.  0.
        4    1    3    3  502    0 -0.14394410436E+03  0.88322763624E+02 -0.69143452696E+03  0.71176128985E+03  0.12699999809E+01 0. -1.
       -4    1    3    3    0  502  0.14394410436E+03 -0.88322763624E+02  0.10688367755E+03  0.19986632828E+03  0.12699999809E+01 0.  1.
</event>
<event>
 5   0  0.1224048E-03  0.6998364E+03  0.7818609E-02  0.9717512E-01
        2   -1    0    0  501    0  0.00000000000E+00  0.00000000000E+00  0.63778378838E+03  0.63778378838E+03  0.25500000920E-02 0. -1.
       -2   -1    0    0    0  501  0.00000000000E+00  0.00000000000E+00 -0.19198160267E+03  0.19198160269E+03  0.25500000920E-02 0.  1.
    10030    2    1    2    0    0  0.00000000000E+00  0.00000000000E+00  0.44580218571E+03  0.82976539107E+03  0.69983642049E+03 0.  0.
        3    1    3    3  502    0  0.16774744678E+03 -0.30389804349E+03  0.27525176729E+03  0.44300877230E+03  0.10100000352E+00 0. -1.
       -3    1    3    3    0  502 -0.16774744678E+03  0.30389804349E+03  0.17055041841E+03  0.38675661877E+03  0.10100000352E+00 0.  1.
</event>
<event>
 5   0  0.7574241E-04  0.6998693E+03  0.7818609E-02  0.9717456E-01
        1   -1    0    0  501    0  0.00000000000E+00  0.00000000000E+00  0.40751295611E+03  0.40751295614E+03  0.50400001928E-02 0. -1.
       -1   -1    0    0    0  501  0.00000000000E+00  0.00000000000E+00 -0.30049173239E+03  0.30049173243E+03  0.50400001928E-02 0.  1.
    10030    2    1    2    0    0  0.00000000000E+00  0.00000000000E+00  0.10702122373E+03  0.70800468857E+03  0.69986934260E+03 0.  0.
        3    1    3    3  502    0  0.34475991109E+03 -0.28796152436E+02  0.10671135724E+03  0.36204411147E+03  0.10100000352E+00 0.  1.
       -3    1    3    3    0  502 -0.34475991109E+03  0.28796152436E+02  0.30986648559E+00  0.34596057710E+03  0.10100000352E+00 0. -1.
</event>
<event>
 5   0  0.1222679E-03  0.7000793E+03  0.7818609E-02  0.9717097E-01
        2   -1    0    0  501    0  0.00000000000E+00  0.00000000000E+00  0.10070516411E+04  0.10070516411E+04  0.25500000920E-02 0. -1.
       -2   -1    0    0    0  501  0.00000000000E+00  0.00000000000E+00 -0.12166977890E+03  0.12166977893E+03  0.25500000920E-02 0.  1.
    10030    2    1    2    0    0  0.00000000000E+00  0.00000000000E+00  0.88538186224E+03  0.11287214201E+04  0.70007928276E+03 0.  0.
        2    1    3    3  502    0 -0.46132616796E+01  0.15068847262E+03  0.95202604821E+03  0.96388894300E+03  0.25500000920E-02 0. -1.
       -2    1    3    3    0  502  0.46132616796E+01 -0.15068847262E+03 -0.66644185974E+02  0.16483247707E+03  0.25500000920E-02 0.  1.
</event>
<event>
 5   0  0.1224048E-03  0.6998686E+03  0.7818609E-02  0.9717457E-01
       -2   -1    0    0    0  501  0.00000000000E+00  0.00000000000E+00  0.10368903881E+03  0.10368903884E+03  0.25500000920E-02 0.  1.
        2   -1    0    0  501    0  0.00000000000E+00  0.00000000000E+00 -0.11809734823E+04  0.11809734823E+04  0.25500000920E-02 0. -1.
    10030    2    1    2    0    0  0.00000000000E+00  0.00000000000E+00 -0.10772844435E+04  0.12846625212E+04  0.69986857414E+03 0.  0.
        3    1    3    3  502    0 -0.25859654421E+03  0.12412759377E+03 -0.90655593790E+03  0.95085409551E+03  0.10100000352E+00 0. -1.
       -3    1    3    3    0  502  0.25859654421E+03 -0.12412759377E+03 -0.17072850561E+03  0.33380842566E+03  0.10100000352E+00 0.  1.
</event>
<event>
 5   0  0.1222679E-03  0.6997505E+03  0.7818609E-02  0.9717659E-01
        2   -1    0    0  501    0  0.00000000000E+00  0.00000000000E+00  0.82306293969E+03  0.82306293970E+03  0.25500000920E-02 0.  1.
       -2   -1    0    0    0  501  0.00000000000E+00  0.00000000000E+00 -0.14872820815E+03  0.14872820817E+03  0.25500000920E-02 0. -1.
    10030    2    1    2    0    0  0.00000000000E+00  0.00000000000E+00  0.67433473154E+03  0.97179114787E+03  0.69975045902E+03 0.  0.
        2    1    3    3  502    0 -0.32130869843E+03 -0.44679796573E+02  0.15515335305E+03  0.35959439217E+03  0.25500000920E-02 0. -1.
       -2    1    3    3    0  502  0.32130869843E+03  0.44679796573E+02  0.51918137849E+03  0.61219675570E+03  0.25500000920E-02 0.  1.
</event>
<event>
 5   0  0.1222679E-03  0.7001320E+03  0.7818609E-02  0.9717006E-01
       -2   -1    0    0    0  501  0.00000000000E+00  0.00000000000E+00  0.40652319165E+03  0.40652319166E+03  0.25500000920E-02 0. -1.
        2   -1    0    0  501    0  0.00000000000E+00  0.00000000000E+00 -0.30144949843E+03  0.30144949844E+03  0.25500000920E-02 0.  1.
    10030    2    1    2    0    0  0.00000000000E+00  0.00000000000E+00  0.10507369323E+03  0.70797269010E+03  0.70013202249E+03 0.  0.
        2    1    3    3  502    0 -0.15418162610E+03 -0.30305705903E+03 -0.31646033120E+02  0.34149235170E+03  0.25500000920E-02 0.  1.
       -2    1    3    3    0  502  0.15418162610E+03  0.30305705903E+03  0.13671972635E+03  0.36648033840E+03  0.25500000920E-02 0. -1.
</event>
<event>
 5   0  0.7570633E-04  0.6977614E+03  0.7818609E-02  0.9721068E-01
       -1   -1    0    0    0  501  0.00000000000E+00  0.00000000000E+00  0.12466958001E+03  0.12466958011E+03  0.50400001928E-02 0. -1.
        1   -1    0    0  501    0  0.00000000000E+00  0.00000000000E+00 -0.97632273185E+03  0.97632273187E+03  0.50400001928E-02 0.  1.
    10030    2    1    2    0    0  0.00000000000E+00  0.00000000000E+00 -0.85165315184E+03  0.11009923120E+04  0.69776140621E+03 0.  0.
        5    1    3    3  502    0 -0.56226632581E+02  0.32403778426E+03 -0.24226313983E+03  0.40850390299E+03  0.46999998093E+01 0. -1.
       -5    1    3    3    0  502  0.56226632581E+02 -0.32403778426E+03 -0.60939001201E+03  0.69248840898E+03  0.46999998093E+01 0.  1.
</event>
<event>
 5   0  0.7572415E-04  0.6999271E+03  0.7818609E-02  0.9717357E-01
       -1   -1    0    0    0  501  0.00000000000E+00  0.00000000000E+00  0.61825840928E+03  0.61825840930E+03  0.50400001928E-02 0. -1.
        1   -1    0    0  501    0  0.00000000000E+00  0.00000000000E+00 -0.19809593143E+03  0.19809593149E+03  0.50400001928E-02 0.  1.
    10030    2    1    2    0    0  0.00000000000E+00  0.00000000000E+00  0.42016247785E+03  0.81635434079E+03  0.69992706901E+03 0.  0.
        4    1    3    3  502    0 -0.61483509357E+02  0.17030098323E+03 -0.13921865279E+03  0.22839897766E+03  0.12699999809E+01 0.  1.
       -4    1    3    3    0  502  0.61483509357E+02 -0.17030098323E+03  0.55938113064E+03  0.58795536313E+03  0.12699999809E+01 0. -1.
</event>
<event>
 5   0  0.1222679E-03  0.6998912E+03  0.7818609E-02  0.9717418E-01
        2   -1    0    0  501    0  0.00000000000E+00  0.00000000000E+00  0.10843380009E+03  0.10843380012E+03  0.25500000920E-02 0. -1.
       -2   -1    0    0    0  501  0.00000000000E+00  0.00000000000E+00 -0.11293703892E+04  0.11293703892E+04  0.25500000920E-02 0.  1.
    10030    2    1    2    0    0  0.00000000000E+00  0.00000000000E+00 -0.10209365891E+04  0.12378041893E+04  0.69989120020E+03 0.  0.
        2    1    3    3  502    0 -0.32335046432E+03 -0.44065598102E+02 -0.73392878772E+03  0.80321153201E+03  0.25500000920E-02 0.  1.
       -2    1    3    3    0  502  0.32335046432E+03  0.44065598102E+02 -0.28700780136E+03  0.43459265728E+03  0.25500000920E-02 0. -1.
</event>
<event>
 5   0  0.1222679E-03  0.7000603E+03  0.7818609E-02  0.9717129E-01
       -2   -1    0    0    0  501  0.00000000000E+00  0.00000000000E+00  0.96783962933E+02  0.96783962967E+02  0.25500000920E-02 0.  1.
        2   -1    0    0  501    0  0.00000000000E+00  0.00000000000E+00 -0.12659235689E+04  0.12659235689E+04  0.25500000920E-02 0. -1.
    10030    2    1    2    0    0  0.00000000000E+00  0.00000000000E+00 -0.11691396060E+04  0.13627075319E+04  0.70006028254E+03 0.  0.
        2    1    3    3  502    0 -0.37925522345E+01 -0.10027720791E+03  0.68183774206E+02  0.12132159309E+03  0.25500000920E-02 0.  1.
       -2    1    3    3    0  502  0.37925522345E+01  0.10027720791E+03 -0.12373233802E+04  0.12413859388E+04  0.25500000920E-02 0. -1.
</event>
<event>
 5   0  0.7570633E-04  0.6998721E+03  0.7818609E-02  0.9717451E-01
       -1   -1    0    0    0  501  0.00000000000E+00  0.00000000000E+00  0.20591055414E+03  0.20591055421E+03  0.50400001928E-02 0. -1.
        1   -1    0    0  501    0  0.00000000000E+00  0.00000000000E+00 -0.59470116310E+03  0.59470116312E+03  0.50400001928E-02 0.  1.
    10030    2    1    2    0    0  0.00000000000E+00  0.00000000000E+00 -0.38879060896E+03  0.80061171733E+03  0.69987211997E+03 0.  0.
        5    1    3    3  502    0 -0.44993372721E+02 -0.91615788499E+02  0.18846639371E+03  0.21438173394E+03  0.46999998093E+01 0. -1.
       -5    1    3    3    0  502  0.44993372721E+02  0.91615788499E+02 -0.57725700267E+03  0.58622998339E+03  0.46999998093E+01 0.  1.
</event>
<event>
 5   0  0.1224048E-03  0.6998588E+03  0.7818609E-02  0.9717474E-01
       -2   -1    0    0    0  501  0.00000000000E+00  0.00000000000E+00  0.64508377134E+03  0.64508377135E+03  0.25500000920E-02 0.  1.
        2   -1    0    0  501    0  0.00000000000E+00  0.00000000000E+00 -0.18982122814E+03  0.18982122815E+03  0.25500000920E-02 0. -1.
    10030    2    1    2    0    0  0.00000000000E+00  0.00000000000E+00  0.45526254321E+03  0.83490499950E+03  0.69985882501E+03 0.  0.
        3    1    3    3  502    0 -0.68203672724E+02 -0.15549413436E+03  0.59264727309E+03  0.61649084932E+03  0.10100000352E+00 0.  1.
       -3    1    3    3    0  502  0.68203672724E+02  0.15549413436E+03 -0.13738472988E+03  0.21841415018E+03  0.10100000352E+00 0. -1.
</event>
<event>
 5   0  0.4936000E-04  0.7007948E+03  0.7818609E-02  0.9715874E-01
       -4   -1    0    0    0  501  0.00000000000E+00  0.00000000000E+00  0.72661314948E+03  0.72661425936E+03  0.12699999809E+01 0. -1.
        4   -1    0    0  501    0  0.00000000000E+00  0.00000000000E+00 -0.16896982893E+03  0.16897460161E+03  0.12699999809E+01 0.  1.
    10030    2    1    2    0    0  0.00000000000E+00  0.00000000000E+00  0.55764332055E+03  0.89558886097E+03  0.70079478803E+03 0.  0.
        1    1    3    3  502    0  0.14590451330E+03 -0.30617786863E+03  0.16635145496E+03  0.37776423975E+03  0.50400001928E-02 0.  1.
       -1    1    3    3    0  502 -0.14590451330E+03  0.30617786863E+03  0.39129186559E+03  0.51782462122E+03  0.50400001928E-02 0. -1.
</event>
<event>
 5   0  0.7013526E-04  0.7000973E+03  0.7818609E-02  0.9717066E-01
        1   -1    0    0  501    0  0.00000000000E+00  0.00000000000E+00  0.34410266769E+03  0.34410266772E+03  0.50400001928E-02 0.  1.
       -1   -1    0    0    0  501  0.00000000000E+00  0.00000000000E+00 -0.35609741618E+03  0.35609741622E+03  0.50400001928E-02 0. -1.
    10030    2    1    2    0    0  0.00000000000E+00  0.00000000000E+00 -0.11994748498E+02  0.70020008394E+03  0.70009733863E+03 0.  0.
        1    1    3    3  502    0 -0.54890419115E+02 -0.90742439617E+02 -0.33964327851E+03  0.35581554930E+03  0.50400001928E-02 0. -1.
       -1    1    3    3    0  502  0.54890419115E+02  0.90742439617E+02  0.32764853001E+03  0.34438453465E+03  0.50400001928E-02 0.  1.
</event>
<event>
 5   0  0.1222679E-03  0.7000674E+03  0.7818609E-02  0.9717117E-01
       -2   -1    0    0    0  501  0.00000000000E+00  0.00000000000E+00  0.30936270838E+03  0.30936270839E+03  0.25500000920E-02 0. -1.
        2   -1    0    0  501    0  0.00000000000E+00  0.00000000000E+00 -0.39605159243E+03  0.39605159244E+03  0.25500000920E-02 0.  1.
    10030    2    1    2    0    0  0.00000000000E+00  0.00000000000E+00 -0.86688884056E+02  0.70541430083E+03  0.70006740618E+03 0.  0.
        2    1    3    3  502    0  0.34690753834E+03  0.40655903508E+02 -0.66451018753E+02  0.35554673468E+03  0.25500000920E-02 0.  1.
       -2    1    3    3    0  502 -0.34690753834E+03 -0.40655903508E+02 -0.20237865303E+02  0.34986756615E+03  0.25500000920E-02 0. -1.
</event>
<event>
 5   0  0.1282546E-03  0.6997834E+03  0.7818609E-02  0.9717603E-01
        2   -1    0    0  501    0  0.00000000000E+00  0.00000000000E+00  0.11956059810E+04  0.11956059810E+04  0.25500000920E-02 0. -1.
       -2   -1    0    0    0  501  0.00000000000E+00  0.00000000000E+00 -0.10239511459E+03  0.10239511462E+03  0.25500000920E-02 0.  1.
    10030    2    1    2    0    0  0.00000000000E+00  0.00000000000E+00  0.10932108664E+04  0.12980010956E+04  0.69978342780E+03 0.  0.
        5    1    3    3  502    0  0.17447132463E+03 -0.20469667143E+03  0.13159231823E+03  0.29946552160E+03  0.46999998093E+01 0.  1.
       -5    1    3    3    0  502 -0.17447132463E+03  0.20469667143E+03  0.96161854816E+03  0.99853557402E+03  0.46999998093E+01 0. -1.
</event>
<event>
 5   0  0.4936000E-04  0.6998381E+03  0.7818609E-02  0.9717509E-01
       -4   -1    0    0    0  501  0.00000000000E+00  0.00000000000E+00  0.36254389185E+03  0.36254611626E+03  0.12699999809E+01 0.  1.
        4   -1    0    0  501    0  0.00000000000E+00  0.00000000000E+00 -0.33772934758E+03  0.33773173544E+03  0.12699999809E+01 0. -1.
    10030    2    1    2    0    0  0.00000000000E+00  0.00000000000E+00  0.24814544265E+02  0.70027785170E+03  0.69983805839E+03 0.  0.
        1    1    3    3  502    0 -0.32023903726E+03  0.10895042244E+03  0.10201851361E+03  0.35331432560E+03  0.50400001928E-02 0. -1.
       -1    1    3    3    0  502  0.32023903726E+03 -0.10895042244E+03 -0.77203969340E+02  0.34696352609E+03  0.50400001928E-02 0.  1.
</event>
<event>
 5   0  0.7570633E-04  0.6998652E+03  0.7818609E-02  0.9717463E-01
       -1   -1    0    0    0  501  0.00000000000E+00  0.00000000000E+00  0.12081477978E+03  0.12081477988E+03  0.50400001928E-02 0. -1.
        1   -1    0    0  501    0  0.00000000000E+00  0.00000000000E+00 -0.10135583918E+04  0.10135583918E+04  0.50400001928E-02 0.  1.
    10030    2    1    2    0    0  0.00000000000E+00  0.00000000000E+00 -0.89274361197E+03  0.11343731717E+04  0.69986522691E+03 0.  0.
        5    1    3    3  502    0 -0.12958387347E+03 -0.32337423416E+03 -0.39340541356E+03  0.52550241199E+03  0.46999998093E+01 0. -1.
       -5    1    3    3    0  502  0.12958387347E+03  0.32337423416E+03 -0.49933819841E+03  0.60887075966E+03  0.46999998093E+01 0.  1.
</event>
<event>
 5   0  0.1243087E-03  0.7001421E+03  0.7818609E-02  0.9716989E-01
        2   -1    0    0  501    0  0.00000000000E+00  0.00000000000E+00  0.92316508244E+03  0.92316508244E+03  0.25500000920E-02 0. -1.
       -2   -1    0    0    0  501  0.00000000000E+00  0.00000000000E+00 -0.13274955840E+03  0.13274955842E+03  0.25500000920E-02 0.  1.
    10030    2    1    2    0    0  0.00000000000E+00  0.00000000000E+00  0.79041552404E+03  0.10559146409E+04  0.70014214853E+03 0.  0.
        4    1    3    3  502    0  0.32695545890E+03 -0.11643544998E+03  0.32624325588E+03  0.47633324576E+03  0.12699999809E+01 0.  1.
       -4    1    3    3    0  502 -0.32695545890E+03  0.11643544998E+03  0.46417226816E+03  0.57958139510E+03  0.12699999809E+01 0. -1.
</event>
<event>
 5   0  0.7574241E-04  0.6999390E+03  0.7818609E-02  0.9717336E-01
       -1   -1    0    0    0  501  0.00000000000E+00  0.00000000000E+00  0.91807475320E+02  0.91807475458E+02  0.50400001928E-02 0. -1.
        1   -1    0    0  501    0  0.00000000000E+00  0.00000000000E+00 -0.13340815503E+04  0.13340815504E+04  0.50400001928E-02 0.  1.
    10030    2    1    2    0    0  0.00000000000E+00  0.00000000000E+00 -0.12422740750E+04  0.14258890258E+04  0.69993902338E+03 0.  0.
        3    1    3    3  502    0  0.14812803951E+03 -0.11911523503E+03 -0.12197586592E+04  0.12344802761E+04  0.10100000352E+00 0.  1.
       -3    1    3    3    0  502 -0.14812803951E+03  0.11911523503E+03 -0.22515415850E+02  0.19140874969E+03  0.10100000352E+00 0. -1.
</event>
<event>
 5   0  0.7459843E-04  0.7002381E+03  0.7818609E-02  0.9716825E-01
        1   -1    0    0  501    0  0.00000000000E+00  0.00000000000E+00  0.46621391498E+03  0.46621391500E+03  0.50400001928E-02 0. -1.
       -1   -1    0    0    0  501  0.00000000000E+00  0.00000000000E+00 -0.26293370986E+03  0.26293370990E+03  0.50400001928E-02 0.  1.
    10030    2    1    2    0    0  0.00000000000E+00  0.00000000000E+00  0.20328020512E+03  0.72914762491E+03  0.70023811458E+03 0.  0.
        2    1    3    3  502    0  0.50782590259E+02  0.27261568194E+03 -0.12092514640E+03  0.30252449910E+03  0.25500000920E-02 0.  1.
       -2    1    3    3    0  502 -0.50782590259E+02 -0.27261568194E+03  0.32420535153E+03  0.42662312581E+03  0.25500000920E-02 0. -1.
</event>
<event>
 5   0  0.1222679E-03  0.7000220E+03  0.7818609E-02  0.9717195E-01
        2   -1    0    0  501    0  0.00000000000E+00  0.00000000000E+00  0.24727318306E+03  0.24727318307E+03  0.25500000920E-02 0.  1.
       -2   -1    0    0    0  501  0.00000000000E+00  0.00000000000E+00 -0.49543466380E+03  0.49543466381E+03  0.25500000920E-02 0. -1.
    10030    2    1    2    0    0  0.00000000000E+00  0.00000000000E+00 -0.24816148074E+03  0.74270784688E+03  0.70002201772E+03 0.  0.
        2    1    3    3  502    0  0.28716169542E+03  0.16727397590E+03 -0.24062075991E+03  0.41029351986E+03  0.25500000920E-02 0. -1.
       -2    1    3    3    0  502 -0.28716169542E+03 -0.16727397590E+03 -0.75407208352E+01  0.33241432702E+03  0.25500000920E-02 0.  1.
</event>
<event>
 5   0  0.1282546E-03  0.6989435E+03  0.7818609E-02  0.9719041E-01
       -2   -1    0    0    0  501  0.00000000000E+00  0.00000000000E+00  0.17862994352E+03  0.17862994354E+03  0.25500000920E-02 0. -1.
        2   -1    0    0  501    0  0.00000000000E+00  0.00000000000E+00 -0.68370677828E+03  0.68370677829E+03  0.25500000920E-02 0.  1.
    10030    2    1    2    0    0  0.00000000000E+00  0.00000000000E+00 -0.50507683477E+03  0.86233672182E+03  0.69894349756E+03 0.  0.
        5    1    3    3  502    0  0.16276578447E+03 -0.17360007050E+03 -0.56824593915E+03  0.61608053242E+03  0.46999998093E+01 0.  1.
       -5    1    3    3    0  502 -0.16276578447E+03  0.17360007050E+03  0.63169104381E+02  0.24625618940E+03  0.46999998093E+01 0. -1.
</event>
<event>
 5   0  0.7572415E-04  0.6989793E+03  0.7818609E-02  0.9718979E-01
        1   -1    0    0  501    0  0.00000000000E+00  0.00000000000E+00  0.62718765242E+03  0.62718765244E+03  0.50400001928E-02 0. -1.
       -1   -1    0    0    0  501  0.00000000000E+00  0.00000000000E+00 -0.19474714478E+03  0.19474714485E+03  0.50400001928E-02 0.  1.
    10030    2    1    2    0    0  0.00000000000E+00  0.00000000000E+00  0.43244050764E+03  0.82193479729E+03  0.69897926890E+03 0.  0.
        4    1    3    3  502    0 -0.17559945546E+03 -0.12048803481E+03 -0.10963308236E+03  0.23952778740E+03  0.12699999809E+01 0. -1.
       -4    1    3    3    0  502  0.17559945546E+03  0.12048803481E+03  0.54207359000E+03  0.58240700989E+03  0.12699999809E+01 0.  1.
</event>
<event>
 5   0  0.1282546E-03  0.7004961E+03  0.7818609E-02  0.9716384E-01
       -2   -1    0    0    0  501  0.00000000000E+00  0.00000000000E+00  0.13712381098E+03  0.13712381101E+03  0.25500000920E-02 0.  1.
        2   -1    0    0  501    0  0.00000000000E+00  0.00000000000E+00 -0.89461986295E+03  0.89461986295E+03  0.25500000920E-02 0. -1.
    10030    2    1    2    0    0  0.00000000000E+00  0.00000000000E+00 -0.75749605196E+03  0.10317436740E+04  0.70049606710E+03 0.  0.
        5    1    3    3  502    0 -0.13658360982E+03  0.32238976594E+03 -0.39028463537E+03  0.52434190206E+03  0.46999998093E+01 0.  1.
       -5    1    3    3    0  502  0.13658360982E+03 -0.32238976594E+03 -0.36721141660E+03  0.50740177190E+03  0.46999998093E+01 0. -1.
</event>
<event>
 5   0  0.4936000E-04  0.7000097E+03  0.7818609E-02  0.9717216E-01
        3   -1    0    0  501    0  0.00000000000E+00  0.00000000000E+00  0.22014940481E+03  0.22014942797E+03  0.10100000352E+00 0.  1.
       -3   -1    0    0    0  501  0.00000000000E+00  0.00000000000E+00 -0.55645562767E+03  0.55645563684E+03  0.10100000352E+00 0. -1.
    10030    2    1    2    0    0  0.00000000000E+00  0.00000000000E+00 -0.33630622286E+03  0.77660506481E+03  0.70000967933E+03 0.  0.
        1    1    3    3  502    0  0.19424847663E+03 -0.84525664152E+02 -0.47725431646E+03  0.52215777422E+03  0.50400001928E-02 0. -1.
       -1    1    3    3    0  502 -0.19424847663E+03  0.84525664152E+02  0.14094809360E+03  0.25444729059E+03  0.50400001928E-02 0.  1.
</event>
<event>
 5   0  0.7574241E-04  0.6993047E+03  0.7818609E-02  0.9718422E-01
        1   -1    0    0  501    0  0.00000000000E+00  0.00000000000E+00  0.11964391305E+04  0.11964391305E+04  0.50400001928E-02 0. -1.
       -1   -1    0    0    0  501  0.00000000000E+00  0.00000000000E+00 -0.10218384728E+03  0.10218384740E+03  0.50400001928E-02 0.  1.
    10030    2    1    2    0    0  0.00000000000E+00  0.00000000000E+00  0.10942552833E+04  0.12986229780E+04  0.69930466460E+03 0.  0.
        3    1    3    3  502    0 -0.98294294126E+02  0.13717903822E+03  0.11158032000E+04  0.11284930873E+04  0.10100000352E+00 0. -1.
       -3    1    3    3    0  502  0.98294294126E+02 -0.13717903822E+03 -0.21547916703E+02  0.17012989068E+03  0.10100000352E+00 0.  1.
</event>
<event>
 5   0  0.1222679E-03  0.6987597E+03  0.7818609E-02  0.9719356E-01
        2   -1    0    0  501    0  0.00000000000E+00  0.00000000000E+00  0.33274925992E+03  0.33274925993E+03  0.25500000920E-02 0.  1.
       -2   -1    0    0    0  501  0.00000000000E+00  0.00000000000E+00 -0.36684161543E+03  0.36684161544E+03  0.25500000920E-02 0. -1.
    10030    2    1    2    0    0  0.00000000000E+00  0.00000000000E+00 -0.34092355505E+02  0.69959087537E+03  0.69875968988E+03 0.  0.
        2    1    3    3  502    0 -0.26091326710E+03  0.64100221369E+02 -0.24065397148E+03  0.36069225848E+03  0.25500000920E-02 0. -1.
       -2    1    3    3    0  502  0.26091326710E+03 -0.64100221369E+02  0.20656161597E+03  0.33889861689E+03  0.25500000920E-02 0.  1.
</event>
<event>
 5   0  0.1224048E-03  0.6998629E+03  0.7818609E-02  0.9717467E-01
        2   -1    0    0  501    0  0.00000000000E+00  0.00000000000E+00  0.96205857118E+03  0.96205857119E+03  0.25500000920E-02 0.  1.
       -2   -1    0    0    0  501  0.00000000000E+00  0.00000000000E+00 -0.12728126839E+03  0.12728126842E+03  0.25500000920E-02 0. -1.
    10030    2    1    2    0    0  0.00000000000E+00  0.00000000000E+00  0.83477730279E+03  0.10893398396E+04  0.69986294437E+03 0.  0.
        3    1    3    3  502    0  0.30575405971E+03 -0.16672031683E+03  0.36412944353E+03  0.50385659758E+03  0.10100000352E+00 0.  1.
       -3    1    3    3    0  502 -0.30575405971E+03  0.16672031683E+03  0.47064785926E+03  0.58548324203E+03  0.10100000352E+00 0. -1.
</event>
<event>
 5   0  0.1265562E-03  0.7000487E+03  0.7818609E-02  0.9717149E-01
        2   -1    0    0  501    0  0.00000000000E+00  0.00000000000E+00  0.73625513973E+03  0.73625513974E+03  0.25500000920E-02 0.  1.
       -2   -1    0    0    0  501  0.00000000000E+00  0.00000000000E+00 -0.16640569706E+03  0.16640569708E+03  0.25500000920E-02 0. -1.
    10030    2    1    2    0    0  0.00000000000E+00  0.00000000000E+00  0.56984944267E+03  0.90266083682E+03  0.70004871188E+03 0.  0.
        1    1    3    3  502    0  0.21278750202E+03  0.19520770123E+03  0.29851400022E+02  0.29030272776E+03  0.50400001928E-02 0. -1.
       -1    1    3    3    0  502 -0.21278750202E+03 -0.19520770123E+03  0.53999804265E+03  0.61235810906E+03  0.50400001928E-02 0.  1.
</event>
<event>
 5   0  0.7572415E-04  0.7015295E+03  0.7818609E-02  0.9714620E-01
        1   -1    0    0  501    0  0.00000000000E+00  0.00000000000E+00  0.45065179753E+03  0.45065179756E+03  0.50400001928E-02 0.  1.
       -1   -1    0    0    0  501  0.00000000000E+00  0.00000000000E+00 -0.27301765144E+03  0.27301765149E+03  0.50400001928E-02 0. -1.
    10030    2    1    2    0    0  0.00000000000E+00  0.00000000000E+00  0.17763414609E+03  0.72366944905E+03  0.70152945885E+03 0.  0.
        4    1    3    3  502    0  0.21817043154E+03 -0.15510344967E+03 -0.14500557775E+03  0.30443989189E+03  0.12699999809E+01 0. -1.
       -4    1    3    3    0  502 -0.21817043154E+03  0.15510344967E+03  0.32263972384E+03  0.41922955716E+03  0.12699999809E+01 0.  1.
</event>
<event>
 5   0  0.1224048E-03  0.7002291E+03  0.7818609E-02  0.9716841E-01
       -2   -1    0    0    0  501  0.00000000000E+00  0.00000000000E+00  0.14757562089E+03  0.14757562091E+03  0.25500000920E-02 0. -1.
        2   -1    0    0  501    0  0.00000000000E+00  0.00000000000E+00 -0.83062624763E+03  0.83062624764E+03  0.25500000920E-02 0.  1.
    10030    2    1    2    0    0  0.00000000000E+00  0.00000000000E+00 -0.68305062675E+03  0.97820186855E+03  0.70022906033E+03 0.  0.
        3    1    3    3  502    0 -0.29291083497E+03 -0.12472404169E+03 -0.54505888114E+03  0.63122265321E+03  0.10100000352E+00 0.  1.
       -3    1    3    3    0  502  0.29291083497E+03  0.12472404169E+03 -0.13799174561E+03  0.34697921533E+03  0.10100000352E+00 0. -1.
</event>
<event>
 5   0  0.7572415E-04  0.7006724E+03  0.7818609E-02  0.9716083E-01
       -1   -1    0    0    0  501  0.00000000000E+00  0.00000000000E+00  0.82938170962E+02  0.82938171115E+02  0.50400001928E-02 0.  1.
        1   -1    0    0  501    0  0.00000000000E+00  0.00000000000E+00 -0.14798429379E+04  0.14798429379E+04  0.50400001928E-02 0. -1.
    10030    2    1    2    0    0  0.00000000000E+00  0.00000000000E+00 -0.13969047669E+04  0.15627811090E+04  0.70067243903E+03 0.  0.
        4    1    3    3  502    0 -0.20034489616E+03 -0.20816568901E+03 -0.11404031334E+04  0.11764318727E+04  0.12699999809E+01 0. -1.
       -4    1    3    3    0  502  0.20034489616E+03  0.20816568901E+03 -0.25650163347E+03  0.38634923627E+03  0.12699999809E+01 0.  1.
</event>
<event>
 5   0  0.1282546E-03  0.6999142E+03  0.7818609E-02  0.9717379E-01
        2   -1    0    0  501    0  0.00000000000E+00  0.00000000000E+00  0.46257333939E+03  0.46257333940E+03  0.25500000920E-02 0.  1.
       -2   -1    0    0    0  501  0.00000000000E+00  0.00000000000E+00 -0.26475792289E+03  0.26475792290E+03  0.25500000920E-02 0. -1.
    10030    2    1    2    0    0  0.00000000000E+00  0.00000000000E+00  0.19781541650E+03  0.72733126230E+03  0.69991415625E+03 0.  0.
        5    1    3    3  502    0 -0.26574469147E+03 -0.20523017634E+03 -0.34821258766E+01  0.33581822690E+03  0.46999998093E+01 0.  1.
       -5    1    3    3    0  502  0.26574469147E+03  0.20523017634E+03  0.20129754238E+03  0.39151303540E+03  0.46999998093E+01 0. -1.
</event>
<event>
 5   0  0.7572415E-04  0.7000120E+03  0.7818609E-02  0.9717212E-01
       -1   -1    0    0    0  501  0.00000000000E+00  0.00000000000E+00  0.26440621829E+03  0.26440621834E+03  0.50400001928E-02 0.  1.
        1   -1    0    0  501    0  0.00000000000E+00  0.00000000000E+00 -0.46331816020E+03  0.46331816023E+03  0.50400001928E-02 0. -1.
    10030    2    1    2    0    0  0.00000000000E+00  0.00000000000E+00 -0.19891194191E+03  0.72772437857E+03  0.70001200742E+03 0.  0.
        4    1    3    3  502    0  0.28776660080E+03 -0.69667817684E+01  0.10753555323E+03  0.30728433200E+03  0.12699999809E+01 0.  1.
       -4    1    3    3    0  502 -0.28776660080E+03  0.69667817684E+01 -0.30644749514E+03  0.42044004657E+03  0.12699999809E+01 0. -1.
</event>
<event>
 5   0  0.7574241E-04  0.6980599E+03  0.7818609E-02  0.9720556E-01
       -1   -1    0    0    0  501  0.00000000000E+00  0.00000000000E+00  0.12140423382E+03  0.12140423392E+03  0.50400001928E-02 0. -1.
        1   -1    0    0  501    0  0.00000000000E+00  0.00000000000E+00 -0.10034403292E+04  0.10034403293E+04  0.50400001928E-02 0.  1.
    10030    2    1    2    0    0  0.00000000000E+00  0.00000000000E+00 -0.88203609543E+03  0.11248445632E+04  0.69805989547E+03 0.  0.
        3    1    3    3  502    0  0.84347149142E+02  0.28372299702E+03 -0.73905368485E+03  0.79612407318E+03  0.10100000352E+00 0.  1.
       -3    1    3    3    0  502 -0.84347149142E+02 -0.28372299702E+03 -0.14298241057E+03  0.32872048999E+03  0.10100000352E+00 0. -1.
</event>
<event>
 5   0  0.1265562E-03  0.7001921E+03  0.7818609E-02  0.9716904E-01
       -2   -1    0    0    0  501  0.00000000000E+00  0.00000000000E+00  0.18248669204E+03  0.18248669206E+03  0.25500000920E-02 0.  1.
        2   -1    0    0  501    0  0.00000000000E+00  0.00000000000E+00 -0.67165037455E+03  0.67165037455E+03  0.25500000920E-02 0. -1.
    10030    2    1    2    0    0  0.00000000000E+00  0.00000000000E+00 -0.48916368250E+03  0.85413706661E+03  0.70019213098E+03 0.  0.
        1    1    3    3  502    0 -0.31449317535E+03  0.12255347878E+03 -0.35798261835E+03  0.49201307663E+03  0.50400001928E-02 0. -1.
       -1    1    3    3    0  502  0.31449317535E+03 -0.12255347878E+03 -0.13118106415E+03  0.36212398998E+03  0.50400001928E-02 0.  1.
</event>
<event>
 5   0  0.1243087E-03  0.7015778E+03  0.7818609E-02  0.9714538E-01
       -2   -1    0    0    0  501  0.00000000000E+00  0.00000000000E+00  0.11083086118E+03  0.11083086120E+03  0.25500000920E-02 0. -1.
        2   -1    0    0  501    0  0.00000000000E+00  0.00000000000E+00 -0.11102760980E+04  0.11102760980E+04  0.25500000920E-02 0.  1.
    10030    2    1    2    0    0  0.00000000000E+00  0.00000000000E+00 -0.99944523683E+03  0.12211069592E+04  0.70157781066E+03 0.  0.
        4    1    3    3  502    0 -0.61121769842E+01  0.75100610456E+02 -0.10960207002E+04  0.10986084146E+04  0.12699999809E+01 0.  1.
       -4    1    3    3    0  502  0.61121769842E+01 -0.75100610456E+02  0.96575463407E+02  0.12249854461E+03  0.12699999809E+01 0. -1.
</event>
<event>
 5   0  0.1224048E-03  0.6996241E+03  0.7818609E-02  0.9717875E-01
        2   -1    0    0  501    0  0.00000000000E+00  0.00000000000E+00  0.24375593690E+03  0.24375593691E+03  0.25500000920E-02 0.  1.
       -2   -1    0    0    0  501  0.00000000000E+00  0.00000000000E+00 -0.50201226447E+03  0.50201226447E+03  0.25500000920E-02 0. -1.
    10030    2    1    2    0    0  0.00000000000E+00  0.00000000000E+00 -0.25825632757E+03  0.74576820139E+03  0.69962409869E+03 0.  0.
        3    1    3    3  502    0 -0.20137054482E+03  0.22065024014E+03 -0.32315501928E+03  0.44007476806E+03  0.10100000352E+00 0. -1.
       -3    1    3    3    0  502  0.20137054482E+03 -0.22065024014E+03  0.64898691717E+02  0.30569343333E+03  0.10100000352E+00 0.  1.
</event>
<event>
 5   0  0.7459843E-04  0.6996401E+03  0.7818609E-02  0.9717848E-01
        1   -1    0    0  501    0  0.00000000000E+00  0.00000000000E+00  0.12997735612E+04  0.12997735612E+04  0.50400001928E-02 0. -1.
       -1   -1    0    0    0  501  0.00000000000E+00  0.00000000000E+00 -0.94150310048E+02  0.94150310183E+02  0.50400001928E-02 0.  1.
    10030    2    1    2    0    0  0.00000000000E+00  0.00000000000E+00  0.12056232512E+04  0.13939238714E+04  0.69964014717E+03 0.  0.
        2    1    3    3  502    0 -0.26134513742E+03  0.31789262757E+02  0.10617529310E+04  0.10939063601E+04  0.25500000920E-02 0. -1.
       -2    1    3    3    0  502  0.26134513742E+03 -0.31789262757E+02  0.14387032015E+03  0.30001751133E+03  0.25500000920E-02 0.  1.
</event>
<event>
 5   0  0.7459843E-04  0.6996560E+03  0.7818609E-02  0.9717821E-01
        1   -1    0    0  501    0  0.00000000000E+00  0.00000000000E+00  0.42717551749E+03  0.42717551752E+03  0.50400001928E-02 0. -1.
       -1   -1    0    0    0  501  0.00000000000E+00  0.00000000000E+00 -0.28648556471E+03  0.28648556475E+03  0.50400001928E-02 0.  1.
    10030    2    1    2    0    0  0.00000000000E+00  0.00000000000E+00  0.14068995279E+03  0.71366108227E+03  0.69965597084E+03 0.  0.
        2    1    3    3  502    0 -0.11406849065E+02 -0.28975729476E+03  0.26994075983E+03  0.39617852023E+03  0.25500000920E-02 0. -1.
       -2    1    3    3    0  502  0.11406849065E+02  0.28975729476E+03 -0.12925080704E+03  0.31748256204E+03  0.25500000920E-02 0.  1.
</event>
<event>
 5   0  0.1282546E-03  0.6991411E+03  0.7818609E-02  0.9718702E-01
       -2   -1    0    0    0  501  0.00000000000E+00  0.00000000000E+00  0.13200436558E+03  0.13200436560E+03  0.25500000920E-02 0. -1.
        2   -1    0    0  501    0  0.00000000000E+00  0.00000000000E+00 -0.92572375485E+03  0.92572375486E+03  0.25500000920E-02 0.  1.
    10030    2    1    2    0    0  0.00000000000E+00  0.00000000000E+00 -0.79371938927E+03  0.10577281205E+04  0.69914112159E+03 0.  0.
        5    1    3    3  502    0 -0.13712750126E+03  0.18178704413E+03  0.43489370068E+01  0.22779702427E+03  0.46999998093E+01 0. -1.
       -5    1    3    3    0  502  0.13712750126E+03 -0.18178704413E+03 -0.79806832628E+03  0.82993109619E+03  0.46999998093E+01 0.  1.
</event>
<event>
 5   0  0.7013526E-04  0.7005855E+03  0.7818609E-02  0.9716231E-01
        1   -1    0    0  501    0  0.00000000000E+00  0.00000000000E+00  0.56759925938E+03  0.56759925941E+03  0.50400001928E-02 0.  1.
       -1   -1    0    0    0  501  0.00000000000E+00  0.00000000000E+00 -0.21618249462E+03  0.21618249467E+03  0.50400001928E-02 0. -1.
    10030    2    1    2    0    0  0.00000000000E+00  0.00000000000E+00  0.35141676477E+03  0.78378175408E+03  0.70058553758E+03 0.  0.
        1    1    3    3  502    0 -0.95917172779E+02 -0.12573556514E+03  0.52538873666E+03  0.54867372911E+03  0.50400001928E-02 0.  1.
       -1    1    3    3    0  502  0.95917172779E+02  0.12573556514E+03 -0.17397197190E+03  0.23510802497E+03  0.50400001928E-02 0. -1.
</event>
<event>
 5   0  0.1224048E-03  0.6997815E+03  0.7818609E-02  0.9717606E-01
       -2   -1    0    0    0  501  0.00000000000E+00  0.00000000000E+00  0.14883700015E+03  0.14883700017E+03  0.25500000920E-02 0.  1.
        2   -1    0    0  501    0  0.00000000000E+00  0.00000000000E+00 -0.82253421426E+03  0.82253421426E+03  0.25500000920E-02 0. -1.
    10030    2    1    2    0    0  0.00000000000E+00  0.00000000000E+00 -0.67369721411E+03  0.97137121444E+03  0.69978146584E+03 0.  0.
        3    1    3    3  502    0 -0.14507324520E+03 -0.13742826199E+03 -0.73552947626E+03  0.76219183564E+03  0.10100000352E+00 0.  1.
       -3    1    3    3    0  502  0.14507324520E+03  0.13742826199E+03  0.61832262151E+02  0.20917937879E+03  0.10100000352E+00 0. -1.
</event>
<event>
 5   0  0.4936000E-04  0.6999173E+03  0.7818609E-02  0.9717374E-01
       -4   -1    0    0    0  501  0.00000000000E+00  0.00000000000E+00  0.22823335711E+03  0.22823689053E+03  0.12699999809E+01 0. -1.
        4   -1    0    0  501    0  0.00000000000E+00  0.00000000000E+00 -0.53659608925E+03  0.53659759215E+03  0.12699999809E+01 0.  1.
    10030    2    1    2    0    0  0.00000000000E+00  0.00000000000E+00 -0.30836273214E+03  0.76483448268E+03  0.69991728891E+03 0.  0.
        3    1    3    3  502    0  0.34356423203E+03 -0.64230316402E+02 -0.13496861329E+03  0.37467112493E+03  0.10100000352E+00 0.  1.
       -3    1    3    3    0  502 -0.34356423203E+03  0.64230316402E+02 -0.17339411885E+03  0.39016335775E+03  0.10100000352E+00 0. -1.
</event>
<event>
 5   0  0.7572415E-04  0.6998459E+03  0.7818609E-02  0.9717496E-01
        1   -1    0    0  501    0  0.00000000000E+00  0.00000000000E+00  0.63304723248E+03  0.63304723250E+03  0.50400001928E-02 0.  1.
       -1   -1    0    0    0  501  0.00000000000E+00  0.00000000000E+00 -0.19342330422E+03  0.19342330429E+03  0.50400001928E-02 0. -1.
    10030    2    1    2    0    0  0.00000000000E+00  0.00000000000E+00  0.43962392826E+03  0.82647053678E+03  0.69984594724E+03 0.  0.
        4    1    3    3  502    0 -0.21459882924E+03  0.16061599208E+03  0.48544115912E+03  0.55453123112E+03  0.12699999809E+01 0.  1.
       -4    1    3    3    0  502  0.21459882924E+03 -0.16061599208E+03 -0.45817230856E+02  0.27193930567E+03  0.12699999809E+01 0. -1.
</event>
<event>
 5   0  0.7570633E-04  0.6987340E+03  0.7818609E-02  0.9719400E-01
       -1   -1    0    0    0  501  0.00000000000E+00  0.00000000000E+00  0.13055277549E+03  0.13055277559E+03  0.50400001928E-02 0.  1.
        1   -1    0    0  501    0  0.00000000000E+00  0.00000000000E+00 -0.93492702538E+03  0.93492702539E+03  0.50400001928E-02 0. -1.
    10030    2    1    2    0    0  0.00000000000E+00  0.00000000000E+00 -0.80437424989E+03  0.10654798010E+04  0.69873404984E+03 0.  0.
        5    1    3    3  502    0 -0.26621852353E+02 -0.12498841602E+03 -0.89795667410E+03  0.90701659616E+03  0.46999998093E+01 0. -1.
       -5    1    3    3    0  502  0.26621852353E+02  0.12498841602E+03  0.93582424208E+02  0.15846320481E+03  0.46999998093E+01 0.  1.
</event>
<event>
 5   0  0.1243087E-03  0.6999009E+03  0.7818609E-02  0.9717402E-01
        2   -1    0    0  501    0  0.00000000000E+00  0.00000000000E+00  0.18451623982E+04  0.18451623983E+04  0.25500000920E-02 0.  1.
       -2   -1    0    0    0  501  0.00000000000E+00  0.00000000000E+00 -0.66371030917E+02  0.66371030966E+02  0.25500000920E-02 0. -1.
    10030    2    1    2    0    0  0.00000000000E+00  0.00000000000E+00  0.17787913673E+04  0.19115334292E+04  0.69990093764E+03 0.  0.
        4    1    3    3  502    0  0.31600576361E+03 -0.14408707188E+03  0.10066440789E+04  0.10648730636E+04  0.12699999809E+01 0.  1.
       -4    1    3    3    0  502 -0.31600576361E+03  0.14408707188E+03  0.77214728839E+03  0.84666036566E+03  0.12699999809E+01 0. -1.
</event>
<event>
 5   0  0.7570633E-04  0.6994653E+03  0.7818609E-02  0.9718147E-01
        1   -1    0    0  501    0  0.00000000000E+00  0.00000000000E+00  0.39540001838E+03  0.39540001841E+03  0.50400001928E-02 0.  1.
       -1   -1    0    0    0  501  0.00000000000E+00  0.00000000000E+00 -0.30933973559E+03  0.30933973563E+03  0.50400001928E-02 0. -1.
    10030    2    1    2    0    0  0.00000000000E+00  0.00000000000E+00  0.86060282782E+02  0.70473975404E+03  0.69946533056E+03 0.  0.
        5    1    3    3  502    0 -0.14554286801E+03 -0.31525146800E+03  0.84871991640E+02  0.35747945321E+03  0.46999998093E+01 0. -1.
       -5    1    3    3    0  502  0.14554286801E+03  0.31525146800E+03  0.11882911420E+01  0.34726030084E+03  0.46999998093E+01 0.  1.
</event>
<event>
 5   0  0.1222679E-03  0.6995321E+03  0.7818609E-02  0.9718033E-01
        2   -1    0    0  501    0  0.00000000000E+00  0.00000000000E+00  0.12863191674E+04  0.12863191674E+04  0.25500000920E-02 0. -1.
       -2   -1    0    0    0  501  0.00000000000E+00  0.00000000000E+00 -0.95105708140E+02  0.95105708174E+02  0.25500000920E-02 0.  1.
    10030    2    1    2    0    0  0.00000000000E+00  0.00000000000E+00  0.11912134593E+04  0.13814248756E+04  0.69953211602E+03 0.  0.
        2    1    3    3  502    0  0.31869622820E+03  0.14054481892E+03  0.53265591210E+03  0.63642945619E+03  0.25500000920E-02 0. -1.
       -2    1    3    3    0  502 -0.31869622820E+03 -0.14054481892E+03  0.65855754717E+03  0.74499541941E+03  0.25500000920E-02 0.  1.
</event>
<event>
 5   0  0.7459843E-04  0.6999681E+03  0.7818609E-02  0.9717287E-01
       -1   -1    0    0    0  501  0.00000000000E+00  0.00000000000E+00  0.27775819926E+03  0.27775819931E+03  0.50400001928E-02 0. -1.
        1   -1    0    0  501    0  0.00000000000E+00  0.00000000000E+00 -0.44099085956E+03  0.44099085959E+03  0.50400001928E-02 0.  1.
    10030    2    1    2    0    0  0.00000000000E+00  0.00000000000E+00 -0.16323266030E+03  0.71874905889E+03  0.69996807661E+03 0.  0.
        2    1    3    3  502    0  0.10997590108E+03 -0.20920338285E+03 -0.34666625252E+03  0.41956911809E+03  0.25500000920E-02 0.  1.
       -2    1    3    3    0  502 -0.10997590108E+03  0.20920338285E+03  0.18343359223E+03  0.29917994080E+03  0.25500000920E-02 0. -1.
</event>
<event>
 5   0  0.7572415E-04  0.7001352E+03  0.7818609E-02  0.9717001E-01
       -1   -1    0    0    0  501  0.00000000000E+00  0.00000000000E+00  0.38258596104E+03  0.38258596107E+03  0.50400001928E-02 0. -1.
        1   -1    0    0  501    0  0.00000000000E+00  0.00000000000E+00 -0.32031318704E+03  0.32031318708E+03  0.50400001928E-02 0.  1.
    10030    2    1    2    0    0  0.00000000000E+00  0.00000000000E+00  0.62272774001E+02  0.70289914815E+03  0.70013521129E+03 0.  0.
        4    1    3    3  502    0  0.31984959424E+03 -0.93108779457E+01 -0.11139329042E+03  0.33882227411E+03  0.12699999809E+01 0.  1.
       -4    1    3    3    0  502 -0.31984959424E+03  0.93108779457E+01  0.17366606442E+03  0.36407687404E+03  0.12699999809E+01 0. -1.
</event>
<event>
 5   0  0.1222679E-03  0.6999056E+03  0.7818609E-02  0.9717394E-01
        2   -1    0    0  501    0  0.00000000000E+00  0.00000000000E+00  0.16592178225E+04  0.16592178225E+04  0.25500000920E-02 0. -1.
       -2   -1    0    0    0  501  0.00000000000E+00  0.00000000000E+00 -0.73810049788E+02  0.73810049832E+02  0.25500000920E-02 0.  1.
    10030    2    1    2    0    0  0.00000000000E+00  0.00000000000E+00  0.15854077727E+04  0.17330278723E+04  0.69990556541E+03 0.  0.
        2    1    3    3  502    0 -0.28348759547E+03 -0.13616126732E+03  0.41262764204E+03  0.51881275860E+03  0.25500000920E-02 0.  1.
       -2    1    3    3    0  502  0.28348759547E+03  0.13616126732E+03  0.11727801306E+04  0.12142151137E+04  0.25500000920E-02 0. -1.
</event>
<event>
 5   0  0.1265562E-03  0.6993821E+03  0.7818609E-02  0.9718289E-01
        2   -1    0    0  501    0  0.00000000000E+00  0.00000000000E+00  0.59444373284E+03  0.59444373285E+03  0.25500000920E-02 0.  1.
       -2   -1    0    0    0  501  0.00000000000E+00  0.00000000000E+00 -0.20571137294E+03  0.20571137296E+03  0.25500000920E-02 0. -1.
    10030    2    1    2    0    0  0.00000000000E+00  0.00000000000E+00  0.38873235990E+03  0.80015510581E+03  0.69938211710E+03 0.  0.
        1    1    3    3  502    0 -0.20579717246E+03  0.18435760711E+02 -0.12840366655E+03  0.24326910012E+03  0.50400001928E-02 0. -1.
       -1    1    3    3    0  502  0.20579717246E+03 -0.18435760711E+02  0.51713602645E+03  0.55688600569E+03  0.50400001928E-02 0.  1.
</event>
<event>
 5   0  0.7459843E-04  0.7002106E+03  0.7818609E-02  0.9716872E-01
        1   -1    0    0  501    0  0.00000000000E+00  0.00000000000E+00  0.72781756090E+03  0.72781756092E+03  0.50400001928E-02 0.  1.
       -1   -1    0    0    0  501  0.00000000000E+00  0.00000000000E+00 -0.16841269095E+03  0.16841269103E+03  0.50400001928E-02 0. -1.
    10030    2    1    2    0    0  0.00000000000E+00  0.00000000000E+00  0.55940486995E+03  0.89623025195E+03  0.70021057974E+03 0.  0.
        2    1    3    3  502    0  0.51897341767E+02  0.23341025930E+03 -0.47623115699E+02  0.24380657166E+03  0.25500000920E-02 0. -1.
       -2    1    3    3    0  502 -0.51897341767E+02 -0.23341025930E+03  0.60702798565E+03  0.65242368029E+03  0.25500000920E-02 0.  1.
</event>
<event>
 5   0  0.7013526E-04  0.7001516E+03  0.7818609E-02  0.9716973E-01
       -1   -1    0    0    0  501  0.00000000000E+00  0.00000000000E+00  0.14986190434E+03  0.14986190442E+03  0.50400001928E-02 0. -1.
        1   -1    0    0  501    0  0.00000000000E+00  0.00000000000E+00 -0.81777326336E+03  0.81777326338E+03  0.50400001928E-02 0.  1.
    10030    2    1    2    0    0  0.00000000000E+00  0.00000000000E+00 -0.66791135902E+03  0.96763516780E+03  0.70015157962E+03 0.  0.
        1    1    3    3  502    0  0.20872211709E+02  0.25105125380E+03  0.19977316267E+01  0.25192533063E+03  0.50400001928E-02 0. -1.
       -1    1    3    3    0  502 -0.20872211709E+02 -0.25105125380E+03 -0.66990909065E+03  0.71570983717E+03  0.50400001928E-02 0.  1.
</event>
<event>
 5   0  0.7572415E-04  0.6994922E+03  0.7818609E-02  0.9718101E-01
       -1   -1    0    0    0  501  0.00000000000E+00  0.00000000000E+00  0.13775265328E+03  0.13775265337E+03  0.50400001928E-02 0.  1.
        1   -1    0    0  501    0  0.00000000000E+00  0.00000000000E+00 -0.88798530055E+03  0.88798530057E+03  0.50400001928E-02 0. -1.
    10030    2    1    2    0    0  0.00000000000E+00  0.00000000000E+00 -0.75023264728E+03  0.10257379539E+04  0.69949219088E+03 0.  0.
        4    1    3    3  502    0 -0.25388051002E+03  0.25808673199E+02 -0.24405654459E+02  0.25635648978E+03  0.12699999809E+01 0.  1.
       -4    1    3    3    0  502  0.25388051002E+03 -0.25808673199E+02 -0.72582699282E+03  0.76938146416E+03  0.12699999809E+01 0. -1.
</event>
<event>
 5   0  0.1243087E-03  0.6997558E+03  0.7818609E-02  0.9717650E-01
        2   -1    0    0  501    0  0.00000000000E+00  0.00000000000E+00  0.83978802812E+03  0.83978802812E+03  0.25500000920E-02 0. -1.
       -2   -1    0    0    0  501  0.00000000000E+00  0.00000000000E+00 -0.14576840453E+03  0.14576840455E+03  0.25500000920E-02 0.  1.
    10030    2    1    2    0    0  0.00000000000E+00  0.00000000000E+00  0.69401962358E+03  0.98555643267E+03  0.69975584604E+03 0.  0.
        4    1    3    3  502    0 -0.24971229507E+03 -0.10442288131E+02  0.69185259271E+03  0.73561327791E+03  0.12699999809E+01 0. -1.
       -4    1    3    3    0  502  0.24971229507E+03  0.10442288131E+02  0.21670308727E+01  0.24994315477E+03  0.12699999809E+01 0.  1.
</event>
<event>
 5   0  0.7574241E-04  0.6999752E+03  0.7818609E-02  0.9717275E-01
       -1   -1    0    0    0  501  0.00000000000E+00  0.00000000000E+00  0.12504243859E+03  0.12504243869E+03  0.50400001928E-02 0.  1.
        1   -1    0    0  501    0  0.00000000000E+00  0.00000000000E+00 -0.97959785350E+03  0.97959785352E+03  0.50400001928E-02 0. -1.
    10030    2    1    2    0    0  0.00000000000E+00  0.00000000000E+00 -0.85455541492E+03  0.11046402922E+04  0.69997515527E+03 0.  0.
        3    1    3    3  502    0 -0.33486034707E+03 -0.56520230310E+02 -0.29369334552E+03  0.44897859623E+03  0.10100000352E+00 0.  1.
       -3    1    3    3    0  502  0.33486034707E+03  0.56520230310E+02 -0.56086206940E+03  0.65566169597E+03  0.10100000352E+00 0. -1.
</event>
<event>
 5   0  0.7013526E-04  0.7001700E+03  0.7818609E-02  0.9716942E-01
        1   -1    0    0  501    0  0.00000000000E+00  0.00000000000E+00  0.10490122569E+04  0.10490122569E+04  0.50400001928E-02 0. -1.
       -1   -1    0    0    0  501  0.00000000000E+00  0.00000000000E+00 -0.11683324701E+03  0.11683324712E+03  0.50400001928E-02 0.  1.
    10030    2    1    2    0    0  0.00000000000E+00  0.00000000000E+00  0.93217900988E+03  0.11658455040E+04  0.70017000279E+03 0.  0.
        1    1    3    3  502    0  0.14605020543E+03  0.22456093126E+03  0.84138610662E+03  0.88299991778E+03  0.50400001928E-02 0. -1.
       -1    1    3    3    0  502 -0.14605020543E+03 -0.22456093126E+03  0.90792903261E+02  0.28284558625E+03  0.50400001928E-02 0.  1.
</event>
<event>
 5   0  0.7013526E-04  0.7000480E+03  0.7818609E-02  0.9717150E-01
        1   -1    0    0  501    0  0.00000000000E+00  0.00000000000E+00  0.14048063311E+03  0.14048063320E+03  0.50400001928E-02 0. -1.
       -1   -1    0    0    0  501  0.00000000000E+00  0.00000000000E+00 -0.87212586001E+03  0.87212586002E+03  0.50400001928E-02 0.  1.
    10030    2    1    2    0    0  0.00000000000E+00  0.00000000000E+00 -0.73164522690E+03  0.10126064932E+04  0.70004797840E+03 0.  0.
        1    1    3    3  502    0  0.21600481777E+03  0.14343550268E+02 -0.76367860753E+03  0.79376875371E+03  0.50400001928E-02 0.  1.
       -1    1    3    3    0  502 -0.21600481777E+03 -0.14343550268E+02  0.32033380626E+02  0.21883773951E+03  0.50400001928E-02 0. -1.
</event>
<event>
 5   0  0.1243087E-03  0.7002811E+03  0.7818609E-02  0.9716752E-01
        2   -1    0    0  501    0  0.00000000000E+00  0.00000000000E+00  0.10557373147E+04  0.10557373147E+04  0.25500000920E-02 0.  1.
       -2   -1    0    0    0  501  0.00000000000E+00  0.00000000000E+00 -0.11612586262E+03  0.11612586265E+03  0.25500000920E-02 0. -1.
    10030    2    1    2    0    0  0.00000000000E+00  0.00000000000E+00  0.93961145205E+03  0.11718631773E+04  0.70028110466E+03 0.  0.
        4    1    3    3  502    0 -0.40592931473E+02  0.22496712917E+03  0.91362072117E+03  0.94178682851E+03  0.12699999809E+01 0.  1.
       -4    1    3    3    0  502  0.40592931473E+02 -0.22496712917E+03  0.25990730873E+02  0.23007634881E+03  0.12699999809E+01 0. -1.
</event>
<event>
 5   0  0.1224048E-03  0.7000270E+03  0.7818609E-02  0.9717186E-01
       -2   -1    0    0    0  501  0.00000000000E+00  0.00000000000E+00  0.40825860629E+03  0.40825860630E+03  0.25500000920E-02 0. -1.
        2   -1    0    0  501    0  0.00000000000E+00  0.00000000000E+00 -0.30007803093E+03  0.30007803094E+03  0.25500000920E-02 0.  1.
    10030    2    1    2    0    0  0.00000000000E+00  0.00000000000E+00  0.10818057536E+03  0.70833663725E+03  0.70002696718E+03 0.  0.
        3    1    3    3  502    0  0.19394104847E+03 -0.29134022035E+03  0.58283660020E+02  0.35480875060E+03  0.10100000352E+00 0. -1.
       -3    1    3    3    0  502 -0.19394104847E+03  0.29134022035E+03  0.49896915340E+02  0.35352788665E+03  0.10100000352E+00 0.  1.
</event>
<event>
 5   0  0.4936000E-04  0.7000738E+03  0.7818609E-02  0.9717106E-01
       -3   -1    0    0    0  501  0.00000000000E+00  0.00000000000E+00  0.38117110655E+03  0.38117111993E+03  0.10100000352E+00 0.  1.
        3   -1    0    0  501    0  0.00000000000E+00  0.00000000000E+00 -0.32144575335E+03  0.32144576921E+03  0.10100000352E+00 0. -1.
    10030    2    1    2    0    0  0.00000000000E+00  0.00000000000E+00  0.59725353206E+02  0.70261688914E+03  0.70007383546E+03 0.  0.
        1    1    3    3  502    0  0.80305790028E+02 -0.17594015135E+03 -0.26295369817E+03  0.32641783679E+03  0.50400001928E-02 0. -1.
       -1    1    3    3    0  502 -0.80305790028E+02  0.17594015135E+03  0.32267905138E+03  0.37619905235E+03  0.50400001928E-02 0.  1.
</event>
<event>
 5   0  0.1282546E-03  0.6994367E+03  0.7818609E-02  0.9718196E-01
       -2   -1    0    0    0  501  0.00000000000E+00  0.00000000000E+00  0.41473323628E+03  0.41473323629E+03  0.25500000920E-02 0. -1.
        2   -1    0    0  501    0  0.00000000000E+00  0.00000000000E+00 -0.29489541925E+03  0.29489541926E+03  0.25500000920E-02 0.  1.
    10030    2    1    2    0    0  0.00000000000E+00  0.00000000000E+00  0.11983781703E+03  0.70962865556E+03  0.69943672079E+03 0.  0.
        5    1    3    3  502    0  0.17373184241E+03 -0.37974086879E+02 -0.24555992866E+03  0.30322690003E+03  0.46999998093E+01 0.  1.
       -5    1    3    3    0  502 -0.17373184241E+03  0.37974086879E+02  0.36539774569E+03  0.40640175553E+03  0.46999998093E+01 0. -1.
</event>
<event>
 5   0  0.1224048E-03  0.7001943E+03  0.7818609E-02  0.9716900E-01
        2   -1    0    0  501    0  0.00000000000E+00  0.00000000000E+00  0.50472439009E+03  0.50472439010E+03  0.25500000920E-02 0.  1.
       -2   -1    0    0    0  501  0.00000000000E+00  0.00000000000E+00 -0.24284147754E+03  0.24284147755E+03  0.25500000920E-02 0. -1.
    10030    2    1    2    0    0  0.00000000000E+00  0.00000000000E+00  0.26188291256E+03  0.74756586765E+03  0.70019430631E+03 0.  0.
        3    1    3    3  502    0  0.84912064156E+02  0.12930556508E+03  0.46625651617E+03  0.49124854897E+03  0.10100000352E+00 0.  1.
       -3    1    3    3    0  502 -0.84912064156E+02 -0.12930556508E+03 -0.20437360361E+03  0.25631731868E+03  0.10100000352E+00 0. -1.
</event>
<event>
 5   0  0.7574241E-04  0.7000845E+03  0.7818609E-02  0.9717088E-01
       -1   -1    0    0    0  501  0.00000000000E+00  0.00000000000E+00  0.23249680927E+03  0.23249680933E+03  0.50400001928E-02 0.  1.
        1   -1    0    0  501    0  0.00000000000E+00  0.00000000000E+00 -0.52701610824E+03  0.52701610827E+03  0.50400001928E-02 0. -1.
    10030    2    1    2    0    0  0.00000000000E+00  0.00000000000E+00 -0.29451929897E+03  0.75951291759E+03  0.70008446242E+03 0.  0.
        3    1    3    3  502    0  0.26597455279E+03 -0.17151528300E+03  0.15001227584E+02  0.31683592294E+03  0.10100000352E+00 0.  1.
       -3    1    3    3    0  502 -0.26597455279E+03  0.17151528300E+03 -0.30952052656E+03  0.44267699465E+03  0.10100000352E+00 0. -1.
</event>
<event>
 5   0  0.1282546E-03  0.7000004E+03  0.7818609E-02  0.9717232E-01
        2   -1    0    0  501    0  0.00000000000E+00  0.00000000000E+00  0.59040909844E+03  0.59040909844E+03  0.25500000920E-02 0. -1.
       -2   -1    0    0    0  501  0.00000000000E+00  0.00000000000E+00 -0.20748348201E+03  0.20748348203E+03  0.25500000920E-02 0.  1.
    10030    2    1    2    0    0  0.00000000000E+00  0.00000000000E+00  0.38292561642E+03  0.79789258047E+03  0.70000038733E+03 0.  0.
        5    1    3    3  502    0 -0.11785171146E+03  0.51860924460E+02  0.56239372052E+03  0.57696392284E+03  0.46999998093E+01 0. -1.
       -5    1    3    3    0  502  0.11785171146E+03 -0.51860924460E+02 -0.17946810409E+03  0.22092865764E+03  0.46999998093E+01 0.  1.
</event>
<event>
 5   0  0.1222679E-03  0.6991311E+03  0.7818609E-02  0.9718719E-01
        2   -1    0    0  501    0  0.00000000000E+00  0.00000000000E+00  0.84418573443E+03  0.84418573443E+03  0.25500000920E-02 0.  1.
       -2   -1    0    0    0  501  0.00000000000E+00  0.00000000000E+00 -0.14475020749E+03  0.14475020751E+03  0.25500000920E-02 0. -1.
    10030    2    1    2    0    0  0.00000000000E+00  0.00000000000E+00  0.69943552694E+03  0.98893594194E+03  0.69913106133E+03 0.  0.
        2    1    3    3  502    0  0.19053711995E+03  0.17649919521E+03  0.18768993716E+02  0.26040091228E+03  0.25500000920E-02 0. -1.
       -2    1    3    3    0  502 -0.19053711995E+03 -0.17649919521E+03  0.68066653322E+03  0.72853502966E+03  0.25500000920E-02 0.  1.
</event>
<event>
 5   0  0.1282546E-03  0.6999437E+03  0.7818609E-02  0.9717328E-01
       -2   -1    0    0    0  501  0.00000000000E+00  0.00000000000E+00  0.15356768888E+03  0.15356768890E+03  0.25500000920E-02 0. -1.
        2   -1    0    0  501    0  0.00000000000E+00  0.00000000000E+00 -0.79756558623E+03  0.79756558623E+03  0.25500000920E-02 0.  1.
    10030    2    1    2    0    0  0.00000000000E+00  0.00000000000E+00 -0.64399789735E+03  0.95113327513E+03  0.69994372293E+03 0.  0.
        5    1    3    3  502    0  0.85505269138E+02 -0.23717656980E+03  0.77739964594E+01  0.25228238411E+03  0.46999998093E+01 0. -1.
       -5    1    3    3    0  502 -0.85505269138E+02  0.23717656980E+03 -0.65177189381E+03  0.69885089102E+03  0.46999998093E+01 0.  1.
</event>
<event>
 5   0  0.7013526E-04  0.7003861E+03  0.7818609E-02  0.9716572E-01
        1   -1    0    0  501    0  0.00000000000E+00  0.00000000000E+00  0.93375389855E+03  0.93375389857E+03  0.50400001928E-02 0. -1.
       -1   -1    0    0    0  501  0.00000000000E+00  0.00000000000E+00 -0.13133566453E+03  0.13133566463E+03  0.50400001928E-02 0.  1.
    10030    2    1    2    0    0  0.00000000000E+00  0.00000000000E+00  0.80241823402E+03  0.10650895632E+04  0.70038614731E+03 0.  0.
        1    1    3    3  502    0 -0.43012950074E+02  0.19403900444E+03  0.83967697456E+03  0.86287813204E+03  0.50400001928E-02 0. -1.
       -1    1    3    3    0  502  0.43012950074E+02 -0.19403900444E+03 -0.37258740542E+02  0.20221143116E+03  0.50400001928E-02 0.  1.
</event>
<event>
 5   0  0.4936000E-04  0.7000752E+03  0.7818609E-02  0.9717104E-01
        3   -1    0    0  501    0  0.00000000000E+00  0.00000000000E+00  0.23215607466E+03  0.23215609664E+03  0.10100000352E+00 0. -1.
       -3   -1    0    0    0  501  0.00000000000E+00  0.00000000000E+00 -0.52777561129E+03  0.52777562096E+03  0.10100000352E+00 0.  1.
    10030    2    1    2    0    0  0.00000000000E+00  0.00000000000E+00 -0.29561953663E+03  0.75993171759E+03  0.70007521379E+03 0.  0.
        3    1    3    3  502    0  0.18330482296E+03 -0.15354867379E+03 -0.42529990907E+03  0.48791175042E+03  0.10100000352E+00 0.  1.
       -3    1    3    3    0  502 -0.18330482296E+03  0.15354867379E+03  0.12968037244E+03  0.27201996717E+03  0.10100000352E+00 0. -1.
</event>
<event>
 5   0  0.1222679E-03  0.7001496E+03  0.7818609E-02  0.9716976E-01
       -2   -1    0    0    0  501  0.00000000000E+00  0.00000000000E+00  0.27973784280E+03  0.27973784281E+03  0.25500000920E-02 0. -1.
        2   -1    0    0  501    0  0.00000000000E+00  0.00000000000E+00 -0.43809714377E+03  0.43809714378E+03  0.25500000920E-02 0.  1.
    10030    2    1    2    0    0  0.00000000000E+00  0.00000000000E+00 -0.15835930097E+03  0.71783498659E+03  0.70014955529E+03 0.  0.
        2    1    3    3  502    0  0.12539876453E+03  0.98639372654E+02  0.24029649872E+03  0.28843887271E+03  0.25500000920E-02 0. -1.
       -2    1    3    3    0  502 -0.12539876453E+03 -0.98639372654E+02 -0.39865579970E+03  0.42939611389E+03  0.25500000920E-02 0.  1.
</event>
<event>
 5   0  0.7570633E-04  0.6999970E+03  0.7818609E-02  0.9717237E-01
        1   -1    0    0  501    0  0.00000000000E+00  0.00000000000E+00  0.40269501984E+03  0.40269501987E+03  0.50400001928E-02 0.  1.
       -1   -1    0    0    0  501  0.00000000000E+00  0.00000000000E+00 -0.30419784466E+03  0.30419784470E+03  0.50400001928E-02 0. -1.
    10030    2    1    2    0    0  0.00000000000E+00  0.00000000000E+00  0.98497175180E+02  0.70689286457E+03  0.69999702032E+03 0.  0.
        5    1    3    3  502    0 -0.34413524646E+03  0.45504157418E+02  0.94152017309E+02  0.35970319509E+03  0.46999998093E+01 0. -1.
       -5    1    3    3    0  502  0.34413524646E+03 -0.45504157418E+02  0.43451578702E+01  0.34718966948E+03  0.46999998093E+01 0.  1.
</event>
<event>
 5   0  0.7574241E-04  0.6999782E+03  0.7818609E-02  0.9717270E-01
        1   -1    0    0  501    0  0.00000000000E+00  0.00000000000E+00  0.83931480733E+03  0.83931480734E+03  0.50400001928E-02 0. -1.
       -1   -1    0    0    0  501  0.00000000000E+00  0.00000000000E+00 -0.14594328795E+03  0.14594328804E+03  0.50400001928E-02 0.  1.
    10030    2    1    2    0    0  0.00000000000E+00  0.00000000000E+00  0.69337151938E+03  0.98525809538E+03  0.69997817868E+03 0.  0.
        3    1    3    3  502    0 -0.22840035545E+03  0.13363613328E+03  0.24275625330E+02  0.26573418048E+03  0.10100000352E+00 0.  1.
       -3    1    3    3    0  502  0.22840035545E+03 -0.13363613328E+03  0.66909589405E+03  0.71952391490E+03  0.10100000352E+00 0. -1.
</event>
<event>
 5   0  0.1243087E-03  0.7003502E+03  0.7818609E-02  0.9716634E-01
        2   -1    0    0  501    0  0.00000000000E+00  0.00000000000E+00  0.13118612756E+04  0.13118612756E+04  0.25500000920E-02 0.  1.
       -2   -1    0    0    0  501  0.00000000000E+00  0.00000000000E+00 -0.93472218824E+02  0.93472218859E+02  0.25500000920E-02 0. -1.
    10030    2    1    2    0    0  0.00000000000E+00  0.00000000000E+00  0.12183890567E+04  0.14053334944E+04  0.70035015311E+03 0.  0.
        4    1    3    3  502    0 -0.14899211350E+03 -0.28668919330E+03  0.33825217820E+03  0.46776649345E+03  0.12699999809E+01 0. -1.
       -4    1    3    3    0  502  0.14899211350E+03  0.28668919330E+03  0.88013687853E+03  0.93756700096E+03  0.12699999809E+01 0.  1.
</event>
<event>
 5   0  0.7574241E-04  0.6996955E+03  0.7818609E-02  0.9717753E-01
       -1   -1    0    0    0  501  0.00000000000E+00  0.00000000000E+00  0.20455224765E+03  0.20455224771E+03  0.50400001928E-02 0.  1.
        1   -1    0    0  501    0  0.00000000000E+00  0.00000000000E+00 -0.59834812923E+03  0.59834812925E+03  0.50400001928E-02 0. -1.
    10030    2    1    2    0    0  0.00000000000E+00  0.00000000000E+00 -0.39379588158E+03  0.80290037696E+03  0.69969551876E+03 0.  0.
        3    1    3    3  502    0  0.59164877865E+01  0.89462234559E+02  0.19114523505E+03  0.21112794065E+03  0.10100000352E+00 0.  1.
       -3    1    3    3    0  502 -0.59164877865E+01 -0.89462234559E+02 -0.58494111663E+03  0.59177243630E+03  0.10100000352E+00 0. -1.
</event>
<event>
 5   0  0.7572415E-04  0.6999791E+03  0.7818609E-02  0.9717268E-01
       -1   -1    0    0    0  501  0.00000000000E+00  0.00000000000E+00  0.73309999221E+02  0.73309999395E+02  0.50400001928E-02 0.  1.
        1   -1    0    0  501    0  0.00000000000E+00  0.00000000000E+00 -0.16708866552E+04  0.16708866552E+04  0.50400001928E-02 0. -1.
    10030    2    1    2    0    0  0.00000000000E+00  0.00000000000E+00 -0.15975766560E+04  0.17441966546E+04  0.69997914126E+03 0.  0.
        4    1    3    3  502    0 -0.45725884426E+02  0.73163569301E+02  0.46390497472E+02  0.97966604183E+02  0.12699999809E+01 0.  1.
       -4    1    3    3    0  502  0.45725884426E+02 -0.73163569301E+02 -0.16439671535E+04  0.16462300504E+04  0.12699999809E+01 0. -1.
</event>
<event>
 5   0  0.7574241E-04  0.7000328E+03  0.7818609E-02  0.9717176E-01
        1   -1    0    0  501    0  0.00000000000E+00  0.00000000000E+00  0.90635498215E+03  0.90635498217E+03  0.50400001928E-02 0.  1.
       -1   -1    0    0    0  501  0.00000000000E+00  0.00000000000E+00 -0.13516942493E+03  0.13516942502E+03  0.50400001928E-02 0. -1.
    10030    2    1    2    0    0  0.00000000000E+00  0.00000000000E+00  0.77118555722E+03  0.10415244072E+04  0.70003280431E+03 0.  0.
        3    1    3    3  502    0 -0.95858827108E+02 -0.28422255372E+03  0.11720639407E+03  0.32203838869E+03  0.10100000352E+00 0. -1.
       -3    1    3    3    0  502  0.95858827108E+02  0.28422255372E+03  0.65397916316E+03  0.71948601850E+03  0.10100000352E+00 0.  1.
</event>
<event>
 5   0  0.1282546E-03  0.6997795E+03  0.7818609E-02  0.9717609E-01
        2   -1    0    0  501    0  0.00000000000E+00  0.00000000000E+00  0.66639422740E+03  0.66639422741E+03  0.25500000920E-02 0. -1.
       -2   -1    0    0    0  501  0.00000000000E+00  0.00000000000E+00 -0.18370932814E+03  0.18370932815E+03  0.25500000920E-02 0.  1.
    10030    2    1    2    0    0  0.00000000000E+00  0.00000000000E+00  0.48268489926E+03  0.85010355556E+03  0.69977949613E+03 0.  0.
        5    1    3    3  502    0 -0.23461509287E+03 -0.19118102048E+03  0.28121172457E+02  0.30398571469E+03  0.46999998093E+01 0.  1.
       -5    1    3    3    0  502  0.23461509287E+03  0.19118102048E+03  0.45456372681E+03  0.54611784087E+03  0.46999998093E+01 0. -1.
</event>
<event>
 5   0  0.7572415E-04  0.7001308E+03  0.7818609E-02  0.9717009E-01
        1   -1    0    0  501    0  0.00000000000E+00  0.00000000000E+00  0.34541180212E+03  0.34541180216E+03  0.50400001928E-02 0.  1.
       -1   -1    0    0    0  501  0.00000000000E+00  0.00000000000E+00 -0.35478164670E+03  0.35478164674E+03  0.50400001928E-02 0. -1.
    10030    2    1    2    0    0  0.00000000000E+00  0.00000000000E+00 -0.93698445790E+01  0.70019344890E+03  0.70013075343E+03 0.  0.
        4    1    3    3  502    0 -0.16027071533E+03  0.29820056490E+03 -0.93765206102E+02  0.35128877847E+03  0.12699999809E+01 0.  1.
       -4    1    3    3    0  502  0.16027071533E+03 -0.29820056490E+03  0.84395361523E+02  0.34890467043E+03  0.12699999809E+01 0. -1.
</event>
<event>
 5   0  0.7570633E-04  0.7012913E+03  0.7818609E-02  0.9715026E-01
        1   -1    0    0  501    0  0.00000000000E+00  0.00000000000E+00  0.98624983403E+03  0.98624983404E+03  0.50400001928E-02 0.  1.
       -1   -1    0    0    0  501  0.00000000000E+00  0.00000000000E+00 -0.12466656041E+03  0.12466656051E+03  0.50400001928E-02 0. -1.
    10030    2    1    2    0    0  0.00000000000E+00  0.00000000000E+00  0.86158327362E+03  0.11109163945E+04  0.70129130773E+03 0.  0.
        5    1    3    3  502    0  0.14651761965E+03  0.30943084958E+03  0.55055032618E+03  0.64833834932E+03  0.46999998093E+01 0.  1.
       -5    1    3    3    0  502 -0.14651761965E+03 -0.30943084958E+03  0.31103294744E+03  0.46257804523E+03  0.46999998093E+01 0. -1.
</event>
<event>
 5   0  0.1282546E-03  0.7004916E+03  0.7818609E-02  0.9716392E-01
        2   -1    0    0  501    0  0.00000000000E+00  0.00000000000E+00  0.17895642604E+03  0.17895642606E+03  0.25500000920E-02 0. -1.
       -2   -1    0    0    0  501  0.00000000000E+00  0.00000000000E+00 -0.68548594649E+03  0.68548594650E+03  0.25500000920E-02 0.  1.
    10030    2    1    2    0    0  0.00000000000E+00  0.00000000000E+00 -0.50652952045E+03  0.86444237256E+03  0.70049158481E+03 0.  0.
        5    1    3    3  502    0  0.17818027411E+03  0.14426113434E+03  0.73445540703E+02  0.24078169036E+03  0.46999998093E+01 0. -1.
       -5    1    3    3    0  502 -0.17818027411E+03 -0.14426113434E+03 -0.57997506116E+03  0.62366068220E+03  0.46999998093E+01 0.  1.
</event>
<event>
 5   0  0.7570633E-04  0.7004547E+03  0.7818609E-02  0.9716455E-01
        1   -1    0    0  501    0  0.00000000000E+00  0.00000000000E+00  0.12863874183E+04  0.12863874183E+04  0.50400001928E-02 0.  1.
       -1   -1    0    0    0  501  0.00000000000E+00  0.00000000000E+00 -0.95351676959E+02  0.95351677092E+02  0.50400001928E-02 0. -1.
    10030    2    1    2    0    0  0.00000000000E+00  0.00000000000E+00  0.11910357413E+04  0.13817390954E+04  0.70045470275E+03 0.  0.
        5    1    3    3  502    0  0.14442923883E+03 -0.15911465859E+03  0.50058196268E+02  0.22069252960E+03  0.46999998093E+01 0. -1.
       -5    1    3    3    0  502 -0.14442923883E+03  0.15911465859E+03  0.11409775451E+04  0.11610465658E+04  0.46999998093E+01 0.  1.
</event>
<event>
 5   0  0.1243087E-03  0.7001945E+03  0.7818609E-02  0.9716900E-01
       -2   -1    0    0    0  501  0.00000000000E+00  0.00000000000E+00  0.22093243068E+03  0.22093243069E+03  0.25500000920E-02 0.  1.
        2   -1    0    0  501    0  0.00000000000E+00  0.00000000000E+00 -0.55477635788E+03  0.55477635789E+03  0.25500000920E-02 0. -1.
    10030    2    1    2    0    0  0.00000000000E+00  0.00000000000E+00 -0.33384392721E+03  0.77570878858E+03  0.70019451365E+03 0.  0.
        4    1    3    3  502    0 -0.24399371686E+03 -0.24193880481E+03 -0.24123167802E+03  0.41983527069E+03  0.12699999809E+01 0. -1.
       -4    1    3    3    0  502  0.24399371686E+03  0.24193880481E+03 -0.92612249183E+02  0.35587351789E+03  0.12699999809E+01 0.  1.
</event>
<event>
 5   0  0.7459843E-04  0.6996744E+03  0.7818609E-02  0.9717789E-01
       -1   -1    0    0    0  501  0.00000000000E+00  0.00000000000E+00  0.91489066485E+02  0.91489066624E+02  0.50400001928E-02 0.  1.
        1   -1    0    0  501    0  0.00000000000E+00  0.00000000000E+00 -0.13377124082E+04  0.13377124082E+04  0.50400001928E-02 0. -1.
    10030    2    1    2    0    0  0.00000000000E+00  0.00000000000E+00 -0.12462233417E+04  0.14292014748E+04  0.69967438014E+03 0.  0.
        2    1    3    3  502    0  0.91355412427E+02 -0.23076719798E+03 -0.11949286290E+03  0.27545935332E+03  0.25500000920E-02 0.  1.
       -2    1    3    3    0  502 -0.91355412427E+02  0.23076719798E+03 -0.11267304788E+04  0.11537421215E+04  0.25500000920E-02 0. -1.
</event>
<event>
 5   0  0.7459843E-04  0.7002136E+03  0.7818609E-02  0.9716867E-01
        1   -1    0    0  501    0  0.00000000000E+00  0.00000000000E+00  0.42276546483E+03  0.42276546486E+03  0.50400001928E-02 0. -1.
       -1   -1    0    0    0  501  0.00000000000E+00  0.00000000000E+00 -0.28993559366E+03  0.28993559370E+03  0.50400001928E-02 0.  1.
    10030    2    1    2    0    0  0.00000000000E+00  0.00000000000E+00  0.13282987117E+03  0.71270105856E+03  0.70021355614E+03 0.  0.
        2    1    3    3  502    0  0.29775138240E+03 -0.18167249289E+03  0.35643751915E+02  0.35061554080E+03  0.25500000920E-02 0.  1.
       -2    1    3    3    0  502 -0.29775138240E+03  0.18167249289E+03  0.97186119252E+02  0.36208551776E+03  0.25500000920E-02 0. -1.
</event>
<event>
 5   0  0.7013526E-04  0.6992811E+03  0.7818609E-02  0.9718462E-01
       -1   -1    0    0    0  501  0.00000000000E+00  0.00000000000E+00  0.17569421740E+03  0.17569421747E+03  0.50400001928E-02 0.  1.
        1   -1    0    0  501    0  0.00000000000E+00  0.00000000000E+00 -0.69580265401E+03  0.69580265402E+03  0.50400001928E-02 0. -1.
    10030    2    1    2    0    0  0.00000000000E+00  0.00000000000E+00 -0.52010843660E+03  0.87149687150E+03  0.69928106738E+03 0.  0.
        1    1    3    3  502    0 -0.16604105687E+03  0.22781527690E+03 -0.22857856488E+01  0.28191250025E+03  0.50400001928E-02 0.  1.
       -1    1    3    3    0  502  0.16604105687E+03 -0.22781527690E+03 -0.51782265096E+03  0.58958437125E+03  0.50400001928E-02 0. -1.
</event>
<event>
 5   0  0.1224048E-03  0.7006745E+03  0.7818609E-02  0.9716079E-01
       -2   -1    0    0    0  501  0.00000000000E+00  0.00000000000E+00  0.32697014866E+03  0.32697014867E+03  0.25500000920E-02 0.  1.
        2   -1    0    0  501    0  0.00000000000E+00  0.00000000000E+00 -0.37537428969E+03  0.37537428970E+03  0.25500000920E-02 0. -1.
    10030    2    1    2    0    0  0.00000000000E+00  0.00000000000E+00 -0.48404141033E+02  0.70234443837E+03  0.70067449593E+03 0.  0.
        3    1    3    3  502    0  0.47882092128E+02 -0.28944007636E+03 -0.21614715844E+03  0.36440068174E+03  0.10100000352E+00 0. -1.
       -3    1    3    3    0  502 -0.47882092128E+02  0.28944007636E+03  0.16774301741E+03  0.33794375663E+03  0.10100000352E+00 0.  1.
</event>
<event>
 5   0  0.7459843E-04  0.7001036E+03  0.7818609E-02  0.9717055E-01
       -1   -1    0    0    0  501  0.00000000000E+00  0.00000000000E+00  0.65202175089E+02  0.65202175284E+02  0.50400001928E-02 0.  1.
        1   -1    0    0  501    0  0.00000000000E+00  0.00000000000E+00 -0.18793275922E+04  0.18793275922E+04  0.50400001928E-02 0. -1.
    10030    2    1    2    0    0  0.00000000000E+00  0.00000000000E+00 -0.18141254172E+04  0.19445297675E+04  0.70010355495E+03 0.  0.
        2    1    3    3  502    0 -0.26417906433E+03  0.43870745965E+02 -0.15332064291E+04  0.15564180591E+04  0.25500000920E-02 0. -1.
       -2    1    3    3    0  502  0.26417906433E+03 -0.43870745965E+02 -0.28091898804E+03  0.38811170844E+03  0.25500000920E-02 0.  1.
</event>
<event>
 5   0  0.4936000E-04  0.7000576E+03  0.7818609E-02  0.9717134E-01
        3   -1    0    0  501    0  0.00000000000E+00  0.00000000000E+00  0.90932715780E+03  0.90932716341E+03  0.10100000352E+00 0.  1.
       -3   -1    0    0    0  501  0.00000000000E+00  0.00000000000E+00 -0.13473713933E+03  0.13473717718E+03  0.10100000352E+00 0. -1.
    10030    2    1    2    0    0  0.00000000000E+00  0.00000000000E+00  0.77459001847E+03  0.10440643406E+04  0.70005760518E+03 0.  0.
        4    1    3    3  502    0  0.93641325453E+02  0.98017385350E+02 -0.93995577679E+02  0.16496329042E+03  0.12699999809E+01 0. -1.
       -4    1    3    3    0  502 -0.93641325453E+02 -0.98017385350E+02  0.86858559615E+03  0.87910105017E+03  0.12699999809E+01 0.  1.
</event>
<event>
 5   0  0.7459843E-04  0.7000032E+03  0.7818609E-02  0.9717227E-01
        1   -1    0    0  501    0  0.00000000000E+00  0.00000000000E+00  0.10897446081E+04  0.10897446081E+04  0.50400001928E-02 0.  1.
       -1   -1    0    0    0  501  0.00000000000E+00  0.00000000000E+00 -0.11241268336E+03  0.11241268347E+03  0.50400001928E-02 0. -1.
    10030    2    1    2    0    0  0.00000000000E+00  0.00000000000E+00  0.97733192469E+03  0.12021572915E+04  0.70000318754E+03 0.  0.
        2    1    3    3  502    0 -0.18408061615E+03 -0.26999028547E+03  0.27333967438E+03  0.42602230585E+03  0.25500000920E-02 0. -1.
       -2    1    3    3    0  502  0.18408061615E+03  0.26999028547E+03  0.70399225032E+03  0.77613498569E+03  0.25500000920E-02 0.  1.
</event>
<event>
 5   0  0.1282546E-03  0.6991406E+03  0.7818609E-02  0.9718703E-01
       -2   -1    0    0    0  501  0.00000000000E+00  0.00000000000E+00  0.16191537419E+03  0.16191537421E+03  0.25500000920E-02 0.  1.
        2   -1    0    0  501    0  0.00000000000E+00  0.00000000000E+00 -0.75471139413E+03  0.75471139413E+03  0.25500000920E-02 0. -1.
    10030    2    1    2    0    0  0.00000000000E+00  0.00000000000E+00 -0.59279601993E+03  0.91662676834E+03  0.69914055182E+03 0.  0.
        5    1    3    3  502    0 -0.24939801532E+03  0.19955882038E+03 -0.11027041290E+03  0.33794192814E+03  0.46999998093E+01 0.  1.
       -5    1    3    3    0  502  0.24939801532E+03 -0.19955882038E+03 -0.48252560703E+03  0.57868484020E+03  0.46999998093E+01 0. -1.
</event>
<event>
 5   0  0.1243087E-03  0.7000001E+03  0.7818609E-02  0.9717232E-01
        2   -1    0    0  501    0  0.00000000000E+00  0.00000000000E+00  0.58766433765E+03  0.58766433765E+03  0.25500000920E-02 0.  1.
       -2   -1    0    0    0  501  0.00000000000E+00  0.00000000000E+00 -0.20845239776E+03  0.20845239778E+03  0.25500000920E-02 0. -1.
    10030    2    1    2    0    0  0.00000000000E+00  0.00000000000E+00  0.37921193989E+03  0.79611673543E+03  0.70000011506E+03 0.  0.
        4    1    3    3  502    0  0.12314413165E+03 -0.35467787026E+02  0.56001978964E+03  0.57449649152E+03  0.12699999809E+01 0.  1.
       -4    1    3    3    0  502 -0.12314413165E+03  0.35467787026E+02 -0.18080784976E+03  0.22162024391E+03  0.12699999809E+01 0. -1.
</event>
<event>
 5   0  0.7459843E-04  0.6999595E+03  0.7818609E-02  0.9717302E-01
        1   -1    0    0  501    0  0.00000000000E+00  0.00000000000E+00  0.70828423816E+03  0.70828423818E+03  0.50400001928E-02 0.  1.
       -1   -1    0    0    0  501  0.00000000000E+00  0.00000000000E+00 -0.17293313787E+03  0.17293313795E+03  0.50400001928E-02 0. -1.
    10030    2    1    2    0    0  0.00000000000E+00  0.00000000000E+00  0.53535110028E+03  0.88121737612E+03  0.69995947269E+03 0.  0.
        2    1    3    3  502    0 -0.45980794300E+02  0.30516025634E+03  0.47549387999E+03  0.56686104594E+03  0.25500000920E-02 0.  1.
       -2    1    3    3    0  502  0.45980794300E+02 -0.30516025634E+03  0.59857220298E+02  0.31435633018E+03  0.25500000920E-02 0. -1.
</event>
<event>
 5   0  0.7013526E-04  0.6989747E+03  0.7818609E-02  0.9718987E-01
       -1   -1    0    0    0  501  0.00000000000E+00  0.00000000000E+00  0.19992346354E+03  0.19992346360E+03  0.50400001928E-02 0. -1.
        1   -1    0    0  501    0  0.00000000000E+00  0.00000000000E+00 -0.61094082446E+03  0.61094082448E+03  0.50400001928E-02 0.  1.
    10030    2    1    2    0    0  0.00000000000E+00  0.00000000000E+00 -0.41101736092E+03  0.81086428808E+03  0.69897469390E+03 0.  0.
        1    1    3    3  502    0  0.16258730916E+03  0.15217899163E+03 -0.51797299285E+03  0.56381654812E+03  0.50400001928E-02 0.  1.
       -1    1    3    3    0  502 -0.16258730916E+03 -0.15217899163E+03  0.10695563193E+03  0.24704773996E+03  0.50400001928E-02 0. -1.
</event>
<event>
 5   0  0.7574241E-04  0.7000606E+03  0.7818609E-02  0.9717129E-01
        1   -1    0    0  501    0  0.00000000000E+00  0.00000000000E+00  0.39515670745E+03  0.39515670748E+03  0.50400001928E-02 0.  1.
       -1   -1    0    0    0  501  0.00000000000E+00  0.00000000000E+00 -0.31005726559E+03  0.31005726563E+03  0.50400001928E-02 0. -1.
    10030    2    1    2    0    0  0.00000000000E+00  0.00000000000E+00  0.85099441862E+02  0.70521397312E+03  0.70006059229E+03 0.  0.
        3    1    3    3  502    0 -0.18975566199E+03  0.27197468374E+03  0.15537310293E+03  0.36622158752E+03  0.10100000352E+00 0. -1.
       -3    1    3    3    0  502  0.18975566199E+03 -0.27197468374E+03 -0.70273661070E+02  0.33899238560E+03  0.10100000352E+00 0.  1.
</event>
<event>
 5   0  0.1222679E-03  0.6999524E+03  0.7818609E-02  0.9717314E-01
       -2   -1    0    0    0  501  0.00000000000E+00  0.00000000000E+00  0.67933352522E+02  0.67933352570E+02  0.25500000920E-02 0. -1.
        2   -1    0    0  501    0  0.00000000000E+00  0.00000000000E+00 -0.18029929787E+04  0.18029929787E+04  0.25500000920E-02 0.  1.
    10030    2    1    2    0    0  0.00000000000E+00  0.00000000000E+00 -0.17350596262E+04  0.18709263313E+04  0.69995244885E+03 0.  0.
        2    1    3    3  502    0 -0.73829374231E+01  0.90796326816E+02  0.35687895923E+02  0.97837143510E+02  0.25500000920E-02 0. -1.
       -2    1    3    3    0  502  0.73829374231E+01 -0.90796326816E+02 -0.17707475221E+04  0.17730891878E+04  0.25500000920E-02 0.  1.
</event>
<event>
 5   0  0.7013526E-04  0.7005342E+03  0.7818609E-02  0.9716319E-01
       -1   -1    0    0    0  501  0.00000000000E+00  0.00000000000E+00  0.24995302109E+03  0.24995302114E+03  0.50400001928E-02 0.  1.
        1   -1    0    0  501    0  0.00000000000E+00  0.00000000000E+00 -0.49084036101E+03  0.49084036104E+03  0.50400001928E-02 0. -1.
    10030    2    1    2    0    0  0.00000000000E+00  0.00000000000E+00 -0.24088733992E+03  0.74079338217E+03  0.70053417085E+03 0.  0.
        1    1    3    3  502    0 -0.61307707433E+02 -0.27407755417E+03 -0.34178058531E+03  0.44236987828E+03  0.50400001928E-02 0. -1.
       -1    1    3    3    0  502  0.61307707433E+02  0.27407755417E+03  0.10089324538E+03  0.29842350390E+03  0.50400001928E-02 0.  1.
</event>
<event>
 5   0  0.1282546E-03  0.7008808E+03  0.7818609E-02  0.9715727E-01
        2   -1    0    0  501    0  0.00000000000E+00  0.00000000000E+00  0.34520990167E+03  0.34520990168E+03  0.25500000920E-02 0.  1.
       -2   -1    0    0    0  501  0.00000000000E+00  0.00000000000E+00 -0.35575012419E+03  0.35575012420E+03  0.25500000920E-02 0. -1.
    10030    2    1    2    0    0  0.00000000000E+00  0.00000000000E+00 -0.10540222524E+02  0.70096002588E+03  0.70088077559E+03 0.  0.
        5    1    3    3  502    0 -0.13151405630E+03  0.13441381180E+03  0.29043772944E+03  0.34603350197E+03  0.46999998093E+01 0.  1.
       -5    1    3    3    0  502  0.13151405630E+03 -0.13441381180E+03 -0.30097795196E+03  0.35492652391E+03  0.46999998093E+01 0. -1.
</event>
<event>
 5   0  0.7013526E-04  0.6978945E+03  0.7818609E-02  0.9720840E-01
        1   -1    0    0  501    0  0.00000000000E+00  0.00000000000E+00  0.35472825854E+03  0.35472825858E+03  0.50400001928E-02 0. -1.
       -1   -1    0    0    0  501  0.00000000000E+00  0.00000000000E+00 -0.34326042519E+03  0.34326042522E+03  0.50400001928E-02 0.  1.
    10030    2    1    2    0    0  0.00000000000E+00  0.00000000000E+00  0.11467833353E+02  0.69798868380E+03  0.69789447018E+03 0.  0.
        1    1    3    3  502    0  0.13760756768E+03 -0.31852807954E+03  0.42727999209E+02  0.34960214828E+03  0.50400001928E-02 0.  1.
       -1    1    3    3    0  502 -0.13760756768E+03  0.31852807954E+03 -0.31260165855E+02  0.34838653552E+03  0.50400001928E-02 0. -1.
</event>
<event>
 5   0  0.1222679E-03  0.7001140E+03  0.7818609E-02  0.9717037E-01
       -2   -1    0    0    0  501  0.00000000000E+00  0.00000000000E+00  0.21916807370E+03  0.21916807372E+03  0.25500000920E-02 0.  1.
        2   -1    0    0  501    0  0.00000000000E+00  0.00000000000E+00 -0.55911388212E+03  0.55911388213E+03  0.25500000920E-02 0. -1.
    10030    2    1    2    0    0  0.00000000000E+00  0.00000000000E+00 -0.33994580842E+03  0.77828195585E+03  0.70011402652E+03 0.  0.
        2    1    3    3  502    0  0.10772016158E+02 -0.25997725324E+03  0.90342515784E+02  0.27543779461E+03  0.25500000920E-02 0.  1.
       -2    1    3    3    0  502 -0.10772016158E+02  0.25997725324E+03 -0.43028832420E+03  0.50284416123E+03  0.25500000920E-02 0. -1.
</event>
<event>
 5   0  0.7570633E-04  0.6999102E+03  0.7818609E-02  0.9717386E-01
       -1   -1    0    0    0  501  0.00000000000E+00  0.00000000000E+00  0.14917577974E+03  0.14917577982E+03  0.50400001928E-02 0.  1.
        1   -1    0    0  501    0  0.00000000000E+00  0.00000000000E+00 -0.82096812244E+03  0.82096812246E+03  0.50400001928E-02 0. -1.
    10030    2    1    2    0    0  0.00000000000E+00  0.00000000000E+00 -0.67179234271E+03  0.97014390228E+03  0.69991016524E+03 0.  0.
        5    1    3    3  502    0 -0.14325723025E+03  0.62207279853E+02 -0.76993313270E+03  0.78562809173E+03  0.46999998093E+01 0. -1.
       -5    1    3    3    0  502  0.14325723025E+03 -0.62207279853E+02  0.98140789990E+02  0.18451581055E+03  0.46999998093E+01 0.  1.
</event>
<event>
 5   0  0.1282546E-03  0.7001777E+03  0.7818609E-02  0.9716928E-01
        2   -1    0    0  501    0  0.00000000000E+00  0.00000000000E+00  0.77354468895E+03  0.77354468896E+03  0.25500000920E-02 0.  1.
       -2   -1    0    0    0  501  0.00000000000E+00  0.00000000000E+00 -0.15844228722E+03  0.15844228724E+03  0.25500000920E-02 0. -1.
    10030    2    1    2    0    0  0.00000000000E+00  0.00000000000E+00  0.61510240173E+03  0.93198697620E+03  0.70017766259E+03 0.  0.
        5    1    3    3  502    0  0.25269257695E+03  0.40835358140E+02  0.62539337511E+03  0.67576625289E+03  0.46999998093E+01 0.  1.
       -5    1    3    3    0  502 -0.25269257695E+03 -0.40835358140E+02 -0.10290973383E+02  0.25622072330E+03  0.46999998093E+01 0. -1.
</event>
<event>
 5   0  0.7013526E-04  0.7003305E+03  0.7818609E-02  0.9716667E-01
        1   -1    0    0  501    0  0.00000000000E+00  0.00000000000E+00  0.17734595244E+03  0.17734595252E+03  0.50400001928E-02 0. -1.
       -1   -1    0    0    0  501  0.00000000000E+00  0.00000000000E+00 -0.69139272867E+03  0.69139272869E+03  0.50400001928E-02 0.  1.
    10030    2    1    2    0    0  0.00000000000E+00  0.00000000000E+00 -0.51404677622E+03  0.86873868120E+03  0.70033049917E+03 0.  0.
        1    1    3    3  502    0 -0.12614933986E+03 -0.32630432957E+03 -0.23831200137E+03  0.42329750940E+03  0.50400001928E-02 0.  1.
       -1    1    3    3    0  502  0.12614933986E+03  0.32630432957E+03 -0.27573477485E+03  0.44544117180E+03  0.50400001928E-02 0. -1.
</event>
<event>
 5   0  0.7459843E-04  0.7018899E+03  0.7818609E-02  0.9714006E-01
       -1   -1    0    0    0  501  0.00000000000E+00  0.00000000000E+00  0.66445730440E+02  0.66445730631E+02  0.50400001928E-02 0. -1.
        1   -1    0    0  501    0  0.00000000000E+00  0.00000000000E+00 -0.18535781752E+04  0.18535781752E+04  0.50400001928E-02 0.  1.
    10030    2    1    2    0    0  0.00000000000E+00  0.00000000000E+00 -0.17871324447E+04  0.19200239058E+04  0.70188989441E+03 0.  0.
        2    1    3    3  502    0 -0.34474328294E+03 -0.42627494172E+02 -0.75686421861E+03  0.83277156520E+03  0.25500000920E-02 0. -1.
       -2    1    3    3    0  502  0.34474328294E+03  0.42627494172E+02 -0.10302682261E+04  0.10872523406E+04  0.25500000920E-02 0.  1.
</event>
<event>
 5   0  0.1224048E-03  0.6999470E+03  0.7818609E-02  0.9717323E-01
       -2   -1    0    0    0  501  0.00000000000E+00  0.00000000000E+00  0.12775671397E+03  0.12775671399E+03  0.25500000920E-02 0. -1.
        2   -1    0    0  501    0  0.00000000000E+00  0.00000000000E+00 -0.95870859107E+03  0.95870859108E+03  0.25500000920E-02 0.  1.
    10030    2    1    2    0    0  0.00000000000E+00  0.00000000000E+00 -0.83095187711E+03  0.10864653051E+04  0.69994702446E+03 0.  0.
        3    1    3    3  502    0  0.25799790970E+03  0.20738598254E+03 -0.59183865485E+03  0.67811862586E+03  0.10100000352E+00 0.  1.
       -3    1    3    3    0  502 -0.25799790970E+03 -0.20738598254E+03 -0.23911322226E+03  0.40834667921E+03  0.10100000352E+00 0. -1.
</event>
<event>
 5   0  0.7574241E-04  0.6997803E+03  0.7818609E-02  0.9717608E-01
       -1   -1    0    0    0  501  0.00000000000E+00  0.00000000000E+00  0.79172909923E+02  0.79172910084E+02  0.50400001928E-02 0. -1.
        1   -1    0    0  501    0  0.00000000000E+00  0.00000000000E+00 -0.15462751171E+04  0.15462751171E+04  0.50400001928E-02 0.  1.
    10030    2    1    2    0    0  0.00000000000E+00  0.00000000000E+00 -0.14671022071E+04  0.16254480271E+04  0.69978025321E+03 0.  0.
        3    1    3    3  502    0 -0.14210275556E+03  0.21286241509E+03 -0.12877196892E+04  0.13129073116E+04  0.10100000352E+00 0.  1.
       -3    1    3    3    0  502  0.14210275556E+03 -0.21286241509E+03 -0.17938251797E+03  0.31254071551E+03  0.10100000352E+00 0. -1.
</event>
<event>
 5   0  0.1265562E-03  0.6996494E+03  0.7818609E-02  0.9717832E-01
       -2   -1    0    0    0  501  0.00000000000E+00  0.00000000000E+00  0.90030576102E+02  0.90030576138E+02  0.25500000920E-02 0. -1.
        2   -1    0    0  501    0  0.00000000000E+00  0.00000000000E+00 -0.13592861423E+04  0.13592861423E+04  0.25500000920E-02 0.  1.
    10030    2    1    2    0    0  0.00000000000E+00  0.00000000000E+00 -0.12692555662E+04  0.14493167185E+04  0.69964938221E+03 0.  0.
        1    1    3    3  502    0 -0.17854350988E+03 -0.28380907785E+03 -0.84127837506E+03  0.90563496066E+03  0.50400001928E-02 0.  1.
       -1    1    3    3    0  502  0.17854350988E+03  0.28380907785E+03 -0.42797719115E+03  0.54368175780E+03  0.50400001928E-02 0. -1.
</event>
<event>
 5   0  0.7013526E-04  0.6996127E+03  0.7818609E-02  0.9717895E-01
       -1   -1    0    0    0  501  0.00000000000E+00  0.00000000000E+00  0.23663550154E+03  0.23663550159E+03  0.50400001928E-02 0. -1.
        1   -1    0    0  501    0  0.00000000000E+00  0.00000000000E+00 -0.51710109137E+03  0.51710109140E+03  0.50400001928E-02 0.  1.
    10030    2    1    2    0    0  0.00000000000E+00  0.00000000000E+00 -0.28046558983E+03  0.75373659299E+03  0.69961268180E+03 0.  0.
        1    1    3    3  502    0 -0.17551366641E+03  0.27027929903E+03 -0.28680373894E+03  0.43140738436E+03  0.50400001928E-02 0. -1.
       -1    1    3    3    0  502  0.17551366641E+03 -0.27027929903E+03  0.63381491079E+01  0.32232920864E+03  0.50400001928E-02 0.  1.
</event>
<event>
 5   0  0.1222679E-03  0.7000556E+03  0.7818609E-02  0.9717137E-01
       -2   -1    0    0    0  501  0.00000000000E+00  0.00000000000E+00  0.66223750574E+02  0.66223750623E+02  0.25500000920E-02 0. -1.
        2   -1    0    0  501    0  0.00000000000E+00  0.00000000000E+00 -0.18500831591E+04  0.18500831591E+04  0.25500000920E-02 0.  1.
    10030    2    1    2    0    0  0.00000000000E+00  0.00000000000E+00 -0.17838594086E+04  0.19163069098E+04  0.70005555700E+03 0.  0.
        2    1    3    3  502    0  0.15967747511E+03  0.27029466838E+03 -0.13156763274E+04  0.13526123991E+04  0.25500000920E-02 0.  1.
       -2    1    3    3    0  502 -0.15967747511E+03 -0.27029466838E+03 -0.46818308116E+03  0.56369451062E+03  0.25500000920E-02 0. -1.
</event>
<event>
 5   0  0.7574241E-04  0.7006200E+03  0.7818609E-02  0.9716172E-01
        1   -1    0    0  501    0  0.00000000000E+00  0.00000000000E+00  0.12011035463E+04  0.12011035463E+04  0.50400001928E-02 0. -1.
       -1   -1    0    0    0  501  0.00000000000E+00  0.00000000000E+00 -0.10217029515E+03  0.10217029528E+03  0.50400001928E-02 0.  1.
    10030    2    1    2    0    0  0.00000000000E+00  0.00000000000E+00  0.10989332511E+04  0.13032738415E+04  0.70062002231E+03 0.  0.
        3    1    3    3  502    0  0.61214179009E+02  0.13571822826E+03  0.11393215496E+04  0.11490083624E+04  0.10100000352E+00 0. -1.
       -3    1    3    3    0  502 -0.61214179009E+02 -0.13571822826E+03 -0.40388298536E+02  0.15426547914E+03  0.10100000352E+00 0.  1.
</event>
<event>
 5   0  0.1243087E-03  0.6994071E+03  0.7818609E-02  0.9718247E-01
       -2   -1    0    0    0  501  0.00000000000E+00  0.00000000000E+00  0.17374893986E+03  0.17374893987E+03  0.25500000920E-02 0.  1.
        2   -1    0    0  501    0  0.00000000000E+00  0.00000000000E+00 -0.70384652680E+03  0.70384652680E+03  0.25500000920E-02 0. -1.
    10030    2    1    2    0    0  0.00000000000E+00  0.00000000000E+00 -0.53009758694E+03  0.87759546668E+03  0.69940714284E+03 0.  0.
        4    1    3    3  502    0 -0.25786412773E+03  0.16111698168E+03 -0.48179522851E+03  0.56971997093E+03  0.12699999809E+01 0.  1.
       -4    1    3    3    0  502  0.25786412773E+03 -0.16111698168E+03 -0.48302358426E+02  0.30787549575E+03  0.12699999809E+01 0. -1.
</event>
<event>
 5   0  0.1265562E-03  0.7000055E+03  0.7818609E-02  0.9717223E-01
       -2   -1    0    0    0  501  0.00000000000E+00  0.00000000000E+00  0.22015173803E+03  0.22015173804E+03  0.25500000920E-02 0. -1.
        2   -1    0    0  501    0  0.00000000000E+00  0.00000000000E+00 -0.55644310659E+03  0.55644310659E+03  0.25500000920E-02 0.  1.
    10030    2    1    2    0    0  0.00000000000E+00  0.00000000000E+00 -0.33629136856E+03  0.77659484463E+03  0.70000547722E+03 0.  0.
        1    1    3    3  502    0 -0.70106400060E+02  0.11374540002E+03  0.19074368414E+03  0.23288640240E+03  0.50400001928E-02 0. -1.
       -1    1    3    3    0  502  0.70106400060E+02 -0.11374540002E+03 -0.52703505270E+03  0.54370844224E+03  0.50400001928E-02 0.  1.
</event>
<event>
 5   0  0.7574241E-04  0.6998788E+03  0.7818609E-02  0.9717439E-01
       -1   -1    0    0    0  501  0.00000000000E+00  0.00000000000E+00  0.16211800989E+03  0.16211800997E+03  0.50400001928E-02 0.  1.
        1   -1    0    0  501    0  0.00000000000E+00  0.00000000000E+00 -0.75536082535E+03  0.75536082537E+03  0.50400001928E-02 0. -1.
    10030    2    1    2    0    0  0.00000000000E+00  0.00000000000E+00 -0.59324281546E+03  0.91747883534E+03  0.69987882895E+03 0.  0.
        3    1    3    3  502    0 -0.71637420151E+01 -0.20744058762E+03  0.72708226833E+02  0.21993047320E+03  0.10100000352E+00 0.  1.
       -3    1    3    3    0  502  0.71637420151E+01  0.20744058762E+03 -0.66595104229E+03  0.69754836214E+03  0.10100000352E+00 0. -1.
</event>
<event>
 5   0  0.7570633E-04  0.6998645E+03  0.7818609E-02  0.9717464E-01
       -1   -1    0    0    0  501  0.00000000000E+00  0.00000000000E+00  0.10315515953E+03  0.10315515966E+03  0.50400001928E-02 0. -1.
        1   -1    0    0  501    0  0.00000000000E+00  0.00000000000E+00 -0.11870718073E+04  0.11870718073E+04  0.50400001928E-02 0.  1.
    10030    2    1    2    0    0  0.00000000000E+00  0.00000000000E+00 -0.10839166478E+04  0.12902269670E+04  0.69986450616E+03 0.  0.
        5    1    3    3  502    0  0.80267623605E+02  0.33972643772E+03 -0.49780768639E+03  0.60802263652E+03  0.46999998093E+01 0. -1.
       -5    1    3    3    0  502 -0.80267623605E+02 -0.33972643772E+03 -0.58610896136E+03  0.68220433044E+03  0.46999998093E+01 0.  1.
</event>
<event>
 5   0  0.7574241E-04  0.7004426E+03  0.7818609E-02  0.9716476E-01
       -1   -1    0    0    0  501  0.00000000000E+00  0.00000000000E+00  0.19085990562E+03  0.19085990568E+03  0.50400001928E-02 0. -1.
        1   -1    0    0  501    0  0.00000000000E+00  0.00000000000E+00 -0.64264399742E+03  0.64264399744E+03  0.50400001928E-02 0.  1.
    10030    2    1    2    0    0  0.00000000000E+00  0.00000000000E+00 -0.45178409180E+03  0.83350390312E+03  0.70044263927E+03 0.  0.
        3    1    3    3  502    0  0.23608072455E+03  0.20206133306E+03 -0.33676130717E+02  0.31256516570E+03  0.10100000352E+00 0. -1.
       -3    1    3    3    0  502 -0.23608072455E+03 -0.20206133306E+03 -0.41810796109E+03  0.52093873743E+03  0.10100000352E+00 0.  1.
</event>
<event>
 5   0  0.7570633E-04  0.7002138E+03  0.7818609E-02  0.9716867E-01
        1   -1    0    0  501    0  0.00000000000E+00  0.00000000000E+00  0.37731472802E+03  0.37731472805E+03  0.50400001928E-02 0. -1.
       -1   -1    0    0    0  501  0.00000000000E+00  0.00000000000E+00 -0.32486101666E+03  0.32486101670E+03  0.50400001928E-02 0.  1.
    10030    2    1    2    0    0  0.00000000000E+00  0.00000000000E+00  0.52453711362E+02  0.70217574475E+03  0.70021381354E+03 0.  0.
        5    1    3    3  502    0 -0.13402415100E+03 -0.22745948786E+03 -0.20431393115E+03  0.33386608712E+03  0.46999998093E+01 0.  1.
       -5    1    3    3    0  502  0.13402415100E+03  0.22745948786E+03  0.25676764251E+03  0.36830965763E+03  0.46999998093E+01 0. -1.
</event>
<event>
 5   0  0.1222679E-03  0.7002803E+03  0.7818609E-02  0.9716753E-01
       -2   -1    0    0    0  501  0.00000000000E+00  0.00000000000E+00  0.76998562046E+02  0.76998562088E+02  0.25500000920E-02 0. -1.
        2   -1    0    0  501    0  0.00000000000E+00  0.00000000000E+00 -0.15922133490E+04  0.15922133490E+04  0.25500000920E-02 0.  1.
    10030    2    1    2    0    0  0.00000000000E+00  0.00000000000E+00 -0.15152147869E+04  0.16692119111E+04  0.70028033924E+03 0.  0.
        2    1    3    3  502    0 -0.34043957786E+03 -0.76532278345E+02 -0.82676739328E+03  0.89738543470E+03  0.25500000920E-02 0.  1.
       -2    1    3    3    0  502  0.34043957786E+03  0.76532278345E+02 -0.68844739367E+03  0.77182647639E+03  0.25500000920E-02 0. -1.
</event>
<event>
 5   0  0.7013526E-04  0.7004361E+03  0.7818609E-02  0.9716487E-01
       -1   -1    0    0    0  501  0.00000000000E+00  0.00000000000E+00  0.11359030467E+03  0.11359030478E+03  0.50400001928E-02 0.  1.
        1   -1    0    0  501    0  0.00000000000E+00  0.00000000000E+00 -0.10797813285E+04  0.10797813286E+04  0.50400001928E-02 0. -1.
    10030    2    1    2    0    0  0.00000000000E+00  0.00000000000E+00 -0.96619102388E+03  0.11933716333E+04  0.70043612174E+03 0.  0.
        1    1    3    3  502    0  0.29563998300E+03  0.18394379335E+03 -0.54717055706E+03  0.64856297859E+03  0.50400001928E-02 0. -1.
       -1    1    3    3    0  502 -0.29563998300E+03 -0.18394379335E+03 -0.41902046682E+03  0.54480865475E+03  0.50400001928E-02 0.  1.
</event>
<event>
 5   0  0.1265562E-03  0.7003078E+03  0.7818609E-02  0.9716706E-01
       -2   -1    0    0    0  501  0.00000000000E+00  0.00000000000E+00  0.50436627179E+02  0.50436627243E+02  0.25500000920E-02 0.  1.
        2   -1    0    0  501    0  0.00000000000E+00  0.00000000000E+00 -0.24309269558E+04  0.24309269558E+04  0.25500000920E-02 0. -1.
    10030    2    1    2    0    0  0.00000000000E+00  0.00000000000E+00 -0.23804903286E+04  0.24813635830E+04  0.70030780846E+03 0.  0.
        1    1    3    3  502    0 -0.27770078704E+02 -0.20030838718E+03 -0.17738997645E+03  0.26900154463E+03  0.50400001928E-02 0.  1.
       -1    1    3    3    0  502  0.27770078704E+02  0.20030838718E+03 -0.22031003522E+04  0.22123620384E+04  0.50400001928E-02 0. -1.
</event>
<event>
 5   0  0.1243087E-03  0.7002275E+03  0.7818609E-02  0.9716843E-01
       -2   -1    0    0    0  501  0.00000000000E+00  0.00000000000E+00  0.16235678169E+03  0.16235678171E+03  0.25500000920E-02 0.  1.
        2   -1    0    0  501    0  0.00000000000E+00  0.00000000000E+00 -0.75500157315E+03  0.75500157315E+03  0.25500000920E-02 0. -1.
    10030    2    1    2    0    0  0.00000000000E+00  0.00000000000E+00 -0.59264479146E+03  0.91735835487E+03  0.70022746476E+03 0.  0.
        4    1    3    3  502    0  0.28892124172E+03 -0.15801011420E+03 -0.14056348709E+03  0.35805360899E+03  0.12699999809E+01 0. -1.
       -4    1    3    3    0  502 -0.28892124172E+03  0.15801011420E+03 -0.45208130436E+03  0.55930474588E+03  0.12699999809E+01 0.  1.
</event>
<event>
 5   0  0.7574241E-04  0.7021756E+03  0.7818609E-02  0.9713519E-01
        1   -1    0    0  501    0  0.00000000000E+00  0.00000000000E+00  0.33460739251E+03  0.33460739254E+03  0.50400001928E-02 0.  1.
       -1   -1    0    0    0  501  0.00000000000E+00  0.00000000000E+00 -0.36837993185E+03  0.36837993189E+03  0.50400001928E-02 0. -1.
    10030    2    1    2    0    0  0.00000000000E+00  0.00000000000E+00 -0.33772539347E+02  0.70298732443E+03  0.70217561471E+03 0.  0.
        3    1    3    3  502    0  0.29880479148E+02 -0.28572032704E+02 -0.36593444160E+03  0.36826244696E+03  0.10100000352E+00 0. -1.
       -3    1    3    3    0  502 -0.29880479148E+02  0.28572032704E+02  0.33216190226E+03  0.33472487747E+03  0.10100000352E+00 0.  1.
</event>
<event>
 5   0  0.1224048E-03  0.7000059E+03  0.7818609E-02  0.9717222E-01
       -2   -1    0    0    0  501  0.00000000000E+00  0.00000000000E+00  0.82351368141E+02  0.82351368180E+02  0.25500000920E-02 0.  1.
        2   -1    0    0  501    0  0.00000000000E+00  0.00000000000E+00 -0.14875533739E+04  0.14875533739E+04  0.25500000920E-02 0. -1.
    10030    2    1    2    0    0  0.00000000000E+00  0.00000000000E+00 -0.14052020058E+04  0.15699047421E+04  0.70000587300E+03 0.  0.
        3    1    3    3  502    0 -0.13645178312E+03 -0.91600506382E+02 -0.95649908131E+01  0.16462454597E+03  0.10100000352E+00 0.  1.
       -3    1    3    3    0  502  0.13645178312E+03  0.91600506382E+02 -0.13956370150E+04  0.14052801961E+04  0.10100000352E+00 0. -1.
</event>
<event>
 5   0  0.1224048E-03  0.7000303E+03  0.7818609E-02  0.9717180E-01
       -2   -1    0    0    0  501  0.00000000000E+00  0.00000000000E+00  0.12638209176E+03  0.12638209179E+03  0.25500000920E-02 0.  1.
        2   -1    0    0  501    0  0.00000000000E+00  0.00000000000E+00 -0.96936669308E+03  0.96936669309E+03  0.25500000920E-02 0. -1.
    10030    2    1    2    0    0  0.00000000000E+00  0.00000000000E+00 -0.84298460132E+03  0.10957487849E+04  0.70003025756E+03 0.  0.
        3    1    3    3  502    0 -0.28325888760E+03  0.16101709142E+03 -0.22135277640E+03  0.39390247899E+03  0.10100000352E+00 0.  1.
       -3    1    3    3    0  502  0.28325888760E+03 -0.16101709142E+03 -0.62163182492E+03  0.70184630589E+03  0.10100000352E+00 0. -1.
</event>
<event>
 5   0  0.7459843E-04  0.6999206E+03  0.7818609E-02  0.9717368E-01
       -1   -1    0    0    0  501  0.00000000000E+00  0.00000000000E+00  0.45558561517E+03  0.45558561520E+03  0.50400001928E-02 0. -1.
        1   -1    0    0  501    0  0.00000000000E+00  0.00000000000E+00 -0.26882368361E+03  0.26882368366E+03  0.50400001928E-02 0.  1.
    10030    2    1    2    0    0  0.00000000000E+00  0.00000000000E+00  0.18676193156E+03  0.72440929886E+03  0.69992057635E+03 0.  0.
        2    1    3    3  502    0  0.12763790157E+03  0.32322079498E+02 -0.24221063970E+03  0.27568486489E+03  0.25500000920E-02 0.  1.
       -2    1    3    3    0  502 -0.12763790157E+03 -0.32322079498E+02  0.42897257126E+03  0.44872443397E+03  0.25500000920E-02 0. -1.
</event>
<event>
 5   0  0.7574241E-04  0.6992855E+03  0.7818609E-02  0.9718455E-01
        1   -1    0    0  501    0  0.00000000000E+00  0.00000000000E+00  0.60254631445E+03  0.60254631448E+03  0.50400001928E-02 0. -1.
       -1   -1    0    0    0  501  0.00000000000E+00  0.00000000000E+00 -0.20288904063E+03  0.20288904069E+03  0.50400001928E-02 0.  1.
    10030    2    1    2    0    0  0.00000000000E+00  0.00000000000E+00  0.39965727383E+03  0.80543535517E+03  0.69928547449E+03 0.  0.
        3    1    3    3  502    0 -0.28689842531E+03 -0.29450083359E+02 -0.27843095651E+02  0.28974689305E+03  0.10100000352E+00 0.  1.
       -3    1    3    3    0  502  0.28689842531E+03  0.29450083359E+02  0.42750036948E+03  0.51568846212E+03  0.10100000352E+00 0. -1.
</event>
<event>
 5   0  0.7013526E-04  0.7001927E+03  0.7818609E-02  0.9716903E-01
       -1   -1    0    0    0  501  0.00000000000E+00  0.00000000000E+00  0.26284888471E+03  0.26284888475E+03  0.50400001928E-02 0.  1.
        1   -1    0    0  501    0  0.00000000000E+00  0.00000000000E+00 -0.46630387782E+03  0.46630387784E+03  0.50400001928E-02 0. -1.
    10030    2    1    2    0    0  0.00000000000E+00  0.00000000000E+00 -0.20345499311E+03  0.72915276260E+03  0.70019269989E+03 0.  0.
        1    1    3    3  502    0  0.17421531841E+03  0.81577466287E+02 -0.40633484806E+03  0.44957076078E+03  0.50400001928E-02 0. -1.
       -1    1    3    3    0  502 -0.17421531841E+03 -0.81577466287E+02  0.20287985495E+03  0.27958200182E+03  0.50400001928E-02 0.  1.
</event>
<event>
 5   0  0.1282546E-03  0.7000596E+03  0.7818609E-02  0.9717130E-01
        2   -1    0    0  501    0  0.00000000000E+00  0.00000000000E+00  0.19985636109E+04  0.19985636109E+04  0.25500000920E-02 0. -1.
       -2   -1    0    0    0  501  0.00000000000E+00  0.00000000000E+00 -0.61304465238E+02  0.61304465291E+02  0.25500000920E-02 0.  1.
    10030    2    1    2    0    0  0.00000000000E+00  0.00000000000E+00  0.19372591456E+04  0.20598680762E+04  0.70005963593E+03 0.  0.
        5    1    3    3  502    0 -0.20593029845E+03 -0.13224203649E+03  0.17048431341E+04  0.17223261729E+04  0.46999998093E+01 0. -1.
       -5    1    3    3    0  502  0.20593029845E+03  0.13224203649E+03  0.23241601157E+03  0.33754190328E+03  0.46999998093E+01 0.  1.
</event>
<event>
 5   0  0.1224048E-03  0.6995870E+03  0.7818609E-02  0.9717939E-01
        2   -1    0    0  501    0  0.00000000000E+00  0.00000000000E+00  0.72778630089E+03  0.72778630089E+03  0.25500000920E-02 0.  1.
       -2   -1    0    0    0  501  0.00000000000E+00  0.00000000000E+00 -0.16812006481E+03  0.16812006482E+03  0.25500000920E-02 0. -1.
    10030    2    1    2    0    0  0.00000000000E+00  0.00000000000E+00  0.55966623608E+03  0.89590636572E+03  0.69958696409E+03 0.  0.
        3    1    3    3  502    0  0.18415395982E+03 -0.28356239347E+03  0.16503939966E+03  0.37624237607E+03  0.10100000352E+00 0. -1.
       -3    1    3    3    0  502 -0.18415395982E+03  0.28356239347E+03  0.39462683642E+03  0.51966398965E+03  0.10100000352E+00 0.  1.
</event>
<event>
 5   0  0.1243087E-03  0.6999277E+03  0.7818609E-02  0.9717356E-01
        2   -1    0    0  501    0  0.00000000000E+00  0.00000000000E+00  0.13501680081E+04  0.13501680081E+04  0.25500000920E-02 0.  1.
       -2   -1    0    0    0  501  0.00000000000E+00  0.00000000000E+00 -0.90710698542E+02  0.90710698578E+02  0.25500000920E-02 0. -1.
    10030    2    1    2    0    0  0.00000000000E+00  0.00000000000E+00  0.12594573095E+04  0.14408787066E+04  0.69992766251E+03 0.  0.
        4    1    3    3  502    0  0.98551033343E+01  0.28934440187E+02  0.13474099704E+04  0.13477572357E+04  0.12699999809E+01 0.  1.
       -4    1    3    3    0  502 -0.98551033343E+01 -0.28934440187E+02 -0.87952660940E+02  0.93121470978E+02  0.12699999809E+01 0. -1.
</event>
<event>
 5   0  0.1224048E-03  0.7001294E+03  0.7818609E-02  0.9717011E-01
        2   -1    0    0  501    0  0.00000000000E+00  0.00000000000E+00  0.10804797214E+04  0.10804797214E+04  0.25500000920E-02 0. -1.
       -2   -1    0    0    0  501  0.00000000000E+00  0.00000000000E+00 -0.11341749721E+03  0.11341749724E+03  0.25500000920E-02 0.  1.
    10030    2    1    2    0    0  0.00000000000E+00  0.00000000000E+00  0.96706222422E+03  0.11938972187E+04  0.70012943319E+03 0.  0.
        3    1    3    3  502    0  0.13680250820E+03  0.37306702727E+01 -0.65910686217E+02  0.15189823208E+03  0.10100000352E+00 0.  1.
       -3    1    3    3    0  502 -0.13680250820E+03 -0.37306702727E+01  0.10329729104E+04  0.10419989866E+04  0.10100000352E+00 0. -1.
</event>
<event>
 5   0  0.7570633E-04  0.7014065E+03  0.7818609E-02  0.9714830E-01
        1   -1    0    0  501    0  0.00000000000E+00  0.00000000000E+00  0.53273059427E+03  0.53273059430E+03  0.50400001928E-02 0.  1.
       -1   -1    0    0    0  501  0.00000000000E+00  0.00000000000E+00 -0.23087238184E+03  0.23087238189E+03  0.50400001928E-02 0. -1.
    10030    2    1    2    0    0  0.00000000000E+00  0.00000000000E+00  0.30185821244E+03  0.76360297619E+03  0.70140653321E+03 0.  0.
        5    1    3    3  502    0  0.30551341147E+03 -0.69865587180E+02  0.32220434724E+03  0.44950792678E+03  0.46999998093E+01 0.  1.
       -5    1    3    3    0  502 -0.30551341147E+03  0.69865587180E+02 -0.20346134802E+02  0.31409504941E+03  0.46999998093E+01 0. -1.
</event>
<event>
 5   0  0.7572415E-04  0.7006927E+03  0.7818609E-02  0.9716048E-01
       -1   -1    0    0    0  501  0.00000000000E+00  0.00000000000E+00  0.29845578157E+03  0.29845578161E+03  0.50400001928E-02 0.  1.
        1   -1    0    0  501    0  0.00000000000E+00  0.00000000000E+00 -0.41125883760E+03  0.41125883764E+03  0.50400001928E-02 0. -1.
    10030    2    1    2    0    0  0.00000000000E+00  0.00000000000E+00 -0.11280305604E+03  0.70971461924E+03  0.70069273674E+03 0.  0.
        4    1    3    3  502    0  0.21525361622E+03 -0.14269857351E+03 -0.29618572278E+03  0.39296895228E+03  0.12699999809E+01 0. -1.
       -4    1    3    3    0  502 -0.21525361622E+03  0.14269857351E+03  0.18338266675E+03  0.31674566696E+03  0.12699999809E+01 0.  1.
</event>
<event>
 5   0  0.7570633E-04  0.6986321E+03  0.7818609E-02  0.9719574E-01
        1   -1    0    0  501    0  0.00000000000E+00  0.00000000000E+00  0.76591323975E+03  0.76591323976E+03  0.50400001928E-02 0.  1.
       -1   -1    0    0    0  501  0.00000000000E+00  0.00000000000E+00 -0.15931528726E+03  0.15931528734E+03  0.50400001928E-02 0. -1.
    10030    2    1    2    0    0  0.00000000000E+00  0.00000000000E+00  0.60659795248E+03  0.92522852710E+03  0.69863205724E+03 0.  0.
        5    1    3    3  502    0  0.24000662426E+03 -0.24075859646E+03  0.40950861898E+03  0.53224738654E+03  0.46999998093E+01 0. -1.
       -5    1    3    3    0  502 -0.24000662426E+03  0.24075859646E+03  0.19708933351E+03  0.39298114057E+03  0.46999998093E+01 0.  1.
</event>
<event>
 5   0  0.7572415E-04  0.7003884E+03  0.7818609E-02  0.9716568E-01
        1   -1    0    0  501    0  0.00000000000E+00  0.00000000000E+00  0.24470799451E+03  0.24470799456E+03  0.50400001928E-02 0. -1.
       -1   -1    0    0    0  501  0.00000000000E+00  0.00000000000E+00 -0.50115232674E+03  0.50115232677E+03  0.50400001928E-02 0.  1.
    10030    2    1    2    0    0  0.00000000000E+00  0.00000000000E+00 -0.25644433223E+03  0.74586032132E+03  0.70038840895E+03 0.  0.
        4    1    3    3  502    0  0.27408538140E+03  0.19534290309E+03 -0.25233943427E+02  0.33752038588E+03  0.12699999809E+01 0. -1.
       -4    1    3    3    0  502 -0.27408538140E+03 -0.19534290309E+03 -0.23121038881E+03  0.40833993544E+03  0.12699999809E+01 0.  1.
</event>
<event>
 5   0  0.1224048E-03  0.6998441E+03  0.7818609E-02  0.9717499E-01
        2   -1    0    0  501    0  0.00000000000E+00  0.00000000000E+00  0.46236494189E+03  0.46236494189E+03  0.25500000920E-02 0. -1.
       -2   -1    0    0    0  501  0.00000000000E+00  0.00000000000E+00 -0.26482426226E+03  0.26482426227E+03  0.25500000920E-02 0.  1.
    10030    2    1    2    0    0  0.00000000000E+00  0.00000000000E+00  0.19754067963E+03  0.72718920416E+03  0.69984413875E+03 0.  0.
        3    1    3    3  502    0 -0.85899957739E+02  0.13978389184E+03  0.41992143093E+03  0.45083517776E+03  0.10100000352E+00 0. -1.
       -3    1    3    3    0  502  0.85899957739E+02 -0.13978389184E+03 -0.22238075130E+03  0.27635402640E+03  0.10100000352E+00 0.  1.
</event>
<event>
 5   0  0.7574241E-04  0.7000762E+03  0.7818609E-02  0.9717102E-01
       -1   -1    0    0    0  501  0.00000000000E+00  0.00000000000E+00  0.16873135110E+03  0.16873135118E+03  0.50400001928E-02 0. -1.
        1   -1    0    0  501    0  0.00000000000E+00  0.00000000000E+00 -0.72616431105E+03  0.72616431107E+03  0.50400001928E-02 0.  1.
    10030    2    1    2    0    0  0.00000000000E+00  0.00000000000E+00 -0.55743295995E+03  0.89489566225E+03  0.70007623976E+03 0.  0.
        3    1    3    3  502    0  0.18508516654E+03 -0.18705214729E+03 -0.57378025842E+03  0.63124386717E+03  0.10100000352E+00 0.  1.
       -3    1    3    3    0  502 -0.18508516654E+03  0.18705214729E+03  0.16347298476E+02  0.26365179508E+03  0.10100000352E+00 0. -1.
</event>
<event>
 5   0  0.4936000E-04  0.7020383E+03  0.7818609E-02  0.9713753E-01
       -4   -1    0    0    0  501  0.00000000000E+00  0.00000000000E+00  0.44505695657E+03  0.44505876858E+03  0.12699999809E+01 0. -1.
        4   -1    0    0  501    0  0.00000000000E+00  0.00000000000E+00 -0.27684713224E+03  0.27685004520E+03  0.12699999809E+01 0.  1.
    10030    2    1    2    0    0  0.00000000000E+00  0.00000000000E+00  0.16820982433E+03  0.72190881378E+03  0.70203831121E+03 0.  0.
        2    1    3    3  502    0 -0.99211222485E+02  0.44473460188E+02 -0.25909868491E+03  0.28098555809E+03  0.25500000920E-02 0.  1.
       -2    1    3    3    0  502  0.99211222485E+02 -0.44473460188E+02  0.42730850924E+03  0.44092325568E+03  0.25500000920E-02 0. -1.
</event>
<event>
 5   0  0.1224048E-03  0.7001195E+03  0.7818609E-02  0.9717028E-01
        2   -1    0    0  501    0  0.00000000000E+00  0.00000000000E+00  0.13111406796E+04  0.13111406796E+04  0.25500000920E-02 0.  1.
       -2   -1    0    0    0  501  0.00000000000E+00  0.00000000000E+00 -0.93461996353E+02  0.93461996387E+02  0.25500000920E-02 0. -1.
    10030    2    1    2    0    0  0.00000000000E+00  0.00000000000E+00  0.12176786832E+04  0.14046026760E+04  0.70011949106E+03 0.  0.
        3    1    3    3  502    0 -0.29379542916E+03  0.19026578866E+03  0.61886864226E+03  0.71099594309E+03  0.10100000352E+00 0.  1.
       -3    1    3    3    0  502  0.29379542916E+03 -0.19026578866E+03  0.59881004099E+03  0.69360673290E+03  0.10100000352E+00 0. -1.
</event>
<event>
 5   0  0.7574241E-04  0.7000944E+03  0.7818609E-02  0.9717071E-01
       -1   -1    0    0    0  501  0.00000000000E+00  0.00000000000E+00  0.16912461338E+03  0.16912461346E+03  0.50400001928E-02 0.  1.
        1   -1    0    0  501    0  0.00000000000E+00  0.00000000000E+00 -0.72451345112E+03  0.72451345113E+03  0.50400001928E-02 0. -1.
    10030    2    1    2    0    0  0.00000000000E+00  0.00000000000E+00 -0.55538883773E+03  0.89363806459E+03  0.70009444321E+03 0.  0.
        3    1    3    3  502    0  0.26139332330E+02  0.13961082476E+03 -0.68607698850E+03  0.70062550014E+03  0.10100000352E+00 0. -1.
       -3    1    3    3    0  502 -0.26139332330E+02 -0.13961082476E+03  0.13068815077E+03  0.19301256446E+03  0.10100000352E+00 0.  1.
</event>
<event>
 5   0  0.1243087E-03  0.7001662E+03  0.7818609E-02  0.9716948E-01
        2   -1    0    0  501    0  0.00000000000E+00  0.00000000000E+00  0.88906543004E+03  0.88906543005E+03  0.25500000920E-02 0.  1.
       -2   -1    0    0    0  501  0.00000000000E+00  0.00000000000E+00 -0.13785057327E+03  0.13785057329E+03  0.25500000920E-02 0. -1.
    10030    2    1    2    0    0  0.00000000000E+00  0.00000000000E+00  0.75121485678E+03  0.10269160033E+04  0.70016620660E+03 0.  0.
        4    1    3    3  502    0  0.43893542431E+02  0.26945476969E+03  0.54194627860E+02  0.27833646288E+03  0.12699999809E+01 0. -1.
       -4    1    3    3    0  502 -0.43893542431E+02 -0.26945476969E+03  0.69702022892E+03  0.74857954046E+03  0.12699999809E+01 0.  1.
</event>
<event>
 5   0  0.4936000E-04  0.6998454E+03  0.7818609E-02  0.9717497E-01
       -4   -1    0    0    0  501  0.00000000000E+00  0.00000000000E+00  0.45552587334E+03  0.45552764371E+03  0.12699999809E+01 0. -1.
        4   -1    0    0  501    0  0.00000000000E+00  0.00000000000E+00 -0.26879739927E+03  0.26880039947E+03  0.12699999809E+01 0.  1.
    10030    2    1    2    0    0  0.00000000000E+00  0.00000000000E+00  0.18672847408E+03  0.72432804318E+03  0.69984540515E+03 0.  0.
        2    1    3    3  502    0 -0.19017973506E+03  0.24976373000E+03  0.25335413664E+03  0.40340868981E+03  0.25500000920E-02 0. -1.
       -2    1    3    3    0  502  0.19017973506E+03 -0.24976373000E+03 -0.66625662564E+02  0.32091935337E+03  0.25500000920E-02 0.  1.
</event>
<event>
 5   0  0.7459843E-04  0.7000947E+03  0.7818609E-02  0.9717070E-01
        1   -1    0    0  501    0  0.00000000000E+00  0.00000000000E+00  0.14493613400E+03  0.14493613409E+03  0.50400001928E-02 0. -1.
       -1   -1    0    0    0  501  0.00000000000E+00  0.00000000000E+00 -0.84542860183E+03  0.84542860184E+03  0.50400001928E-02 0.  1.
    10030    2    1    2    0    0  0.00000000000E+00  0.00000000000E+00 -0.70049246783E+03  0.99036473593E+03  0.70009471695E+03 0.  0.
        2    1    3    3  502    0  0.20472620790E+02  0.18538201457E+03  0.68794099635E+02  0.19879197086E+03  0.25500000920E-02 0. -1.
       -2    1    3    3    0  502 -0.20472620790E+02 -0.18538201457E+03 -0.76928656746E+03  0.79157276508E+03  0.25500000920E-02 0.  1.
</event>
<event>
 5   0  0.7572415E-04  0.6999399E+03  0.7818609E-02  0.9717335E-01
        1   -1    0    0  501    0  0.00000000000E+00  0.00000000000E+00  0.74954081285E+03  0.74954081286E+03  0.50400001928E-02 0.  1.
       -1   -1    0    0    0  501  0.00000000000E+00  0.00000000000E+00 -0.16340531921E+03  0.16340531928E+03  0.50400001928E-02 0. -1.
    10030    2    1    2    0    0  0.00000000000E+00  0.00000000000E+00  0.58613549364E+03  0.91294613215E+03  0.69993987120E+03 0.  0.
        4    1    3    3  502    0  0.31874450645E+03 -0.99031194733E+02  0.43031369046E+03  0.54458858143E+03  0.12699999809E+01 0.  1.
       -4    1    3    3    0  502 -0.31874450645E+03  0.99031194733E+02  0.15582180318E+03  0.36835755072E+03  0.12699999809E+01 0. -1.
</event>
<event>
 5   0  0.7574241E-04  0.6990679E+03  0.7818609E-02  0.9718828E-01
        1   -1    0    0  501    0  0.00000000000E+00  0.00000000000E+00  0.88721213058E+03  0.88721213059E+03  0.50400001928E-02 0. -1.
       -1   -1    0    0    0  501  0.00000000000E+00  0.00000000000E+00 -0.13770548165E+03  0.13770548174E+03  0.50400001928E-02 0.  1.
    10030    2    1    2    0    0  0.00000000000E+00  0.00000000000E+00  0.74950664893E+03  0.10249176123E+04  0.69906787602E+03 0.  0.
        3    1    3    3  502    0  0.18731790967E+03  0.67486625629E+02 -0.46438110956E+02  0.20444792069E+03  0.10100000352E+00 0.  1.
       -3    1    3    3    0  502 -0.18731790967E+03 -0.67486625629E+02  0.79594475989E+03  0.82046969165E+03  0.10100000352E+00 0. -1.
</event>
<event>
 5   0  0.7570633E-04  0.6993725E+03  0.7818609E-02  0.9718306E-01
       -1   -1    0    0    0  501  0.00000000000E+00  0.00000000000E+00  0.25819840062E+03  0.25819840067E+03  0.50400001928E-02 0.  1.
        1   -1    0    0  501    0  0.00000000000E+00  0.00000000000E+00 -0.47359112530E+03  0.47359112533E+03  0.50400001928E-02 0. -1.
    10030    2    1    2    0    0  0.00000000000E+00  0.00000000000E+00 -0.21539272468E+03  0.73178952600E+03  0.69937249340E+03 0.  0.
        5    1    3    3  502    0 -0.20133458526E+02 -0.20919940923E+03  0.18469972014E+03  0.27983178088E+03  0.46999998093E+01 0.  1.
       -5    1    3    3    0  502  0.20133458526E+02  0.20919940923E+03 -0.40009244482E+03  0.45195774512E+03  0.46999998093E+01 0. -1.
</event>
<event>
 5   0  0.1224048E-03  0.6995669E+03  0.7818609E-02  0.9717973E-01
       -2   -1    0    0    0  501  0.00000000000E+00  0.00000000000E+00  0.11275853672E+03  0.11275853675E+03  0.25500000920E-02 0.  1.
        2   -1    0    0  501    0  0.00000000000E+00  0.00000000000E+00 -0.10850482770E+04  0.10850482770E+04  0.25500000920E-02 0. -1.
    10030    2    1    2    0    0  0.00000000000E+00  0.00000000000E+00 -0.97228974032E+03  0.11978068138E+04  0.69956688317E+03 0.  0.
        3    1    3    3  502    0  0.23882777001E+03 -0.15042537694E+02 -0.49334573275E+02  0.24433356705E+03  0.10100000352E+00 0. -1.
       -3    1    3    3    0  502 -0.23882777001E+03  0.15042537694E+02 -0.92295516704E+03  0.95347324674E+03  0.10100000352E+00 0.  1.
</event>
<event>
 5   0  0.7013526E-04  0.6997515E+03  0.7818609E-02  0.9717657E-01
       -1   -1    0    0    0  501  0.00000000000E+00  0.00000000000E+00  0.43799562986E+03  0.43799562989E+03  0.50400001928E-02 0. -1.
        1   -1    0    0  501    0  0.00000000000E+00  0.00000000000E+00 -0.27948461697E+03  0.27948461701E+03  0.50400001928E-02 0.  1.
    10030    2    1    2    0    0  0.00000000000E+00  0.00000000000E+00  0.15851101290E+03  0.71748024690E+03  0.69975150124E+03 0.  0.
        1    1    3    3  502    0  0.27408510938E+03 -0.29772413192E+02  0.30012910425E+03  0.40753714311E+03  0.50400001928E-02 0. -1.
       -1    1    3    3    0  502 -0.27408510938E+03  0.29772413192E+02 -0.14161809135E+03  0.30994310380E+03  0.50400001928E-02 0.  1.
</event>
<event>
 5   0  0.1265562E-03  0.7005278E+03  0.7818609E-02  0.9716330E-01
       -2   -1    0    0    0  501  0.00000000000E+00  0.00000000000E+00  0.99954963658E+02  0.99954963691E+02  0.25500000920E-02 0.  1.
        2   -1    0    0  501    0  0.00000000000E+00  0.00000000000E+00 -0.12274009054E+04  0.12274009054E+04  0.25500000920E-02 0. -1.
    10030    2    1    2    0    0  0.00000000000E+00  0.00000000000E+00 -0.11274459417E+04  0.13273558691E+04  0.70052783789E+03 0.  0.
        1    1    3    3  502    0  0.19911750602E+03 -0.18637530605E+03 -0.98015227446E+03  0.10173898059E+04  0.50400001928E-02 0. -1.
       -1    1    3    3    0  502 -0.19911750602E+03  0.18637530605E+03 -0.14729366727E+03  0.30996606323E+03  0.50400001928E-02 0.  1.
</event>
<event>
 5   0  0.7574241E-04  0.6999838E+03  0.7818609E-02  0.9717260E-01
        1   -1    0    0  501    0  0.00000000000E+00  0.00000000000E+00  0.77652473115E+03  0.77652473116E+03  0.50400001928E-02 0.  1.
       -1   -1    0    0    0  501  0.00000000000E+00  0.00000000000E+00 -0.15774685146E+03  0.15774685154E+03  0.50400001928E-02 0. -1.
    10030    2    1    2    0    0  0.00000000000E+00  0.00000000000E+00  0.61877787969E+03  0.93427158270E+03  0.69998380399E+03 0.  0.
        3    1    3    3  502    0  0.27388813957E+03  0.15748340640E+03  0.51038758239E+03  0.60025930293E+03  0.10100000352E+00 0.  1.
       -3    1    3    3    0  502 -0.27388813957E+03 -0.15748340640E+03  0.10839029730E+03  0.33401227977E+03  0.10100000352E+00 0. -1.
</event>
<event>
 5   0  0.7459843E-04  0.6998445E+03  0.7818609E-02  0.9717498E-01
        1   -1    0    0  501    0  0.00000000000E+00  0.00000000000E+00  0.23963925992E+03  0.23963925997E+03  0.50400001928E-02 0.  1.
       -1   -1    0    0    0  501  0.00000000000E+00  0.00000000000E+00 -0.51095789276E+03  0.51095789279E+03  0.50400001928E-02 0. -1.
    10030    2    1    2    0    0  0.00000000000E+00  0.00000000000E+00 -0.27131863285E+03  0.75059715276E+03  0.69984447215E+03 0.  0.
        2    1    3    3  502    0 -0.14956502858E+03  0.31119486657E+03 -0.19664816590E+03  0.39734423855E+03  0.25500000920E-02 0.  1.
       -2    1    3    3    0  502  0.14956502858E+03 -0.31119486657E+03 -0.74670466948E+02  0.35325291420E+03  0.25500000920E-02 0. -1.
</event>
<event>
 5   0  0.7570633E-04  0.6995845E+03  0.7818609E-02  0.9717943E-01
       -1   -1    0    0    0  501  0.00000000000E+00  0.00000000000E+00  0.35655495149E+03  0.35655495153E+03  0.50400001928E-02 0.  1.
        1   -1    0    0  501    0  0.00000000000E+00  0.00000000000E+00 -0.34315785889E+03  0.34315785893E+03  0.50400001928E-02 0. -1.
    10030    2    1    2    0    0  0.00000000000E+00  0.00000000000E+00  0.13397092607E+02  0.69971281046E+03  0.69958454459E+03 0.  0.
        5    1    3    3  502    0  0.48778928806E+02  0.31124693729E+03 -0.14524541494E+03  0.34694720121E+03  0.46999998093E+01 0. -1.
       -5    1    3    3    0  502 -0.48778928806E+02 -0.31124693729E+03  0.15864250755E+03  0.35276560925E+03  0.46999998093E+01 0.  1.
</event>
<event>
 5   0  0.1282546E-03  0.7011466E+03  0.7818609E-02  0.9715273E-01
       -2   -1    0    0    0  501  0.00000000000E+00  0.00000000000E+00  0.11144376396E+03  0.11144376399E+03  0.25500000920E-02 0.  1.
        2   -1    0    0  501    0  0.00000000000E+00  0.00000000000E+00 -0.11028131418E+04  0.11028131418E+04  0.25500000920E-02 0. -1.
    10030    2    1    2    0    0  0.00000000000E+00  0.00000000000E+00 -0.99136937785E+03  0.12142569058E+04  0.70114662514E+03 0.  0.
        5    1    3    3  502    0  0.26592635920E+03 -0.68049177866E+02 -0.11811688525E+03  0.29886653828E+03  0.46999998093E+01 0.  1.
       -5    1    3    3    0  502 -0.26592635920E+03  0.68049177866E+02 -0.87325249260E+03  0.91539036753E+03  0.46999998093E+01 0. -1.
</event>
<event>
 5   0  0.1282546E-03  0.7000966E+03  0.7818609E-02  0.9717067E-01
        2   -1    0    0  501    0  0.00000000000E+00  0.00000000000E+00  0.72473932125E+03  0.72473932126E+03  0.25500000920E-02 0. -1.
       -2   -1    0    0    0  501  0.00000000000E+00  0.00000000000E+00 -0.16907296811E+03  0.16907296813E+03  0.25500000920E-02 0.  1.
    10030    2    1    2    0    0  0.00000000000E+00  0.00000000000E+00  0.55566635315E+03  0.89381228938E+03  0.70009664521E+03 0.  0.
        5    1    3    3  502    0 -0.22870626526E+02 -0.27037410430E+02  0.72240598942E+03  0.72328873258E+03  0.46999998093E+01 0. -1.
       -5    1    3    3    0  502  0.22870626526E+02  0.27037410430E+02 -0.16673963628E+03  0.17052355680E+03  0.46999998093E+01 0.  1.
</event>
<event>
 5   0  0.1282546E-03  0.6995099E+03  0.7818609E-02  0.9718071E-01
       -2   -1    0    0    0  501  0.00000000000E+00  0.00000000000E+00  0.28272932793E+03  0.28272932794E+03  0.25500000920E-02 0.  1.
        2   -1    0    0  501    0  0.00000000000E+00  0.00000000000E+00 -0.43267008804E+03  0.43267008805E+03  0.25500000920E-02 0. -1.
    10030    2    1    2    0    0  0.00000000000E+00  0.00000000000E+00 -0.14994076011E+03  0.71539941599E+03  0.69950989475E+03 0.  0.
        5    1    3    3  502    0 -0.16033410609E+03  0.18640554764E+03 -0.32932107289E+03  0.41100913957E+03  0.46999998093E+01 0. -1.
       -5    1    3    3    0  502  0.16033410609E+03 -0.18640554764E+03  0.17938031278E+03  0.30439027642E+03  0.46999998093E+01 0.  1.
</event>
<event>
 5   0  0.7572415E-04  0.6999433E+03  0.7818609E-02  0.9717329E-01
        1   -1    0    0  501    0  0.00000000000E+00  0.00000000000E+00  0.12077970352E+03  0.12077970363E+03  0.50400001928E-02 0. -1.
       -1   -1    0    0    0  501  0.00000000000E+00  0.00000000000E+00 -0.10140788855E+04  0.10140788855E+04  0.50400001928E-02 0.  1.
    10030    2    1    2    0    0  0.00000000000E+00  0.00000000000E+00 -0.89329918195E+03  0.11348585891E+04  0.69994327543E+03 0.  0.
        4    1    3    3  502    0 -0.30870311035E+02 -0.17697001231E+03 -0.93361648784E+03  0.95074324643E+03  0.12699999809E+01 0.  1.
       -4    1    3    3    0  502  0.30870311035E+02  0.17697001231E+03  0.40317305886E+02  0.18411534269E+03  0.12699999809E+01 0. -1.
</event>
<event>
 5   0  0.1222679E-03  0.7000098E+03  0.7818609E-02  0.9717215E-01
       -2   -1    0    0    0  501  0.00000000000E+00  0.00000000000E+00  0.31420507467E+03  0.31420507468E+03  0.25500000920E-02 0. -1.
        2   -1    0    0  501    0  0.00000000000E+00  0.00000000000E+00 -0.38988367379E+03  0.38988367380E+03  0.25500000920E-02 0.  1.
    10030    2    1    2    0    0  0.00000000000E+00  0.00000000000E+00 -0.75678599123E+02  0.70408874848E+03  0.70000979662E+03 0.  0.
        2    1    3    3  502    0 -0.26963618372E+03  0.22312131622E+03 -0.41941731692E+02  0.35248532194E+03  0.25500000920E-02 0.  1.
       -2    1    3    3    0  502  0.26963618372E+03 -0.22312131622E+03 -0.33736867431E+02  0.35160342654E+03  0.25500000920E-02 0. -1.
</event>
<event>
 5   0  0.1224048E-03  0.7007641E+03  0.7818609E-02  0.9715926E-01
       -2   -1    0    0    0  501  0.00000000000E+00  0.00000000000E+00  0.24756902878E+03  0.24756902879E+03  0.25500000920E-02 0. -1.
        2   -1    0    0  501    0  0.00000000000E+00  0.00000000000E+00 -0.49589239348E+03  0.49589239349E+03  0.25500000920E-02 0.  1.
    10030    2    1    2    0    0  0.00000000000E+00  0.00000000000E+00 -0.24832336471E+03  0.74346142228E+03  0.70076414931E+03 0.  0.
        3    1    3    3  502    0 -0.15852633125E+02 -0.32147774399E+03 -0.27104715311E+03  0.42079189069E+03  0.10100000352E+00 0.  1.
       -3    1    3    3    0  502  0.15852633125E+02  0.32147774399E+03  0.22723788402E+02  0.32266953159E+03  0.10100000352E+00 0. -1.
</event>
<event>
 5   0  0.7013526E-04  0.6998108E+03  0.7818609E-02  0.9717556E-01
       -1   -1    0    0    0  501  0.00000000000E+00  0.00000000000E+00  0.95468512819E+02  0.95468512952E+02  0.50400001928E-02 0.  1.
        1   -1    0    0  501    0  0.00000000000E+00  0.00000000000E+00 -0.12824519383E+04  0.12824519383E+04  0.50400001928E-02 0. -1.
    10030    2    1    2    0    0  0.00000000000E+00  0.00000000000E+00 -0.11869834255E+04  0.13779204513E+04  0.69981077275E+03 0.  0.
        1    1    3    3  502    0  0.34138564587E+03  0.76745578488E+00 -0.44239136988E+03  0.55879770254E+03  0.50400001928E-02 0.  1.
       -1    1    3    3    0  502 -0.34138564587E+03 -0.76745578488E+00 -0.74459205563E+03  0.81912274876E+03  0.50400001928E-02 0. -1.
</event>
<event>
 5   0  0.1224048E-03  0.6998750E+03  0.7818609E-02  0.9717446E-01
       -2   -1    0    0    0  501  0.00000000000E+00  0.00000000000E+00  0.47832623526E+03  0.47832623527E+03  0.25500000920E-02 0. -1.
        2   -1    0    0  501    0  0.00000000000E+00  0.00000000000E+00 -0.25600989201E+03  0.25600989203E+03  0.25500000920E-02 0.  1.
    10030    2    1    2    0    0  0.00000000000E+00  0.00000000000E+00  0.22231634325E+03  0.73433612729E+03  0.69987498267E+03 0.  0.
        3    1    3    3  502    0  0.91333722214E+02 -0.32720642686E+03  0.23057432974E+02  0.34049603523E+03  0.10100000352E+00 0.  1.
       -3    1    3    3    0  502 -0.91333722214E+02  0.32720642686E+03  0.19925891027E+03  0.39384009206E+03  0.10100000352E+00 0. -1.
</event>
<event>
 5   0  0.7572415E-04  0.6999466E+03  0.7818609E-02  0.9717324E-01
       -1   -1    0    0    0  501  0.00000000000E+00  0.00000000000E+00  0.16554826794E+03  0.16554826802E+03  0.50400001928E-02 0. -1.
        1   -1    0    0  501    0  0.00000000000E+00  0.00000000000E+00 -0.73985256903E+03  0.73985256904E+03  0.50400001928E-02 0.  1.
    10030    2    1    2    0    0  0.00000000000E+00  0.00000000000E+00 -0.57430430108E+03  0.90540083706E+03  0.69994660190E+03 0.  0.
        4    1    3    3  502    0 -0.82375361910E+02  0.32376883127E+03 -0.15230379814E+03  0.36716483516E+03  0.12699999809E+01 0. -1.
       -4    1    3    3    0  502  0.82375361910E+02 -0.32376883127E+03 -0.42200050294E+03  0.53823600190E+03  0.12699999809E+01 0.  1.
</event>
<event>
 5   0  0.1282546E-03  0.7023665E+03  0.7818609E-02  0.9713194E-01
        2   -1    0    0  501    0  0.00000000000E+00  0.00000000000E+00  0.24036345211E+03  0.24036345212E+03  0.25500000920E-02 0.  1.
       -2   -1    0    0    0  501  0.00000000000E+00  0.00000000000E+00 -0.51309660849E+03  0.51309660849E+03  0.25500000920E-02 0. -1.
    10030    2    1    2    0    0  0.00000000000E+00  0.00000000000E+00 -0.27273315638E+03  0.75346006062E+03  0.70236649148E+03 0.  0.
        5    1    3    3  502    0 -0.18231166190E+03 -0.11361931872E+02 -0.45808444396E+03  0.49318362033E+03  0.46999998093E+01 0. -1.
       -5    1    3    3    0  502  0.18231166190E+03  0.11361931872E+02  0.18535128758E+03  0.26027644029E+03  0.46999998093E+01 0.  1.
</event>
<event>
 5   0  0.7574241E-04  0.7006139E+03  0.7818609E-02  0.9716183E-01
        1   -1    0    0  501    0  0.00000000000E+00  0.00000000000E+00  0.15265752215E+04  0.15265752215E+04  0.50400001928E-02 0. -1.
       -1   -1    0    0    0  501  0.00000000000E+00  0.00000000000E+00 -0.80385781982E+02  0.80385782140E+02  0.50400001928E-02 0.  1.
    10030    2    1    2    0    0  0.00000000000E+00  0.00000000000E+00  0.14461894396E+04  0.16069610037E+04  0.70061385391E+03 0.  0.
        3    1    3    3  502    0 -0.11248157225E+03 -0.20340266653E+03  0.13242324082E+04  0.13444761916E+04  0.10100000352E+00 0. -1.
       -3    1    3    3    0  502  0.11248157225E+03  0.20340266653E+03  0.12195703139E+03  0.26248481204E+03  0.10100000352E+00 0.  1.
</event>
<event>
 5   0  0.1222679E-03  0.6999197E+03  0.7818609E-02  0.9717370E-01
        2   -1    0    0  501    0  0.00000000000E+00  0.00000000000E+00  0.45569849465E+03  0.45569849465E+03  0.25500000920E-02 0.  1.
       -2   -1    0    0    0  501  0.00000000000E+00  0.00000000000E+00 -0.26875641488E+03  0.26875641489E+03  0.25500000920E-02 0. -1.
    10030    2    1    2    0    0  0.00000000000E+00  0.00000000000E+00  0.18694207977E+03  0.72445490955E+03  0.69991969166E+03 0.  0.
        2    1    3    3  502    0 -0.73986603759E+02  0.12480907649E+03 -0.23615853661E+03  0.27716813946E+03  0.25500000920E-02 0. -1.
       -2    1    3    3    0  502  0.73986603759E+02 -0.12480907649E+03  0.42310061638E+03  0.44728677009E+03  0.25500000920E-02 0.  1.
</event>
<event>
 5   0  0.7570633E-04  0.6996231E+03  0.7818609E-02  0.9717877E-01
        1   -1    0    0  501    0  0.00000000000E+00  0.00000000000E+00  0.60783659009E+03  0.60783659012E+03  0.50400001928E-02 0. -1.
       -1   -1    0    0    0  501  0.00000000000E+00  0.00000000000E+00 -0.20131746295E+03  0.20131746301E+03  0.50400001928E-02 0.  1.
    10030    2    1    2    0    0  0.00000000000E+00  0.00000000000E+00  0.40651912715E+03  0.80915405312E+03  0.69962309921E+03 0.  0.
        5    1    3    3  502    0 -0.13547399555E+02  0.34951719017E+03  0.20270251537E+03  0.40429716545E+03  0.46999998093E+01 0. -1.
       -5    1    3    3    0  502  0.13547399555E+02 -0.34951719017E+03  0.20381661178E+03  0.40485688767E+03  0.46999998093E+01 0.  1.
</event>
<event>
 5   0  0.7459843E-04  0.7003596E+03  0.7818609E-02  0.9716617E-01
       -1   -1    0    0    0  501  0.00000000000E+00  0.00000000000E+00  0.25037603525E+03  0.25037603531E+03  0.50400001928E-02 0. -1.
        1   -1    0    0  501    0  0.00000000000E+00  0.00000000000E+00 -0.48976692089E+03  0.48976692092E+03  0.50400001928E-02 0.  1.
    10030    2    1    2    0    0  0.00000000000E+00  0.00000000000E+00 -0.23939088564E+03  0.74014295622E+03  0.70035962157E+03 0.  0.
        2    1    3    3  502    0 -0.21836203486E+03 -0.21529016301E+03 -0.29839870424E+03  0.42787103110E+03  0.25500000920E-02 0.  1.
       -2    1    3    3    0  502  0.21836203486E+03  0.21529016301E+03  0.59007818605E+02  0.31227192512E+03  0.25500000920E-02 0. -1.
</event>
<event>
 5   0  0.7570633E-04  0.6997487E+03  0.7818609E-02  0.9717662E-01
       -1   -1    0    0    0  501  0.00000000000E+00  0.00000000000E+00  0.86883093816E+03  0.86883093818E+03  0.50400001928E-02 0. -1.
        1   -1    0    0  501    0  0.00000000000E+00  0.00000000000E+00 -0.14089284538E+03  0.14089284547E+03  0.50400001928E-02 0.  1.
    10030    2    1    2    0    0  0.00000000000E+00  0.00000000000E+00  0.72793809279E+03  0.10097237836E+04  0.69974870656E+03 0.  0.
        5    1    3    3  502    0 -0.20981411806E+03 -0.26389513857E+03  0.22916527387E+03  0.40767808506E+03  0.46999998093E+01 0. -1.
       -5    1    3    3    0  502  0.20981411806E+03  0.26389513857E+03  0.49877281892E+03  0.60204569858E+03  0.46999998093E+01 0.  1.
</event>
<event>
 5   0  0.1282546E-03  0.7015542E+03  0.7818609E-02  0.9714578E-01
        2   -1    0    0  501    0  0.00000000000E+00  0.00000000000E+00  0.36652415488E+03  0.36652415489E+03  0.25500000920E-02 0. -1.
       -2   -1    0    0    0  501  0.00000000000E+00  0.00000000000E+00 -0.33570661322E+03  0.33570661323E+03  0.25500000920E-02 0.  1.
    10030    2    1    2    0    0  0.00000000000E+00  0.00000000000E+00  0.30817541659E+02  0.70223076812E+03  0.70155422515E+03 0.  0.
        5    1    3    3  502    0  0.83037932682E+02  0.20989095840E+03 -0.25331423532E+03  0.33932241968E+03  0.46999998093E+01 0.  1.
       -5    1    3    3    0  502 -0.83037932682E+02 -0.20989095840E+03  0.28413177698E+03  0.36290834844E+03  0.46999998093E+01 0. -1.
</event>
<event>
 5   0  0.7570633E-04  0.7001107E+03  0.7818609E-02  0.9717043E-01
       -1   -1    0    0    0  501  0.00000000000E+00  0.00000000000E+00  0.14817183668E+03  0.14817183676E+03  0.50400001928E-02 0.  1.
        1   -1    0    0  501    0  0.00000000000E+00  0.00000000000E+00 -0.82700427399E+03  0.82700427401E+03  0.50400001928E-02 0. -1.
    10030    2    1    2    0    0  0.00000000000E+00  0.00000000000E+00 -0.67883243731E+03  0.97517611077E+03  0.70011068344E+03 0.  0.
        5    1    3    3  502    0 -0.16157170749E+03 -0.82623467985E+02 -0.75631730207E+03  0.77779817789E+03  0.46999998093E+01 0. -1.
       -5    1    3    3    0  502  0.16157170749E+03  0.82623467985E+02  0.77484864758E+02  0.19737793288E+03  0.46999998093E+01 0.  1.
</event>
<event>
 5   0  0.1265562E-03  0.6995097E+03  0.7818609E-02  0.9718071E-01
       -2   -1    0    0    0  501  0.00000000000E+00  0.00000000000E+00  0.42068171752E+03  0.42068171753E+03  0.25500000920E-02 0. -1.
        2   -1    0    0  501    0  0.00000000000E+00  0.00000000000E+00 -0.29078626527E+03  0.29078626528E+03  0.25500000920E-02 0.  1.
    10030    2    1    2    0    0  0.00000000000E+00  0.00000000000E+00  0.12989545225E+03  0.71146798280E+03  0.69950972977E+03 0.  0.
        1    1    3    3  502    0 -0.35570674439E+02 -0.36469542855E+02 -0.28699243838E+03  0.29147891888E+03  0.50400001928E-02 0.  1.
       -1    1    3    3    0  502  0.35570674439E+02  0.36469542855E+02  0.41688789064E+03  0.41998906393E+03  0.50400001928E-02 0. -1.
</event>
<event>
 5   0  0.1282546E-03  0.6999561E+03  0.7818609E-02  0.9717307E-01
       -2   -1    0    0    0  501  0.00000000000E+00  0.00000000000E+00  0.11383229558E+03  0.11383229561E+03  0.25500000920E-02 0. -1.
        2   -1    0    0  501    0  0.00000000000E+00  0.00000000000E+00 -0.10760094905E+04  0.10760094905E+04  0.25500000920E-02 0.  1.
    10030    2    1    2    0    0  0.00000000000E+00  0.00000000000E+00 -0.96217719493E+03  0.11898417861E+04  0.69995608545E+03 0.  0.
        5    1    3    3  502    0  0.25369771568E+03 -0.10834793305E+03 -0.84709912642E+03  0.89089888625E+03  0.46999998093E+01 0.  1.
       -5    1    3    3    0  502 -0.25369771568E+03  0.10834793305E+03 -0.11507806852E+03  0.29894289988E+03  0.46999998093E+01 0. -1.
</event>
<event>
 5   0  0.1282546E-03  0.7000006E+03  0.7818609E-02  0.9717231E-01
        2   -1    0    0  501    0  0.00000000000E+00  0.00000000000E+00  0.51937776815E+03  0.51937776816E+03  0.25500000920E-02 0. -1.
       -2   -1    0    0    0  501  0.00000000000E+00  0.00000000000E+00 -0.23585952577E+03  0.23585952579E+03  0.25500000920E-02 0.  1.
    10030    2    1    2    0    0  0.00000000000E+00  0.00000000000E+00  0.28351824238E+03  0.75523729394E+03  0.70000055457E+03 0.  0.
        5    1    3    3  502    0  0.10656866066E+03 -0.33315295228E+03  0.12944181723E+03  0.37299469580E+03  0.46999998093E+01 0.  1.
       -5    1    3    3    0  502 -0.10656866066E+03  0.33315295228E+03  0.15407642514E+03  0.38224259814E+03  0.46999998093E+01 0. -1.
</event>
<event>
 5   0  0.7574241E-04  0.6995477E+03  0.7818609E-02  0.9718006E-01
        1   -1    0    0  501    0  0.00000000000E+00  0.00000000000E+00  0.73408380894E+03  0.73408380896E+03  0.50400001928E-02 0. -1.
       -1   -1    0    0    0  501  0.00000000000E+00  0.00000000000E+00 -0.16665908231E+03  0.16665908238E+03  0.50400001928E-02 0.  1.
    10030    2    1    2    0    0  0.00000000000E+00  0.00000000000E+00  0.56742472664E+03  0.90074289134E+03  0.69954766521E+03 0.  0.
        3    1    3    3  502    0  0.20141263341E+03  0.26738139523E+03  0.15314955974E+03  0.36812315502E+03  0.10100000352E+00 0. -1.
       -3    1    3    3    0  502 -0.20141263341E+03 -0.26738139523E+03  0.41427516690E+03  0.53261973632E+03  0.10100000352E+00 0.  1.
</event>
<event>
 5   0  0.7570633E-04  0.6999917E+03  0.7818609E-02  0.9717246E-01
        1   -1    0    0  501    0  0.00000000000E+00  0.00000000000E+00  0.21187334820E+03  0.21187334826E+03  0.50400001928E-02 0.  1.
       -1   -1    0    0    0  501  0.00000000000E+00  0.00000000000E+00 -0.57816185471E+03  0.57816185473E+03  0.50400001928E-02 0. -1.
    10030    2    1    2    0    0  0.00000000000E+00  0.00000000000E+00 -0.36628850651E+03  0.79003520299E+03  0.69999167993E+03 0.  0.
        5    1    3    3  502    0  0.25989534937E+03  0.85427232498E+02 -0.42946507227E+03  0.50922072128E+03  0.46999998093E+01 0. -1.
       -5    1    3    3    0  502 -0.25989534937E+03 -0.85427232498E+02  0.63176565766E+02  0.28081448171E+03  0.46999998093E+01 0.  1.
</event>
<event>
 5   0  0.1282546E-03  0.7004090E+03  0.7818609E-02  0.9716533E-01
       -2   -1    0    0    0  501  0.00000000000E+00  0.00000000000E+00  0.82526568520E+02  0.82526568560E+02  0.25500000920E-02 0. -1.
        2   -1    0    0  501    0  0.00000000000E+00  0.00000000000E+00 -0.14861053971E+04  0.14861053971E+04  0.25500000920E-02 0.  1.
    10030    2    1    2    0    0  0.00000000000E+00  0.00000000000E+00 -0.14035788285E+04  0.15686319656E+04  0.70040896314E+03 0.  0.
        5    1    3    3  502    0  0.78313137906E+02 -0.32674512311E+03 -0.48092219121E+03  0.58668864574E+03  0.46999998093E+01 0. -1.
       -5    1    3    3    0  502 -0.78313137906E+02  0.32674512311E+03 -0.92265663732E+03  0.98194331987E+03  0.46999998093E+01 0.  1.
</event>
<event>
 5   0  0.7459843E-04  0.7002163E+03  0.7818609E-02  0.9716862E-01
        1   -1    0    0  501    0  0.00000000000E+00  0.00000000000E+00  0.11133326026E+03  0.11133326038E+03  0.50400001928E-02 0.  1.
       -1   -1    0    0    0  501  0.00000000000E+00  0.00000000000E+00 -0.11009800771E+04  0.11009800771E+04  0.50400001928E-02 0. -1.
    10030    2    1    2    0    0  0.00000000000E+00  0.00000000000E+00 -0.98964681685E+03  0.12123133375E+04  0.70021625673E+03 0.  0.
        2    1    3    3  502    0  0.10782437838E+03 -0.97669897270E+02 -0.10461684905E+04  0.10562357767E+04  0.25500000920E-02 0. -1.
       -2    1    3    3    0  502 -0.10782437838E+03  0.97669897270E+02  0.56521673626E+02  0.15607756085E+03  0.25500000920E-02 0.  1.
</event>
<event>
 5   0  0.1265562E-03  0.7000580E+03  0.7818609E-02  0.9717133E-01
        2   -1    0    0  501    0  0.00000000000E+00  0.00000000000E+00  0.12435231805E+04  0.12435231805E+04  0.25500000920E-02 0. -1.
       -2   -1    0    0    0  501  0.00000000000E+00  0.00000000000E+00 -0.98526739967E+02  0.98526740000E+02  0.25500000920E-02 0.  1.
    10030    2    1    2    0    0  0.00000000000E+00  0.00000000000E+00  0.11449964405E+04  0.13420499205E+04  0.70005795495E+03 0.  0.
        1    1    3    3  502    0 -0.24853249607E+03 -0.24460237372E+03  0.51430170151E+03  0.62137344893E+03  0.50400001928E-02 0.  1.
       -1    1    3    3    0  502  0.24853249607E+03  0.24460237372E+03  0.63069473904E+03  0.72067647159E+03  0.50400001928E-02 0. -1.
</event>
<event>
 5   0  0.7570633E-04  0.6997180E+03  0.7818609E-02  0.9717715E-01
       -1   -1    0    0    0  501  0.00000000000E+00  0.00000000000E+00  0.12464616722E+03  0.12464616732E+03  0.50400001928E-02 0. -1.
        1   -1    0    0  501    0  0.00000000000E+00  0.00000000000E+00 -0.98199032958E+03  0.98199032960E+03  0.50400001928E-02 0.  1.
    10030    2    1    2    0    0  0.00000000000E+00  0.00000000000E+00 -0.85734416236E+03  0.11066364969E+04  0.69971803148E+03 0.  0.
        5    1    3    3  502    0  0.34595883157E+03 -0.42426524457E+02 -0.47589965510E+03  0.58990685268E+03  0.46999998093E+01 0.  1.
       -5    1    3    3    0  502 -0.34595883157E+03  0.42426524457E+02 -0.38144450726E+03  0.51672964424E+03  0.46999998093E+01 0. -1.
</event>
<event>
 5   0  0.7013526E-04  0.6999324E+03  0.7818609E-02  0.9717348E-01
       -1   -1    0    0    0  501  0.00000000000E+00  0.00000000000E+00  0.14821395220E+03  0.14821395229E+03  0.50400001928E-02 0. -1.
        1   -1    0    0  501    0  0.00000000000E+00  0.00000000000E+00 -0.82634820206E+03  0.82634820208E+03  0.50400001928E-02 0.  1.
    10030    2    1    2    0    0  0.00000000000E+00  0.00000000000E+00 -0.67813424986E+03  0.97456215437E+03  0.69993237666E+03 0.  0.
        1    1    3    3  502    0 -0.24722513212E+03 -0.24681738740E+03 -0.30995221006E+03  0.46702190657E+03  0.50400001928E-02 0. -1.
       -1    1    3    3    0  502  0.24722513212E+03  0.24681738740E+03 -0.36818203980E+03  0.50754024780E+03  0.50400001928E-02 0.  1.
</event>
<event>
 5   0  0.7013526E-04  0.7000902E+03  0.7818609E-02  0.9717078E-01
        1   -1    0    0  501    0  0.00000000000E+00  0.00000000000E+00  0.11963434509E+04  0.11963434509E+04  0.50400001928E-02 0.  1.
       -1   -1    0    0    0  501  0.00000000000E+00  0.00000000000E+00 -0.10242172949E+03  0.10242172961E+03  0.50400001928E-02 0. -1.
    10030    2    1    2    0    0  0.00000000000E+00  0.00000000000E+00  0.10939217214E+04  0.12987651805E+04  0.70009018102E+03 0.  0.
        1    1    3    3  502    0 -0.54017525644E+02  0.13926533005E+02  0.11880444824E+04  0.11893534099E+04  0.50400001928E-02 0.  1.
       -1    1    3    3    0  502  0.54017525644E+02 -0.13926533005E+02 -0.94122760980E+02  0.10941177066E+03  0.50400001928E-02 0. -1.
</event>
<event>
 5   0  0.7572415E-04  0.7003025E+03  0.7818609E-02  0.9716715E-01
        1   -1    0    0  501    0  0.00000000000E+00  0.00000000000E+00  0.18109528520E+04  0.18109528520E+04  0.50400001928E-02 0.  1.
       -1   -1    0    0    0  501  0.00000000000E+00  0.00000000000E+00 -0.67702432525E+02  0.67702432712E+02  0.50400001928E-02 0. -1.
    10030    2    1    2    0    0  0.00000000000E+00  0.00000000000E+00  0.17432504195E+04  0.18786552847E+04  0.70030254448E+03 0.  0.
        4    1    3    3  502    0  0.14166497909E+03 -0.30033744613E+03  0.11695395480E+04  0.12157696801E+04  0.12699999809E+01 0.  1.
       -4    1    3    3    0  502 -0.14166497909E+03  0.30033744613E+03  0.57371087150E+03  0.66288560463E+03  0.12699999809E+01 0. -1.
</event>
<event>
 5   0  0.1243087E-03  0.7000136E+03  0.7818609E-02  0.9717209E-01
       -2   -1    0    0    0  501  0.00000000000E+00  0.00000000000E+00  0.37993481161E+03  0.37993481162E+03  0.25500000920E-02 0.  1.
        2   -1    0    0  501    0  0.00000000000E+00  0.00000000000E+00 -0.32243627198E+03  0.32243627199E+03  0.25500000920E-02 0. -1.
    10030    2    1    2    0    0  0.00000000000E+00  0.00000000000E+00  0.57498539627E+02  0.70237108361E+03  0.70001361204E+03 0.  0.
        4    1    3    3  502    0 -0.73617630749E+02 -0.24400764702E+03  0.26944015759E+03  0.37088933496E+03  0.12699999809E+01 0.  1.
       -4    1    3    3    0  502  0.73617630749E+02  0.24400764702E+03 -0.21194161797E+03  0.33148174865E+03  0.12699999809E+01 0. -1.
</event>
<event>
 5   0  0.1224048E-03  0.7000491E+03  0.7818609E-02  0.9717148E-01
        2   -1    0    0  501    0  0.00000000000E+00  0.00000000000E+00  0.23320048680E+04  0.23320048680E+04  0.25500000920E-02 0. -1.
       -2   -1    0    0    0  501  0.00000000000E+00  0.00000000000E+00 -0.52537278878E+02  0.52537278939E+02  0.25500000920E-02 0.  1.
    10030    2    1    2    0    0  0.00000000000E+00  0.00000000000E+00  0.22794675891E+04  0.23845421470E+04  0.70004911305E+03 0.  0.
        3    1    3    3  502    0  0.12775234769E+03  0.27077668131E+03  0.17573509126E+04  0.17826729688E+04  0.10100000352E+00 0. -1.
       -3    1    3    3    0  502 -0.12775234769E+03 -0.27077668131E+03  0.52211667649E+03  0.60186917811E+03  0.10100000352E+00 0.  1.
</event>
<event>
 5   0  0.7572415E-04  0.7004672E+03  0.7818609E-02  0.9716434E-01
        1   -1    0    0  501    0  0.00000000000E+00  0.00000000000E+00  0.11521495125E+04  0.11521495125E+04  0.50400001928E-02 0.  1.
       -1   -1    0    0    0  501  0.00000000000E+00  0.00000000000E+00 -0.10646496595E+03  0.10646496607E+03  0.50400001928E-02 0. -1.
    10030    2    1    2    0    0  0.00000000000E+00  0.00000000000E+00  0.10456845465E+04  0.12586144785E+04  0.70046715469E+03 0.  0.
        4    1    3    3  502    0  0.13340574890E+03  0.18256769396E+03  0.42267614669E+02  0.23003526005E+03  0.12699999809E+01 0. -1.
       -4    1    3    3    0  502 -0.13340574890E+03 -0.18256769396E+03  0.10034169318E+04  0.10285792185E+04  0.12699999809E+01 0.  1.
</event>
<event>
 5   0  0.1282546E-03  0.7008218E+03  0.7818609E-02  0.9715828E-01
       -2   -1    0    0    0  501  0.00000000000E+00  0.00000000000E+00  0.45412630000E+03  0.45412630001E+03  0.25500000920E-02 0.  1.
        2   -1    0    0  501    0  0.00000000000E+00  0.00000000000E+00 -0.27038250701E+03  0.27038250702E+03  0.25500000920E-02 0. -1.
    10030    2    1    2    0    0  0.00000000000E+00  0.00000000000E+00  0.18374379299E+03  0.72450880703E+03  0.70082182472E+03 0.  0.
        5    1    3    3  502    0 -0.19105594836E+03 -0.68590452985E+02 -0.20336537073E+03  0.28737882604E+03  0.46999998093E+01 0. -1.
       -5    1    3    3    0  502  0.19105594836E+03  0.68590452985E+02  0.38710916372E+03  0.43712998099E+03  0.46999998093E+01 0.  1.
</event>
<event>
 5   0  0.1224048E-03  0.7001430E+03  0.7818609E-02  0.9716988E-01
        2   -1    0    0  501    0  0.00000000000E+00  0.00000000000E+00  0.64814495318E+03  0.64814495319E+03  0.25500000920E-02 0.  1.
       -2   -1    0    0    0  501  0.00000000000E+00  0.00000000000E+00 -0.18907814626E+03  0.18907814627E+03  0.25500000920E-02 0. -1.
    10030    2    1    2    0    0  0.00000000000E+00  0.00000000000E+00  0.45906680692E+03  0.83722309946E+03  0.70014297472E+03 0.  0.
        3    1    3    3  502    0  0.19946315438E+03  0.15528696679E+02 -0.11397936165E+03  0.23025636899E+03  0.10100000352E+00 0. -1.
       -3    1    3    3    0  502 -0.19946315438E+03 -0.15528696679E+02  0.57304616858E+03  0.60696673047E+03  0.10100000352E+00 0.  1.
</event>
<event>
 5   0  0.1243087E-03  0.6999389E+03  0.7818609E-02  0.9717337E-01
        2   -1    0    0  501    0  0.00000000000E+00  0.00000000000E+00  0.15510834152E+04  0.15510834153E+04  0.25500000920E-02 0. -1.
       -2   -1    0    0    0  501  0.00000000000E+00  0.00000000000E+00 -0.78963269048E+02  0.78963269089E+02  0.25500000920E-02 0.  1.
    10030    2    1    2    0    0  0.00000000000E+00  0.00000000000E+00  0.14721201462E+04  0.16300466843E+04  0.69993890325E+03 0.  0.
        4    1    3    3  502    0 -0.15048012756E+03 -0.31519981714E+03  0.78717857408E+03  0.86118924396E+03  0.12699999809E+01 0.  1.
       -4    1    3    3    0  502  0.15048012756E+03  0.31519981714E+03  0.68494157212E+03  0.76885744038E+03  0.12699999809E+01 0. -1.
</event>
<event>
 5   0  0.1222679E-03  0.7000132E+03  0.7818609E-02  0.9717210E-01
        2   -1    0    0  501    0  0.00000000000E+00  0.00000000000E+00  0.37961247600E+03  0.37961247600E+03  0.25500000920E-02 0.  1.
       -2   -1    0    0    0  501  0.00000000000E+00  0.00000000000E+00 -0.32270967602E+03  0.32270967603E+03  0.25500000920E-02 0. -1.
    10030    2    1    2    0    0  0.00000000000E+00  0.00000000000E+00  0.56902799975E+02  0.70232215203E+03  0.70001319744E+03 0.  0.
        2    1    3    3  502    0  0.39535559463E+02  0.26192542949E+03  0.25797799188E+03  0.36975753593E+03  0.25500000920E-02 0.  1.
       -2    1    3    3    0  502 -0.39535559463E+02 -0.26192542949E+03 -0.20107519191E+03  0.33256461610E+03  0.25500000920E-02 0. -1.
</event>
<event>
 5   0  0.1222679E-03  0.6982040E+03  0.7818609E-02  0.9720309E-01
        2   -1    0    0  501    0  0.00000000000E+00  0.00000000000E+00  0.13651089535E+04  0.13651089535E+04  0.25500000920E-02 0.  1.
       -2   -1    0    0    0  501  0.00000000000E+00  0.00000000000E+00 -0.89276528951E+02  0.89276528987E+02  0.25500000920E-02 0. -1.
    10030    2    1    2    0    0  0.00000000000E+00  0.00000000000E+00  0.12758324246E+04  0.14543854825E+04  0.69820395026E+03 0.  0.
        2    1    3    3  502    0 -0.65050947084E+02  0.10590554828E+03 -0.41628751077E+02  0.13107464971E+03  0.25500000920E-02 0. -1.
       -2    1    3    3    0  502  0.65050947084E+02 -0.10590554828E+03  0.13174611757E+04  0.13233108328E+04  0.25500000920E-02 0.  1.
</event>
<event>
 5   0  0.1222679E-03  0.6999315E+03  0.7818609E-02  0.9717349E-01
       -2   -1    0    0    0  501  0.00000000000E+00  0.00000000000E+00  0.29210869804E+03  0.29210869805E+03  0.25500000920E-02 0. -1.
        2   -1    0    0  501    0  0.00000000000E+00  0.00000000000E+00 -0.41928237597E+03  0.41928237597E+03  0.25500000920E-02 0.  1.
    10030    2    1    2    0    0  0.00000000000E+00  0.00000000000E+00 -0.12717367792E+03  0.71139107403E+03  0.69993150797E+03 0.  0.
        2    1    3    3  502    0  0.18151035007E+03  0.42515450223E+02  0.23744211147E+03  0.30188131276E+03  0.25500000920E-02 0. -1.
       -2    1    3    3    0  502 -0.18151035007E+03 -0.42515450223E+02 -0.36461578939E+03  0.40950976126E+03  0.25500000920E-02 0.  1.
</event>
<event>
 5   0  0.1224048E-03  0.7004326E+03  0.7818609E-02  0.9716493E-01
        2   -1    0    0  501    0  0.00000000000E+00  0.00000000000E+00  0.69248584840E+03  0.69248584841E+03  0.25500000920E-02 0. -1.
       -2   -1    0    0    0  501  0.00000000000E+00  0.00000000000E+00 -0.17711761573E+03  0.17711761574E+03  0.25500000920E-02 0.  1.
    10030    2    1    2    0    0  0.00000000000E+00  0.00000000000E+00  0.51536823268E+03  0.86960346415E+03  0.70043255893E+03 0.  0.
        3    1    3    3  502    0 -0.28896586719E+03  0.19213852591E+03  0.19901708534E+03  0.40003286865E+03  0.10100000352E+00 0. -1.
       -3    1    3    3    0  502  0.28896586719E+03 -0.19213852591E+03  0.31635114734E+03  0.46957059550E+03  0.10100000352E+00 0.  1.
</event>
<event>
 5   0  0.1243087E-03  0.6998837E+03  0.7818609E-02  0.9717431E-01
       -2   -1    0    0    0  501  0.00000000000E+00  0.00000000000E+00  0.64029142524E+02  0.64029142575E+02  0.25500000920E-02 0. -1.
        2   -1    0    0  501    0  0.00000000000E+00  0.00000000000E+00 -0.19125556181E+04  0.19125556181E+04  0.25500000920E-02 0.  1.
    10030    2    1    2    0    0  0.00000000000E+00  0.00000000000E+00 -0.18485264755E+04  0.19765847606E+04  0.69988369407E+03 0.  0.
        4    1    3    3  502    0 -0.77704240137E+00  0.14743491251E+03 -0.18205510321E+04  0.18265117932E+04  0.12699999809E+01 0.  1.
       -4    1    3    3    0  502  0.77704240137E+00 -0.14743491251E+03 -0.27975443410E+02  0.15007296744E+03  0.12699999809E+01 0. -1.
</event>
<event>
 5   0  0.1265562E-03  0.7000732E+03  0.7818609E-02  0.9717107E-01
       -2   -1    0    0    0  501  0.00000000000E+00  0.00000000000E+00  0.21940478833E+03  0.21940478835E+03  0.25500000920E-02 0.  1.
        2   -1    0    0  501    0  0.00000000000E+00  0.00000000000E+00 -0.55844552042E+03  0.55844552042E+03  0.25500000920E-02 0. -1.
    10030    2    1    2    0    0  0.00000000000E+00  0.00000000000E+00 -0.33904073208E+03  0.77785030877E+03  0.70007319963E+03 0.  0.
        1    1    3    3  502    0 -0.49568957172E+02 -0.36461034651E+02 -0.55238875627E+03  0.55580556550E+03  0.50400001928E-02 0. -1.
       -1    1    3    3    0  502  0.49568957172E+02  0.36461034651E+02  0.21334802419E+03  0.22204474327E+03  0.50400001928E-02 0.  1.
</event>
<event>
 5   0  0.7013526E-04  0.7003128E+03  0.7818609E-02  0.9716697E-01
        1   -1    0    0  501    0  0.00000000000E+00  0.00000000000E+00  0.14819501005E+04  0.14819501005E+04  0.50400001928E-02 0.  1.
       -1   -1    0    0    0  501  0.00000000000E+00  0.00000000000E+00 -0.82735247250E+02  0.82735247403E+02  0.50400001928E-02 0. -1.
    10030    2    1    2    0    0  0.00000000000E+00  0.00000000000E+00  0.13992148532E+04  0.15646853479E+04  0.70031281040E+03 0.  0.
        1    1    3    3  502    0  0.22080667849E+03 -0.89412945876E+02  0.12622640336E+03  0.26959853317E+03  0.50400001928E-02 0. -1.
       -1    1    3    3    0  502 -0.22080667849E+03  0.89412945876E+02  0.12729884499E+04  0.12950868147E+04  0.50400001928E-02 0.  1.
</event>
<event>
 5   0  0.7574241E-04  0.6997794E+03  0.7818609E-02  0.9717609E-01
        1   -1    0    0  501    0  0.00000000000E+00  0.00000000000E+00  0.54621690192E+03  0.54621690195E+03  0.50400001928E-02 0.  1.
       -1   -1    0    0    0  501  0.00000000000E+00  0.00000000000E+00 -0.22412857906E+03  0.22412857911E+03  0.50400001928E-02 0. -1.
    10030    2    1    2    0    0  0.00000000000E+00  0.00000000000E+00  0.32208832287E+03  0.77034548106E+03  0.69977944558E+03 0.  0.
        3    1    3    3  502    0 -0.80162113193E+02  0.24726602396E+03 -0.96788444711E+02  0.27737062611E+03  0.10100000352E+00 0. -1.
       -3    1    3    3    0  502  0.80162113193E+02 -0.24726602396E+03  0.41887676758E+03  0.49297485495E+03  0.10100000352E+00 0.  1.
</event>
<event>
 5   0  0.7013526E-04  0.7000830E+03  0.7818609E-02  0.9717090E-01
        1   -1    0    0  501    0  0.00000000000E+00  0.00000000000E+00  0.16262090410E+04  0.16262090410E+04  0.50400001928E-02 0.  1.
       -1   -1    0    0    0  501  0.00000000000E+00  0.00000000000E+00 -0.75346430775E+02  0.75346430944E+02  0.50400001928E-02 0. -1.
    10030    2    1    2    0    0  0.00000000000E+00  0.00000000000E+00  0.15508626102E+04  0.17015554720E+04  0.70008298675E+03 0.  0.
        1    1    3    3  502    0 -0.32241957812E+03  0.13951977710E+02  0.44592069660E+03  0.55044918904E+03  0.50400001928E-02 0. -1.
       -1    1    3    3    0  502  0.32241957812E+03 -0.13951977710E+02  0.11049419136E+04  0.11511062829E+04  0.50400001928E-02 0.  1.
</event>
<event>
 5   0  0.1243087E-03  0.7000278E+03  0.7818609E-02  0.9717185E-01
       -2   -1    0    0    0  501  0.00000000000E+00  0.00000000000E+00  0.75937574438E+02  0.75937574480E+02  0.25500000920E-02 0.  1.
        2   -1    0    0  501    0  0.00000000000E+00  0.00000000000E+00 -0.16132951418E+04  0.16132951418E+04  0.25500000920E-02 0. -1.
    10030    2    1    2    0    0  0.00000000000E+00  0.00000000000E+00 -0.15373575673E+04  0.16892327162E+04  0.70002777075E+03 0.  0.
        4    1    3    3  502    0  0.14463455914E+03 -0.17268305433E+03 -0.14151425942E+04  0.14329580481E+04  0.12699999809E+01 0. -1.
       -4    1    3    3    0  502 -0.14463455914E+03  0.17268305433E+03 -0.12221497314E+03  0.25627466810E+03  0.12699999809E+01 0.  1.
</event>
<event>
 5   0  0.1222679E-03  0.7001737E+03  0.7818609E-02  0.9716935E-01
        2   -1    0    0  501    0  0.00000000000E+00  0.00000000000E+00  0.99507872460E+03  0.99507872461E+03  0.25500000920E-02 0. -1.
       -2   -1    0    0    0  501  0.00000000000E+00  0.00000000000E+00 -0.12316695413E+03  0.12316695416E+03  0.25500000920E-02 0.  1.
    10030    2    1    2    0    0  0.00000000000E+00  0.00000000000E+00  0.87191177047E+03  0.11182456788E+04  0.70017373744E+03 0.  0.
        2    1    3    3  502    0 -0.32631079832E+03 -0.85904976313E+02  0.28696789168E+03  0.44295482040E+03  0.25500000920E-02 0. -1.
       -2    1    3    3    0  502  0.32631079832E+03  0.85904976313E+02  0.58494387879E+03  0.67529085837E+03  0.25500000920E-02 0.  1.
</event>
<event>
 5   0  0.1222679E-03  0.7000001E+03  0.7818609E-02  0.9717232E-01
        2   -1    0    0  501    0  0.00000000000E+00  0.00000000000E+00  0.22629111603E+03  0.22629111605E+03  0.25500000920E-02 0.  1.
       -2   -1    0    0    0  501  0.00000000000E+00  0.00000000000E+00 -0.54133824989E+03  0.54133824990E+03  0.25500000920E-02 0. -1.
    10030    2    1    2    0    0  0.00000000000E+00  0.00000000000E+00 -0.31504713386E+03  0.76762936594E+03  0.70000010493E+03 0.  0.
        2    1    3    3  502    0 -0.34011727355E+03  0.72674414986E+02 -0.11450743555E+03  0.36616018785E+03  0.25500000920E-02 0.  1.
       -2    1    3    3    0  502  0.34011727355E+03 -0.72674414986E+02 -0.20053969830E+03  0.40146917810E+03  0.25500000920E-02 0. -1.
</event>
<event>
 5   0  0.1265562E-03  0.6983266E+03  0.7818609E-02  0.9720098E-01
        2   -1    0    0  501    0  0.00000000000E+00  0.00000000000E+00  0.66898887533E+03  0.66898887534E+03  0.25500000920E-02 0.  1.
       -2   -1    0    0    0  501  0.00000000000E+00  0.00000000000E+00 -0.18223771926E+03  0.18223771928E+03  0.25500000920E-02 0. -1.
    10030    2    1    2    0    0  0.00000000000E+00  0.00000000000E+00  0.48675115607E+03  0.85122659462E+03  0.69832659082E+03 0.  0.
        1    1    3    3  502    0 -0.10140027105E+03  0.15854796504E+02 -0.16343605575E+03  0.19298894757E+03  0.50400001928E-02 0. -1.
       -1    1    3    3    0  502  0.10140027105E+03 -0.15854796504E+02  0.65018721182E+03  0.65823764704E+03  0.50400001928E-02 0.  1.
</event>
<event>
 5   0  0.1282546E-03  0.7003558E+03  0.7818609E-02  0.9716624E-01
       -2   -1    0    0    0  501  0.00000000000E+00  0.00000000000E+00  0.11818051321E+03  0.11818051324E+03  0.25500000920E-02 0. -1.
        2   -1    0    0  501    0  0.00000000000E+00  0.00000000000E+00 -0.10376037854E+04  0.10376037854E+04  0.25500000920E-02 0.  1.
    10030    2    1    2    0    0  0.00000000000E+00  0.00000000000E+00 -0.91942327214E+03  0.11557842986E+04  0.70035576069E+03 0.  0.
        5    1    3    3  502    0  0.30839709147E+03  0.12850352991E+03 -0.28678184032E+03  0.44032696620E+03  0.46999998093E+01 0. -1.
       -5    1    3    3    0  502 -0.30839709147E+03 -0.12850352991E+03 -0.63264143183E+03  0.71545733240E+03  0.46999998093E+01 0.  1.
</event>
<event>
 5   0  0.7459843E-04  0.7001830E+03  0.7818609E-02  0.9716919E-01
       -1   -1    0    0    0  501  0.00000000000E+00  0.00000000000E+00  0.14293100917E+03  0.14293100926E+03  0.50400001928E-02 0.  1.
        1   -1    0    0  501    0  0.00000000000E+00  0.00000000000E+00 -0.85750504260E+03  0.85750504261E+03  0.50400001928E-02 0. -1.
    10030    2    1    2    0    0  0.00000000000E+00  0.00000000000E+00 -0.71457403343E+03  0.10004360519E+04  0.70018300796E+03 0.  0.
        2    1    3    3  502    0 -0.15365731763E+03 -0.31373857461E+03 -0.32465490487E+03  0.47691012961E+03  0.25500000920E-02 0.  1.
       -2    1    3    3    0  502  0.15365731763E+03  0.31373857461E+03 -0.38991912855E+03  0.52352592226E+03  0.25500000920E-02 0. -1.
</event>
<event>
 5   0  0.7574241E-04  0.6996765E+03  0.7818609E-02  0.9717786E-01
       -1   -1    0    0    0  501  0.00000000000E+00  0.00000000000E+00  0.13939387293E+03  0.13939387302E+03  0.50400001928E-02 0.  1.
        1   -1    0    0  501    0  0.00000000000E+00  0.00000000000E+00 -0.87799270504E+03  0.87799270505E+03  0.50400001928E-02 0. -1.
    10030    2    1    2    0    0  0.00000000000E+00  0.00000000000E+00 -0.73859883211E+03  0.10173865781E+04  0.69967650700E+03 0.  0.
        3    1    3    3  502    0  0.13380943100E+03 -0.32321247013E+03 -0.36356938679E+03  0.50453342196E+03  0.10100000352E+00 0. -1.
       -3    1    3    3    0  502 -0.13380943100E+03  0.32321247013E+03 -0.37502944532E+03  0.51285315611E+03  0.10100000352E+00 0.  1.
</event>
<event>
 5   0  0.7013526E-04  0.7001953E+03  0.7818609E-02  0.9716898E-01
       -1   -1    0    0    0  501  0.00000000000E+00  0.00000000000E+00  0.70352160893E+03  0.70352160894E+03  0.50400001928E-02 0.  1.
        1   -1    0    0  501    0  0.00000000000E+00  0.00000000000E+00 -0.17422119812E+03  0.17422119819E+03  0.50400001928E-02 0. -1.
    10030    2    1    2    0    0  0.00000000000E+00  0.00000000000E+00  0.52930041081E+03  0.87774280714E+03  0.70019533746E+03 0.  0.
        1    1    3    3  502    0 -0.33742525164E+03  0.18370344927E+02  0.14992911594E+03  0.36969177682E+03  0.50400001928E-02 0.  1.
       -1    1    3    3    0  502  0.33742525164E+03 -0.18370344927E+02  0.37937129487E+03  0.50805103032E+03  0.50400001928E-02 0. -1.
</event>
<event>
 5   0  0.7459843E-04  0.7003367E+03  0.7818609E-02  0.9716657E-01
        1   -1    0    0  501    0  0.00000000000E+00  0.00000000000E+00  0.20628624421E+03  0.20628624427E+03  0.50400001928E-02 0. -1.
       -1   -1    0    0    0  501  0.00000000000E+00  0.00000000000E+00 -0.59440643407E+03  0.59440643409E+03  0.50400001928E-02 0.  1.
    10030    2    1    2    0    0  0.00000000000E+00  0.00000000000E+00 -0.38812018986E+03  0.80069267836E+03  0.70033669289E+03 0.  0.
        2    1    3    3  502    0  0.16195296125E+03 -0.24815345757E+03  0.19246639420E+02  0.29695005185E+03  0.25500000920E-02 0. -1.
       -2    1    3    3    0  502 -0.16195296125E+03  0.24815345757E+03 -0.40736682928E+03  0.50374262651E+03  0.25500000920E-02 0.  1.
</event>
<event>
 5   0  0.1224048E-03  0.7006317E+03  0.7818609E-02  0.9716152E-01
        2   -1    0    0  501    0  0.00000000000E+00  0.00000000000E+00  0.11242656747E+04  0.11242656747E+04  0.25500000920E-02 0. -1.
       -2   -1    0    0    0  501  0.00000000000E+00  0.00000000000E+00 -0.10915676422E+03  0.10915676425E+03  0.25500000920E-02 0.  1.
    10030    2    1    2    0    0  0.00000000000E+00  0.00000000000E+00  0.10151089105E+04  0.12334224389E+04  0.70063172405E+03 0.  0.
        3    1    3    3  502    0 -0.17655701233E+03 -0.32759955821E+01 -0.25072267443E+02  0.17835845802E+03  0.10100000352E+00 0.  1.
       -3    1    3    3    0  502  0.17655701233E+03  0.32759955821E+01  0.10401811779E+04  0.10550639809E+04  0.10100000352E+00 0. -1.
</event>
<event>
 5   0  0.7459843E-04  0.6998296E+03  0.7818609E-02  0.9717524E-01
       -1   -1    0    0    0  501  0.00000000000E+00  0.00000000000E+00  0.13347707740E+03  0.13347707750E+03  0.50400001928E-02 0. -1.
        1   -1    0    0  501    0  0.00000000000E+00  0.00000000000E+00 -0.91731379864E+03  0.91731379865E+03  0.50400001928E-02 0.  1.
    10030    2    1    2    0    0  0.00000000000E+00  0.00000000000E+00 -0.78383672124E+03  0.10507908761E+04  0.69982959342E+03 0.  0.
        2    1    3    3  502    0 -0.18405725300E+03  0.29112752585E+03 -0.48457481301E+03  0.59451245412E+03  0.25500000920E-02 0.  1.
       -2    1    3    3    0  502  0.18405725300E+03 -0.29112752585E+03 -0.29926190822E+03  0.45627842203E+03  0.25500000920E-02 0. -1.
</event>
<event>
 5   0  0.1282546E-03  0.7001853E+03  0.7818609E-02  0.9716915E-01
        2   -1    0    0  501    0  0.00000000000E+00  0.00000000000E+00  0.10545899392E+03  0.10545899395E+03  0.25500000920E-02 0. -1.
       -2   -1    0    0    0  501  0.00000000000E+00  0.00000000000E+00 -0.11622041136E+04  0.11622041136E+04  0.25500000920E-02 0.  1.
    10030    2    1    2    0    0  0.00000000000E+00  0.00000000000E+00 -0.10567451196E+04  0.12676631075E+04  0.70018533709E+03 0.  0.
        5    1    3    3  502    0 -0.32671565559E+03 -0.60548082404E+01 -0.30106684031E+03  0.44434571298E+03  0.46999998093E+01 0. -1.
       -5    1    3    3    0  502  0.32671565559E+03  0.60548082404E+01 -0.75567827932E+03  0.82331739453E+03  0.46999998093E+01 0.  1.
</event>
<event>
 5   0  0.1265562E-03  0.7023126E+03  0.7818609E-02  0.9713286E-01
       -2   -1    0    0    0  501  0.00000000000E+00  0.00000000000E+00  0.96005279869E+02  0.96005279903E+02  0.25500000920E-02 0.  1.
        2   -1    0    0  501    0  0.00000000000E+00  0.00000000000E+00 -0.12844162444E+04  0.12844162444E+04  0.25500000920E-02 0. -1.
    10030    2    1    2    0    0  0.00000000000E+00  0.00000000000E+00 -0.11884109645E+04  0.13804215243E+04  0.70231258293E+03 0.  0.
        1    1    3    3  502    0  0.18359899504E+03  0.16393214805E+03 -0.10192413436E+03  0.26640358356E+03  0.50400001928E-02 0.  1.
       -1    1    3    3    0  502 -0.18359899504E+03 -0.16393214805E+03 -0.10864868301E+04  0.11140179407E+04  0.50400001928E-02 0. -1.
</event>
<event>
 5   0  0.7570633E-04  0.7000422E+03  0.7818609E-02  0.9717160E-01
        1   -1    0    0  501    0  0.00000000000E+00  0.00000000000E+00  0.29075625111E+03  0.29075625115E+03  0.50400001928E-02 0.  1.
       -1   -1    0    0    0  501  0.00000000000E+00  0.00000000000E+00 -0.42136591359E+03  0.42136591362E+03  0.50400001928E-02 0. -1.
    10030    2    1    2    0    0  0.00000000000E+00  0.00000000000E+00 -0.13060966248E+03  0.71212216477E+03  0.70004220846E+03 0.  0.
        5    1    3    3  502    0  0.20167184178E+03  0.14090225971E+03 -0.31853356462E+03  0.40250552834E+03  0.46999998093E+01 0.  1.
       -5    1    3    3    0  502 -0.20167184178E+03 -0.14090225971E+03  0.18792390214E+03  0.30961663643E+03  0.46999998093E+01 0. -1.
</event>
<event>
 5   0  0.7574241E-04  0.6998575E+03  0.7818609E-02  0.9717476E-01
       -1   -1    0    0    0  501  0.00000000000E+00  0.00000000000E+00  0.83530223872E+02  0.83530224024E+02  0.50400001928E-02 0.  1.
        1   -1    0    0  501    0  0.00000000000E+00  0.00000000000E+00 -0.14659381483E+04  0.14659381483E+04  0.50400001928E-02 0. -1.
    10030    2    1    2    0    0  0.00000000000E+00  0.00000000000E+00 -0.13824079244E+04  0.15494683723E+04  0.69985753360E+03 0.  0.
        3    1    3    3  502    0 -0.11059470892E+03  0.10342611141E+03  0.72416301847E+01  0.15159354067E+03  0.10100000352E+00 0.  1.
       -3    1    3    3    0  502  0.11059470892E+03 -0.10342611141E+03 -0.13896495546E+04  0.13978748317E+04  0.10100000352E+00 0. -1.
</event>
<event>
 5   0  0.7572415E-04  0.7000344E+03  0.7818609E-02  0.9717173E-01
       -1   -1    0    0    0  501  0.00000000000E+00  0.00000000000E+00  0.10660758702E+03  0.10660758714E+03  0.50400001928E-02 0.  1.
        1   -1    0    0  501    0  0.00000000000E+00  0.00000000000E+00 -0.11491867724E+04  0.11491867724E+04  0.50400001928E-02 0. -1.
    10030    2    1    2    0    0  0.00000000000E+00  0.00000000000E+00 -0.10425791854E+04  0.12557943596E+04  0.70003436751E+03 0.  0.
        4    1    3    3  502    0 -0.22570492800E+03 -0.23229520752E+03 -0.28325647517E+03  0.43027853953E+03  0.12699999809E+01 0.  1.
       -4    1    3    3    0  502  0.22570492800E+03  0.23229520752E+03 -0.75932271024E+03  0.82551582004E+03  0.12699999809E+01 0. -1.
</event>
<event>
 5   0  0.7570633E-04  0.6997995E+03  0.7818609E-02  0.9717575E-01
       -1   -1    0    0    0  501  0.00000000000E+00  0.00000000000E+00  0.13707779556E+03  0.13707779566E+03  0.50400001928E-02 0. -1.
        1   -1    0    0  501    0  0.00000000000E+00  0.00000000000E+00 -0.89314122381E+03  0.89314122383E+03  0.50400001928E-02 0.  1.
    10030    2    1    2    0    0  0.00000000000E+00  0.00000000000E+00 -0.75606342825E+03  0.10302190195E+04  0.69979948597E+03 0.  0.
        5    1    3    3  502    0  0.23316233889E+03  0.19624524234E+03 -0.12504713119E+03  0.32944763838E+03  0.46999998093E+01 0. -1.
       -5    1    3    3    0  502 -0.23316233889E+03 -0.19624524234E+03 -0.63101629706E+03  0.70077138110E+03  0.46999998093E+01 0.  1.
</event>
<event>
 5   0  0.1222679E-03  0.6999125E+03  0.7818609E-02  0.9717382E-01
       -2   -1    0    0    0  501  0.00000000000E+00  0.00000000000E+00  0.13888373286E+03  0.13888373289E+03  0.25500000920E-02 0.  1.
        2   -1    0    0  501    0  0.00000000000E+00  0.00000000000E+00 -0.88181227951E+03  0.88181227951E+03  0.25500000920E-02 0. -1.
    10030    2    1    2    0    0  0.00000000000E+00  0.00000000000E+00 -0.74292854665E+03  0.10206960124E+04  0.69991251190E+03 0.  0.
        2    1    3    3  502    0  0.11227802214E+03 -0.23299805252E+03 -0.27675144048E+02  0.26011605167E+03  0.25500000920E-02 0.  1.
       -2    1    3    3    0  502 -0.11227802214E+03  0.23299805252E+03 -0.71525340260E+03  0.76057996073E+03  0.25500000920E-02 0. -1.
</event>
<event>
 5   0  0.7459843E-04  0.6998562E+03  0.7818609E-02  0.9717478E-01
        1   -1    0    0  501    0  0.00000000000E+00  0.00000000000E+00  0.34815788710E+03  0.34815788714E+03  0.50400001928E-02 0.  1.
       -1   -1    0    0    0  501  0.00000000000E+00  0.00000000000E+00 -0.35170732351E+03  0.35170732355E+03  0.50400001928E-02 0. -1.
    10030    2    1    2    0    0  0.00000000000E+00  0.00000000000E+00 -0.35494364104E+01  0.69986521068E+03  0.69985620996E+03 0.  0.
        2    1    3    3  502    0 -0.19021384792E+02 -0.24676830125E+03  0.24560120033E+03  0.34867801363E+03  0.25500000920E-02 0.  1.
       -2    1    3    3    0  502  0.19021384792E+02  0.24676830125E+03 -0.24915063674E+03  0.35118719705E+03  0.25500000920E-02 0. -1.
</event>
<event>
 5   0  0.1282546E-03  0.7043244E+03  0.7818609E-02  0.9709865E-01
       -2   -1    0    0    0  501  0.00000000000E+00  0.00000000000E+00  0.10938499081E+03  0.10938499084E+03  0.25500000920E-02 0.  1.
        2   -1    0    0  501    0  0.00000000000E+00  0.00000000000E+00 -0.11337771556E+04  0.11337771556E+04  0.25500000920E-02 0. -1.
    10030    2    1    2    0    0  0.00000000000E+00  0.00000000000E+00 -0.10243921648E+04  0.12431621465E+04  0.70432436779E+03 0.  0.
        5    1    3    3  502    0  0.72172324150E+01 -0.93927799695E+02  0.86675161859E+02  0.12809837501E+03  0.46999998093E+01 0.  1.
       -5    1    3    3    0  502 -0.72172324150E+01  0.93927799695E+02 -0.11110673267E+04  0.11150637715E+04  0.46999998093E+01 0. -1.
</event>
<event>
 5   0  0.7013526E-04  0.6999118E+03  0.7818609E-02  0.9717383E-01
        1   -1    0    0  501    0  0.00000000000E+00  0.00000000000E+00  0.87135481690E+02  0.87135481836E+02  0.50400001928E-02 0. -1.
       -1   -1    0    0    0  501  0.00000000000E+00  0.00000000000E+00 -0.14055023028E+04  0.14055023028E+04  0.50400001928E-02 0.  1.
    10030    2    1    2    0    0  0.00000000000E+00  0.00000000000E+00 -0.13183668211E+04  0.14926377847E+04  0.69991176669E+03 0.  0.
        1    1    3    3  502    0 -0.16652552112E+02  0.17521655394E+03 -0.14123195347E+02  0.17657183507E+03  0.50400001928E-02 0. -1.
       -1    1    3    3    0  502  0.16652552112E+02 -0.17521655394E+03 -0.13042436258E+04  0.13160659496E+04  0.50400001928E-02 0.  1.
</event>
<event>
 5   0  0.1224048E-03  0.7003862E+03  0.7818609E-02  0.9716572E-01
       -2   -1    0    0    0  501  0.00000000000E+00  0.00000000000E+00  0.97073580650E+02  0.97073580684E+02  0.25500000920E-02 0.  1.
        2   -1    0    0  501    0  0.00000000000E+00  0.00000000000E+00 -0.12633223209E+04  0.12633223209E+04  0.25500000920E-02 0. -1.
    10030    2    1    2    0    0  0.00000000000E+00  0.00000000000E+00 -0.11662487402E+04  0.13603959016E+04  0.70038623981E+03 0.  0.
        3    1    3    3  502    0 -0.22200514597E+03  0.96742354214E+02 -0.10744656269E+04  0.11014180685E+04  0.10100000352E+00 0. -1.
       -3    1    3    3    0  502  0.22200514597E+03 -0.96742354214E+02 -0.91783113292E+02  0.25897783307E+03  0.10100000352E+00 0.  1.
</event>
<event>
 5   0  0.1282546E-03  0.7002018E+03  0.7818609E-02  0.9716887E-01
       -2   -1    0    0    0  501  0.00000000000E+00  0.00000000000E+00  0.15061505777E+03  0.15061505779E+03  0.25500000920E-02 0. -1.
        2   -1    0    0  501    0  0.00000000000E+00  0.00000000000E+00 -0.81380070380E+03  0.81380070381E+03  0.25500000920E-02 0.  1.
    10030    2    1    2    0    0  0.00000000000E+00  0.00000000000E+00 -0.66318564603E+03  0.96441576160E+03  0.70020179957E+03 0.  0.
        5    1    3    3  502    0  0.19987709377E+03 -0.22443692977E+03 -0.84339194097E+02  0.31218260316E+03  0.46999998093E+01 0. -1.
       -5    1    3    3    0  502 -0.19987709377E+03  0.22443692977E+03 -0.57884645193E+03  0.65223315844E+03  0.46999998093E+01 0.  1.
</event>
<event>
 5   0  0.1282546E-03  0.6996678E+03  0.7818609E-02  0.9717800E-01
       -2   -1    0    0    0  501  0.00000000000E+00  0.00000000000E+00  0.17027073248E+03  0.17027073250E+03  0.25500000920E-02 0.  1.
        2   -1    0    0  501    0  0.00000000000E+00  0.00000000000E+00 -0.71875986296E+03  0.71875986296E+03  0.25500000920E-02 0. -1.
    10030    2    1    2    0    0  0.00000000000E+00  0.00000000000E+00 -0.54848913048E+03  0.88903059546E+03  0.69966783076E+03 0.  0.
        5    1    3    3  502    0  0.15645588142E+03 -0.15165489754E+03  0.73467209800E+02  0.22999385142E+03  0.46999998093E+01 0.  1.
       -5    1    3    3    0  502 -0.15645588142E+03  0.15165489754E+03 -0.62195634028E+03  0.65903674404E+03  0.46999998093E+01 0. -1.
</event>
<event>
 5   0  0.1224048E-03  0.6999331E+03  0.7818609E-02  0.9717347E-01
        2   -1    0    0  501    0  0.00000000000E+00  0.00000000000E+00  0.16125349088E+03  0.16125349090E+03  0.25500000920E-02 0. -1.
       -2   -1    0    0    0  501  0.00000000000E+00  0.00000000000E+00 -0.75952836161E+03  0.75952836161E+03  0.25500000920E-02 0.  1.
    10030    2    1    2    0    0  0.00000000000E+00  0.00000000000E+00 -0.59827487073E+03  0.92078185251E+03  0.69993313893E+03 0.  0.
        3    1    3    3  502    0 -0.32758726875E+03  0.49591770615E+02 -0.44741228212E+03  0.55673200263E+03  0.10100000352E+00 0.  1.
       -3    1    3    3    0  502  0.32758726875E+03 -0.49591770615E+02 -0.15086258860E+03  0.36404984988E+03  0.10100000352E+00 0. -1.
</event>
<event>
 5   0  0.7013526E-04  0.6997130E+03  0.7818609E-02  0.9717723E-01
        1   -1    0    0  501    0  0.00000000000E+00  0.00000000000E+00  0.84840980711E+03  0.84840980713E+03  0.50400001928E-02 0.  1.
       -1   -1    0    0    0  501  0.00000000000E+00  0.00000000000E+00 -0.14426939426E+03  0.14426939434E+03  0.50400001928E-02 0. -1.
    10030    2    1    2    0    0  0.00000000000E+00  0.00000000000E+00  0.70414041286E+03  0.99267920147E+03  0.69971299546E+03 0.  0.
        1    1    3    3  502    0 -0.74996919975E+02  0.29438236580E+03  0.10587840122E+03  0.32170755535E+03  0.50400001928E-02 0. -1.
       -1    1    3    3    0  502  0.74996919975E+02 -0.29438236580E+03  0.59826201164E+03  0.67097164612E+03  0.50400001928E-02 0.  1.
</event>
<event>
 5   0  0.7459843E-04  0.7012872E+03  0.7818609E-02  0.9715033E-01
       -1   -1    0    0    0  501  0.00000000000E+00  0.00000000000E+00  0.10012956646E+03  0.10012956658E+03  0.50400001928E-02 0. -1.
        1   -1    0    0  501    0  0.00000000000E+00  0.00000000000E+00 -0.12279184066E+04  0.12279184066E+04  0.50400001928E-02 0.  1.
    10030    2    1    2    0    0  0.00000000000E+00  0.00000000000E+00 -0.11277888402E+04  0.13280479732E+04  0.70128721019E+03 0.  0.
        2    1    3    3  502    0 -0.39661423328E+00  0.95187335445E+02 -0.12029828138E+04  0.12067429040E+04  0.25500000920E-02 0.  1.
       -2    1    3    3    0  502  0.39661423328E+00 -0.95187335445E+02  0.75193973636E+02  0.12130506918E+03  0.25500000920E-02 0. -1.
</event>
<event>
 5   0  0.7570633E-04  0.6994066E+03  0.7818609E-02  0.9718248E-01
        1   -1    0    0  501    0  0.00000000000E+00  0.00000000000E+00  0.70208457925E+03  0.70208457927E+03  0.50400001928E-02 0. -1.
       -1   -1    0    0    0  501  0.00000000000E+00  0.00000000000E+00 -0.17418469342E+03  0.17418469350E+03  0.50400001928E-02 0.  1.
    10030    2    1    2    0    0  0.00000000000E+00  0.00000000000E+00  0.52789988583E+03  0.87626927276E+03  0.69940656913E+03 0.  0.
        5    1    3    3  502    0 -0.10855564357E+03 -0.24464079792E+02  0.67926911495E+03  0.68833962509E+03  0.46999998093E+01 0. -1.
       -5    1    3    3    0  502  0.10855564357E+03  0.24464079792E+02 -0.15136922912E+03  0.18792964767E+03  0.46999998093E+01 0.  1.
</event>
<event>
 5   0  0.1222679E-03  0.6997121E+03  0.7818609E-02  0.9717725E-01
        2   -1    0    0  501    0  0.00000000000E+00  0.00000000000E+00  0.89933086388E+03  0.89933086388E+03  0.25500000920E-02 0. -1.
       -2   -1    0    0    0  501  0.00000000000E+00  0.00000000000E+00 -0.13610035311E+03  0.13610035313E+03  0.25500000920E-02 0.  1.
    10030    2    1    2    0    0  0.00000000000E+00  0.00000000000E+00  0.76323051077E+03  0.10354312170E+04  0.69971207836E+03 0.  0.
        2    1    3    3  502    0 -0.33282132105E+03 -0.81861744837E+02  0.48549516294E+03  0.59428690904E+03  0.25500000920E-02 0. -1.
       -2    1    3    3    0  502  0.33282132105E+03  0.81861744837E+02  0.27773534783E+03  0.44114430797E+03  0.25500000920E-02 0.  1.
</event>
<event>
 5   0  0.7574241E-04  0.7004059E+03  0.7818609E-02  0.9716538E-01
       -1   -1    0    0    0  501  0.00000000000E+00  0.00000000000E+00  0.45886289130E+03  0.45886289132E+03  0.50400001928E-02 0. -1.
        1   -1    0    0  501    0  0.00000000000E+00  0.00000000000E+00 -0.26727395636E+03  0.26727395640E+03  0.50400001928E-02 0.  1.
    10030    2    1    2    0    0  0.00000000000E+00  0.00000000000E+00  0.19158893494E+03  0.72613684773E+03  0.70040588350E+03 0.  0.
        3    1    3    3  502    0 -0.55340993839E+02  0.32415004359E+03 -0.29071971892E+02  0.33012280459E+03  0.10100000352E+00 0. -1.
       -3    1    3    3    0  502  0.55340993839E+02 -0.32415004359E+03  0.22066090683E+03  0.39601404314E+03  0.10100000352E+00 0.  1.
</event>
<event>
 5   0  0.7572415E-04  0.7001557E+03  0.7818609E-02  0.9716966E-01
       -1   -1    0    0    0  501  0.00000000000E+00  0.00000000000E+00  0.26917525412E+03  0.26917525416E+03  0.50400001928E-02 0. -1.
        1   -1    0    0  501    0  0.00000000000E+00  0.00000000000E+00 -0.45529629069E+03  0.45529629072E+03  0.50400001928E-02 0.  1.
    10030    2    1    2    0    0  0.00000000000E+00  0.00000000000E+00 -0.18612103658E+03  0.72447154489E+03  0.70015568204E+03 0.  0.
        4    1    3    3  502    0 -0.28361204199E+03 -0.16643609776E+03  0.31176454882E+02  0.33031855721E+03  0.12699999809E+01 0. -1.
       -4    1    3    3    0  502  0.28361204199E+03  0.16643609776E+03 -0.21729749146E+03  0.39415298768E+03  0.12699999809E+01 0.  1.
</event>
<event>
 5   0  0.1243087E-03  0.6995034E+03  0.7818609E-02  0.9718082E-01
        2   -1    0    0  501    0  0.00000000000E+00  0.00000000000E+00  0.50058410212E+03  0.50058410213E+03  0.25500000920E-02 0. -1.
       -2   -1    0    0    0  501  0.00000000000E+00  0.00000000000E+00 -0.24436700532E+03  0.24436700533E+03  0.25500000920E-02 0.  1.
    10030    2    1    2    0    0  0.00000000000E+00  0.00000000000E+00  0.25621709680E+03  0.74495110746E+03  0.69950336083E+03 0.  0.
        4    1    3    3  502    0  0.89825676828E+02  0.78290799029E+02  0.47829882622E+03  0.49291934583E+03  0.12699999809E+01 0. -1.
       -4    1    3    3    0  502 -0.89825676828E+02 -0.78290799029E+02 -0.22208172941E+03  0.25203176163E+03  0.12699999809E+01 0.  1.
</event>
<event>
 5   0  0.4936000E-04  0.7001585E+03  0.7818609E-02  0.9716961E-01
        3   -1    0    0  501    0  0.00000000000E+00  0.00000000000E+00  0.22610525119E+03  0.22610527374E+03  0.10100000352E+00 0. -1.
       -3   -1    0    0    0  501  0.00000000000E+00  0.00000000000E+00 -0.54202837925E+03  0.54202838866E+03  0.10100000352E+00 0.  1.
    10030    2    1    2    0    0  0.00000000000E+00  0.00000000000E+00 -0.31592312807E+03  0.76813366241E+03  0.70015848240E+03 0.  0.
        1    1    3    3  502    0  0.14854688879E+03 -0.57250576684E+02 -0.50001947703E+03  0.52475068760E+03  0.50400001928E-02 0.  1.
       -1    1    3    3    0  502 -0.14854688879E+03  0.57250576684E+02  0.18409634896E+03  0.24338297481E+03  0.50400001928E-02 0. -1.
</event>
<event>
 5   0  0.7572415E-04  0.7003156E+03  0.7818609E-02  0.9716693E-01
        1   -1    0    0  501    0  0.00000000000E+00  0.00000000000E+00  0.13322876455E+04  0.13322876455E+04  0.50400001928E-02 0.  1.
       -1   -1    0    0    0  501  0.00000000000E+00  0.00000000000E+00 -0.92030031611E+02  0.92030031749E+02  0.50400001928E-02 0. -1.
    10030    2    1    2    0    0  0.00000000000E+00  0.00000000000E+00  0.12402576139E+04  0.14243176773E+04  0.70031556954E+03 0.  0.
        4    1    3    3  502    0  0.13477428083E+02 -0.19889860606E+03  0.12055962510E+04  0.12219681788E+04  0.12699999809E+01 0.  1.
       -4    1    3    3    0  502 -0.13477428083E+02  0.19889860606E+03  0.34661362871E+02  0.20234949849E+03  0.12699999809E+01 0. -1.
</event>
<event>
 5   0  0.4936000E-04  0.7002480E+03  0.7818609E-02  0.9716808E-01
       -3   -1    0    0    0  501  0.00000000000E+00  0.00000000000E+00  0.38444766029E+03  0.38444767356E+03  0.10100000352E+00 0. -1.
        3   -1    0    0  501    0  0.00000000000E+00  0.00000000000E+00 -0.31886477771E+03  0.31886479370E+03  0.10100000352E+00 0.  1.
    10030    2    1    2    0    0  0.00000000000E+00  0.00000000000E+00  0.65582882587E+02  0.70331246727E+03  0.70024803614E+03 0.  0.
        5    1    3    3  502    0 -0.23230874933E+03 -0.36826954978E+02 -0.22765235064E+03  0.32737022219E+03  0.46999998093E+01 0.  1.
       -5    1    3    3    0  502  0.23230874933E+03  0.36826954978E+02  0.29323523323E+03  0.37594224507E+03  0.46999998093E+01 0. -1.
</event>
<event>
 5   0  0.7572415E-04  0.6999369E+03  0.7818609E-02  0.9717340E-01
        1   -1    0    0  501    0  0.00000000000E+00  0.00000000000E+00  0.10310286296E+04  0.10310286296E+04  0.50400001928E-02 0. -1.
       -1   -1    0    0    0  501  0.00000000000E+00  0.00000000000E+00 -0.11879195003E+03  0.11879195013E+03  0.50400001928E-02 0.  1.
    10030    2    1    2    0    0  0.00000000000E+00  0.00000000000E+00  0.91223667955E+03  0.11498205797E+04  0.69993685861E+03 0.  0.
        4    1    3    3  502    0  0.16852876779E+03 -0.84783106893E+02 -0.28105909859E+02  0.19073981193E+03  0.12699999809E+01 0.  1.
       -4    1    3    3    0  502 -0.16852876779E+03  0.84783106893E+02  0.94034258941E+03  0.95908076779E+03  0.12699999809E+01 0. -1.
</event>
<event>
 5   0  0.7013526E-04  0.7009537E+03  0.7818609E-02  0.9715603E-01
       -1   -1    0    0    0  501  0.00000000000E+00  0.00000000000E+00  0.29080322050E+03  0.29080322055E+03  0.50400001928E-02 0. -1.
        1   -1    0    0  501    0  0.00000000000E+00  0.00000000000E+00 -0.42239561951E+03  0.42239561954E+03  0.50400001928E-02 0.  1.
    10030    2    1    2    0    0  0.00000000000E+00  0.00000000000E+00 -0.13159239900E+03  0.71319884008E+03  0.70095365469E+03 0.  0.
        1    1    3    3  502    0  0.12095067244E+03  0.31803718290E+03  0.19679045671E+02  0.34082837284E+03  0.50400001928E-02 0.  1.
       -1    1    3    3    0  502 -0.12095067244E+03 -0.31803718290E+03 -0.15127144467E+03  0.37237046724E+03  0.50400001928E-02 0. -1.
</event>
<event>
 5   0  0.1265562E-03  0.6999371E+03  0.7818609E-02  0.9717340E-01
       -2   -1    0    0    0  501  0.00000000000E+00  0.00000000000E+00  0.99418900941E+02  0.99418900974E+02  0.25500000920E-02 0.  1.
        2   -1    0    0  501    0  0.00000000000E+00  0.00000000000E+00 -0.12319384928E+04  0.12319384928E+04  0.25500000920E-02 0. -1.
    10030    2    1    2    0    0  0.00000000000E+00  0.00000000000E+00 -0.11325195918E+04  0.13313573938E+04  0.69993705718E+03 0.  0.
        1    1    3    3  502    0 -0.14383887858E+03  0.31187529639E+03 -0.69417083545E+03  0.77448626347E+03  0.50400001928E-02 0. -1.
       -1    1    3    3    0  502  0.14383887858E+03 -0.31187529639E+03 -0.43834875638E+03  0.55687113028E+03  0.50400001928E-02 0.  1.
</event>
<event>
 5   0  0.7574241E-04  0.7001053E+03  0.7818609E-02  0.9717052E-01
       -1   -1    0    0    0  501  0.00000000000E+00  0.00000000000E+00  0.49338064890E+03  0.49338064892E+03  0.50400001928E-02 0. -1.
        1   -1    0    0  501    0  0.00000000000E+00  0.00000000000E+00 -0.24836173731E+03  0.24836173736E+03  0.50400001928E-02 0.  1.
    10030    2    1    2    0    0  0.00000000000E+00  0.00000000000E+00  0.24501891159E+03  0.74174238629E+03  0.70010534963E+03 0.  0.
        3    1    3    3  502    0  0.17000706170E+03  0.30144033837E+03  0.66766838029E+02  0.35245779816E+03  0.10100000352E+00 0. -1.
       -3    1    3    3    0  502 -0.17000706170E+03 -0.30144033837E+03  0.17825207356E+03  0.38928458813E+03  0.10100000352E+00 0.  1.
</event>
<event>
 5   0  0.1222679E-03  0.7003123E+03  0.7818609E-02  0.9716698E-01
       -2   -1    0    0    0  501  0.00000000000E+00  0.00000000000E+00  0.76365281130E+02  0.76365281173E+02  0.25500000920E-02 0. -1.
        2   -1    0    0  501    0  0.00000000000E+00  0.00000000000E+00 -0.16055639688E+04  0.16055639688E+04  0.25500000920E-02 0.  1.
    10030    2    1    2    0    0  0.00000000000E+00  0.00000000000E+00 -0.15291986876E+04  0.16819292500E+04  0.70031234142E+03 0.  0.
        2    1    3    3  502    0 -0.95368193285E+02  0.27729998479E+03 -0.30501099961E+03  0.42311001376E+03  0.25500000920E-02 0. -1.
       -2    1    3    3    0  502  0.95368193285E+02 -0.27729998479E+03 -0.12241876880E+04  0.12588192362E+04  0.25500000920E-02 0.  1.
</event>
<event>
 5   0  0.1224048E-03  0.7000230E+03  0.7818609E-02  0.9717193E-01
       -2   -1    0    0    0  501  0.00000000000E+00  0.00000000000E+00  0.13508678314E+03  0.13508678316E+03  0.25500000920E-02 0. -1.
        2   -1    0    0  501    0  0.00000000000E+00  0.00000000000E+00 -0.90688409902E+03  0.90688409902E+03  0.25500000920E-02 0.  1.
    10030    2    1    2    0    0  0.00000000000E+00  0.00000000000E+00 -0.77179731588E+03  0.10419708822E+04  0.70002301570E+03 0.  0.
        3    1    3    3  502    0 -0.25359517311E+03  0.55252356668E+02 -0.73543730015E+03  0.77989189469E+03  0.10100000352E+00 0.  1.
       -3    1    3    3    0  502  0.25359517311E+03 -0.55252356668E+02 -0.36360015731E+02  0.26207898750E+03  0.10100000352E+00 0. -1.
</event>
<event>
 5   0  0.4936000E-04  0.7021336E+03  0.7818609E-02  0.9713590E-01
        3   -1    0    0  501    0  0.00000000000E+00  0.00000000000E+00  0.17122475601E+03  0.17122478580E+03  0.10100000352E+00 0. -1.
       -3   -1    0    0    0  501  0.00000000000E+00  0.00000000000E+00 -0.71980184396E+03  0.71980185105E+03  0.10100000352E+00 0.  1.
    10030    2    1    2    0    0  0.00000000000E+00  0.00000000000E+00 -0.54857708795E+03  0.89102663685E+03  0.70213363838E+03 0.  0.
        2    1    3    3  502    0  0.56210886722E+02 -0.29287722292E+03 -0.39223129975E+02  0.30079093308E+03  0.25500000920E-02 0. -1.
       -2    1    3    3    0  502 -0.56210886722E+02  0.29287722292E+03 -0.50935395798E+03  0.59023570377E+03  0.25500000920E-02 0.  1.
</event>
<event>
 5   0  0.7570633E-04  0.6997035E+03  0.7818609E-02  0.9717739E-01
       -1   -1    0    0    0  501  0.00000000000E+00  0.00000000000E+00  0.32023649844E+03  0.32023649848E+03  0.50400001928E-02 0. -1.
        1   -1    0    0  501    0  0.00000000000E+00  0.00000000000E+00 -0.38220577879E+03  0.38220577882E+03  0.50400001928E-02 0.  1.
    10030    2    1    2    0    0  0.00000000000E+00  0.00000000000E+00 -0.61969280342E+02  0.70244227730E+03  0.69970348094E+03 0.  0.
        5    1    3    3  502    0  0.19546037542E+03  0.29011399717E+03 -0.32797420216E+02  0.35138106165E+03  0.46999998093E+01 0.  1.
       -5    1    3    3    0  502 -0.19546037542E+03 -0.29011399717E+03 -0.29171860126E+02  0.35106121565E+03  0.46999998093E+01 0. -1.
</event>
<event>
 5   0  0.1243087E-03  0.6992311E+03  0.7818609E-02  0.9718548E-01
       -2   -1    0    0    0  501  0.00000000000E+00  0.00000000000E+00  0.68527158922E+02  0.68527158969E+02  0.25500000920E-02 0.  1.
        2   -1    0    0  501    0  0.00000000000E+00  0.00000000000E+00 -0.17836876612E+04  0.17836876612E+04  0.25500000920E-02 0. -1.
    10030    2    1    2    0    0  0.00000000000E+00  0.00000000000E+00 -0.17151605023E+04  0.18522148202E+04  0.69923114310E+03 0.  0.
        4    1    3    3  502    0 -0.80680546730E+02 -0.21146402632E+02  0.41781114983E+02  0.93294133975E+02  0.12699999809E+01 0.  1.
       -4    1    3    3    0  502  0.80680546730E+02  0.21146402632E+02 -0.17569416173E+04  0.17589206862E+04  0.12699999809E+01 0. -1.
</event>
<event>
 5   0  0.1243087E-03  0.6998482E+03  0.7818609E-02  0.9717492E-01
        2   -1    0    0  501    0  0.00000000000E+00  0.00000000000E+00  0.79893412443E+03  0.79893412443E+03  0.25500000920E-02 0. -1.
       -2   -1    0    0    0  501  0.00000000000E+00  0.00000000000E+00 -0.15326280587E+03  0.15326280589E+03  0.25500000920E-02 0.  1.
    10030    2    1    2    0    0  0.00000000000E+00  0.00000000000E+00  0.64567131856E+03  0.95219693033E+03  0.69984822820E+03 0.  0.
        4    1    3    3  502    0  0.31475874472E+01  0.32580009159E+03  0.14918397657E+03  0.35834770650E+03  0.12699999809E+01 0.  1.
       -4    1    3    3    0  502 -0.31475874472E+01 -0.32580009159E+03  0.49648734199E+03  0.59384922383E+03  0.12699999809E+01 0. -1.
</event>
<event>
 5   0  0.1222679E-03  0.6997317E+03  0.7818609E-02  0.9717691E-01
        2   -1    0    0  501    0  0.00000000000E+00  0.00000000000E+00  0.83664283503E+03  0.83664283503E+03  0.25500000920E-02 0. -1.
       -2   -1    0    0    0  501  0.00000000000E+00  0.00000000000E+00 -0.14630628791E+03  0.14630628793E+03  0.25500000920E-02 0.  1.
    10030    2    1    2    0    0  0.00000000000E+00  0.00000000000E+00  0.69033654712E+03  0.98294912296E+03  0.69973168432E+03 0.  0.
        2    1    3    3  502    0 -0.34782647880E+02 -0.10408671490E+03 -0.12150156739E+03  0.16372693027E+03  0.25500000920E-02 0.  1.
       -2    1    3    3    0  502  0.34782647880E+02  0.10408671490E+03  0.81183811451E+03  0.81922219269E+03  0.25500000920E-02 0. -1.
</event>
<event>
 5   0  0.7574241E-04  0.6997316E+03  0.7818609E-02  0.9717691E-01
        1   -1    0    0  501    0  0.00000000000E+00  0.00000000000E+00  0.29561538298E+03  0.29561538303E+03  0.50400001928E-02 0. -1.
       -1   -1    0    0    0  501  0.00000000000E+00  0.00000000000E+00 -0.41407208856E+03  0.41407208859E+03  0.50400001928E-02 0.  1.
    10030    2    1    2    0    0  0.00000000000E+00  0.00000000000E+00 -0.11845670558E+03  0.70968747162E+03  0.69973160303E+03 0.  0.
        3    1    3    3  502    0 -0.75696623417E+02  0.26712163156E+03 -0.27514731141E+03  0.39088361186E+03  0.10100000352E+00 0.  1.
       -3    1    3    3    0  502  0.75696623417E+02 -0.26712163156E+03  0.15669060583E+03  0.31880385976E+03  0.10100000352E+00 0. -1.
</event>
<event>
 5   0  0.1224048E-03  0.6999609E+03  0.7818609E-02  0.9717299E-01
       -2   -1    0    0    0  501  0.00000000000E+00  0.00000000000E+00  0.26889619568E+03  0.26889619569E+03  0.25500000920E-02 0. -1.
        2   -1    0    0  501    0  0.00000000000E+00  0.00000000000E+00 -0.45551527536E+03  0.45551527537E+03  0.25500000920E-02 0.  1.
    10030    2    1    2    0    0  0.00000000000E+00  0.00000000000E+00 -0.18661907969E+03  0.72441147106E+03  0.69996092641E+03 0.  0.
        3    1    3    3  502    0 -0.74486380466E+02  0.30702885140E+03 -0.24913932792E+03  0.40234978735E+03  0.10100000352E+00 0.  1.
       -3    1    3    3    0  502  0.74486380466E+02 -0.30702885140E+03  0.62520248234E+02  0.32206168370E+03  0.10100000352E+00 0. -1.
</event>
<event>
 5   0  0.7570633E-04  0.6999432E+03  0.7818609E-02  0.9717329E-01
        1   -1    0    0  501    0  0.00000000000E+00  0.00000000000E+00  0.31683356531E+03  0.31683356535E+03  0.50400001928E-02 0.  1.
       -1   -1    0    0    0  501  0.00000000000E+00  0.00000000000E+00 -0.38657561694E+03  0.38657561697E+03  0.50400001928E-02 0. -1.
    10030    2    1    2    0    0  0.00000000000E+00  0.00000000000E+00 -0.69742051629E+02  0.70340918232E+03  0.69994322913E+03 0.  0.
        5    1    3    3  502    0  0.15287940327E+02 -0.17643594207E+03  0.26844245960E+03  0.32163147683E+03  0.46999998093E+01 0.  1.
       -5    1    3    3    0  502 -0.15287940327E+02  0.17643594207E+03 -0.33818451123E+03  0.38177770549E+03  0.46999998093E+01 0. -1.
</event>
<event>
 5   0  0.7574241E-04  0.7000117E+03  0.7818609E-02  0.9717212E-01
       -1   -1    0    0    0  501  0.00000000000E+00  0.00000000000E+00  0.22565029351E+03  0.22565029357E+03  0.50400001928E-02 0. -1.
        1   -1    0    0  501    0  0.00000000000E+00  0.00000000000E+00 -0.54289357150E+03  0.54289357153E+03  0.50400001928E-02 0.  1.
    10030    2    1    2    0    0  0.00000000000E+00  0.00000000000E+00 -0.31724327799E+03  0.76854386509E+03  0.70001169643E+03 0.  0.
        3    1    3    3  502    0  0.11082807568E+03  0.31227702291E+03 -0.28236970758E+03  0.43535326272E+03  0.10100000352E+00 0. -1.
       -3    1    3    3    0  502 -0.11082807568E+03 -0.31227702291E+03 -0.34873570405E+02  0.33319060238E+03  0.10100000352E+00 0.  1.
</event>
<event>
 5   0  0.7570633E-04  0.7000808E+03  0.7818609E-02  0.9717094E-01
       -1   -1    0    0    0  501  0.00000000000E+00  0.00000000000E+00  0.26335524012E+03  0.26335524017E+03  0.50400001928E-02 0. -1.
        1   -1    0    0  501    0  0.00000000000E+00  0.00000000000E+00 -0.46525857200E+03  0.46525857202E+03  0.50400001928E-02 0.  1.
    10030    2    1    2    0    0  0.00000000000E+00  0.00000000000E+00 -0.20190333188E+03  0.72861381219E+03  0.70008080383E+03 0.  0.
        5    1    3    3  502    0  0.76069633539E+02 -0.29855818385E+03 -0.27380069591E+03  0.41220442667E+03  0.46999998093E+01 0.  1.
       -5    1    3    3    0  502 -0.76069633539E+02  0.29855818385E+03  0.71897364031E+02  0.31640938552E+03  0.46999998093E+01 0. -1.
</event>
<event>
 5   0  0.1243087E-03  0.7000179E+03  0.7818609E-02  0.9717202E-01
        2   -1    0    0  501    0  0.00000000000E+00  0.00000000000E+00  0.24078188913E+03  0.24078188915E+03  0.25500000920E-02 0. -1.
       -2   -1    0    0    0  501  0.00000000000E+00  0.00000000000E+00 -0.50878526333E+03  0.50878526333E+03  0.25500000920E-02 0.  1.
    10030    2    1    2    0    0  0.00000000000E+00  0.00000000000E+00 -0.26800337419E+03  0.74956715248E+03  0.70001793370E+03 0.  0.
        4    1    3    3  502    0 -0.22935465860E+03  0.74092403992E+02 -0.40575998759E+03  0.47194917542E+03  0.12699999809E+01 0.  1.
       -4    1    3    3    0  502  0.22935465860E+03 -0.74092403992E+02  0.13775661339E+03  0.27761797706E+03  0.12699999809E+01 0. -1.
</event>
<event>
 5   0  0.7572415E-04  0.6996529E+03  0.7818609E-02  0.9717826E-01
       -1   -1    0    0    0  501  0.00000000000E+00  0.00000000000E+00  0.22452122923E+03  0.22452122929E+03  0.50400001928E-02 0.  1.
        1   -1    0    0  501    0  0.00000000000E+00  0.00000000000E+00 -0.54506452920E+03  0.54506452922E+03  0.50400001928E-02 0. -1.
    10030    2    1    2    0    0  0.00000000000E+00  0.00000000000E+00 -0.32054329997E+03  0.76958575851E+03  0.69965293721E+03 0.  0.
        4    1    3    3  502    0 -0.14038314920E+03 -0.62799373277E+02  0.18534097080E+03  0.24084035837E+03  0.12699999809E+01 0.  1.
       -4    1    3    3    0  502  0.14038314920E+03  0.62799373277E+02 -0.50588427076E+03  0.52874540014E+03  0.12699999809E+01 0. -1.
</event>
<event>
 5   0  0.7574241E-04  0.7002558E+03  0.7818609E-02  0.9716795E-01
        1   -1    0    0  501    0  0.00000000000E+00  0.00000000000E+00  0.59587339241E+03  0.59587339243E+03  0.50400001928E-02 0. -1.
       -1   -1    0    0    0  501  0.00000000000E+00  0.00000000000E+00 -0.20573085871E+03  0.20573085878E+03  0.50400001928E-02 0.  1.
    10030    2    1    2    0    0  0.00000000000E+00  0.00000000000E+00  0.39014253370E+03  0.80160425121E+03  0.70025579537E+03 0.  0.
        3    1    3    3  502    0 -0.18085967090E+03 -0.24020158256E+03  0.40043004963E+03  0.50075069213E+03  0.10100000352E+00 0. -1.
       -3    1    3    3    0  502  0.18085967090E+03  0.24020158256E+03 -0.10287515935E+02  0.30085355907E+03  0.10100000352E+00 0.  1.
</event>
<event>
 5   0  0.1222679E-03  0.7003147E+03  0.7818609E-02  0.9716694E-01
        2   -1    0    0  501    0  0.00000000000E+00  0.00000000000E+00  0.11561340381E+04  0.11561340381E+04  0.25500000920E-02 0.  1.
       -2   -1    0    0    0  501  0.00000000000E+00  0.00000000000E+00 -0.10605185334E+03  0.10605185337E+03  0.25500000920E-02 0. -1.
    10030    2    1    2    0    0  0.00000000000E+00  0.00000000000E+00  0.10500821847E+04  0.12621858915E+04  0.70031466491E+03 0.  0.
        2    1    3    3  502    0 -0.78944799054E+02  0.15033580645E+03  0.10769638704E+04  0.10902680011E+04  0.25500000920E-02 0.  1.
       -2    1    3    3    0  502  0.78944799054E+02 -0.15033580645E+03 -0.26881685677E+02  0.17191789038E+03  0.25500000920E-02 0. -1.
</event>
<event>
 5   0  0.7574241E-04  0.6959896E+03  0.7818609E-02  0.9724115E-01
        1   -1    0    0  501    0  0.00000000000E+00  0.00000000000E+00  0.18616061541E+04  0.18616061542E+04  0.50400001928E-02 0. -1.
       -1   -1    0    0    0  501  0.00000000000E+00  0.00000000000E+00 -0.65051557385E+02  0.65051557580E+02  0.50400001928E-02 0.  1.
    10030    2    1    2    0    0  0.00000000000E+00  0.00000000000E+00  0.17965545968E+04  0.19266577117E+04  0.69598959693E+03 0.  0.
        3    1    3    3  502    0  0.19860905382E+03  0.28495854718E+03  0.83933031547E+03  0.90836243788E+03  0.10100000352E+00 0. -1.
       -3    1    3    3    0  502 -0.19860905382E+03 -0.28495854718E+03  0.95722428129E+03  0.10182952739E+04  0.10100000352E+00 0.  1.
</event>
<event>
 5   0  0.1243087E-03  0.6998444E+03  0.7818609E-02  0.9717498E-01
       -2   -1    0    0    0  501  0.00000000000E+00  0.00000000000E+00  0.24550566851E+03  0.24550566852E+03  0.25500000920E-02 0. -1.
        2   -1    0    0  501    0  0.00000000000E+00  0.00000000000E+00 -0.49874834667E+03  0.49874834668E+03  0.25500000920E-02 0.  1.
    10030    2    1    2    0    0  0.00000000000E+00  0.00000000000E+00 -0.25324267816E+03  0.74425401520E+03  0.69984440064E+03 0.  0.
        4    1    3    3  502    0  0.28994173084E+02  0.31791240993E+03  0.25772265004E+02  0.32027298512E+03  0.12699999809E+01 0. -1.
       -4    1    3    3    0  502 -0.28994173084E+02 -0.31791240993E+03 -0.27901494316E+03  0.42398103008E+03  0.12699999809E+01 0.  1.
</event>
<event>
 5   0  0.1265562E-03  0.7006480E+03  0.7818609E-02  0.9716125E-01
        2   -1    0    0  501    0  0.00000000000E+00  0.00000000000E+00  0.76440343637E+03  0.76440343637E+03  0.25500000920E-02 0.  1.
       -2   -1    0    0    0  501  0.00000000000E+00  0.00000000000E+00 -0.16055254755E+03  0.16055254757E+03  0.25500000920E-02 0. -1.
    10030    2    1    2    0    0  0.00000000000E+00  0.00000000000E+00  0.60385088882E+03  0.92495598394E+03  0.70064804025E+03 0.  0.
        1    1    3    3  502    0  0.66487050028E+02  0.34271893534E+03  0.34041668712E+03  0.48760672407E+03  0.50400001928E-02 0. -1.
       -1    1    3    3    0  502 -0.66487050028E+02 -0.34271893534E+03  0.26343420169E+03  0.43734925987E+03  0.50400001928E-02 0.  1.
</event>
<event>
 5   0  0.1224048E-03  0.6998820E+03  0.7818609E-02  0.9717434E-01
        2   -1    0    0  501    0  0.00000000000E+00  0.00000000000E+00  0.58348189924E+03  0.58348189924E+03  0.25500000920E-02 0. -1.
       -2   -1    0    0    0  501  0.00000000000E+00  0.00000000000E+00 -0.20987576373E+03  0.20987576375E+03  0.25500000920E-02 0.  1.
    10030    2    1    2    0    0  0.00000000000E+00  0.00000000000E+00  0.37360613551E+03  0.79335766299E+03  0.69988201644E+03 0.  0.
        3    1    3    3  502    0 -0.19597155466E+03 -0.28828579888E+03  0.22165235158E+03  0.41308997474E+03  0.10100000352E+00 0. -1.
       -3    1    3    3    0  502  0.19597155466E+03  0.28828579888E+03  0.15195378393E+03  0.38026768825E+03  0.10100000352E+00 0.  1.
</event>
<event>
 5   0  0.1224048E-03  0.7022932E+03  0.7818609E-02  0.9713319E-01
       -2   -1    0    0    0  501  0.00000000000E+00  0.00000000000E+00  0.53617221292E+02  0.53617221353E+02  0.25500000920E-02 0.  1.
        2   -1    0    0  501    0  0.00000000000E+00  0.00000000000E+00 -0.22997076597E+04  0.22997076597E+04  0.25500000920E-02 0. -1.
    10030    2    1    2    0    0  0.00000000000E+00  0.00000000000E+00 -0.22460904385E+04  0.23533248811E+04  0.70229319966E+03 0.  0.
        3    1    3    3  502    0 -0.24810461906E+02  0.18909708517E+03 -0.13506123119E+03  0.23369812368E+03  0.10100000352E+00 0.  1.
       -3    1    3    3    0  502  0.24810461906E+02 -0.18909708517E+03 -0.21110292073E+04  0.21196267574E+04  0.10100000352E+00 0. -1.
</event>
<event>
 5   0  0.1282546E-03  0.7000723E+03  0.7818609E-02  0.9717109E-01
       -2   -1    0    0    0  501  0.00000000000E+00  0.00000000000E+00  0.47755750543E+02  0.47755750611E+02  0.25500000920E-02 0.  1.
        2   -1    0    0  501    0  0.00000000000E+00  0.00000000000E+00 -0.25656656629E+04  0.25656656629E+04  0.25500000920E-02 0. -1.
    10030    2    1    2    0    0  0.00000000000E+00  0.00000000000E+00 -0.25179099124E+04  0.26134214136E+04  0.70007225189E+03 0.  0.
        5    1    3    3  502    0 -0.91822759933E+02 -0.72388436257E+02 -0.24904829171E+04  0.24932305860E+04  0.46999998093E+01 0. -1.
       -5    1    3    3    0  502  0.91822759933E+02  0.72388436257E+02 -0.27426995317E+02  0.12019082750E+03  0.46999998093E+01 0.  1.
</event>
<event>
 5   0  0.7574241E-04  0.7000827E+03  0.7818609E-02  0.9717091E-01
       -1   -1    0    0    0  501  0.00000000000E+00  0.00000000000E+00  0.15516212403E+03  0.15516212411E+03  0.50400001928E-02 0.  1.
        1   -1    0    0  501    0  0.00000000000E+00  0.00000000000E+00 -0.78968338071E+03  0.78968338073E+03  0.50400001928E-02 0. -1.
    10030    2    1    2    0    0  0.00000000000E+00  0.00000000000E+00 -0.63452125668E+03  0.94484550484E+03  0.70008271142E+03 0.  0.
        3    1    3    3  502    0  0.26454926307E+03  0.13948905550E+03 -0.56274839149E+03  0.63728272495E+03  0.10100000352E+00 0. -1.
       -3    1    3    3    0  502 -0.26454926307E+03 -0.13948905550E+03 -0.71772865193E+02  0.30756277989E+03  0.10100000352E+00 0.  1.
</event>
<event>
 5   0  0.7572415E-04  0.6999736E+03  0.7818609E-02  0.9717277E-01
        1   -1    0    0  501    0  0.00000000000E+00  0.00000000000E+00  0.21669902016E+04  0.21669902016E+04  0.50400001928E-02 0.  1.
       -1   -1    0    0    0  501  0.00000000000E+00  0.00000000000E+00 -0.56525763428E+02  0.56525763653E+02  0.50400001928E-02 0. -1.
    10030    2    1    2    0    0  0.00000000000E+00  0.00000000000E+00  0.21104644381E+04  0.22235159652E+04  0.69997364448E+03 0.  0.
        4    1    3    3  502    0 -0.18653773513E+03  0.17812665221E+03  0.18067026524E+04  0.18250209637E+04  0.12699999809E+01 0.  1.
       -4    1    3    3    0  502  0.18653773513E+03 -0.17812665221E+03  0.30376178568E+03  0.39849500147E+03  0.12699999809E+01 0. -1.
</event>
<event>
 5   0  0.1243087E-03  0.6999615E+03  0.7818609E-02  0.9717298E-01
       -2   -1    0    0    0  501  0.00000000000E+00  0.00000000000E+00  0.23152763985E+03  0.23152763986E+03  0.25500000920E-02 0. -1.
        2   -1    0    0  501    0  0.00000000000E+00  0.00000000000E+00 -0.52903635302E+03  0.52903635303E+03  0.25500000920E-02 0.  1.
    10030    2    1    2    0    0  0.00000000000E+00  0.00000000000E+00 -0.29750871318E+03  0.76056399289E+03  0.69996153670E+03 0.  0.
        4    1    3    3  502    0 -0.16766320639E+03 -0.28342851847E+03 -0.27751404795E+03  0.43064873802E+03  0.12699999809E+01 0.  1.
       -4    1    3    3    0  502  0.16766320639E+03  0.28342851847E+03 -0.19994665232E+02  0.32991525486E+03  0.12699999809E+01 0. -1.
</event>
<event>
 5   0  0.7574241E-04  0.7010712E+03  0.7818609E-02  0.9715402E-01
        1   -1    0    0  501    0  0.00000000000E+00  0.00000000000E+00  0.88141188565E+03  0.88141188567E+03  0.50400001928E-02 0. -1.
       -1   -1    0    0    0  501  0.00000000000E+00  0.00000000000E+00 -0.13940726701E+03  0.13940726710E+03  0.50400001928E-02 0.  1.
    10030    2    1    2    0    0  0.00000000000E+00  0.00000000000E+00  0.74200461864E+03  0.10208191528E+04  0.70107124358E+03 0.  0.
        3    1    3    3  502    0 -0.65137162372E+02 -0.46507638135E+02  0.86792929088E+03  0.87161176822E+03  0.10100000352E+00 0. -1.
       -3    1    3    3    0  502  0.65137162372E+02  0.46507638135E+02 -0.12592467224E+03  0.14920738455E+03  0.10100000352E+00 0.  1.
</event>
<event>
 5   0  0.7459843E-04  0.7001056E+03  0.7818609E-02  0.9717052E-01
        1   -1    0    0  501    0  0.00000000000E+00  0.00000000000E+00  0.42589678172E+03  0.42589678175E+03  0.50400001928E-02 0. -1.
       -1   -1    0    0    0  501  0.00000000000E+00  0.00000000000E+00 -0.28771518503E+03  0.28771518507E+03  0.50400001928E-02 0.  1.
    10030    2    1    2    0    0  0.00000000000E+00  0.00000000000E+00  0.13818159670E+03  0.71361196682E+03  0.70010562455E+03 0.  0.
        2    1    3    3  502    0 -0.22077638826E+03 -0.28920873721E+01 -0.20778608622E+03  0.30319240660E+03  0.25500000920E-02 0.  1.
       -2    1    3    3    0  502  0.22077638826E+03  0.28920873721E+01  0.34596768292E+03  0.41041956022E+03  0.25500000920E-02 0. -1.
</event>
<event>
 5   0  0.7574241E-04  0.7001722E+03  0.7818609E-02  0.9716938E-01
        1   -1    0    0  501    0  0.00000000000E+00  0.00000000000E+00  0.74498014450E+03  0.74498014452E+03  0.50400001928E-02 0.  1.
       -1   -1    0    0    0  501  0.00000000000E+00  0.00000000000E+00 -0.16451482050E+03  0.16451482058E+03  0.50400001928E-02 0. -1.
    10030    2    1    2    0    0  0.00000000000E+00  0.00000000000E+00  0.58046532400E+03  0.90949496510E+03  0.70017219252E+03 0.  0.
        3    1    3    3  502    0 -0.33102782203E+03 -0.96749062637E+02  0.36839140898E+03  0.50463059805E+03  0.10100000352E+00 0.  1.
       -3    1    3    3    0  502  0.33102782203E+03  0.96749062637E+02  0.21207391502E+03  0.40486436705E+03  0.10100000352E+00 0. -1.
</event>
<event>
 5   0  0.7013526E-04  0.7001321E+03  0.7818609E-02  0.9717006E-01
        1   -1    0    0  501    0  0.00000000000E+00  0.00000000000E+00  0.42848198160E+03  0.42848198163E+03  0.50400001928E-02 0.  1.
       -1   -1    0    0    0  501  0.00000000000E+00  0.00000000000E+00 -0.28600088280E+03  0.28600088284E+03  0.50400001928E-02 0. -1.
    10030    2    1    2    0    0  0.00000000000E+00  0.00000000000E+00  0.14248109880E+03  0.71448286447E+03  0.70013205905E+03 0.  0.
        1    1    3    3  502    0  0.14448955911E+03  0.39109442557E+02 -0.25169394773E+03  0.29284232026E+03  0.50400001928E-02 0. -1.
       -1    1    3    3    0  502 -0.14448955911E+03 -0.39109442557E+02  0.39417504653E+03  0.42164054421E+03  0.50400001928E-02 0.  1.
</event>
<event>
 5   0  0.7570633E-04  0.7001435E+03  0.7818609E-02  0.9716987E-01
        1   -1    0    0  501    0  0.00000000000E+00  0.00000000000E+00  0.50877752575E+03  0.50877752578E+03  0.50400001928E-02 0.  1.
       -1   -1    0    0    0  501  0.00000000000E+00  0.00000000000E+00 -0.24087191884E+03  0.24087191890E+03  0.50400001928E-02 0. -1.
    10030    2    1    2    0    0  0.00000000000E+00  0.00000000000E+00  0.26790560691E+03  0.74964944467E+03  0.70014346793E+03 0.  0.
        5    1    3    3  502    0 -0.19878637834E+03 -0.62632560971E+02 -0.16716050977E+03  0.26721449798E+03  0.46999998093E+01 0. -1.
       -5    1    3    3    0  502  0.19878637834E+03  0.62632560971E+02  0.43506611668E+03  0.48243494669E+03  0.46999998093E+01 0.  1.
</event>
<event>
 5   0  0.7459843E-04  0.7001623E+03  0.7818609E-02  0.9716955E-01
       -1   -1    0    0    0  501  0.00000000000E+00  0.00000000000E+00  0.95415399076E+02  0.95415399209E+02  0.50400001928E-02 0. -1.
        1   -1    0    0  501    0  0.00000000000E+00  0.00000000000E+00 -0.12844552735E+04  0.12844552735E+04  0.50400001928E-02 0.  1.
    10030    2    1    2    0    0  0.00000000000E+00  0.00000000000E+00 -0.11890398744E+04  0.13798706727E+04  0.70016230293E+03 0.  0.
        2    1    3    3  502    0 -0.66292330761E+02 -0.31322684674E+03 -0.87358699019E+03  0.93040849097E+03  0.25500000920E-02 0.  1.
       -2    1    3    3    0  502  0.66292330761E+02  0.31322684674E+03 -0.31545288420E+03  0.44946218172E+03  0.25500000920E-02 0. -1.
</event>
<event>
 5   0  0.4936000E-04  0.7000575E+03  0.7818609E-02  0.9717134E-01
        3   -1    0    0  501    0  0.00000000000E+00  0.00000000000E+00  0.14643103109E+03  0.14643106592E+03  0.10100000352E+00 0. -1.
       -3   -1    0    0    0  501  0.00000000000E+00  0.00000000000E+00 -0.83670859501E+03  0.83670860111E+03  0.10100000352E+00 0.  1.
    10030    2    1    2    0    0  0.00000000000E+00  0.00000000000E+00 -0.69027756393E+03  0.98313966703E+03  0.70005749022E+03 0.  0.
        2    1    3    3  502    0  0.22652022145E+02 -0.34490715465E+03 -0.42264757079E+03  0.54598995278E+03  0.25500000920E-02 0.  1.
       -2    1    3    3    0  502 -0.22652022145E+02  0.34490715465E+03 -0.26762999314E+03  0.43714971425E+03  0.25500000920E-02 0. -1.
</event>
<event>
 5   0  0.4936000E-04  0.7001759E+03  0.7818609E-02  0.9716931E-01
        4   -1    0    0  501    0  0.00000000000E+00  0.00000000000E+00  0.53663178684E+03  0.53663328963E+03  0.12699999809E+01 0. -1.
       -4   -1    0    0    0  501  0.00000000000E+00  0.00000000000E+00 -0.22838688787E+03  0.22839041891E+03  0.12699999809E+01 0.  1.
    10030    2    1    2    0    0  0.00000000000E+00  0.00000000000E+00  0.30824489896E+03  0.76502370855E+03  0.70017594710E+03 0.  0.
        3    1    3    3  502    0 -0.15937617324E+03  0.89769058973E+02  0.48026858614E+03  0.51392331489E+03  0.10100000352E+00 0. -1.
       -3    1    3    3    0  502  0.15937617324E+03 -0.89769058973E+02 -0.17202368718E+03  0.25110039366E+03  0.10100000352E+00 0.  1.
</event>
<event>
 5   0  0.1282546E-03  0.7000680E+03  0.7818609E-02  0.9717116E-01
        2   -1    0    0  501    0  0.00000000000E+00  0.00000000000E+00  0.18912709541E+04  0.18912709541E+04  0.25500000920E-02 0. -1.
       -2   -1    0    0    0  501  0.00000000000E+00  0.00000000000E+00 -0.64783837652E+02  0.64783837702E+02  0.25500000920E-02 0.  1.
    10030    2    1    2    0    0  0.00000000000E+00  0.00000000000E+00  0.18264871164E+04  0.19560547918E+04  0.70006796955E+03 0.  0.
        5    1    3    3  502    0  0.22068429841E+03 -0.12159413202E+03  0.23447448978E+03  0.34421950680E+03  0.46999998093E+01 0.  1.
       -5    1    3    3    0  502 -0.22068429841E+03  0.12159413202E+03  0.15920126266E+04  0.16118352850E+04  0.46999998093E+01 0. -1.
</event>
<event>
 5   0  0.7013526E-04  0.7000425E+03  0.7818609E-02  0.9717160E-01
       -1   -1    0    0    0  501  0.00000000000E+00  0.00000000000E+00  0.21672289057E+03  0.21672289063E+03  0.50400001928E-02 0.  1.
        1   -1    0    0  501    0  0.00000000000E+00  0.00000000000E+00 -0.56530654599E+03  0.56530654601E+03  0.50400001928E-02 0. -1.
    10030    2    1    2    0    0  0.00000000000E+00  0.00000000000E+00 -0.34858365542E+03  0.78202943664E+03  0.70004248082E+03 0.  0.
        1    1    3    3  502    0  0.14066819586E+03  0.59705009649E+02 -0.52607312333E+03  0.54781854717E+03  0.50400001928E-02 0. -1.
       -1    1    3    3    0  502 -0.14066819586E+03 -0.59705009649E+02  0.17748946791E+03  0.23421088947E+03  0.50400001928E-02 0.  1.
</event>
<event>
 5   0  0.1282546E-03  0.7040193E+03  0.7818609E-02  0.9710383E-01
       -2   -1    0    0    0  501  0.00000000000E+00  0.00000000000E+00  0.31268054742E+03  0.31268054743E+03  0.25500000920E-02 0. -1.
        2   -1    0    0  501    0  0.00000000000E+00  0.00000000000E+00 -0.39628556560E+03  0.39628556561E+03  0.25500000920E-02 0.  1.
    10030    2    1    2    0    0  0.00000000000E+00  0.00000000000E+00 -0.83605018178E+02  0.70896611304E+03  0.70401928267E+03 0.  0.
        5    1    3    3  502    0  0.20281564249E+03  0.28709393402E+03 -0.60139956868E+02  0.35664550495E+03  0.46999998093E+01 0.  1.
       -5    1    3    3    0  502 -0.20281564249E+03 -0.28709393402E+03 -0.23465061310E+02  0.35232060810E+03  0.46999998093E+01 0. -1.
</event>
<event>
 5   0  0.7574241E-04  0.7005427E+03  0.7818609E-02  0.9716305E-01
       -1   -1    0    0    0  501  0.00000000000E+00  0.00000000000E+00  0.80019785700E+02  0.80019785859E+02  0.50400001928E-02 0.  1.
        1   -1    0    0  501    0  0.00000000000E+00  0.00000000000E+00 -0.15332458637E+04  0.15332458637E+04  0.50400001928E-02 0. -1.
    10030    2    1    2    0    0  0.00000000000E+00  0.00000000000E+00 -0.14532260780E+04  0.16132656495E+04  0.70054266272E+03 0.  0.
        3    1    3    3  502    0  0.43186996982E+02 -0.13570597504E+03  0.10340089030E+02  0.14278710030E+03  0.10100000352E+00 0.  1.
       -3    1    3    3    0  502 -0.43186996982E+02  0.13570597504E+03 -0.14635661670E+04  0.14704785492E+04  0.10100000352E+00 0. -1.
</event>
<event>
 5   0  0.1243087E-03  0.6999291E+03  0.7818609E-02  0.9717353E-01
        2   -1    0    0  501    0  0.00000000000E+00  0.00000000000E+00  0.18051534698E+03  0.18051534700E+03  0.25500000920E-02 0. -1.
       -2   -1    0    0    0  501  0.00000000000E+00  0.00000000000E+00 -0.67847518872E+03  0.67847518873E+03  0.25500000920E-02 0.  1.
    10030    2    1    2    0    0  0.00000000000E+00  0.00000000000E+00 -0.49795984174E+03  0.85899053573E+03  0.69992909390E+03 0.  0.
        4    1    3    3  502    0 -0.15374907474E+03  0.12262732026E+03 -0.60424247390E+03  0.63544222225E+03  0.12699999809E+01 0. -1.
       -4    1    3    3    0  502  0.15374907474E+03 -0.12262732026E+03  0.10628263216E+03  0.22354831347E+03  0.12699999809E+01 0.  1.
</event>
<event>
 5   0  0.7572415E-04  0.7000674E+03  0.7818609E-02  0.9717117E-01
       -1   -1    0    0    0  501  0.00000000000E+00  0.00000000000E+00  0.20325574938E+03  0.20325574944E+03  0.50400001928E-02 0.  1.
        1   -1    0    0  501    0  0.00000000000E+00  0.00000000000E+00 -0.60280505944E+03  0.60280505946E+03  0.50400001928E-02 0. -1.
    10030    2    1    2    0    0  0.00000000000E+00  0.00000000000E+00 -0.39954931006E+03  0.80606080891E+03  0.70006740853E+03 0.  0.
        4    1    3    3  502    0 -0.19321869809E+03 -0.46483215210E+02  0.13199738354E+03  0.23857719243E+03  0.12699999809E+01 0.  1.
       -4    1    3    3    0  502  0.19321869809E+03  0.46483215210E+02 -0.53154669361E+03  0.56748361648E+03  0.12699999809E+01 0. -1.
</event>
<event>
 5   0  0.1243087E-03  0.7014598E+03  0.7818609E-02  0.9714739E-01
       -2   -1    0    0    0  501  0.00000000000E+00  0.00000000000E+00  0.27824453023E+03  0.27824453024E+03  0.25500000920E-02 0.  1.
        2   -1    0    0  501    0  0.00000000000E+00  0.00000000000E+00 -0.44209841367E+03  0.44209841367E+03  0.25500000920E-02 0. -1.
    10030    2    1    2    0    0  0.00000000000E+00  0.00000000000E+00 -0.16385388343E+03  0.72034294392E+03  0.70145980764E+03 0.  0.
        4    1    3    3  502    0 -0.46902743015E+01 -0.23918284091E+03 -0.34530618327E+03  0.42008142445E+03  0.12699999809E+01 0. -1.
       -4    1    3    3    0  502  0.46902743015E+01  0.23918284091E+03  0.18145229984E+03  0.30026151947E+03  0.12699999809E+01 0.  1.
</event>
<event>
 5   0  0.1222679E-03  0.6998045E+03  0.7818609E-02  0.9717567E-01
        2   -1    0    0  501    0  0.00000000000E+00  0.00000000000E+00  0.44975947845E+03  0.44975947845E+03  0.25500000920E-02 0. -1.
       -2   -1    0    0    0  501  0.00000000000E+00  0.00000000000E+00 -0.27221570329E+03  0.27221570330E+03  0.25500000920E-02 0.  1.
    10030    2    1    2    0    0  0.00000000000E+00  0.00000000000E+00  0.17754377516E+03  0.72197518175E+03  0.69980452340E+03 0.  0.
        2    1    3    3  502    0 -0.53013899758E+02  0.29727369714E+03 -0.93603756470E+02  0.31613887425E+03  0.25500000920E-02 0.  1.
       -2    1    3    3    0  502  0.53013899758E+02 -0.29727369714E+03  0.27114753163E+03  0.40583630751E+03  0.25500000920E-02 0. -1.
</event>
<event>
 5   0  0.7013526E-04  0.6991830E+03  0.7818609E-02  0.9718630E-01
        1   -1    0    0  501    0  0.00000000000E+00  0.00000000000E+00  0.67591858991E+03  0.67591858993E+03  0.50400001928E-02 0. -1.
       -1   -1    0    0    0  501  0.00000000000E+00  0.00000000000E+00 -0.18081202519E+03  0.18081202526E+03  0.50400001928E-02 0.  1.
    10030    2    1    2    0    0  0.00000000000E+00  0.00000000000E+00  0.49510656472E+03  0.85673061519E+03  0.69918297790E+03 0.  0.
        1    1    3    3  502    0  0.90216638398E+02 -0.11817808127E+03  0.63524831515E+03  0.65241514594E+03  0.50400001928E-02 0. -1.
       -1    1    3    3    0  502 -0.90216638398E+02  0.11817808127E+03 -0.14014175042E+03  0.20431546925E+03  0.50400001928E-02 0.  1.
</event>
<event>
 5   0  0.7570633E-04  0.6999620E+03  0.7818609E-02  0.9717297E-01
        1   -1    0    0  501    0  0.00000000000E+00  0.00000000000E+00  0.10262860270E+04  0.10262860270E+04  0.50400001928E-02 0.  1.
       -1   -1    0    0    0  501  0.00000000000E+00  0.00000000000E+00 -0.11934946788E+03  0.11934946798E+03  0.50400001928E-02 0. -1.
    10030    2    1    2    0    0  0.00000000000E+00  0.00000000000E+00  0.90693655908E+03  0.11456354950E+04  0.69996197404E+03 0.  0.
        5    1    3    3  502    0  0.56935573435E+02  0.34439914226E+03  0.49396398264E+03  0.60487596651E+03  0.46999998093E+01 0. -1.
       -5    1    3    3    0  502 -0.56935573435E+02 -0.34439914226E+03  0.41297257644E+03  0.54075952844E+03  0.46999998093E+01 0.  1.
</event>
<event>
 5   0  0.7013526E-04  0.6993229E+03  0.7818609E-02  0.9718391E-01
        1   -1    0    0  501    0  0.00000000000E+00  0.00000000000E+00  0.31776731308E+03  0.31776731312E+03  0.50400001928E-02 0. -1.
       -1   -1    0    0    0  501  0.00000000000E+00  0.00000000000E+00 -0.38475675626E+03  0.38475675630E+03  0.50400001928E-02 0.  1.
    10030    2    1    2    0    0  0.00000000000E+00  0.00000000000E+00 -0.66989443184E+02  0.70252406942E+03  0.69932287436E+03 0.  0.
        1    1    3    3  502    0  0.15530462522E+03  0.31137610824E+03 -0.68127352495E+02  0.35456444207E+03  0.50400001928E-02 0. -1.
       -1    1    3    3    0  502 -0.15530462522E+03 -0.31137610824E+03  0.11379093110E+01  0.34795962734E+03  0.50400001928E-02 0.  1.
</event>
<event>
 5   0  0.1282546E-03  0.6996587E+03  0.7818609E-02  0.9717816E-01
       -2   -1    0    0    0  501  0.00000000000E+00  0.00000000000E+00  0.11751217575E+03  0.11751217578E+03  0.25500000920E-02 0.  1.
        2   -1    0    0  501    0  0.00000000000E+00  0.00000000000E+00 -0.10414290217E+04  0.10414290217E+04  0.25500000920E-02 0. -1.
    10030    2    1    2    0    0  0.00000000000E+00  0.00000000000E+00 -0.92391684597E+03  0.11589411975E+04  0.69965874609E+03 0.  0.
        5    1    3    3  502    0  0.83500876283E+02  0.30939890734E+03 -0.69420506271E+03  0.76461940813E+03  0.46999998093E+01 0.  1.
       -5    1    3    3    0  502 -0.83500876283E+02 -0.30939890734E+03 -0.22971178326E+03  0.39432178936E+03  0.46999998093E+01 0. -1.
</event>
<event>
 5   0  0.1224048E-03  0.7002974E+03  0.7818609E-02  0.9716724E-01
       -2   -1    0    0    0  501  0.00000000000E+00  0.00000000000E+00  0.88904670408E+03  0.88904670408E+03  0.25500000920E-02 0. -1.
        2   -1    0    0  501    0  0.00000000000E+00  0.00000000000E+00 -0.13790512617E+03  0.13790512620E+03  0.25500000920E-02 0.  1.
    10030    2    1    2    0    0  0.00000000000E+00  0.00000000000E+00  0.75114157790E+03  0.10269518303E+04  0.70029735945E+03 0.  0.
        3    1    3    3  502    0  0.57746686425E+02 -0.19578822725E+03 -0.41624568622E+02  0.20832744572E+03  0.10100000352E+00 0.  1.
       -3    1    3    3    0  502 -0.57746686425E+02  0.19578822725E+03  0.79276614652E+03  0.81862438456E+03  0.10100000352E+00 0. -1.
</event>
<event>
 5   0  0.1282546E-03  0.6984061E+03  0.7818609E-02  0.9719962E-01
       -2   -1    0    0    0  501  0.00000000000E+00  0.00000000000E+00  0.10949034770E+03  0.10949034773E+03  0.25500000920E-02 0.  1.
        2   -1    0    0  501    0  0.00000000000E+00  0.00000000000E+00 -0.11137306731E+04  0.11137306731E+04  0.25500000920E-02 0. -1.
    10030    2    1    2    0    0  0.00000000000E+00  0.00000000000E+00 -0.10042403254E+04  0.12232210208E+04  0.69840606716E+03 0.  0.
        5    1    3    3  502    0  0.18440606662E+03 -0.26531569024E+03 -0.73396471566E+03  0.80195031437E+03  0.46999998093E+01 0. -1.
       -5    1    3    3    0  502 -0.18440606662E+03  0.26531569024E+03 -0.27027560972E+03  0.42127070644E+03  0.46999998093E+01 0.  1.
</event>
<event>
 5   0  0.7459843E-04  0.6996135E+03  0.7818609E-02  0.9717893E-01
       -1   -1    0    0    0  501  0.00000000000E+00  0.00000000000E+00  0.17008583044E+03  0.17008583052E+03  0.50400001928E-02 0.  1.
        1   -1    0    0  501    0  0.00000000000E+00  0.00000000000E+00 -0.71942939360E+03  0.71942939361E+03  0.50400001928E-02 0. -1.
    10030    2    1    2    0    0  0.00000000000E+00  0.00000000000E+00 -0.54934356316E+03  0.88951522413E+03  0.69961345297E+03 0.  0.
        2    1    3    3  502    0 -0.41352775955E+02 -0.33598234416E+03 -0.38675003198E+03  0.51397448858E+03  0.25500000920E-02 0.  1.
       -2    1    3    3    0  502  0.41352775955E+02  0.33598234416E+03 -0.16259353117E+03  0.37554073555E+03  0.25500000920E-02 0. -1.
</event>
<event>
 5   0  0.1243087E-03  0.7000373E+03  0.7818609E-02  0.9717168E-01
       -2   -1    0    0    0  501  0.00000000000E+00  0.00000000000E+00  0.61533875577E+02  0.61533875630E+02  0.25500000920E-02 0.  1.
        2   -1    0    0  501    0  0.00000000000E+00  0.00000000000E+00 -0.19909858043E+04  0.19909858043E+04  0.25500000920E-02 0. -1.
    10030    2    1    2    0    0  0.00000000000E+00  0.00000000000E+00 -0.19294519288E+04  0.20525196800E+04  0.70003734991E+03 0.  0.
        4    1    3    3  502    0 -0.15639516740E+03  0.54893033863E+02 -0.60834025953E+02  0.17656467701E+03  0.12699999809E+01 0.  1.
       -4    1    3    3    0  502  0.15639516740E+03 -0.54893033863E+02 -0.18686179028E+04  0.18759550030E+04  0.12699999809E+01 0. -1.
</event>
<event>
 5   0  0.7013526E-04  0.6999336E+03  0.7818609E-02  0.9717346E-01
        1   -1    0    0  501    0  0.00000000000E+00  0.00000000000E+00  0.70185202235E+03  0.70185202237E+03  0.50400001928E-02 0. -1.
       -1   -1    0    0    0  501  0.00000000000E+00  0.00000000000E+00 -0.17450508275E+03  0.17450508283E+03  0.50400001928E-02 0.  1.
    10030    2    1    2    0    0  0.00000000000E+00  0.00000000000E+00  0.52734693960E+03  0.87635710520E+03  0.69993355479E+03 0.  0.
        1    1    3    3  502    0 -0.65721971678E+02 -0.17529589598E+03 -0.10653926137E+03  0.21540344229E+03  0.50400001928E-02 0.  1.
       -1    1    3    3    0  502  0.65721971678E+02  0.17529589598E+03  0.63388620097E+03  0.66095366291E+03  0.50400001928E-02 0. -1.
</event>
<event>
 5   0  0.1224048E-03  0.6999327E+03  0.7818609E-02  0.9717347E-01
        2   -1    0    0  501    0  0.00000000000E+00  0.00000000000E+00  0.14194486540E+04  0.14194486540E+04  0.25500000920E-02 0. -1.
       -2   -1    0    0    0  501  0.00000000000E+00  0.00000000000E+00 -0.86284510324E+02  0.86284510362E+02  0.25500000920E-02 0.  1.
    10030    2    1    2    0    0  0.00000000000E+00  0.00000000000E+00  0.13331641437E+04  0.15057331644E+04  0.69993265983E+03 0.  0.
        3    1    3    3  502    0  0.15988388780E+03  0.11847776803E+03  0.47272667279E+02  0.20453497102E+03  0.10100000352E+00 0.  1.
       -3    1    3    3    0  502 -0.15988388780E+03 -0.11847776803E+03  0.12858914764E+04  0.13011981934E+04  0.10100000352E+00 0. -1.
</event>
<event>
 5   0  0.7013526E-04  0.6998460E+03  0.7818609E-02  0.9717496E-01
       -1   -1    0    0    0  501  0.00000000000E+00  0.00000000000E+00  0.14346376427E+03  0.14346376436E+03  0.50400001928E-02 0.  1.
        1   -1    0    0  501    0  0.00000000000E+00  0.00000000000E+00 -0.85349848905E+03  0.85349848906E+03  0.50400001928E-02 0. -1.
    10030    2    1    2    0    0  0.00000000000E+00  0.00000000000E+00 -0.71003472478E+03  0.99696225342E+03  0.69984600045E+03 0.  0.
        1    1    3    3  502    0 -0.34494470812E+03 -0.41474577706E+02 -0.29561000531E+03  0.45617131379E+03  0.50400001928E-02 0.  1.
       -1    1    3    3    0  502  0.34494470812E+03  0.41474577706E+02 -0.41442471947E+03  0.54079093963E+03  0.50400001928E-02 0. -1.
</event>
<event>
 5   0  0.1282546E-03  0.7000226E+03  0.7818609E-02  0.9717194E-01
       -2   -1    0    0    0  501  0.00000000000E+00  0.00000000000E+00  0.63230472981E+03  0.63230472981E+03  0.25500000920E-02 0.  1.
        2   -1    0    0  501    0  0.00000000000E+00  0.00000000000E+00 -0.19374821502E+03  0.19374821503E+03  0.25500000920E-02 0. -1.
    10030    2    1    2    0    0  0.00000000000E+00  0.00000000000E+00  0.43855651479E+03  0.82605294485E+03  0.70002260751E+03 0.  0.
        5    1    3    3  502    0  0.23115914609E+03 -0.14230852447E+02  0.52890884913E+03  0.57741123012E+03  0.46999998093E+01 0.  1.
       -5    1    3    3    0  502 -0.23115914609E+03  0.14230852447E+02 -0.90352334337E+02  0.24864171473E+03  0.46999998093E+01 0. -1.
</event>
<event>
 5   0  0.7570633E-04  0.7000522E+03  0.7818609E-02  0.9717143E-01
        1   -1    0    0  501    0  0.00000000000E+00  0.00000000000E+00  0.26072795499E+03  0.26072795504E+03  0.50400001928E-02 0. -1.
       -1   -1    0    0    0  501  0.00000000000E+00  0.00000000000E+00 -0.46990843439E+03  0.46990843442E+03  0.50400001928E-02 0.  1.
    10030    2    1    2    0    0  0.00000000000E+00  0.00000000000E+00 -0.20918047940E+03  0.73063638946E+03  0.70005218422E+03 0.  0.
        5    1    3    3  502    0 -0.48998116697E+02  0.52288466173E+02  0.25295688914E+03  0.26295280355E+03  0.46999998093E+01 0. -1.
       -5    1    3    3    0  502  0.48998116697E+02 -0.52288466173E+02 -0.46213736853E+03  0.46768358591E+03  0.46999998093E+01 0.  1.
</event>
<event>
 5   0  0.7572415E-04  0.7001547E+03  0.7818609E-02  0.9716968E-01
        1   -1    0    0  501    0  0.00000000000E+00  0.00000000000E+00  0.47218548658E+03  0.47218548660E+03  0.50400001928E-02 0.  1.
       -1   -1    0    0    0  501  0.00000000000E+00  0.00000000000E+00 -0.25954666181E+03  0.25954666185E+03  0.50400001928E-02 0. -1.
    10030    2    1    2    0    0  0.00000000000E+00  0.00000000000E+00  0.21263882477E+03  0.73173214846E+03  0.70015474524E+03 0.  0.
        4    1    3    3  502    0  0.14602234005E+03  0.14005767325E+03  0.40488524585E+03  0.45262827004E+03  0.12699999809E+01 0.  1.
       -4    1    3    3    0  502 -0.14602234005E+03 -0.14005767325E+03 -0.19224642108E+03  0.27910387842E+03  0.12699999809E+01 0. -1.
</event>
<event>
 5   0  0.1222679E-03  0.6998499E+03  0.7818609E-02  0.9717489E-01
        2   -1    0    0  501    0  0.00000000000E+00  0.00000000000E+00  0.36558584072E+03  0.36558584073E+03  0.25500000920E-02 0.  1.
       -2   -1    0    0    0  501  0.00000000000E+00  0.00000000000E+00 -0.33493492670E+03  0.33493492671E+03  0.25500000920E-02 0. -1.
    10030    2    1    2    0    0  0.00000000000E+00  0.00000000000E+00  0.30650914020E+02  0.70052076745E+03  0.69984988897E+03 0.  0.
        2    1    3    3  502    0 -0.11929361838E+03 -0.18425549082E+03  0.28810534227E+03  0.36219572269E+03  0.25500000920E-02 0.  1.
       -2    1    3    3    0  502  0.11929361838E+03  0.18425549082E+03 -0.25745442825E+03  0.33832504476E+03  0.25500000920E-02 0. -1.
</event>
<event>
 5   0  0.1224048E-03  0.7012711E+03  0.7818609E-02  0.9715061E-01
       -2   -1    0    0    0  501  0.00000000000E+00  0.00000000000E+00  0.44268409849E+03  0.44268409850E+03  0.25500000920E-02 0. -1.
        2   -1    0    0  501    0  0.00000000000E+00  0.00000000000E+00 -0.27772693763E+03  0.27772693764E+03  0.25500000920E-02 0.  1.
    10030    2    1    2    0    0  0.00000000000E+00  0.00000000000E+00  0.16495716086E+03  0.72041103614E+03  0.70127112879E+03 0.  0.
        3    1    3    3  502    0  0.29956682286E+03 -0.16912732289E+03  0.15216023320E+03  0.37616097548E+03  0.10100000352E+00 0. -1.
       -3    1    3    3    0  502 -0.29956682286E+03  0.16912732289E+03  0.12796927667E+02  0.34425006066E+03  0.10100000352E+00 0.  1.
</event>
<event>
 5   0  0.7574241E-04  0.6984140E+03  0.7818609E-02  0.9719948E-01
        1   -1    0    0  501    0  0.00000000000E+00  0.00000000000E+00  0.65064585288E+03  0.65064585290E+03  0.50400001928E-02 0. -1.
       -1   -1    0    0    0  501  0.00000000000E+00  0.00000000000E+00 -0.18742229319E+03  0.18742229326E+03  0.50400001928E-02 0.  1.
    10030    2    1    2    0    0  0.00000000000E+00  0.00000000000E+00  0.46322355969E+03  0.83806814616E+03  0.69841402574E+03 0.  0.
        3    1    3    3  502    0  0.12140483875E+03  0.66520046539E+02  0.61631321550E+03  0.63166924989E+03  0.10100000352E+00 0. -1.
       -3    1    3    3    0  502 -0.12140483875E+03 -0.66520046539E+02 -0.15308965581E+03  0.20639889626E+03  0.10100000352E+00 0.  1.
</event>
<event>
 5   0  0.4936000E-04  0.7001131E+03  0.7818609E-02  0.9717039E-01
        4   -1    0    0  501    0  0.00000000000E+00  0.00000000000E+00  0.62529916415E+03  0.62530045385E+03  0.12699999809E+01 0.  1.
       -4   -1    0    0    0  501  0.00000000000E+00  0.00000000000E+00 -0.19596597973E+03  0.19597009494E+03  0.12699999809E+01 0. -1.
    10030    2    1    2    0    0  0.00000000000E+00  0.00000000000E+00  0.42933318442E+03  0.82127054879E+03  0.70011308448E+03 0.  0.
        4    1    3    3  502    0  0.71383963766E+02 -0.33628738371E+03  0.29206234600E+03  0.45109522451E+03  0.12699999809E+01 0. -1.
       -4    1    3    3    0  502 -0.71383963766E+02  0.33628738371E+03  0.13727083842E+03  0.37017532428E+03  0.12699999809E+01 0.  1.
</event>
<event>
 5   0  0.1243087E-03  0.6992888E+03  0.7818609E-02  0.9718449E-01
       -2   -1    0    0    0  501  0.00000000000E+00  0.00000000000E+00  0.12626406376E+03  0.12626406379E+03  0.25500000920E-02 0.  1.
        2   -1    0    0  501    0  0.00000000000E+00  0.00000000000E+00 -0.96821839956E+03  0.96821839956E+03  0.25500000920E-02 0. -1.
    10030    2    1    2    0    0  0.00000000000E+00  0.00000000000E+00 -0.84195433580E+03  0.10944824634E+04  0.69928875224E+03 0.  0.
        4    1    3    3  502    0 -0.33154385899E+03 -0.10430639312E+03 -0.36141096217E+03  0.50141863802E+03  0.12699999809E+01 0. -1.
       -4    1    3    3    0  502  0.33154385899E+03  0.10430639312E+03 -0.48054337363E+03  0.59306382533E+03  0.12699999809E+01 0.  1.
</event>
<event>
 5   0  0.1222679E-03  0.7005195E+03  0.7818609E-02  0.9716344E-01
        2   -1    0    0  501    0  0.00000000000E+00  0.00000000000E+00  0.21679537170E+04  0.21679537170E+04  0.25500000920E-02 0.  1.
       -2   -1    0    0    0  501  0.00000000000E+00  0.00000000000E+00 -0.56588799397E+02  0.56588799454E+02  0.25500000920E-02 0. -1.
    10030    2    1    2    0    0  0.00000000000E+00  0.00000000000E+00  0.21113649176E+04  0.22245425165E+04  0.70051951595E+03 0.  0.
        2    1    3    3  502    0  0.83810996651E+02 -0.50435655896E+02  0.21236999915E+04  0.21259514793E+04  0.25500000920E-02 0.  1.
       -2    1    3    3    0  502 -0.83810996651E+02  0.50435655896E+02 -0.12335073908E+02  0.98591037119E+02  0.25500000920E-02 0. -1.
</event>
<event>
 5   0  0.4936000E-04  0.6983204E+03  0.7818609E-02  0.9720109E-01
        4   -1    0    0  501    0  0.00000000000E+00  0.00000000000E+00  0.42206025523E+03  0.42206216597E+03  0.12699999809E+01 0. -1.
       -4   -1    0    0    0  501  0.00000000000E+00  0.00000000000E+00 -0.28884780054E+03  0.28885059248E+03  0.12699999809E+01 0.  1.
    10030    2    1    2    0    0  0.00000000000E+00  0.00000000000E+00  0.13321245469E+03  0.71091275846E+03  0.69832040787E+03 0.  0.
        5    1    3    3  502    0 -0.19521821367E+03 -0.30268112394E+01 -0.22804589858E+03  0.30024379160E+03  0.46999998093E+01 0.  1.
       -5    1    3    3    0  502  0.19521821367E+03  0.30268112394E+01  0.36125835327E+03  0.41066896686E+03  0.46999998093E+01 0. -1.
</event>
<event>
 5   0  0.1222679E-03  0.7003931E+03  0.7818609E-02  0.9716560E-01
       -2   -1    0    0    0  501  0.00000000000E+00  0.00000000000E+00  0.10298164589E+04  0.10298164589E+04  0.25500000920E-02 0.  1.
        2   -1    0    0  501    0  0.00000000000E+00  0.00000000000E+00 -0.11908688225E+03  0.11908688228E+03  0.25500000920E-02 0. -1.
    10030    2    1    2    0    0  0.00000000000E+00  0.00000000000E+00  0.91072957667E+03  0.11489033412E+04  0.70039312220E+03 0.  0.
        2    1    3    3  502    0  0.33507049261E+03  0.75703122118E+02  0.34369390390E+03  0.48593075360E+03  0.25500000920E-02 0. -1.
       -2    1    3    3    0  502 -0.33507049261E+03 -0.75703122118E+02  0.56703567277E+03  0.66297258761E+03  0.25500000920E-02 0.  1.
</event>
<event>
 5   0  0.1282546E-03  0.6996865E+03  0.7818609E-02  0.9717768E-01
       -2   -1    0    0    0  501  0.00000000000E+00  0.00000000000E+00  0.19115098231E+03  0.19115098232E+03  0.25500000920E-02 0.  1.
        2   -1    0    0  501    0  0.00000000000E+00  0.00000000000E+00 -0.64028076425E+03  0.64028076426E+03  0.25500000920E-02 0. -1.
    10030    2    1    2    0    0  0.00000000000E+00  0.00000000000E+00 -0.44912978194E+03  0.83143174658E+03  0.69968649279E+03 0.  0.
        5    1    3    3  502    0 -0.47139852205E+02 -0.19468692110E+03 -0.56534379474E+03  0.59980068286E+03  0.46999998093E+01 0. -1.
       -5    1    3    3    0  502  0.47139852205E+02  0.19468692110E+03  0.11621401279E+03  0.23163106372E+03  0.46999998093E+01 0.  1.
</event>
<event>
 5   0  0.1243087E-03  0.6998651E+03  0.7818609E-02  0.9717463E-01
       -2   -1    0    0    0  501  0.00000000000E+00  0.00000000000E+00  0.26456949571E+03  0.26456949572E+03  0.25500000920E-02 0. -1.
        2   -1    0    0  501    0  0.00000000000E+00  0.00000000000E+00 -0.46283784653E+03  0.46283784654E+03  0.25500000920E-02 0.  1.
    10030    2    1    2    0    0  0.00000000000E+00  0.00000000000E+00 -0.19826835082E+03  0.72740734227E+03  0.69986506031E+03 0.  0.
        4    1    3    3  502    0  0.43955603544E+02  0.28259787221E+03 -0.30870641678E+03  0.42082646913E+03  0.12699999809E+01 0.  1.
       -4    1    3    3    0  502 -0.43955603544E+02 -0.28259787221E+03  0.11043806595E+03  0.30658087314E+03  0.12699999809E+01 0. -1.
</event>
<event>
 5   0  0.1222679E-03  0.7003253E+03  0.7818609E-02  0.9716676E-01
       -2   -1    0    0    0  501  0.00000000000E+00  0.00000000000E+00  0.10466396640E+03  0.10466396643E+03  0.25500000920E-02 0. -1.
        2   -1    0    0  501    0  0.00000000000E+00  0.00000000000E+00 -0.11715002887E+04  0.11715002887E+04  0.25500000920E-02 0.  1.
    10030    2    1    2    0    0  0.00000000000E+00  0.00000000000E+00 -0.10668363223E+04  0.12761642552E+04  0.70032525837E+03 0.  0.
        2    1    3    3  502    0 -0.46340559607E+02 -0.13362151200E+03 -0.11171390706E+04  0.11260558862E+04  0.25500000920E-02 0.  1.
       -2    1    3    3    0  502  0.46340559607E+02  0.13362151200E+03  0.50302748239E+02  0.15010836893E+03  0.25500000920E-02 0. -1.
</event>
<event>
 5   0  0.1282546E-03  0.6997327E+03  0.7818609E-02  0.9717689E-01
        2   -1    0    0  501    0  0.00000000000E+00  0.00000000000E+00  0.89876412321E+03  0.89876412321E+03  0.25500000920E-02 0.  1.
       -2   -1    0    0    0  501  0.00000000000E+00  0.00000000000E+00 -0.13619419454E+03  0.13619419457E+03  0.25500000920E-02 0. -1.
    10030    2    1    2    0    0  0.00000000000E+00  0.00000000000E+00  0.76256992867E+03  0.10349583178E+04  0.69973267998E+03 0.  0.
        5    1    3    3  502    0 -0.32973915054E+02 -0.30276845980E+03  0.63587676314E+03  0.70506550563E+03  0.46999998093E+01 0.  1.
       -5    1    3    3    0  502  0.32973915054E+02  0.30276845980E+03  0.12669316552E+03  0.32989281215E+03  0.46999998093E+01 0. -1.
</event>
<event>
 5   0  0.7013526E-04  0.7000317E+03  0.7818609E-02  0.9717178E-01
       -1   -1    0    0    0  501  0.00000000000E+00  0.00000000000E+00  0.28728638791E+03  0.28728638795E+03  0.50400001928E-02 0. -1.
        1   -1    0    0  501    0  0.00000000000E+00  0.00000000000E+00 -0.42644245025E+03  0.42644245028E+03  0.50400001928E-02 0.  1.
    10030    2    1    2    0    0  0.00000000000E+00  0.00000000000E+00 -0.13915606235E+03  0.71372883823E+03  0.70003174559E+03 0.  0.
        1    1    3    3  502    0  0.14898646852E+03  0.12708667354E+03  0.22620715883E+03  0.29919503526E+03  0.50400001928E-02 0. -1.
       -1    1    3    3    0  502 -0.14898646852E+03 -0.12708667354E+03 -0.36536322118E+03  0.41453380297E+03  0.50400001928E-02 0.  1.
</event>
<event>
 5   0  0.1224048E-03  0.6998638E+03  0.7818609E-02  0.9717465E-01
       -2   -1    0    0    0  501  0.00000000000E+00  0.00000000000E+00  0.69840123414E+02  0.69840123460E+02  0.25500000920E-02 0. -1.
        2   -1    0    0  501    0  0.00000000000E+00  0.00000000000E+00 -0.17533237855E+04  0.17533237855E+04  0.25500000920E-02 0.  1.
    10030    2    1    2    0    0  0.00000000000E+00  0.00000000000E+00 -0.16834836620E+04  0.18231639089E+04  0.69986384277E+03 0.  0.
        3    1    3    3  502    0 -0.15284597963E+03 -0.15324425408E+02 -0.22687306879E+02  0.15527863858E+03  0.10100000352E+00 0. -1.
       -3    1    3    3    0  502  0.15284597963E+03  0.15324425408E+02 -0.16607963552E+04  0.16678852703E+04  0.10100000352E+00 0.  1.
</event>
<event>
 5   0  0.7013526E-04  0.7000656E+03  0.7818609E-02  0.9717120E-01
        1   -1    0    0  501    0  0.00000000000E+00  0.00000000000E+00  0.36017909117E+03  0.36017909121E+03  0.50400001928E-02 0. -1.
       -1   -1    0    0    0  501  0.00000000000E+00  0.00000000000E+00 -0.34017234118E+03  0.34017234122E+03  0.50400001928E-02 0.  1.
    10030    2    1    2    0    0  0.00000000000E+00  0.00000000000E+00  0.20006749991E+02  0.70035143243E+03  0.70006561039E+03 0.  0.
        1    1    3    3  502    0 -0.18879625599E+03  0.32635655414E+02 -0.28305624127E+03  0.34180396140E+03  0.50400001928E-02 0.  1.
       -1    1    3    3    0  502  0.18879625599E+03 -0.32635655414E+02  0.30306299127E+03  0.35854747103E+03  0.50400001928E-02 0. -1.
</event>
<event>
 5   0  0.1222679E-03  0.6996508E+03  0.7818609E-02  0.9717830E-01
       -2   -1    0    0    0  501  0.00000000000E+00  0.00000000000E+00  0.19213253844E+03  0.19213253846E+03  0.25500000920E-02 0. -1.
        2   -1    0    0  501    0  0.00000000000E+00  0.00000000000E+00 -0.63694476615E+03  0.63694476616E+03  0.25500000920E-02 0.  1.
    10030    2    1    2    0    0  0.00000000000E+00  0.00000000000E+00 -0.44481222771E+03  0.82907730462E+03  0.69965081228E+03 0.  0.
        2    1    3    3  502    0 -0.11502518527E+03  0.44797225596E+02 -0.61027949101E+03  0.62263845193E+03  0.25500000920E-02 0.  1.
       -2    1    3    3    0  502  0.11502518527E+03 -0.44797225596E+02  0.16546726330E+03  0.20643885269E+03  0.25500000920E-02 0. -1.
</event>
<event>
 5   0  0.1282546E-03  0.7012914E+03  0.7818609E-02  0.9715026E-01
       -2   -1    0    0    0  501  0.00000000000E+00  0.00000000000E+00  0.57116799711E+02  0.57116799768E+02  0.25500000920E-02 0.  1.
        2   -1    0    0  501    0  0.00000000000E+00  0.00000000000E+00 -0.21526489234E+04  0.21526489234E+04  0.25500000920E-02 0. -1.
    10030    2    1    2    0    0  0.00000000000E+00  0.00000000000E+00 -0.20955321236E+04  0.22097657231E+04  0.70129143005E+03 0.  0.
        5    1    3    3  502    0  0.58001247593E+02 -0.98616602517E+02 -0.20920770271E+04  0.20952082847E+04  0.46999998093E+01 0. -1.
       -5    1    3    3    0  502 -0.58001247593E+02  0.98616602517E+02 -0.34550965864E+01  0.11455743845E+03  0.46999998093E+01 0.  1.
</event>
<event>
 5   0  0.7013526E-04  0.7012663E+03  0.7818609E-02  0.9715069E-01
        1   -1    0    0  501    0  0.00000000000E+00  0.00000000000E+00  0.58004529904E+03  0.58004529906E+03  0.50400001928E-02 0. -1.
       -1   -1    0    0    0  501  0.00000000000E+00  0.00000000000E+00 -0.21195515072E+03  0.21195515078E+03  0.50400001928E-02 0.  1.
    10030    2    1    2    0    0  0.00000000000E+00  0.00000000000E+00  0.36809014832E+03  0.79200044985E+03  0.70126625134E+03 0.  0.
        1    1    3    3  502    0  0.15000110938E+02  0.34560030615E+03  0.11937339830E+03  0.36594341528E+03  0.50400001928E-02 0. -1.
       -1    1    3    3    0  502 -0.15000110938E+02 -0.34560030615E+03  0.24871675002E+03  0.42605703457E+03  0.50400001928E-02 0.  1.
</event>
<event>
 5   0  0.7572415E-04  0.6997505E+03  0.7818609E-02  0.9717659E-01
       -1   -1    0    0    0  501  0.00000000000E+00  0.00000000000E+00  0.12434163622E+03  0.12434163632E+03  0.50400001928E-02 0. -1.
        1   -1    0    0  501    0  0.00000000000E+00  0.00000000000E+00 -0.98448662434E+03  0.98448662435E+03  0.50400001928E-02 0.  1.
    10030    2    1    2    0    0  0.00000000000E+00  0.00000000000E+00 -0.86014498812E+03  0.11088282607E+04  0.69975046343E+03 0.  0.
        4    1    3    3  502    0  0.37857057120E+02 -0.75765207622E+02 -0.96799297929E+03  0.97169210366E+03  0.12699999809E+01 0.  1.
       -4    1    3    3    0  502 -0.37857057120E+02  0.75765207622E+02  0.10784799117E+03  0.13713615701E+03  0.12699999809E+01 0. -1.
</event>
<event>
 5   0  0.7574241E-04  0.7002615E+03  0.7818609E-02  0.9716785E-01
        1   -1    0    0  501    0  0.00000000000E+00  0.00000000000E+00  0.19508349189E+03  0.19508349196E+03  0.50400001928E-02 0.  1.
       -1   -1    0    0    0  501  0.00000000000E+00  0.00000000000E+00 -0.62840548051E+03  0.62840548054E+03  0.50400001928E-02 0. -1.
    10030    2    1    2    0    0  0.00000000000E+00  0.00000000000E+00 -0.43332198862E+03  0.82348897249E+03  0.70026148115E+03 0.  0.
        3    1    3    3  502    0 -0.39447112019E+02  0.33927663784E+03 -0.30719426001E+03  0.45938332057E+03  0.10100000352E+00 0. -1.
       -3    1    3    3    0  502  0.39447112019E+02 -0.33927663784E+03 -0.12612772861E+03  0.36410565192E+03  0.10100000352E+00 0.  1.
</event>
<event>
 5   0  0.7570633E-04  0.7006256E+03  0.7818609E-02  0.9716163E-01
        1   -1    0    0  501    0  0.00000000000E+00  0.00000000000E+00  0.31197978816E+03  0.31197978820E+03  0.50400001928E-02 0.  1.
       -1   -1    0    0    0  501  0.00000000000E+00  0.00000000000E+00 -0.39335582994E+03  0.39335582997E+03  0.50400001928E-02 0. -1.
    10030    2    1    2    0    0  0.00000000000E+00  0.00000000000E+00 -0.81376041775E+02  0.70533561817E+03  0.70062563048E+03 0.  0.
        5    1    3    3  502    0  0.81034017118E+02  0.34074754306E+03 -0.36011527313E+02  0.35212827227E+03  0.46999998093E+01 0. -1.
       -5    1    3    3    0  502 -0.81034017118E+02 -0.34074754306E+03 -0.45364514462E+02  0.35320734591E+03  0.46999998093E+01 0.  1.
</event>
<event>
 5   0  0.7570633E-04  0.6995645E+03  0.7818609E-02  0.9717977E-01
       -1   -1    0    0    0  501  0.00000000000E+00  0.00000000000E+00  0.71801922292E+03  0.71801922293E+03  0.50400001928E-02 0. -1.
        1   -1    0    0  501    0  0.00000000000E+00  0.00000000000E+00 -0.17039604425E+03  0.17039604433E+03  0.50400001928E-02 0.  1.
    10030    2    1    2    0    0  0.00000000000E+00  0.00000000000E+00  0.54762317866E+03  0.88841526726E+03  0.69956453691E+03 0.  0.
        5    1    3    3  502    0 -0.83688072828E+02  0.32112562646E+03  0.13353945187E+03  0.35774325529E+03  0.46999998093E+01 0.  1.
       -5    1    3    3    0  502  0.83688072828E+02 -0.32112562646E+03  0.41408372679E+03  0.53067201197E+03  0.46999998093E+01 0. -1.
</event>
<event>
 5   0  0.7574241E-04  0.6987122E+03  0.7818609E-02  0.9719437E-01
        1   -1    0    0  501    0  0.00000000000E+00  0.00000000000E+00  0.33245493039E+03  0.33245493043E+03  0.50400001928E-02 0. -1.
       -1   -1    0    0    0  501  0.00000000000E+00  0.00000000000E+00 -0.36711643457E+03  0.36711643460E+03  0.50400001928E-02 0.  1.
    10030    2    1    2    0    0  0.00000000000E+00  0.00000000000E+00 -0.34661504180E+02  0.69957136503E+03  0.69871215454E+03 0.  0.
        3    1    3    3  502    0  0.32975643294E+03 -0.47384044756E+02  0.87989408132E+02  0.34456740836E+03  0.10100000352E+00 0. -1.
       -3    1    3    3    0  502 -0.32975643294E+03  0.47384044756E+02 -0.12265091231E+03  0.35500395667E+03  0.10100000352E+00 0.  1.
</event>
<event>
 5   0  0.1282546E-03  0.7002491E+03  0.7818609E-02  0.9716806E-01
       -2   -1    0    0    0  501  0.00000000000E+00  0.00000000000E+00  0.23456893795E+03  0.23456893796E+03  0.25500000920E-02 0.  1.
        2   -1    0    0  501    0  0.00000000000E+00  0.00000000000E+00 -0.52260631132E+03  0.52260631132E+03  0.25500000920E-02 0. -1.
    10030    2    1    2    0    0  0.00000000000E+00  0.00000000000E+00 -0.28803737337E+03  0.75717524929E+03  0.70024911972E+03 0.  0.
        5    1    3    3  502    0  0.34387688608E+03  0.18298936979E+02 -0.21222558049E+03  0.40453423945E+03  0.46999998093E+01 0. -1.
       -5    1    3    3    0  502 -0.34387688608E+03 -0.18298936979E+02 -0.75811792878E+02  0.35264100983E+03  0.46999998093E+01 0.  1.
</event>
<event>
 5   0  0.4936000E-04  0.7000672E+03  0.7818609E-02  0.9717117E-01
       -3   -1    0    0    0  501  0.00000000000E+00  0.00000000000E+00  0.90143124546E+03  0.90143125112E+03  0.10100000352E+00 0. -1.
        3   -1    0    0  501    0  0.00000000000E+00  0.00000000000E+00 -0.13592108310E+03  0.13592112062E+03  0.10100000352E+00 0.  1.
    10030    2    1    2    0    0  0.00000000000E+00  0.00000000000E+00  0.76551016236E+03  0.10373523717E+04  0.70006723569E+03 0.  0.
        3    1    3    3  502    0  0.75476902723E+02 -0.22549818004E+02  0.88812630820E+03  0.89161292423E+03  0.10100000352E+00 0. -1.
       -3    1    3    3    0  502 -0.75476902723E+02  0.22549818004E+02 -0.12261614584E+03  0.14573944751E+03  0.10100000352E+00 0.  1.
</event>
<event>
 5   0  0.7570633E-04  0.6995763E+03  0.7818609E-02  0.9717957E-01
        1   -1    0    0  501    0  0.00000000000E+00  0.00000000000E+00  0.22711772298E+03  0.22711772303E+03  0.50400001928E-02 0. -1.
       -1   -1    0    0    0  501  0.00000000000E+00  0.00000000000E+00 -0.53871504846E+03  0.53871504849E+03  0.50400001928E-02 0.  1.
    10030    2    1    2    0    0  0.00000000000E+00  0.00000000000E+00 -0.31159732548E+03  0.76583277152E+03  0.69957625795E+03 0.  0.
        5    1    3    3  502    0 -0.12876439933E+03 -0.62645602955E+02  0.19352329651E+03  0.24078641655E+03  0.46999998093E+01 0. -1.
       -5    1    3    3    0  502  0.12876439933E+03  0.62645602955E+02 -0.50512062199E+03  0.52504635497E+03  0.46999998093E+01 0.  1.
</event>
<event>
 5   0  0.1282546E-03  0.6995169E+03  0.7818609E-02  0.9718059E-01
       -2   -1    0    0    0  501  0.00000000000E+00  0.00000000000E+00  0.12747435527E+03  0.12747435530E+03  0.25500000920E-02 0. -1.
        2   -1    0    0  501    0  0.00000000000E+00  0.00000000000E+00 -0.95965171301E+03  0.95965171301E+03  0.25500000920E-02 0.  1.
    10030    2    1    2    0    0  0.00000000000E+00  0.00000000000E+00 -0.83217735773E+03  0.10871260683E+04  0.69951692880E+03 0.  0.
        5    1    3    3  502    0 -0.12942906365E+03 -0.18216953689E+02 -0.92021742782E+03  0.92946540784E+03  0.46999998093E+01 0.  1.
       -5    1    3    3    0  502  0.12942906365E+03  0.18216953689E+02  0.88040070089E+02  0.15766066046E+03  0.46999998093E+01 0. -1.
</event>
<event>
 5   0  0.7572415E-04  0.7016559E+03  0.7818609E-02  0.9714405E-01
        1   -1    0    0  501    0  0.00000000000E+00  0.00000000000E+00  0.29486263970E+03  0.29486263975E+03  0.50400001928E-02 0. -1.
       -1   -1    0    0    0  501  0.00000000000E+00  0.00000000000E+00 -0.41741550810E+03  0.41741550813E+03  0.50400001928E-02 0.  1.
    10030    2    1    2    0    0  0.00000000000E+00  0.00000000000E+00 -0.12255286840E+03  0.71227814788E+03  0.70165586607E+03 0.  0.
        4    1    3    3  502    0  0.19828521736E+03  0.27454423497E+03 -0.15424376659E+03  0.37213480999E+03  0.12699999809E+01 0.  1.
       -4    1    3    3    0  502 -0.19828521736E+03 -0.27454423497E+03  0.31690898195E+02  0.34014333788E+03  0.12699999809E+01 0. -1.
</event>
<event>
 5   0  0.7570633E-04  0.7002097E+03  0.7818609E-02  0.9716874E-01
       -1   -1    0    0    0  501  0.00000000000E+00  0.00000000000E+00  0.15838904017E+03  0.15838904025E+03  0.50400001928E-02 0.  1.
        1   -1    0    0  501    0  0.00000000000E+00  0.00000000000E+00 -0.77387565893E+03  0.77387565895E+03  0.50400001928E-02 0. -1.
    10030    2    1    2    0    0  0.00000000000E+00  0.00000000000E+00 -0.61548661876E+03  0.93226469920E+03  0.70020974822E+03 0.  0.
        5    1    3    3  502    0 -0.12126746882E+03 -0.93704164010E+02  0.11131200072E+03  0.18946957763E+03  0.46999998093E+01 0.  1.
       -5    1    3    3    0  502  0.12126746882E+03  0.93704164010E+02 -0.72679861948E+03  0.74279512157E+03  0.46999998093E+01 0. -1.
</event>
<event>
 5   0  0.1224048E-03  0.6998914E+03  0.7818609E-02  0.9717418E-01
        2   -1    0    0  501    0  0.00000000000E+00  0.00000000000E+00  0.32240543902E+03  0.32240543903E+03  0.25500000920E-02 0. -1.
       -2   -1    0    0    0  501  0.00000000000E+00  0.00000000000E+00 -0.37983847779E+03  0.37983847780E+03  0.25500000920E-02 0.  1.
    10030    2    1    2    0    0  0.00000000000E+00  0.00000000000E+00 -0.57433038777E+02  0.70224391683E+03  0.69989139499E+03 0.  0.
        3    1    3    3  502    0  0.18377281756E+03 -0.21031649701E+03 -0.24027234236E+03  0.36842405743E+03  0.10100000352E+00 0. -1.
       -3    1    3    3    0  502 -0.18377281756E+03  0.21031649701E+03  0.18283930358E+03  0.33381985939E+03  0.10100000352E+00 0.  1.
</event>
<event>
 5   0  0.1282546E-03  0.6996861E+03  0.7818609E-02  0.9717769E-01
        2   -1    0    0  501    0  0.00000000000E+00  0.00000000000E+00  0.10700835186E+04  0.10700835186E+04  0.25500000920E-02 0.  1.
       -2   -1    0    0    0  501  0.00000000000E+00  0.00000000000E+00 -0.11437440246E+03  0.11437440249E+03  0.25500000920E-02 0. -1.
    10030    2    1    2    0    0  0.00000000000E+00  0.00000000000E+00  0.95570911614E+03  0.11844579211E+04  0.69968610975E+03 0.  0.
        5    1    3    3  502    0  0.29926713386E+03  0.46683589899E+01  0.17133581310E+03  0.34490674368E+03  0.46999998093E+01 0.  1.
       -5    1    3    3    0  502 -0.29926713386E+03 -0.46683589899E+01  0.78437330304E+03  0.83955117742E+03  0.46999998093E+01 0. -1.
</event>
<event>
 5   0  0.7570633E-04  0.7001979E+03  0.7818609E-02  0.9716894E-01
       -1   -1    0    0    0  501  0.00000000000E+00  0.00000000000E+00  0.31396143466E+03  0.31396143470E+03  0.50400001928E-02 0.  1.
        1   -1    0    0  501    0  0.00000000000E+00  0.00000000000E+00 -0.39039591726E+03  0.39039591729E+03  0.50400001928E-02 0. -1.
    10030    2    1    2    0    0  0.00000000000E+00  0.00000000000E+00 -0.76434482598E+02  0.70435735199E+03  0.70019786430E+03 0.  0.
        5    1    3    3  502    0  0.26483182331E+03 -0.15050015386E+03  0.13532128062E+03  0.33334686130E+03  0.46999998093E+01 0.  1.
       -5    1    3    3    0  502 -0.26483182331E+03  0.15050015386E+03 -0.21175576322E+03  0.37101049069E+03  0.46999998093E+01 0. -1.
</event>
<event>
 5   0  0.1243087E-03  0.7000114E+03  0.7818609E-02  0.9717213E-01
       -2   -1    0    0    0  501  0.00000000000E+00  0.00000000000E+00  0.11722638053E+03  0.11722638056E+03  0.25500000920E-02 0. -1.
        2   -1    0    0  501    0  0.00000000000E+00  0.00000000000E+00 -0.10450207402E+04  0.10450207402E+04  0.25500000920E-02 0.  1.
    10030    2    1    2    0    0  0.00000000000E+00  0.00000000000E+00 -0.92779435965E+03  0.11622471208E+04  0.70001142555E+03 0.  0.
        4    1    3    3  502    0  0.25029976891E+03 -0.22834732915E+03 -0.60968390392E+03  0.69750165064E+03  0.12699999809E+01 0.  1.
       -4    1    3    3    0  502 -0.25029976891E+03  0.22834732915E+03 -0.31811045573E+03  0.46474547011E+03  0.12699999809E+01 0. -1.
</event>
<event>
 5   0  0.7013526E-04  0.7008045E+03  0.7818609E-02  0.9715857E-01
        1   -1    0    0  501    0  0.00000000000E+00  0.00000000000E+00  0.93220194702E+03  0.93220194704E+03  0.50400001928E-02 0. -1.
       -1   -1    0    0    0  501  0.00000000000E+00  0.00000000000E+00 -0.13171151561E+03  0.13171151570E+03  0.50400001928E-02 0.  1.
    10030    2    1    2    0    0  0.00000000000E+00  0.00000000000E+00  0.80049043142E+03  0.10639134627E+04  0.70080448444E+03 0.  0.
        1    1    3    3  502    0  0.28689548745E+03  0.68612560161E+02  0.68734886458E+03  0.74797404086E+03  0.50400001928E-02 0. -1.
       -1    1    3    3    0  502 -0.28689548745E+03 -0.68612560161E+02  0.11314156683E+03  0.31593942188E+03  0.50400001928E-02 0.  1.
</event>
<event>
 5   0  0.7459843E-04  0.7000529E+03  0.7818609E-02  0.9717142E-01
        1   -1    0    0  501    0  0.00000000000E+00  0.00000000000E+00  0.87553809414E+03  0.87553809416E+03  0.50400001928E-02 0.  1.
       -1   -1    0    0    0  501  0.00000000000E+00  0.00000000000E+00 -0.13993511318E+03  0.13993511327E+03  0.50400001928E-02 0. -1.
    10030    2    1    2    0    0  0.00000000000E+00  0.00000000000E+00  0.73560298096E+03  0.10154732074E+04  0.70005291901E+03 0.  0.
        2    1    3    3  502    0 -0.30873069748E+03 -0.56089481916E+02  0.14281005114E+03  0.34475409245E+03  0.25500000920E-02 0. -1.
       -2    1    3    3    0  502  0.30873069748E+03  0.56089481916E+02  0.59279292982E+03  0.67071911498E+03  0.25500000920E-02 0.  1.
</event>
<event>
 5   0  0.7572415E-04  0.7017295E+03  0.7818609E-02  0.9714279E-01
       -1   -1    0    0    0  501  0.00000000000E+00  0.00000000000E+00  0.22363750639E+03  0.22363750645E+03  0.50400001928E-02 0.  1.
        1   -1    0    0  501    0  0.00000000000E+00  0.00000000000E+00 -0.55047149923E+03  0.55047149925E+03  0.50400001928E-02 0. -1.
    10030    2    1    2    0    0  0.00000000000E+00  0.00000000000E+00 -0.32683399284E+03  0.77410900570E+03  0.70172950190E+03 0.  0.
        4    1    3    3  502    0  0.23678467539E+03 -0.14008174513E+03  0.76791492391E+02  0.28563687441E+03  0.12699999809E+01 0.  1.
       -4    1    3    3    0  502 -0.23678467539E+03  0.14008174513E+03 -0.40362548523E+03  0.48847213129E+03  0.12699999809E+01 0. -1.
</event>
<event>
 5   0  0.7572415E-04  0.7000079E+03  0.7818609E-02  0.9717219E-01
       -1   -1    0    0    0  501  0.00000000000E+00  0.00000000000E+00  0.83897764882E+02  0.83897765034E+02  0.50400001928E-02 0.  1.
        1   -1    0    0  501    0  0.00000000000E+00  0.00000000000E+00 -0.14601433579E+04  0.14601433579E+04  0.50400001928E-02 0. -1.
    10030    2    1    2    0    0  0.00000000000E+00  0.00000000000E+00 -0.13762455930E+04  0.15440411229E+04  0.70000789784E+03 0.  0.
        4    1    3    3  502    0 -0.30908202353E+03 -0.74103991621E+02 -0.10113838417E+04  0.10601518698E+04  0.12699999809E+01 0. -1.
       -4    1    3    3    0  502  0.30908202353E+03  0.74103991621E+02 -0.36486175128E+03  0.48388925313E+03  0.12699999809E+01 0.  1.
</event>
<event>
 5   0  0.7013526E-04  0.7001536E+03  0.7818609E-02  0.9716969E-01
        1   -1    0    0  501    0  0.00000000000E+00  0.00000000000E+00  0.76919510073E+03  0.76919510074E+03  0.50400001928E-02 0.  1.
       -1   -1    0    0    0  501  0.00000000000E+00  0.00000000000E+00 -0.15932730538E+03  0.15932730546E+03  0.50400001928E-02 0. -1.
    10030    2    1    2    0    0  0.00000000000E+00  0.00000000000E+00  0.60986779535E+03  0.92852240620E+03  0.70015364815E+03 0.  0.
        1    1    3    3  502    0  0.70428337644E+02  0.26546203481E+03  0.17049594061E+02  0.27517436536E+03  0.50400001928E-02 0. -1.
       -1    1    3    3    0  502 -0.70428337644E+02 -0.26546203481E+03  0.59281820129E+03  0.65334804084E+03  0.50400001928E-02 0.  1.
</event>
<event>
 5   0  0.7570633E-04  0.6996248E+03  0.7818609E-02  0.9717874E-01
       -1   -1    0    0    0  501  0.00000000000E+00  0.00000000000E+00  0.54027194204E+03  0.54027194206E+03  0.50400001928E-02 0. -1.
        1   -1    0    0  501    0  0.00000000000E+00  0.00000000000E+00 -0.22649465237E+03  0.22649465242E+03  0.50400001928E-02 0.  1.
    10030    2    1    2    0    0  0.00000000000E+00  0.00000000000E+00  0.31377728967E+03  0.76676659448E+03  0.69962477293E+03 0.  0.
        5    1    3    3  502    0  0.12134493419E+03  0.82505879472E+02  0.50487335061E+03  0.52578608136E+03  0.46999998093E+01 0. -1.
       -5    1    3    3    0  502 -0.12134493419E+03 -0.82505879472E+02 -0.19109606093E+03  0.24098051312E+03  0.46999998093E+01 0.  1.
</event>
<event>
 5   0  0.1243087E-03  0.6999258E+03  0.7818609E-02  0.9717359E-01
       -2   -1    0    0    0  501  0.00000000000E+00  0.00000000000E+00  0.21373461378E+03  0.21373461380E+03  0.25500000920E-02 0. -1.
        2   -1    0    0  501    0  0.00000000000E+00  0.00000000000E+00 -0.57301917326E+03  0.57301917327E+03  0.25500000920E-02 0.  1.
    10030    2    1    2    0    0  0.00000000000E+00  0.00000000000E+00 -0.35928455948E+03  0.78675378706E+03  0.69992580091E+03 0.  0.
        4    1    3    3  502    0  0.28546415776E+03  0.18479193432E+03 -0.27256942124E+03  0.43581366046E+03  0.12699999809E+01 0.  1.
       -4    1    3    3    0  502 -0.28546415776E+03 -0.18479193432E+03 -0.86715138245E+02  0.35094012660E+03  0.12699999809E+01 0. -1.
</event>
<event>
 5   0  0.7570633E-04  0.6999228E+03  0.7818609E-02  0.9717364E-01
        1   -1    0    0  501    0  0.00000000000E+00  0.00000000000E+00  0.21285599103E+03  0.21285599109E+03  0.50400001928E-02 0. -1.
       -1   -1    0    0    0  501  0.00000000000E+00  0.00000000000E+00 -0.57537945750E+03  0.57537945752E+03  0.50400001928E-02 0.  1.
    10030    2    1    2    0    0  0.00000000000E+00  0.00000000000E+00 -0.36252346647E+03  0.78823544861E+03  0.69992275195E+03 0.  0.
        5    1    3    3  502    0 -0.28658839173E+03  0.17053024221E+03 -0.30064373743E+03  0.44902362592E+03  0.46999998093E+01 0.  1.
       -5    1    3    3    0  502  0.28658839173E+03 -0.17053024221E+03 -0.61879729038E+02  0.33921182268E+03  0.46999998093E+01 0. -1.
</event>
<event>
 5   0  0.1243087E-03  0.7001448E+03  0.7818609E-02  0.9716985E-01
       -2   -1    0    0    0  501  0.00000000000E+00  0.00000000000E+00  0.19311783953E+03  0.19311783954E+03  0.25500000920E-02 0. -1.
        2   -1    0    0  501    0  0.00000000000E+00  0.00000000000E+00 -0.63459021174E+03  0.63459021174E+03  0.25500000920E-02 0.  1.
    10030    2    1    2    0    0  0.00000000000E+00  0.00000000000E+00 -0.44147237221E+03  0.82770805128E+03  0.70014481555E+03 0.  0.
        4    1    3    3  502    0 -0.31387627692E+03  0.13792702968E+03 -0.30438765021E+03  0.45847097753E+03  0.12699999809E+01 0.  1.
       -4    1    3    3    0  502  0.31387627692E+03 -0.13792702968E+03 -0.13708472200E+03  0.36923707376E+03  0.12699999809E+01 0. -1.
</event>
<event>
 5   0  0.7013526E-04  0.7000419E+03  0.7818609E-02  0.9717161E-01
       -1   -1    0    0    0  501  0.00000000000E+00  0.00000000000E+00  0.62939632344E+03  0.62939632346E+03  0.50400001928E-02 0. -1.
        1   -1    0    0  501    0  0.00000000000E+00  0.00000000000E+00 -0.19465423905E+03  0.19465423912E+03  0.50400001928E-02 0.  1.
    10030    2    1    2    0    0  0.00000000000E+00  0.00000000000E+00  0.43474208438E+03  0.82405056257E+03  0.70004189142E+03 0.  0.
        1    1    3    3  502    0  0.57777783702E+02 -0.27988536316E+03 -0.20518717295E+02  0.28652243645E+03  0.50400001928E-02 0.  1.
       -1    1    3    3    0  502 -0.57777783702E+02  0.27988536316E+03  0.45526080168E+03  0.53752812612E+03  0.50400001928E-02 0. -1.
</event>
<event>
 5   0  0.4936000E-04  0.7005281E+03  0.7818609E-02  0.9716330E-01
        3   -1    0    0  501    0  0.00000000000E+00  0.00000000000E+00  0.85297368923E+03  0.85297369521E+03  0.10100000352E+00 0. -1.
       -3   -1    0    0    0  501  0.00000000000E+00  0.00000000000E+00 -0.14383195719E+03  0.14383199266E+03  0.10100000352E+00 0.  1.
    10030    2    1    2    0    0  0.00000000000E+00  0.00000000000E+00  0.70914173204E+03  0.99680568787E+03  0.70052807456E+03 0.  0.
        1    1    3    3  502    0 -0.19966188698E+03  0.16678329926E+03  0.20852918540E+02  0.26099115360E+03  0.50400001928E-02 0.  1.
       -1    1    3    3    0  502  0.19966188698E+03 -0.16678329926E+03  0.68828881350E+03  0.73581453427E+03  0.50400001928E-02 0. -1.
</event>
<event>
 5   0  0.1265562E-03  0.6998900E+03  0.7818609E-02  0.9717420E-01
        2   -1    0    0  501    0  0.00000000000E+00  0.00000000000E+00  0.93147515467E+03  0.93147515468E+03  0.25500000920E-02 0.  1.
       -2   -1    0    0    0  501  0.00000000000E+00  0.00000000000E+00 -0.13147050637E+03  0.13147050639E+03  0.25500000920E-02 0. -1.
    10030    2    1    2    0    0  0.00000000000E+00  0.00000000000E+00  0.80000464831E+03  0.10629456611E+04  0.69989002070E+03 0.  0.
        1    1    3    3  502    0 -0.25151433413E+03 -0.10292886120E+03  0.65165051412E+02  0.27946429950E+03  0.50400001928E-02 0. -1.
       -1    1    3    3    0  502  0.25151433413E+03  0.10292886120E+03  0.73483959690E+03  0.78348136157E+03  0.50400001928E-02 0.  1.
</event>
<event>
 5   0  0.7013526E-04  0.7001582E+03  0.7818609E-02  0.9716962E-01
        1   -1    0    0  501    0  0.00000000000E+00  0.00000000000E+00  0.63807700444E+03  0.63807700446E+03  0.50400001928E-02 0.  1.
       -1   -1    0    0    0  501  0.00000000000E+00  0.00000000000E+00 -0.19206987504E+03  0.19206987510E+03  0.50400001928E-02 0. -1.
    10030    2    1    2    0    0  0.00000000000E+00  0.00000000000E+00  0.44600712941E+03  0.83014687956E+03  0.70015818368E+03 0.  0.
        1    1    3    3  502    0  0.35256362967E+02  0.34520134795E+03  0.16804755313E+03  0.38554761300E+03  0.50400001928E-02 0. -1.
       -1    1    3    3    0  502 -0.35256362967E+02 -0.34520134795E+03  0.27795957628E+03  0.44459926656E+03  0.50400001928E-02 0.  1.
</event>
<event>
 5   0  0.1222679E-03  0.7022555E+03  0.7818609E-02  0.9713383E-01
        2   -1    0    0  501    0  0.00000000000E+00  0.00000000000E+00  0.46997702652E+03  0.46997702653E+03  0.25500000920E-02 0.  1.
       -2   -1    0    0    0  501  0.00000000000E+00  0.00000000000E+00 -0.26233349079E+03  0.26233349080E+03  0.25500000920E-02 0. -1.
    10030    2    1    2    0    0  0.00000000000E+00  0.00000000000E+00  0.20764353574E+03  0.73231051733E+03  0.70225554883E+03 0.  0.
        2    1    3    3  502    0 -0.47209718761E+02  0.20422055805E+02  0.46602687431E+03  0.46885697765E+03  0.25500000920E-02 0.  1.
       -2    1    3    3    0  502  0.47209718761E+02 -0.20422055805E+02 -0.25838333857E+03  0.26345353967E+03  0.25500000920E-02 0. -1.
</event>
<event>
 5   0  0.7013526E-04  0.7000081E+03  0.7818609E-02  0.9717218E-01
       -1   -1    0    0    0  501  0.00000000000E+00  0.00000000000E+00  0.11258734327E+03  0.11258734338E+03  0.50400001928E-02 0.  1.
        1   -1    0    0  501    0  0.00000000000E+00  0.00000000000E+00 -0.10880694575E+04  0.10880694575E+04  0.50400001928E-02 0. -1.
    10030    2    1    2    0    0  0.00000000000E+00  0.00000000000E+00 -0.97548211421E+03  0.12006568009E+04  0.70000814163E+03 0.  0.
        1    1    3    3  502    0 -0.33045179722E+03  0.19427121536E+02 -0.29272721225E+03  0.44188802219E+03  0.50400001928E-02 0.  1.
       -1    1    3    3    0  502  0.33045179722E+03 -0.19427121536E+02 -0.68275490196E+03  0.75876877869E+03  0.50400001928E-02 0. -1.
</event>
<event>
 5   0  0.7574241E-04  0.6998260E+03  0.7818609E-02  0.9717530E-01
       -1   -1    0    0    0  501  0.00000000000E+00  0.00000000000E+00  0.19209490479E+03  0.19209490486E+03  0.50400001928E-02 0. -1.
        1   -1    0    0  501    0  0.00000000000E+00  0.00000000000E+00 -0.63738858180E+03  0.63738858182E+03  0.50400001928E-02 0.  1.
    10030    2    1    2    0    0  0.00000000000E+00  0.00000000000E+00 -0.44529367700E+03  0.82948348667E+03  0.69982597543E+03 0.  0.
        3    1    3    3  502    0 -0.34986288239E+03  0.10114791934E+01 -0.21573261239E+03  0.41102996219E+03  0.10100000352E+00 0.  1.
       -3    1    3    3    0  502  0.34986288239E+03 -0.10114791934E+01 -0.22956106461E+03  0.41845352449E+03  0.10100000352E+00 0. -1.
</event>
<event>
 5   0  0.7013526E-04  0.7000730E+03  0.7818609E-02  0.9717107E-01
        1   -1    0    0  501    0  0.00000000000E+00  0.00000000000E+00  0.26516284238E+03  0.26516284242E+03  0.50400001928E-02 0.  1.
       -1   -1    0    0    0  501  0.00000000000E+00  0.00000000000E+00 -0.46207661657E+03  0.46207661659E+03  0.50400001928E-02 0. -1.
    10030    2    1    2    0    0  0.00000000000E+00  0.00000000000E+00 -0.19691377419E+03  0.72723945902E+03  0.70007299354E+03 0.  0.
        1    1    3    3  502    0  0.28139549605E+03 -0.12663939735E+03 -0.27011009173E+03  0.41009806612E+03  0.50400001928E-02 0. -1.
       -1    1    3    3    0  502 -0.28139549605E+03  0.12663939735E+03  0.73196317538E+02  0.31714139289E+03  0.50400001928E-02 0.  1.
</event>
<event>
 5   0  0.1282546E-03  0.7000406E+03  0.7818609E-02  0.9717163E-01
        2   -1    0    0  501    0  0.00000000000E+00  0.00000000000E+00  0.16551404825E+03  0.16551404827E+03  0.25500000920E-02 0.  1.
       -2   -1    0    0    0  501  0.00000000000E+00  0.00000000000E+00 -0.74020424527E+03  0.74020424527E+03  0.25500000920E-02 0. -1.
    10030    2    1    2    0    0  0.00000000000E+00  0.00000000000E+00 -0.57469019702E+03  0.90571829354E+03  0.70004057361E+03 0.  0.
        5    1    3    3  502    0 -0.34826729312E+03  0.33910047068E+01 -0.24270393504E+03  0.42453374006E+03  0.46999998093E+01 0.  1.
       -5    1    3    3    0  502  0.34826729312E+03 -0.33910047068E+01 -0.33198626198E+03  0.48118455348E+03  0.46999998093E+01 0. -1.
</event>
<event>
 5   0  0.1224048E-03  0.6996795E+03  0.7818609E-02  0.9717780E-01
       -2   -1    0    0    0  501  0.00000000000E+00  0.00000000000E+00  0.60408330888E+03  0.60408330889E+03  0.25500000920E-02 0.  1.
        2   -1    0    0  501    0  0.00000000000E+00  0.00000000000E+00 -0.20260095000E+03  0.20260095002E+03  0.25500000920E-02 0. -1.
    10030    2    1    2    0    0  0.00000000000E+00  0.00000000000E+00  0.40148235888E+03  0.80668425890E+03  0.69967950454E+03 0.  0.
        3    1    3    3  502    0  0.14670588011E+03 -0.47635434932E+02 -0.16128025183E+03  0.22316603628E+03  0.10100000352E+00 0. -1.
       -3    1    3    3    0  502 -0.14670588011E+03  0.47635434932E+02  0.56276261071E+03  0.58351822262E+03  0.10100000352E+00 0.  1.
</event>
<event>
 5   0  0.1265562E-03  0.6992465E+03  0.7818609E-02  0.9718522E-01
        2   -1    0    0  501    0  0.00000000000E+00  0.00000000000E+00  0.79368391022E+03  0.79368391023E+03  0.25500000920E-02 0.  1.
       -2   -1    0    0    0  501  0.00000000000E+00  0.00000000000E+00 -0.15401145382E+03  0.15401145384E+03  0.25500000920E-02 0. -1.
    10030    2    1    2    0    0  0.00000000000E+00  0.00000000000E+00  0.63967245640E+03  0.94769536407E+03  0.69924648844E+03 0.  0.
        1    1    3    3  502    0  0.25096089085E+03  0.24270762164E+03  0.34512117880E+03  0.49091443900E+03  0.50400001928E-02 0.  1.
       -1    1    3    3    0  502 -0.25096089085E+03 -0.24270762164E+03  0.29455127761E+03  0.45678092507E+03  0.50400001928E-02 0. -1.
</event>
<event>
 5   0  0.7459843E-04  0.7001364E+03  0.7818609E-02  0.9716999E-01
       -1   -1    0    0    0  501  0.00000000000E+00  0.00000000000E+00  0.10001649260E+03  0.10001649273E+03  0.50400001928E-02 0. -1.
        1   -1    0    0  501    0  0.00000000000E+00  0.00000000000E+00 -0.12252753492E+04  0.12252753492E+04  0.50400001928E-02 0.  1.
    10030    2    1    2    0    0  0.00000000000E+00  0.00000000000E+00 -0.11252588566E+04  0.13252918419E+04  0.70013639524E+03 0.  0.
        2    1    3    3  502    0 -0.24392352686E+03  0.12459390970E+03 -0.97528890521E+03  0.10130206207E+04  0.25500000920E-02 0.  1.
       -2    1    3    3    0  502  0.24392352686E+03 -0.12459390970E+03 -0.14996995137E+03  0.31227122124E+03  0.25500000920E-02 0. -1.
</event>
<event>
 5   0  0.7013526E-04  0.7001434E+03  0.7818609E-02  0.9716987E-01
        1   -1    0    0  501    0  0.00000000000E+00  0.00000000000E+00  0.29537588277E+03  0.29537588281E+03  0.50400001928E-02 0. -1.
       -1   -1    0    0    0  501  0.00000000000E+00  0.00000000000E+00 -0.41489576830E+03  0.41489576833E+03  0.50400001928E-02 0.  1.
    10030    2    1    2    0    0  0.00000000000E+00  0.00000000000E+00 -0.11951988553E+03  0.71027165114E+03  0.70014342486E+03 0.  0.
        1    1    3    3  502    0  0.10074885303E+03 -0.14601644506E+03 -0.36591875243E+03  0.40665423522E+03  0.50400001928E-02 0.  1.
       -1    1    3    3    0  502 -0.10074885303E+03  0.14601644506E+03  0.24639886690E+03  0.30361741592E+03  0.50400001928E-02 0. -1.
</event>
<event>
 5   0  0.1282546E-03  0.7008008E+03  0.7818609E-02  0.9715864E-01
        2   -1    0    0  501    0  0.00000000000E+00  0.00000000000E+00  0.30037343872E+03  0.30037343873E+03  0.25500000920E-02 0.  1.
       -2   -1    0    0    0  501  0.00000000000E+00  0.00000000000E+00 -0.40875931092E+03  0.40875931093E+03  0.25500000920E-02 0. -1.
    10030    2    1    2    0    0  0.00000000000E+00  0.00000000000E+00 -0.10838587220E+03  0.70913274966E+03  0.70080079862E+03 0.  0.
        5    1    3    3  502    0  0.12400065028E+03 -0.17097376968E+03 -0.33707009837E+03  0.39780212719E+03  0.46999998093E+01 0. -1.
       -5    1    3    3    0  502 -0.12400065028E+03  0.17097376968E+03  0.22868422617E+03  0.31133062247E+03  0.46999998093E+01 0.  1.
</event>
<event>
 5   0  0.7574241E-04  0.7000671E+03  0.7818609E-02  0.9717118E-01
       -1   -1    0    0    0  501  0.00000000000E+00  0.00000000000E+00  0.35157948992E+03  0.35157948996E+03  0.50400001928E-02 0.  1.
        1   -1    0    0  501    0  0.00000000000E+00  0.00000000000E+00 -0.34849436564E+03  0.34849436568E+03  0.50400001928E-02 0. -1.
    10030    2    1    2    0    0  0.00000000000E+00  0.00000000000E+00  0.30851242804E+01  0.70007385564E+03  0.70006705776E+03 0.  0.
        3    1    3    3  502    0 -0.33870214037E+03 -0.67318396211E+02  0.58749365381E+02  0.35028902993E+03  0.10100000352E+00 0.  1.
       -3    1    3    3    0  502  0.33870214037E+03  0.67318396211E+02 -0.55664241100E+02  0.34978482571E+03  0.10100000352E+00 0. -1.
</event>
<event>
 5   0  0.7572415E-04  0.6997572E+03  0.7818609E-02  0.9717648E-01
       -1   -1    0    0    0  501  0.00000000000E+00  0.00000000000E+00  0.17281487097E+03  0.17281487105E+03  0.50400001928E-02 0.  1.
        1   -1    0    0  501    0  0.00000000000E+00  0.00000000000E+00 -0.70835931697E+03  0.70835931699E+03  0.50400001928E-02 0. -1.
    10030    2    1    2    0    0  0.00000000000E+00  0.00000000000E+00 -0.53554444600E+03  0.88117418804E+03  0.69975716933E+03 0.  0.
        4    1    3    3  502    0  0.16829839211E+02 -0.23085213423E+03  0.62617726874E+02  0.23978854015E+03  0.12699999809E+01 0.  1.
       -4    1    3    3    0  502 -0.16829839211E+02  0.23085213423E+03 -0.59816217287E+03  0.64138564789E+03  0.12699999809E+01 0. -1.
</event>
<event>
 5   0  0.1282546E-03  0.7000025E+03  0.7818609E-02  0.9717228E-01
       -2   -1    0    0    0  501  0.00000000000E+00  0.00000000000E+00  0.83712164323E+02  0.83712164362E+02  0.25500000920E-02 0. -1.
        2   -1    0    0  501    0  0.00000000000E+00  0.00000000000E+00 -0.14633580844E+04  0.14633580844E+04  0.25500000920E-02 0.  1.
    10030    2    1    2    0    0  0.00000000000E+00  0.00000000000E+00 -0.13796459201E+04  0.15470702488E+04  0.70000249274E+03 0.  0.
        5    1    3    3  502    0 -0.20806536793E+03  0.22880215420E+03 -0.10518814372E+04  0.10964115427E+04  0.46999998093E+01 0.  1.
       -5    1    3    3    0  502  0.20806536793E+03 -0.22880215420E+03 -0.32776448290E+03  0.45065870606E+03  0.46999998093E+01 0. -1.
</event>
<event>
 5   0  0.7570633E-04  0.6998609E+03  0.7818609E-02  0.9717470E-01
       -1   -1    0    0    0  501  0.00000000000E+00  0.00000000000E+00  0.47287858388E+03  0.47287858390E+03  0.50400001928E-02 0.  1.
        1   -1    0    0  501    0  0.00000000000E+00  0.00000000000E+00 -0.25894875528E+03  0.25894875533E+03  0.50400001928E-02 0. -1.
    10030    2    1    2    0    0  0.00000000000E+00  0.00000000000E+00  0.21392982859E+03  0.73182733923E+03  0.69986090253E+03 0.  0.
        5    1    3    3  502    0  0.76943819101E+02  0.11052461321E+03  0.44466010164E+03  0.46462967771E+03  0.46999998093E+01 0.  1.
       -5    1    3    3    0  502 -0.76943819101E+02 -0.11052461321E+03 -0.23073027305E+03  0.26719766152E+03  0.46999998093E+01 0. -1.
</event>
<event>
 5   0  0.1282546E-03  0.6999418E+03  0.7818609E-02  0.9717332E-01
       -2   -1    0    0    0  501  0.00000000000E+00  0.00000000000E+00  0.51280527494E+03  0.51280527494E+03  0.25500000920E-02 0.  1.
        2   -1    0    0  501    0  0.00000000000E+00  0.00000000000E+00 -0.23884239167E+03  0.23884239168E+03  0.25500000920E-02 0. -1.
    10030    2    1    2    0    0  0.00000000000E+00  0.00000000000E+00  0.27396288327E+03  0.75164766662E+03  0.69994182139E+03 0.  0.
        5    1    3    3  502    0  0.20505439068E+03  0.25720552764E+02  0.44024077222E+03  0.48635673892E+03  0.46999998093E+01 0.  1.
       -5    1    3    3    0  502 -0.20505439068E+03 -0.25720552764E+02 -0.16627788895E+03  0.26529092770E+03  0.46999998093E+01 0. -1.
</event>
<event>
 5   0  0.1243087E-03  0.7002988E+03  0.7818609E-02  0.9716721E-01
       -2   -1    0    0    0  501  0.00000000000E+00  0.00000000000E+00  0.23179400421E+03  0.23179400422E+03  0.25500000920E-02 0.  1.
        2   -1    0    0  501    0  0.00000000000E+00  0.00000000000E+00 -0.52893777913E+03  0.52893777913E+03  0.25500000920E-02 0. -1.
    10030    2    1    2    0    0  0.00000000000E+00  0.00000000000E+00 -0.29714377492E+03  0.76073178335E+03  0.70029880996E+03 0.  0.
        4    1    3    3  502    0 -0.90495556559E+02 -0.12040470995E+03 -0.49194496629E+03  0.51448829208E+03  0.12699999809E+01 0. -1.
       -4    1    3    3    0  502  0.90495556559E+02  0.12040470995E+03  0.19480119137E+03  0.24624349127E+03  0.12699999809E+01 0.  1.
</event>
<event>
 5   0  0.1265562E-03  0.6997572E+03  0.7818609E-02  0.9717647E-01
        2   -1    0    0  501    0  0.00000000000E+00  0.00000000000E+00  0.24641643008E+03  0.24641643009E+03  0.25500000920E-02 0. -1.
       -2   -1    0    0    0  501  0.00000000000E+00  0.00000000000E+00 -0.49678119992E+03  0.49678119992E+03  0.25500000920E-02 0.  1.
    10030    2    1    2    0    0  0.00000000000E+00  0.00000000000E+00 -0.25036476984E+03  0.74319763001E+03  0.69975724310E+03 0.  0.
        1    1    3    3  502    0  0.37894071614E+02 -0.34728392915E+03 -0.14569348829E+03  0.37850849484E+03  0.50400001928E-02 0. -1.
       -1    1    3    3    0  502 -0.37894071614E+02  0.34728392915E+03 -0.10467128155E+03  0.36468913518E+03  0.50400001928E-02 0.  1.
</event>
<event>
 5   0  0.1265562E-03  0.7001194E+03  0.7818609E-02  0.9717028E-01
       -2   -1    0    0    0  501  0.00000000000E+00  0.00000000000E+00  0.12158364373E+03  0.12158364375E+03  0.25500000920E-02 0.  1.
        2   -1    0    0  501    0  0.00000000000E+00  0.00000000000E+00 -0.10078807216E+04  0.10078807216E+04  0.25500000920E-02 0. -1.
    10030    2    1    2    0    0  0.00000000000E+00  0.00000000000E+00 -0.88629707783E+03  0.11294643653E+04  0.70011944863E+03 0.  0.
        1    1    3    3  502    0  0.25204303743E+03  0.22114909230E+03 -0.60535147729E+03  0.69201374612E+03  0.50400001928E-02 0. -1.
       -1    1    3    3    0  502 -0.25204303743E+03 -0.22114909230E+03 -0.28094560054E+03  0.43745061919E+03  0.50400001928E-02 0.  1.
</event>
<event>
 5   0  0.7459843E-04  0.6997500E+03  0.7818609E-02  0.9717660E-01
       -1   -1    0    0    0  501  0.00000000000E+00  0.00000000000E+00  0.48086338506E+03  0.48086338509E+03  0.50400001928E-02 0.  1.
        1   -1    0    0  501    0  0.00000000000E+00  0.00000000000E+00 -0.25456816427E+03  0.25456816432E+03  0.50400001928E-02 0. -1.
    10030    2    1    2    0    0  0.00000000000E+00  0.00000000000E+00  0.22629522079E+03  0.73543154941E+03  0.69974998171E+03 0.  0.
        2    1    3    3  502    0  0.65329635803E+02  0.12317945407E+03  0.45040199647E+03  0.47149029433E+03  0.25500000920E-02 0.  1.
       -2    1    3    3    0  502 -0.65329635803E+02 -0.12317945407E+03 -0.22410677568E+03  0.26394125507E+03  0.25500000920E-02 0. -1.
</event>
<event>
 5   0  0.1265562E-03  0.7013177E+03  0.7818609E-02  0.9714981E-01
        2   -1    0    0  501    0  0.00000000000E+00  0.00000000000E+00  0.64617059001E+03  0.64617059002E+03  0.25500000920E-02 0.  1.
       -2   -1    0    0    0  501  0.00000000000E+00  0.00000000000E+00 -0.19029281534E+03  0.19029281536E+03  0.25500000920E-02 0. -1.
    10030    2    1    2    0    0  0.00000000000E+00  0.00000000000E+00  0.45587777467E+03  0.83646340537E+03  0.70131767630E+03 0.  0.
        1    1    3    3  502    0 -0.90054653009E+02 -0.19033051575E+03  0.56237676491E+03  0.60050243254E+03  0.50400001928E-02 0.  1.
       -1    1    3    3    0  502  0.90054653009E+02  0.19033051575E+03 -0.10649899023E+03  0.23596097283E+03  0.50400001928E-02 0. -1.
</event>
<event>
 5   0  0.7570633E-04  0.7010145E+03  0.7818609E-02  0.9715499E-01
        1   -1    0    0  501    0  0.00000000000E+00  0.00000000000E+00  0.79678172454E+03  0.79678172456E+03  0.50400001928E-02 0.  1.
       -1   -1    0    0    0  501  0.00000000000E+00  0.00000000000E+00 -0.15418942407E+03  0.15418942415E+03  0.50400001928E-02 0. -1.
    10030    2    1    2    0    0  0.00000000000E+00  0.00000000000E+00  0.64259230047E+03  0.95097114871E+03  0.70101445138E+03 0.  0.
        5    1    3    3  502    0 -0.23006441317E+02 -0.34464390466E+03  0.40183206844E+03  0.52990548081E+03  0.46999998093E+01 0.  1.
       -5    1    3    3    0  502  0.23006441317E+02  0.34464390466E+03  0.24076023203E+03  0.42106566790E+03  0.46999998093E+01 0. -1.
</event>
<event>
 5   0  0.7574241E-04  0.6987955E+03  0.7818609E-02  0.9719294E-01
       -1   -1    0    0    0  501  0.00000000000E+00  0.00000000000E+00  0.15243389177E+03  0.15243389186E+03  0.50400001928E-02 0. -1.
        1   -1    0    0  501    0  0.00000000000E+00  0.00000000000E+00 -0.80086390103E+03  0.80086390105E+03  0.50400001928E-02 0.  1.
    10030    2    1    2    0    0  0.00000000000E+00  0.00000000000E+00 -0.64843000926E+03  0.95329779291E+03  0.69879553880E+03 0.  0.
        3    1    3    3  502    0 -0.20087478098E+03 -0.23822817820E+03 -0.10862177814E+03  0.33000309606E+03  0.10100000352E+00 0. -1.
       -3    1    3    3    0  502  0.20087478098E+03  0.23822817820E+03 -0.53980823112E+03  0.62329469684E+03  0.10100000352E+00 0.  1.
</event>
<event>
 5   0  0.1243087E-03  0.7000482E+03  0.7818609E-02  0.9717150E-01
       -2   -1    0    0    0  501  0.00000000000E+00  0.00000000000E+00  0.73249326789E+02  0.73249326834E+02  0.25500000920E-02 0.  1.
        2   -1    0    0  501    0  0.00000000000E+00  0.00000000000E+00 -0.16726007070E+04  0.16726007070E+04  0.25500000920E-02 0. -1.
    10030    2    1    2    0    0  0.00000000000E+00  0.00000000000E+00 -0.15993513802E+04  0.17458500338E+04  0.70004821496E+03 0.  0.
        4    1    3    3  502    0  0.12261017008E+02  0.22728441791E+03 -0.13652940620E+03  0.26542500037E+03  0.12699999809E+01 0.  1.
       -4    1    3    3    0  502 -0.12261017008E+02 -0.22728441791E+03 -0.14628219740E+04  0.14804250335E+04  0.12699999809E+01 0. -1.
</event>
<event>
 5   0  0.7572415E-04  0.7000853E+03  0.7818609E-02  0.9717086E-01
       -1   -1    0    0    0  501  0.00000000000E+00  0.00000000000E+00  0.13700109634E+03  0.13700109643E+03  0.50400001928E-02 0.  1.
        1   -1    0    0  501    0  0.00000000000E+00  0.00000000000E+00 -0.89437142332E+03  0.89437142333E+03  0.50400001928E-02 0. -1.
    10030    2    1    2    0    0  0.00000000000E+00  0.00000000000E+00 -0.75737032698E+03  0.10313725198E+04  0.70008532505E+03 0.  0.
        4    1    3    3  502    0  0.49833611094E+02 -0.34488159525E+03 -0.42758039665E+03  0.55159161708E+03  0.12699999809E+01 0. -1.
       -4    1    3    3    0  502 -0.49833611094E+02  0.34488159525E+03 -0.32978993033E+03  0.47978090269E+03  0.12699999809E+01 0.  1.
</event>
<event>
 5   0  0.1224048E-03  0.7000167E+03  0.7818609E-02  0.9717204E-01
        2   -1    0    0  501    0  0.00000000000E+00  0.00000000000E+00  0.87772773698E+03  0.87772773698E+03  0.25500000920E-02 0.  1.
       -2   -1    0    0    0  501  0.00000000000E+00  0.00000000000E+00 -0.13957159110E+03  0.13957159113E+03  0.25500000920E-02 0. -1.
    10030    2    1    2    0    0  0.00000000000E+00  0.00000000000E+00  0.73815614587E+03  0.10172993281E+04  0.70001673357E+03 0.  0.
        3    1    3    3  502    0  0.29563986879E+03 -0.96980746168E+02  0.60204111908E+03  0.67768850987E+03  0.10100000352E+00 0.  1.
       -3    1    3    3    0  502 -0.29563986879E+03  0.96980746168E+02  0.13611502680E+03  0.33961081824E+03  0.10100000352E+00 0. -1.
</event>
<event>
 5   0  0.1224048E-03  0.6993928E+03  0.7818609E-02  0.9718271E-01
        2   -1    0    0  501    0  0.00000000000E+00  0.00000000000E+00  0.17539876308E+04  0.17539876308E+04  0.25500000920E-02 0.  1.
       -2   -1    0    0    0  501  0.00000000000E+00  0.00000000000E+00 -0.69719750738E+02  0.69719750785E+02  0.25500000920E-02 0. -1.
    10030    2    1    2    0    0  0.00000000000E+00  0.00000000000E+00  0.16842678801E+04  0.18237073816E+04  0.69939282370E+03 0.  0.
        3    1    3    3  502    0 -0.16687777462E+03 -0.50516242782E+02  0.16325616798E+04  0.16418458304E+04  0.10100000352E+00 0.  1.
       -3    1    3    3    0  502  0.16687777462E+03  0.50516242782E+02  0.51706200325E+02  0.18186155119E+03  0.10100000352E+00 0. -1.
</event>
<event>
 5   0  0.1224048E-03  0.6999953E+03  0.7818609E-02  0.9717240E-01
       -2   -1    0    0    0  501  0.00000000000E+00  0.00000000000E+00  0.10579791204E+03  0.10579791207E+03  0.25500000920E-02 0. -1.
        2   -1    0    0  501    0  0.00000000000E+00  0.00000000000E+00 -0.11578524058E+04  0.11578524058E+04  0.25500000920E-02 0.  1.
    10030    2    1    2    0    0  0.00000000000E+00  0.00000000000E+00 -0.10520544938E+04  0.12636503179E+04  0.69999533428E+03 0.  0.
        3    1    3    3  502    0  0.27651801763E+02  0.34679749265E+03 -0.45692610513E+03  0.57429487095E+03  0.10100000352E+00 0.  1.
       -3    1    3    3    0  502 -0.27651801763E+02 -0.34679749265E+03 -0.59512838865E+03  0.68935544694E+03  0.10100000352E+00 0. -1.
</event>
<event>
 5   0  0.7459843E-04  0.6999028E+03  0.7818609E-02  0.9717398E-01
        1   -1    0    0  501    0  0.00000000000E+00  0.00000000000E+00  0.81014746281E+03  0.81014746283E+03  0.50400001928E-02 0. -1.
       -1   -1    0    0    0  501  0.00000000000E+00  0.00000000000E+00 -0.15116505369E+03  0.15116505377E+03  0.50400001928E-02 0.  1.
    10030    2    1    2    0    0  0.00000000000E+00  0.00000000000E+00  0.65898240912E+03  0.96131251660E+03  0.69990280685E+03 0.  0.
        2    1    3    3  502    0  0.29685679370E+03 -0.18306360091E+03  0.28992725334E+03  0.45353505948E+03  0.25500000920E-02 0. -1.
       -2    1    3    3    0  502 -0.29685679370E+03  0.18306360091E+03  0.36905515578E+03  0.50777745712E+03  0.25500000920E-02 0.  1.
</event>
<event>
 5   0  0.1282546E-03  0.6996461E+03  0.7818609E-02  0.9717838E-01
       -2   -1    0    0    0  501  0.00000000000E+00  0.00000000000E+00  0.74992734149E+02  0.74992734193E+02  0.25500000920E-02 0.  1.
        2   -1    0    0  501    0  0.00000000000E+00  0.00000000000E+00 -0.16318401414E+04  0.16318401414E+04  0.25500000920E-02 0. -1.
    10030    2    1    2    0    0  0.00000000000E+00  0.00000000000E+00 -0.15568474073E+04  0.17068328756E+04  0.69964606463E+03 0.  0.
        5    1    3    3  502    0 -0.42284344569E+02 -0.21645120000E+03 -0.14407781687E+04  0.14575674630E+04  0.46999998093E+01 0. -1.
       -5    1    3    3    0  502  0.42284344569E+02  0.21645120000E+03 -0.11606923853E+03  0.24926541258E+03  0.46999998093E+01 0.  1.
</event>
<event>
 5   0  0.1282546E-03  0.6994770E+03  0.7818609E-02  0.9718127E-01
        2   -1    0    0  501    0  0.00000000000E+00  0.00000000000E+00  0.14556871141E+04  0.14556871141E+04  0.25500000920E-02 0. -1.
       -2   -1    0    0    0  501  0.00000000000E+00  0.00000000000E+00 -0.84027000560E+02  0.84027000599E+02  0.25500000920E-02 0.  1.
    10030    2    1    2    0    0  0.00000000000E+00  0.00000000000E+00  0.13716601135E+04  0.15397141147E+04  0.69947701029E+03 0.  0.
        5    1    3    3  502    0 -0.75817474634E+02  0.30327948871E+03  0.34080291175E+03  0.46248832675E+03  0.46999998093E+01 0.  1.
       -5    1    3    3    0  502  0.75817474634E+02 -0.30327948871E+03  0.10308572018E+04  0.10772257879E+04  0.46999998093E+01 0. -1.
</event>
<event>
 5   0  0.1243087E-03  0.6998445E+03  0.7818609E-02  0.9717498E-01
       -2   -1    0    0    0  501  0.00000000000E+00  0.00000000000E+00  0.49909275566E+03  0.49909275566E+03  0.25500000920E-02 0. -1.
        2   -1    0    0  501    0  0.00000000000E+00  0.00000000000E+00 -0.24533633236E+03  0.24533633238E+03  0.25500000920E-02 0.  1.
    10030    2    1    2    0    0  0.00000000000E+00  0.00000000000E+00  0.25375642329E+03  0.74442908804E+03  0.69984451470E+03 0.  0.
        4    1    3    3  502    0  0.17048905278E+02  0.21963319276E+03 -0.16231413493E+03  0.27363643001E+03  0.12699999809E+01 0.  1.
       -4    1    3    3    0  502 -0.17048905278E+02 -0.21963319276E+03  0.41607055822E+03  0.47079265803E+03  0.12699999809E+01 0. -1.
</event>
<event>
 5   0  0.1243087E-03  0.7003353E+03  0.7818609E-02  0.9716659E-01
       -2   -1    0    0    0  501  0.00000000000E+00  0.00000000000E+00  0.14223618303E+03  0.14223618306E+03  0.25500000920E-02 0. -1.
        2   -1    0    0  501    0  0.00000000000E+00  0.00000000000E+00 -0.86206875762E+03  0.86206875763E+03  0.25500000920E-02 0.  1.
    10030    2    1    2    0    0  0.00000000000E+00  0.00000000000E+00 -0.71983257459E+03  0.10043049407E+04  0.70033526146E+03 0.  0.
        4    1    3    3  502    0 -0.72615005076E+02 -0.13835176711E+03 -0.80930162837E+03  0.82424807492E+03  0.12699999809E+01 0.  1.
       -4    1    3    3    0  502  0.72615005076E+02  0.13835176711E+03  0.89469053780E+02  0.18005686576E+03  0.12699999809E+01 0. -1.
</event>
<event>
 5   0  0.7459843E-04  0.6999799E+03  0.7818609E-02  0.9717267E-01
       -1   -1    0    0    0  501  0.00000000000E+00  0.00000000000E+00  0.88222378332E+02  0.88222378476E+02  0.50400001928E-02 0. -1.
        1   -1    0    0  501    0  0.00000000000E+00  0.00000000000E+00 -0.13884567649E+04  0.13884567649E+04  0.50400001928E-02 0.  1.
    10030    2    1    2    0    0  0.00000000000E+00  0.00000000000E+00 -0.13002343865E+04  0.14766791433E+04  0.69997988006E+03 0.  0.
        2    1    3    3  502    0 -0.21224993231E+03  0.20938213756E+03 -0.26340894333E+03  0.39783813886E+03  0.25500000920E-02 0. -1.
       -2    1    3    3    0  502  0.21224993231E+03 -0.20938213756E+03 -0.10368254432E+04  0.10788410045E+04  0.25500000920E-02 0.  1.
</event>
<event>
 5   0  0.1224048E-03  0.6998943E+03  0.7818609E-02  0.9717413E-01
       -2   -1    0    0    0  501  0.00000000000E+00  0.00000000000E+00  0.93808806142E+02  0.93808806177E+02  0.25500000920E-02 0. -1.
        2   -1    0    0  501    0  0.00000000000E+00  0.00000000000E+00 -0.13054531214E+04  0.13054531214E+04  0.25500000920E-02 0.  1.
    10030    2    1    2    0    0  0.00000000000E+00  0.00000000000E+00 -0.12116443153E+04  0.13992619276E+04  0.69989427437E+03 0.  0.
        3    1    3    3  502    0 -0.17612399208E+02  0.34904806606E+03 -0.64148727718E+03  0.73051398756E+03  0.10100000352E+00 0.  1.
       -3    1    3    3    0  502  0.17612399208E+02 -0.34904806606E+03 -0.57015703812E+03  0.66874794007E+03  0.10100000352E+00 0. -1.
</event>
<event>
 5   0  0.7572415E-04  0.7000322E+03  0.7818609E-02  0.9717177E-01
        1   -1    0    0  501    0  0.00000000000E+00  0.00000000000E+00  0.21460650857E+03  0.21460650863E+03  0.50400001928E-02 0. -1.
       -1   -1    0    0    0  501  0.00000000000E+00  0.00000000000E+00 -0.57086457522E+03  0.57086457524E+03  0.50400001928E-02 0.  1.
    10030    2    1    2    0    0  0.00000000000E+00  0.00000000000E+00 -0.35625806665E+03  0.78547108387E+03  0.70003215180E+03 0.  0.
        4    1    3    3  502    0  0.24849747352E+02  0.34064410158E+03 -0.26397668739E+03  0.43167258226E+03  0.12699999809E+01 0.  1.
       -4    1    3    3    0  502 -0.24849747352E+02 -0.34064410158E+03 -0.92281379262E+02  0.35379850162E+03  0.12699999809E+01 0. -1.
</event>
<event>
 5   0  0.1265562E-03  0.6973883E+03  0.7818609E-02  0.9721709E-01
        2   -1    0    0  501    0  0.00000000000E+00  0.00000000000E+00  0.98922340380E+03  0.98922340381E+03  0.25500000920E-02 0.  1.
       -2   -1    0    0    0  501  0.00000000000E+00  0.00000000000E+00 -0.12291218907E+03  0.12291218910E+03  0.25500000920E-02 0. -1.
    10030    2    1    2    0    0  0.00000000000E+00  0.00000000000E+00  0.86631121473E+03  0.11121355929E+04  0.69738831095E+03 0.  0.
        1    1    3    3  502    0 -0.12327948416E+03  0.12365135291E+03  0.91448520134E+03  0.93100519429E+03  0.50400001928E-02 0.  1.
       -1    1    3    3    0  502  0.12327948416E+03 -0.12365135291E+03 -0.48173986613E+02  0.18113039862E+03  0.50400001928E-02 0. -1.
</event>
<event>
 5   0  0.1222679E-03  0.7000260E+03  0.7818609E-02  0.9717188E-01
        2   -1    0    0  501    0  0.00000000000E+00  0.00000000000E+00  0.25533775433E+03  0.25533775434E+03  0.25500000920E-02 0. -1.
       -2   -1    0    0    0  501  0.00000000000E+00  0.00000000000E+00 -0.47979239195E+03  0.47979239196E+03  0.25500000920E-02 0.  1.
    10030    2    1    2    0    0  0.00000000000E+00  0.00000000000E+00 -0.22445463762E+03  0.73513014630E+03  0.70002603355E+03 0.  0.
        2    1    3    3  502    0 -0.19819552283E+03  0.25755922149E+03  0.24254989879E+02  0.32589342182E+03  0.25500000920E-02 0. -1.
       -2    1    3    3    0  502  0.19819552283E+03 -0.25755922149E+03 -0.24870962750E+03  0.40923672448E+03  0.25500000920E-02 0.  1.
</event>
<event>
 5   0  0.7572415E-04  0.7001092E+03  0.7818609E-02  0.9717045E-01
        1   -1    0    0  501    0  0.00000000000E+00  0.00000000000E+00  0.43252501006E+03  0.43252501009E+03  0.50400001928E-02 0.  1.
       -1   -1    0    0    0  501  0.00000000000E+00  0.00000000000E+00 -0.28330899556E+03  0.28330899561E+03  0.50400001928E-02 0. -1.
    10030    2    1    2    0    0  0.00000000000E+00  0.00000000000E+00  0.14921601449E+03  0.71583400569E+03  0.70010920914E+03 0.  0.
        4    1    3    3  502    0 -0.28482221077E+02  0.51600042345E+02 -0.27819688851E+03  0.28437461729E+03  0.12699999809E+01 0. -1.
       -4    1    3    3    0  502  0.28482221077E+02 -0.51600042345E+02  0.42741290300E+03  0.43145938840E+03  0.12699999809E+01 0.  1.
</event>
<event>
 5   0  0.7459843E-04  0.6999143E+03  0.7818609E-02  0.9717379E-01
       -1   -1    0    0    0  501  0.00000000000E+00  0.00000000000E+00  0.72239334635E+03  0.72239334637E+03  0.50400001928E-02 0. -1.
        1   -1    0    0  501    0  0.00000000000E+00  0.00000000000E+00 -0.16953368259E+03  0.16953368267E+03  0.50400001928E-02 0.  1.
    10030    2    1    2    0    0  0.00000000000E+00  0.00000000000E+00  0.55285966376E+03  0.89192702904E+03  0.69991429284E+03 0.  0.
        2    1    3    3  502    0  0.24481277269E+03 -0.94328982386E+02 -0.18707265739E+02  0.26302321645E+03  0.25500000920E-02 0.  1.
       -2    1    3    3    0  502 -0.24481277269E+03  0.94328982386E+02  0.57156692950E+03  0.62890381259E+03  0.25500000920E-02 0. -1.
</event>
<event>
 5   0  0.1243087E-03  0.7000762E+03  0.7818609E-02  0.9717102E-01
       -2   -1    0    0    0  501  0.00000000000E+00  0.00000000000E+00  0.31207932266E+03  0.31207932267E+03  0.25500000920E-02 0. -1.
        2   -1    0    0  501    0  0.00000000000E+00  0.00000000000E+00 -0.39261392549E+03  0.39261392549E+03  0.25500000920E-02 0.  1.
    10030    2    1    2    0    0  0.00000000000E+00  0.00000000000E+00 -0.80534602823E+02  0.70469324817E+03  0.70007624711E+03 0.  0.
        4    1    3    3  502    0 -0.30599990875E+03  0.16458346317E+03  0.24556846015E+01  0.34746410432E+03  0.12699999809E+01 0.  1.
       -4    1    3    3    0  502  0.30599990875E+03 -0.16458346317E+03 -0.82990287424E+02  0.35722914385E+03  0.12699999809E+01 0. -1.
</event>
<event>
 5   0  0.1243087E-03  0.7000282E+03  0.7818609E-02  0.9717184E-01
       -2   -1    0    0    0  501  0.00000000000E+00  0.00000000000E+00  0.21087558367E+03  0.21087558369E+03  0.25500000920E-02 0.  1.
        2   -1    0    0  501    0  0.00000000000E+00  0.00000000000E+00 -0.58095809328E+03  0.58095809329E+03  0.25500000920E-02 0. -1.
    10030    2    1    2    0    0  0.00000000000E+00  0.00000000000E+00 -0.37008250961E+03  0.79183367697E+03  0.70002821948E+03 0.  0.
        4    1    3    3  502    0  0.87488365474E+02 -0.85166039287E+01 -0.56826675694E+03  0.57502649207E+03  0.12699999809E+01 0. -1.
       -4    1    3    3    0  502 -0.87488365474E+02  0.85166039287E+01  0.19818424733E+03  0.21680718490E+03  0.12699999809E+01 0.  1.
</event>
<event>
 5   0  0.7572415E-04  0.7000454E+03  0.7818609E-02  0.9717155E-01
        1   -1    0    0  501    0  0.00000000000E+00  0.00000000000E+00  0.84303466746E+03  0.84303466748E+03  0.50400001928E-02 0. -1.
       -1   -1    0    0    0  501  0.00000000000E+00  0.00000000000E+00 -0.14532720902E+03  0.14532720910E+03  0.50400001928E-02 0.  1.
    10030    2    1    2    0    0  0.00000000000E+00  0.00000000000E+00  0.69770745844E+03  0.98836187658E+03  0.70004535675E+03 0.  0.
        4    1    3    3  502    0 -0.18436386406E+03 -0.21617664143E+03  0.60227496635E+02  0.29043301969E+03  0.12699999809E+01 0.  1.
       -4    1    3    3    0  502  0.18436386406E+03  0.21617664143E+03  0.63747996181E+03  0.69792885689E+03  0.12699999809E+01 0. -1.
</event>
<event>
 5   0  0.7459843E-04  0.6998143E+03  0.7818609E-02  0.9717550E-01
        1   -1    0    0  501    0  0.00000000000E+00  0.00000000000E+00  0.55009259846E+03  0.55009259848E+03  0.50400001928E-02 0. -1.
       -1   -1    0    0    0  501  0.00000000000E+00  0.00000000000E+00 -0.22257162883E+03  0.22257162889E+03  0.50400001928E-02 0.  1.
    10030    2    1    2    0    0  0.00000000000E+00  0.00000000000E+00  0.32752096963E+03  0.77266422737E+03  0.69981427730E+03 0.  0.
        2    1    3    3  502    0  0.96866910346E+02  0.12320049552E+03 -0.18165392037E+03  0.23991604200E+03  0.25500000920E-02 0.  1.
       -2    1    3    3    0  502 -0.96866910346E+02 -0.12320049552E+03  0.50917488999E+03  0.53274818538E+03  0.25500000920E-02 0. -1.
</event>
<event>
 5   0  0.1282546E-03  0.6995518E+03  0.7818609E-02  0.9717999E-01
       -2   -1    0    0    0  501  0.00000000000E+00  0.00000000000E+00  0.82193094642E+02  0.82193094682E+02  0.25500000920E-02 0.  1.
        2   -1    0    0  501    0  0.00000000000E+00  0.00000000000E+00 -0.14884849108E+04  0.14884849108E+04  0.25500000920E-02 0. -1.
    10030    2    1    2    0    0  0.00000000000E+00  0.00000000000E+00 -0.14062918162E+04  0.15706780055E+04  0.69955180275E+03 0.  0.
        5    1    3    3  502    0 -0.31734232546E+03 -0.56783204004E+02 -0.10076304988E+04  0.10579564243E+04  0.46999998093E+01 0. -1.
       -5    1    3    3    0  502  0.31734232546E+03  0.56783204004E+02 -0.39866131743E+03  0.51272158117E+03  0.46999998093E+01 0.  1.
</event>
<event>
 5   0  0.1282546E-03  0.6999244E+03  0.7818609E-02  0.9717361E-01
        2   -1    0    0  501    0  0.00000000000E+00  0.00000000000E+00  0.15368757002E+04  0.15368757002E+04  0.25500000920E-02 0.  1.
       -2   -1    0    0    0  501  0.00000000000E+00  0.00000000000E+00 -0.79689949295E+02  0.79689949335E+02  0.25500000920E-02 0. -1.
    10030    2    1    2    0    0  0.00000000000E+00  0.00000000000E+00  0.14571857509E+04  0.16165656496E+04  0.69992441494E+03 0.  0.
        5    1    3    3  502    0 -0.23628753232E+03  0.22683549515E+03  0.44416775689E+03  0.55189965216E+03  0.46999998093E+01 0. -1.
       -5    1    3    3    0  502  0.23628753232E+03 -0.22683549515E+03  0.10130179940E+04  0.10646659974E+04  0.46999998093E+01 0.  1.
</event>
<event>
 5   0  0.7574241E-04  0.6989372E+03  0.7818609E-02  0.9719052E-01
        1   -1    0    0  501    0  0.00000000000E+00  0.00000000000E+00  0.49553656088E+03  0.49553656091E+03  0.50400001928E-02 0.  1.
       -1   -1    0    0    0  501  0.00000000000E+00  0.00000000000E+00 -0.24645666414E+03  0.24645666419E+03  0.50400001928E-02 0. -1.
    10030    2    1    2    0    0  0.00000000000E+00  0.00000000000E+00  0.24907989674E+03  0.74199322510E+03  0.69893715822E+03 0.  0.
        3    1    3    3  502    0 -0.22439627284E+03  0.10809872660E+03  0.38477166230E+03  0.45835386359E+03  0.10100000352E+00 0.  1.
       -3    1    3    3    0  502  0.22439627284E+03 -0.10809872660E+03 -0.13569176556E+03  0.28363936151E+03  0.10100000352E+00 0. -1.
</event>
<event>
 5   0  0.1222679E-03  0.6998933E+03  0.7818609E-02  0.9717415E-01
        2   -1    0    0  501    0  0.00000000000E+00  0.00000000000E+00  0.88306928278E+03  0.88306928278E+03  0.25500000920E-02 0.  1.
       -2   -1    0    0    0  501  0.00000000000E+00  0.00000000000E+00 -0.13867844454E+03  0.13867844457E+03  0.25500000920E-02 0. -1.
    10030    2    1    2    0    0  0.00000000000E+00  0.00000000000E+00  0.74439083824E+03  0.10217477273E+04  0.69989334780E+03 0.  0.
        2    1    3    3  502    0  0.41211631706E+02  0.18262802010E+03 -0.59418617640E+02  0.19642292239E+03  0.25500000920E-02 0. -1.
       -2    1    3    3    0  502 -0.41211631706E+02 -0.18262802010E+03  0.80380945588E+03  0.82532480495E+03  0.25500000920E-02 0.  1.
</event>
<event>
 5   0  0.7572415E-04  0.7006986E+03  0.7818609E-02  0.9716038E-01
       -1   -1    0    0    0  501  0.00000000000E+00  0.00000000000E+00  0.47089297415E+03  0.47089297418E+03  0.50400001928E-02 0.  1.
        1   -1    0    0  501    0  0.00000000000E+00  0.00000000000E+00 -0.26066357022E+03  0.26066357027E+03  0.50400001928E-02 0. -1.
    10030    2    1    2    0    0  0.00000000000E+00  0.00000000000E+00  0.21022940392E+03  0.73155654445E+03  0.70069863383E+03 0.  0.
        4    1    3    3  502    0 -0.16610203844E+03  0.19428322735E+03  0.35526423887E+03  0.43766442844E+03  0.12699999809E+01 0.  1.
       -4    1    3    3    0  502  0.16610203844E+03 -0.19428322735E+03 -0.14503483495E+03  0.29389211601E+03  0.12699999809E+01 0. -1.
</event>
<event>
 5   0  0.1224048E-03  0.6988354E+03  0.7818609E-02  0.9719226E-01
        2   -1    0    0  501    0  0.00000000000E+00  0.00000000000E+00  0.20163990547E+04  0.20163990547E+04  0.25500000920E-02 0.  1.
       -2   -1    0    0    0  501  0.00000000000E+00  0.00000000000E+00 -0.60549889296E+02  0.60549889350E+02  0.25500000920E-02 0. -1.
    10030    2    1    2    0    0  0.00000000000E+00  0.00000000000E+00  0.19558491654E+04  0.20769489441E+04  0.69883543012E+03 0.  0.
        3    1    3    3  502    0  0.21966883536E+03 -0.25525977909E+03  0.70101995469E+03  0.77771520438E+03  0.10100000352E+00 0. -1.
       -3    1    3    3    0  502 -0.21966883536E+03  0.25525977909E+03  0.12548292107E+04  0.12992337397E+04  0.10100000352E+00 0.  1.
</event>
<event>
 5   0  0.4936000E-04  0.7000981E+03  0.7818609E-02  0.9717065E-01
       -4   -1    0    0    0  501  0.00000000000E+00  0.00000000000E+00  0.32155141120E+03  0.32155391919E+03  0.12699999809E+01 0.  1.
        4   -1    0    0  501    0  0.00000000000E+00  0.00000000000E+00 -0.38106721601E+03  0.38106933229E+03  0.12699999809E+01 0. -1.
    10030    2    1    2    0    0  0.00000000000E+00  0.00000000000E+00 -0.59515804804E+02  0.70262325148E+03  0.70009806635E+03 0.  0.
        2    1    3    3  502    0  0.26495606389E+03 -0.14403280280E+03 -0.20812672278E+03  0.36642038264E+03  0.25500000920E-02 0. -1.
       -2    1    3    3    0  502 -0.26495606389E+03  0.14403280280E+03  0.14861091797E+03  0.33620286885E+03  0.25500000920E-02 0.  1.
</event>
<event>
 5   0  0.1222679E-03  0.6998122E+03  0.7818609E-02  0.9717553E-01
        2   -1    0    0  501    0  0.00000000000E+00  0.00000000000E+00  0.78468845590E+03  0.78468845591E+03  0.25500000920E-02 0. -1.
       -2   -1    0    0    0  501  0.00000000000E+00  0.00000000000E+00 -0.15602915226E+03  0.15602915228E+03  0.25500000920E-02 0.  1.
    10030    2    1    2    0    0  0.00000000000E+00  0.00000000000E+00  0.62865930364E+03  0.94071760819E+03  0.69981218788E+03 0.  0.
        2    1    3    3  502    0 -0.21427791534E+03  0.13546179596E+03 -0.98792103331E+01  0.25369769800E+03  0.25500000920E-02 0.  1.
       -2    1    3    3    0  502  0.21427791534E+03 -0.13546179596E+03  0.63853851398E+03  0.68701991019E+03  0.25500000920E-02 0. -1.
</event>
<event>
 5   0  0.7013526E-04  0.6983863E+03  0.7818609E-02  0.9719996E-01
        1   -1    0    0  501    0  0.00000000000E+00  0.00000000000E+00  0.88586822004E+03  0.88586822006E+03  0.50400001928E-02 0. -1.
       -1   -1    0    0    0  501  0.00000000000E+00  0.00000000000E+00 -0.13764559825E+03  0.13764559834E+03  0.50400001928E-02 0.  1.
    10030    2    1    2    0    0  0.00000000000E+00  0.00000000000E+00  0.74822262179E+03  0.10235138184E+04  0.69838631480E+03 0.  0.
        1    1    3    3  502    0  0.12290964026E+03 -0.24728682501E+03  0.68733384041E+03  0.74073298947E+03  0.50400001928E-02 0. -1.
       -1    1    3    3    0  502 -0.12290964026E+03  0.24728682501E+03  0.60888781382E+02  0.28278082894E+03  0.50400001928E-02 0.  1.
</event>
<event>
 5   0  0.1222679E-03  0.7000745E+03  0.7818609E-02  0.9717105E-01
       -2   -1    0    0    0  501  0.00000000000E+00  0.00000000000E+00  0.80441215624E+02  0.80441215664E+02  0.25500000920E-02 0.  1.
        2   -1    0    0  501    0  0.00000000000E+00  0.00000000000E+00 -0.15231755028E+04  0.15231755028E+04  0.25500000920E-02 0. -1.
    10030    2    1    2    0    0  0.00000000000E+00  0.00000000000E+00 -0.14427342871E+04  0.16036167184E+04  0.70007453627E+03 0.  0.
        2    1    3    3  502    0 -0.93415808186E+02  0.13342625466E+03 -0.14310840455E+04  0.14403230970E+04  0.25500000920E-02 0. -1.
       -2    1    3    3    0  502  0.93415808186E+02 -0.13342625466E+03 -0.11650241674E+02  0.16329362140E+03  0.25500000920E-02 0.  1.
</event>
<event>
 5   0  0.7574241E-04  0.7043600E+03  0.7818609E-02  0.9709805E-01
        1   -1    0    0  501    0  0.00000000000E+00  0.00000000000E+00  0.29430658230E+03  0.29430658234E+03  0.50400001928E-02 0. -1.
       -1   -1    0    0    0  501  0.00000000000E+00  0.00000000000E+00 -0.42143388710E+03  0.42143388713E+03  0.50400001928E-02 0.  1.
    10030    2    1    2    0    0  0.00000000000E+00  0.00000000000E+00 -0.12712730480E+03  0.71574046947E+03  0.70436004147E+03 0.  0.
        3    1    3    3  502    0 -0.24662954656E+03 -0.18673085803E+03  0.10748976155E+03  0.32748832898E+03  0.10100000352E+00 0. -1.
       -3    1    3    3    0  502  0.24662954656E+03  0.18673085803E+03 -0.23461706635E+03  0.38825214049E+03  0.10100000352E+00 0.  1.
</event>
<event>
 5   0  0.7572415E-04  0.6995623E+03  0.7818609E-02  0.9717981E-01
       -1   -1    0    0    0  501  0.00000000000E+00  0.00000000000E+00  0.13423824033E+03  0.13423824042E+03  0.50400001928E-02 0.  1.
        1   -1    0    0  501    0  0.00000000000E+00  0.00000000000E+00 -0.91141578552E+03  0.91141578553E+03  0.50400001928E-02 0. -1.
    10030    2    1    2    0    0  0.00000000000E+00  0.00000000000E+00 -0.77717754519E+03  0.10456540260E+04  0.69956229547E+03 0.  0.
        4    1    3    3  502    0 -0.28030930560E+03 -0.16446069652E+03 -0.19528531104E+03  0.37915510430E+03  0.12699999809E+01 0.  1.
       -4    1    3    3    0  502  0.28030930560E+03  0.16446069652E+03 -0.58189223415E+03  0.66649892165E+03  0.12699999809E+01 0. -1.
</event>
<event>
 5   0  0.1224048E-03  0.6996070E+03  0.7818609E-02  0.9717904E-01
       -2   -1    0    0    0  501  0.00000000000E+00  0.00000000000E+00  0.21035018861E+03  0.21035018863E+03  0.25500000920E-02 0. -1.
        2   -1    0    0  501    0  0.00000000000E+00  0.00000000000E+00 -0.58170852928E+03  0.58170852929E+03  0.25500000920E-02 0.  1.
    10030    2    1    2    0    0  0.00000000000E+00  0.00000000000E+00 -0.37135834067E+03  0.79205871792E+03  0.69960702930E+03 0.  0.
        3    1    3    3  502    0  0.24495557690E+03  0.24256520602E+03 -0.25286216249E+03  0.42752824146E+03  0.10100000352E+00 0.  1.
       -3    1    3    3    0  502 -0.24495557690E+03 -0.24256520602E+03 -0.11849617818E+03  0.36453047646E+03  0.10100000352E+00 0. -1.
</event>
<event>
 5   0  0.7013526E-04  0.6998041E+03  0.7818609E-02  0.9717567E-01
        1   -1    0    0  501    0  0.00000000000E+00  0.00000000000E+00  0.69085982904E+03  0.69085982906E+03  0.50400001928E-02 0.  1.
       -1   -1    0    0    0  501  0.00000000000E+00  0.00000000000E+00 -0.17721601976E+03  0.17721601983E+03  0.50400001928E-02 0. -1.
    10030    2    1    2    0    0  0.00000000000E+00  0.00000000000E+00  0.51364380928E+03  0.86807584890E+03  0.69980405588E+03 0.  0.
        1    1    3    3  502    0  0.54320285296E+02  0.14947614669E+03 -0.12978974978E+03  0.20527832569E+03  0.50400001928E-02 0. -1.
       -1    1    3    3    0  502 -0.54320285296E+02 -0.14947614669E+03  0.64343355906E+03  0.66279752321E+03  0.50400001928E-02 0.  1.
</event>
<event>
 5   0  0.7459843E-04  0.6999365E+03  0.7818609E-02  0.9717341E-01
       -1   -1    0    0    0  501  0.00000000000E+00  0.00000000000E+00  0.68342810223E+03  0.68342810225E+03  0.50400001928E-02 0.  1.
        1   -1    0    0  501    0  0.00000000000E+00  0.00000000000E+00 -0.17921089948E+03  0.17921089955E+03  0.50400001928E-02 0. -1.
    10030    2    1    2    0    0  0.00000000000E+00  0.00000000000E+00  0.50421720274E+03  0.86263900180E+03  0.69993646846E+03 0.  0.
        2    1    3    3  502    0 -0.32295026270E+03  0.64726562648E+02  0.39788946173E+03  0.51652920910E+03  0.25500000920E-02 0.  1.
       -2    1    3    3    0  502  0.32295026270E+03 -0.64726562648E+02  0.10632774101E+03  0.34610979270E+03  0.25500000920E-02 0. -1.
</event>
<event>
 5   0  0.7459843E-04  0.6981289E+03  0.7818609E-02  0.9720437E-01
       -1   -1    0    0    0  501  0.00000000000E+00  0.00000000000E+00  0.10020922603E+03  0.10020922615E+03  0.50400001928E-02 0.  1.
        1   -1    0    0  501    0  0.00000000000E+00  0.00000000000E+00 -0.12159157969E+04  0.12159157969E+04  0.50400001928E-02 0. -1.
    10030    2    1    2    0    0  0.00000000000E+00  0.00000000000E+00 -0.11157065709E+04  0.13161250231E+04  0.69812887352E+03 0.  0.
        2    1    3    3  502    0 -0.10957930683E+03  0.30419989974E+03 -0.80582055324E+03  0.86826952470E+03  0.25500000920E-02 0.  1.
       -2    1    3    3    0  502  0.10957930683E+03 -0.30419989974E+03 -0.30988601762E+03  0.44785549836E+03  0.25500000920E-02 0. -1.
</event>
<event>
 5   0  0.1243087E-03  0.7003558E+03  0.7818609E-02  0.9716624E-01
        2   -1    0    0  501    0  0.00000000000E+00  0.00000000000E+00  0.98468027651E+03  0.98468027652E+03  0.25500000920E-02 0. -1.
       -2   -1    0    0    0  501  0.00000000000E+00  0.00000000000E+00 -0.12453234717E+03  0.12453234720E+03  0.25500000920E-02 0.  1.
    10030    2    1    2    0    0  0.00000000000E+00  0.00000000000E+00  0.86014792934E+03  0.11092126237E+04  0.70035575550E+03 0.  0.
        4    1    3    3  502    0  0.95839657360E+02 -0.28011184424E+03  0.72626728545E+03  0.78429182580E+03  0.12699999809E+01 0. -1.
       -4    1    3    3    0  502 -0.95839657360E+02  0.28011184424E+03  0.13388064389E+03  0.32492079791E+03  0.12699999809E+01 0.  1.
</event>
<event>
 5   0  0.7572415E-04  0.6998820E+03  0.7818609E-02  0.9717434E-01
       -1   -1    0    0    0  501  0.00000000000E+00  0.00000000000E+00  0.16493411071E+03  0.16493411078E+03  0.50400001928E-02 0.  1.
        1   -1    0    0  501    0  0.00000000000E+00  0.00000000000E+00 -0.74247045153E+03  0.74247045155E+03  0.50400001928E-02 0. -1.
    10030    2    1    2    0    0  0.00000000000E+00  0.00000000000E+00 -0.57753634083E+03  0.90740456233E+03  0.69988200060E+03 0.  0.
        4    1    3    3  502    0  0.19329253551E+03 -0.29108200346E+03 -0.31358386671E+03  0.46949674268E+03  0.12699999809E+01 0. -1.
       -4    1    3    3    0  502 -0.19329253551E+03  0.29108200346E+03 -0.26395247411E+03  0.43790781965E+03  0.12699999809E+01 0.  1.
</event>
<event>
 5   0  0.7013526E-04  0.6999091E+03  0.7818609E-02  0.9717388E-01
        1   -1    0    0  501    0  0.00000000000E+00  0.00000000000E+00  0.80894112370E+03  0.80894112372E+03  0.50400001928E-02 0.  1.
       -1   -1    0    0    0  501  0.00000000000E+00  0.00000000000E+00 -0.15139321507E+03  0.15139321516E+03  0.50400001928E-02 0. -1.
    10030    2    1    2    0    0  0.00000000000E+00  0.00000000000E+00  0.65754790863E+03  0.96033433888E+03  0.69990913002E+03 0.  0.
        1    1    3    3  502    0  0.31040038323E+03 -0.16100744218E+03  0.34800288254E+03  0.49333335649E+03  0.50400001928E-02 0.  1.
       -1    1    3    3    0  502 -0.31040038323E+03  0.16100744218E+03  0.30954502609E+03  0.46700098239E+03  0.50400001928E-02 0. -1.
</event>
<event>
 5   0  0.1282546E-03  0.7000001E+03  0.7818609E-02  0.9717232E-01
        2   -1    0    0  501    0  0.00000000000E+00  0.00000000000E+00  0.11332680897E+04  0.11332680898E+04  0.25500000920E-02 0. -1.
       -2   -1    0    0    0  501  0.00000000000E+00  0.00000000000E+00 -0.10809450378E+03  0.10809450381E+03  0.25500000920E-02 0.  1.
    10030    2    1    2    0    0  0.00000000000E+00  0.00000000000E+00  0.10251735860E+04  0.12413625936E+04  0.70000014809E+03 0.  0.
        5    1    3    3  502    0 -0.14845957736E+03  0.52398407362E+02  0.10668681807E+04  0.10784320304E+04  0.46999998093E+01 0. -1.
       -5    1    3    3    0  502  0.14845957736E+03 -0.52398407362E+02 -0.41694594684E+02  0.16293056321E+03  0.46999998093E+01 0.  1.
</event>
<event>
 5   0  0.1265562E-03  0.7000922E+03  0.7818609E-02  0.9717075E-01
       -2   -1    0    0    0  501  0.00000000000E+00  0.00000000000E+00  0.24862177446E+03  0.24862177447E+03  0.25500000920E-02 0. -1.
        2   -1    0    0  501    0  0.00000000000E+00  0.00000000000E+00 -0.49284612232E+03  0.49284612233E+03  0.25500000920E-02 0.  1.
    10030    2    1    2    0    0  0.00000000000E+00  0.00000000000E+00 -0.24422434786E+03  0.74146789679E+03  0.70009221527E+03 0.  0.
        1    1    3    3  502    0  0.22646213287E+03  0.38708420588E+02 -0.40182062744E+03  0.46286418754E+03  0.50400001928E-02 0.  1.
       -1    1    3    3    0  502 -0.22646213287E+03 -0.38708420588E+02  0.15759627957E+03  0.27860370925E+03  0.50400001928E-02 0. -1.
</event>
<event>
 5   0  0.1265562E-03  0.6999883E+03  0.7818609E-02  0.9717252E-01
       -2   -1    0    0    0  501  0.00000000000E+00  0.00000000000E+00  0.17157391475E+03  0.17157391477E+03  0.25500000920E-02 0. -1.
        2   -1    0    0  501    0  0.00000000000E+00  0.00000000000E+00 -0.71395417871E+03  0.71395417872E+03  0.25500000920E-02 0.  1.
    10030    2    1    2    0    0  0.00000000000E+00  0.00000000000E+00 -0.54238026396E+03  0.88552809348E+03  0.69998832391E+03 0.  0.
        1    1    3    3  502    0  0.10829933714E+03  0.84840549026E+02  0.13593410702E+03  0.19340306786E+03  0.50400001928E-02 0. -1.
       -1    1    3    3    0  502 -0.10829933714E+03 -0.84840549026E+02 -0.67831437098E+03  0.69212502562E+03  0.50400001928E-02 0.  1.
</event>
<event>
 5   0  0.4936000E-04  0.7001006E+03  0.7818609E-02  0.9717060E-01
        3   -1    0    0  501    0  0.00000000000E+00  0.00000000000E+00  0.53196167829E+03  0.53196168788E+03  0.10100000352E+00 0.  1.
       -3   -1    0    0    0  501  0.00000000000E+00  0.00000000000E+00 -0.23034594779E+03  0.23034596993E+03  0.10100000352E+00 0. -1.
    10030    2    1    2    0    0  0.00000000000E+00  0.00000000000E+00  0.30161573050E+03  0.76230765780E+03  0.70010064724E+03 0.  0.
        3    1    3    3  502    0 -0.11597079483E+03 -0.32412513226E+03  0.21992132434E+03  0.40849935828E+03  0.10100000352E+00 0.  1.
       -3    1    3    3    0  502  0.11597079483E+03  0.32412513226E+03  0.81694406166E+02  0.35380829953E+03  0.10100000352E+00 0. -1.
</event>
<event>
 5   0  0.7574241E-04  0.6998832E+03  0.7818609E-02  0.9717432E-01
       -1   -1    0    0    0  501  0.00000000000E+00  0.00000000000E+00  0.98148627190E+02  0.98148627319E+02  0.50400001928E-02 0.  1.
        1   -1    0    0  501    0  0.00000000000E+00  0.00000000000E+00 -0.12476907673E+04  0.12476907673E+04  0.50400001928E-02 0. -1.
    10030    2    1    2    0    0  0.00000000000E+00  0.00000000000E+00 -0.11495421401E+04  0.13458393946E+04  0.69988323614E+03 0.  0.
        3    1    3    3  502    0  0.77984752010E+02  0.29047321174E+03 -0.91877369239E+03  0.96674785560E+03  0.10100000352E+00 0. -1.
       -3    1    3    3    0  502 -0.77984752010E+02 -0.29047321174E+03 -0.23076844769E+03  0.37909153899E+03  0.10100000352E+00 0.  1.
</event>
<event>
 5   0  0.1282546E-03  0.7000240E+03  0.7818609E-02  0.9717191E-01
        2   -1    0    0  501    0  0.00000000000E+00  0.00000000000E+00  0.12294669108E+04  0.12294669108E+04  0.25500000920E-02 0.  1.
       -2   -1    0    0    0  501  0.00000000000E+00  0.00000000000E+00 -0.99643512393E+02  0.99643512426E+02  0.25500000920E-02 0. -1.
    10030    2    1    2    0    0  0.00000000000E+00  0.00000000000E+00  0.11298233984E+04  0.13291104232E+04  0.70002400354E+03 0.  0.
        5    1    3    3  502    0  0.32727013809E+03  0.27828223830E+02  0.79437652867E+03  0.85961404865E+03  0.46999998093E+01 0. -1.
       -5    1    3    3    0  502 -0.32727013809E+03 -0.27828223830E+02  0.33544686971E+03  0.46949637456E+03  0.46999998093E+01 0.  1.
</event>
<event>
 5   0  0.1222679E-03  0.6993724E+03  0.7818609E-02  0.9718306E-01
        2   -1    0    0  501    0  0.00000000000E+00  0.00000000000E+00  0.27861785732E+04  0.27861785732E+04  0.25500000920E-02 0. -1.
       -2   -1    0    0    0  501  0.00000000000E+00  0.00000000000E+00 -0.43888225777E+02  0.43888225851E+02  0.25500000920E-02 0.  1.
    10030    2    1    2    0    0  0.00000000000E+00  0.00000000000E+00  0.27422903474E+04  0.28300667990E+04  0.69937238831E+03 0.  0.
        2    1    3    3  502    0 -0.10122085995E+03 -0.27460222148E+03  0.59668849359E+03  0.66459702145E+03  0.25500000920E-02 0.  1.
       -2    1    3    3    0  502  0.10122085995E+03  0.27460222148E+03  0.21456018538E+04  0.21654697776E+04  0.25500000920E-02 0. -1.
</event>
<event>
 5   0  0.7570633E-04  0.7000266E+03  0.7818609E-02  0.9717187E-01
        1   -1    0    0  501    0  0.00000000000E+00  0.00000000000E+00  0.69851837053E+03  0.69851837055E+03  0.50400001928E-02 0.  1.
       -1   -1    0    0    0  501  0.00000000000E+00  0.00000000000E+00 -0.17538449820E+03  0.17538449828E+03  0.50400001928E-02 0. -1.
    10030    2    1    2    0    0  0.00000000000E+00  0.00000000000E+00  0.52313387233E+03  0.87390286882E+03  0.70002655361E+03 0.  0.
        5    1    3    3  502    0 -0.19986636438E+03 -0.12853656812E+03  0.58232906869E+03  0.62896537838E+03  0.46999998093E+01 0.  1.
       -5    1    3    3    0  502  0.19986636438E+03  0.12853656812E+03 -0.59195196364E+02  0.24493749045E+03  0.46999998093E+01 0. -1.
</event>
<event>
 5   0  0.1265562E-03  0.7000705E+03  0.7818609E-02  0.9717112E-01
       -2   -1    0    0    0  501  0.00000000000E+00  0.00000000000E+00  0.17764459394E+03  0.17764459395E+03  0.25500000920E-02 0.  1.
        2   -1    0    0  501    0  0.00000000000E+00  0.00000000000E+00 -0.68971792542E+03  0.68971792542E+03  0.25500000920E-02 0. -1.
    10030    2    1    2    0    0  0.00000000000E+00  0.00000000000E+00 -0.51207333148E+03  0.86736251937E+03  0.70007045588E+03 0.  0.
        1    1    3    3  502    0 -0.77609167950E+02 -0.33349337247E+02  0.16482722890E+03  0.18521170767E+03  0.50400001928E-02 0.  1.
       -1    1    3    3    0  502  0.77609167950E+02  0.33349337247E+02 -0.67690056038E+03  0.68215081171E+03  0.50400001928E-02 0. -1.
</event>
<event>
 5   0  0.1243087E-03  0.6999163E+03  0.7818609E-02  0.9717375E-01
       -2   -1    0    0    0  501  0.00000000000E+00  0.00000000000E+00  0.90462726337E+02  0.90462726373E+02  0.25500000920E-02 0. -1.
        2   -1    0    0  501    0  0.00000000000E+00  0.00000000000E+00 -0.13538251372E+04  0.13538251372E+04  0.25500000920E-02 0.  1.
    10030    2    1    2    0    0  0.00000000000E+00  0.00000000000E+00 -0.12633624109E+04  0.14442878636E+04  0.69991631763E+03 0.  0.
        4    1    3    3  502    0 -0.16963762463E+03  0.18676740003E+03 -0.11321000504E+04  0.11598754771E+04  0.12699999809E+01 0.  1.
       -4    1    3    3    0  502  0.16963762463E+03 -0.18676740003E+03 -0.13126236049E+03  0.28441238648E+03  0.12699999809E+01 0. -1.
</event>
<event>
 5   0  0.1265562E-03  0.6999086E+03  0.7818609E-02  0.9717389E-01
        2   -1    0    0  501    0  0.00000000000E+00  0.00000000000E+00  0.72881997015E+03  0.72881997015E+03  0.25500000920E-02 0. -1.
       -2   -1    0    0    0  501  0.00000000000E+00  0.00000000000E+00 -0.16803601542E+03  0.16803601544E+03  0.25500000920E-02 0.  1.
    10030    2    1    2    0    0  0.00000000000E+00  0.00000000000E+00  0.56078395473E+03  0.89685598559E+03  0.69990857617E+03 0.  0.
        1    1    3    3  502    0 -0.34860851098E+02 -0.11289633635E+03  0.70248731808E+03  0.71235475277E+03  0.50400001928E-02 0. -1.
       -1    1    3    3    0  502  0.34860851098E+02  0.11289633635E+03 -0.14170336335E+03  0.18450123282E+03  0.50400001928E-02 0.  1.
</event>
<event>
 5   0  0.1222679E-03  0.6998622E+03  0.7818609E-02  0.9717468E-01
       -2   -1    0    0    0  501  0.00000000000E+00  0.00000000000E+00  0.16799938045E+03  0.16799938047E+03  0.25500000920E-02 0. -1.
        2   -1    0    0  501    0  0.00000000000E+00  0.00000000000E+00 -0.72888222836E+03  0.72888222836E+03  0.25500000920E-02 0.  1.
    10030    2    1    2    0    0  0.00000000000E+00  0.00000000000E+00 -0.56088284791E+03  0.89688160883E+03  0.69986216584E+03 0.  0.
        2    1    3    3  502    0 -0.58154248094E+02  0.12303406702E+03 -0.69358234666E+03  0.70680674149E+03  0.25500000920E-02 0.  1.
       -2    1    3    3    0  502  0.58154248094E+02 -0.12303406702E+03  0.13269949875E+03  0.19007486734E+03  0.25500000920E-02 0. -1.
</event>
<event>
 5   0  0.7459843E-04  0.6991537E+03  0.7818609E-02  0.9718681E-01
       -1   -1    0    0    0  501  0.00000000000E+00  0.00000000000E+00  0.13024586516E+03  0.13024586526E+03  0.50400001928E-02 0.  1.
        1   -1    0    0  501    0  0.00000000000E+00  0.00000000000E+00 -0.93825606096E+03  0.93825606097E+03  0.50400001928E-02 0. -1.
    10030    2    1    2    0    0  0.00000000000E+00  0.00000000000E+00 -0.80801019580E+03  0.10685019262E+04  0.69915369544E+03 0.  0.
        2    1    3    3  502    0 -0.17995021399E+03  0.20547893402E+03 -0.70572927282E+02  0.28210673497E+03  0.25500000920E-02 0. -1.
       -2    1    3    3    0  502  0.17995021399E+03 -0.20547893402E+03 -0.73743726851E+03  0.78639519126E+03  0.25500000920E-02 0.  1.
</event>
<event>
 5   0  0.7459843E-04  0.6997040E+03  0.7818609E-02  0.9717739E-01
       -1   -1    0    0    0  501  0.00000000000E+00  0.00000000000E+00  0.32779189955E+03  0.32779189959E+03  0.50400001928E-02 0.  1.
        1   -1    0    0  501    0  0.00000000000E+00  0.00000000000E+00 -0.37339668677E+03  0.37339668681E+03  0.50400001928E-02 0. -1.
    10030    2    1    2    0    0  0.00000000000E+00  0.00000000000E+00 -0.45604787219E+02  0.70118858640E+03  0.69970396388E+03 0.  0.
        2    1    3    3  502    0  0.23567144237E+03 -0.12959125230E+03  0.20141659044E+03  0.33601125626E+03  0.25500000920E-02 0.  1.
       -2    1    3    3    0  502 -0.23567144237E+03  0.12959125230E+03 -0.24702137766E+03  0.36517733014E+03  0.25500000920E-02 0. -1.
</event>
<event>
 5   0  0.1265562E-03  0.6999584E+03  0.7818609E-02  0.9717303E-01
       -2   -1    0    0    0  501  0.00000000000E+00  0.00000000000E+00  0.65534974337E+03  0.65534974338E+03  0.25500000920E-02 0.  1.
        2   -1    0    0  501    0  0.00000000000E+00  0.00000000000E+00 -0.18690087498E+03  0.18690087500E+03  0.25500000920E-02 0. -1.
    10030    2    1    2    0    0  0.00000000000E+00  0.00000000000E+00  0.46844886839E+03  0.84225061838E+03  0.69995840009E+03 0.  0.
        1    1    3    3  502    0 -0.21338594173E+03  0.27562957223E+03  0.27189747858E+03  0.44207856778E+03  0.50400001928E-02 0.  1.
       -1    1    3    3    0  502  0.21338594173E+03 -0.27562957223E+03  0.19655138982E+03  0.40017205059E+03  0.50400001928E-02 0. -1.
</event>
<event>
 5   0  0.7013526E-04  0.7011920E+03  0.7818609E-02  0.9715196E-01
       -1   -1    0    0    0  501  0.00000000000E+00  0.00000000000E+00  0.19707389628E+03  0.19707389634E+03  0.50400001928E-02 0.  1.
        1   -1    0    0  501    0  0.00000000000E+00  0.00000000000E+00 -0.62371305681E+03  0.62371305683E+03  0.50400001928E-02 0. -1.
    10030    2    1    2    0    0  0.00000000000E+00  0.00000000000E+00 -0.42663916054E+03  0.82078695318E+03  0.70119202021E+03 0.  0.
        1    1    3    3  502    0  0.62118557831E+02 -0.13840288555E+03  0.15666515447E+03  0.21807806998E+03  0.50400001928E-02 0.  1.
       -1    1    3    3    0  502 -0.62118557831E+02  0.13840288555E+03 -0.58330431500E+03  0.60270888320E+03  0.50400001928E-02 0. -1.
</event>
<event>
 5   0  0.7570633E-04  0.7015997E+03  0.7818609E-02  0.9714500E-01
        1   -1    0    0  501    0  0.00000000000E+00  0.00000000000E+00  0.54130874825E+03  0.54130874827E+03  0.50400001928E-02 0. -1.
       -1   -1    0    0    0  501  0.00000000000E+00  0.00000000000E+00 -0.22733887282E+03  0.22733887288E+03  0.50400001928E-02 0.  1.
    10030    2    1    2    0    0  0.00000000000E+00  0.00000000000E+00  0.31396987543E+03  0.76864762115E+03  0.70159965994E+03 0.  0.
        5    1    3    3  502    0 -0.18182653988E+03 -0.29672051701E+03  0.20517078122E+03  0.40400630600E+03  0.46999998093E+01 0. -1.
       -5    1    3    3    0  502  0.18182653988E+03  0.29672051701E+03  0.10879909421E+03  0.36464131515E+03  0.46999998093E+01 0.  1.
</event>
<event>
 5   0  0.1224048E-03  0.7000503E+03  0.7818609E-02  0.9717146E-01
        2   -1    0    0  501    0  0.00000000000E+00  0.00000000000E+00  0.65915765025E+03  0.65915765025E+03  0.25500000920E-02 0.  1.
       -2   -1    0    0    0  501  0.00000000000E+00  0.00000000000E+00 -0.18586994563E+03  0.18586994564E+03  0.25500000920E-02 0. -1.
    10030    2    1    2    0    0  0.00000000000E+00  0.00000000000E+00  0.47328770462E+03  0.84502759590E+03  0.70005027425E+03 0.  0.
        3    1    3    3  502    0 -0.33760922313E+03  0.24475326820E+02  0.12909334768E+03  0.36227631965E+03  0.10100000352E+00 0. -1.
       -3    1    3    3    0  502  0.33760922313E+03 -0.24475326820E+02  0.34419435694E+03  0.48275127624E+03  0.10100000352E+00 0.  1.
</event>
<event>
 5   0  0.7572415E-04  0.7000096E+03  0.7818609E-02  0.9717216E-01
        1   -1    0    0  501    0  0.00000000000E+00  0.00000000000E+00  0.68393994842E+03  0.68393994844E+03  0.50400001928E-02 0. -1.
       -1   -1    0    0    0  501  0.00000000000E+00  0.00000000000E+00 -0.17911422459E+03  0.17911422466E+03  0.50400001928E-02 0.  1.
    10030    2    1    2    0    0  0.00000000000E+00  0.00000000000E+00  0.50482572383E+03  0.86305417311E+03  0.70000963870E+03 0.  0.
        4    1    3    3  502    0  0.82349389413E+02 -0.33746735514E+03  0.19958233821E+03  0.40062496221E+03  0.12699999809E+01 0. -1.
       -4    1    3    3    0  502 -0.82349389413E+02  0.33746735514E+03  0.30524338562E+03  0.46242921090E+03  0.12699999809E+01 0.  1.
</event>
<event>
 5   0  0.1222679E-03  0.7008276E+03  0.7818609E-02  0.9715818E-01
        2   -1    0    0  501    0  0.00000000000E+00  0.00000000000E+00  0.29596315350E+03  0.29596315351E+03  0.25500000920E-02 0.  1.
       -2   -1    0    0    0  501  0.00000000000E+00  0.00000000000E+00 -0.41488211768E+03  0.41488211769E+03  0.25500000920E-02 0. -1.
    10030    2    1    2    0    0  0.00000000000E+00  0.00000000000E+00 -0.11891896418E+03  0.71084527120E+03  0.70082756762E+03 0.  0.
        2    1    3    3  502    0 -0.11412592037E+03 -0.15274338842E+03 -0.35765945056E+03  0.40530920417E+03  0.25500000920E-02 0. -1.
       -2    1    3    3    0  502  0.11412592037E+03  0.15274338842E+03  0.23874048638E+03  0.30553606702E+03  0.25500000920E-02 0.  1.
</event>
<event>
 5   0  0.7572415E-04  0.7000623E+03  0.7818609E-02  0.9717126E-01
        1   -1    0    0  501    0  0.00000000000E+00  0.00000000000E+00  0.14560186060E+04  0.14560186060E+04  0.50400001928E-02 0. -1.
       -1   -1    0    0    0  501  0.00000000000E+00  0.00000000000E+00 -0.84148512275E+02  0.84148512426E+02  0.50400001928E-02 0.  1.
    10030    2    1    2    0    0  0.00000000000E+00  0.00000000000E+00  0.13718700937E+04  0.15401671184E+04  0.70006228197E+03 0.  0.
        4    1    3    3  502    0  0.11472145431E+03  0.32275678207E+03  0.84438754869E+03  0.91122165126E+03  0.12699999809E+01 0.  1.
       -4    1    3    3    0  502 -0.11472145431E+03 -0.32275678207E+03  0.52748254502E+03  0.62894546715E+03  0.12699999809E+01 0. -1.
</event>
<event>
 5   0  0.7013526E-04  0.6996895E+03  0.7818609E-02  0.9717763E-01
        1   -1    0    0  501    0  0.00000000000E+00  0.00000000000E+00  0.73621032566E+03  0.73621032568E+03  0.50400001928E-02 0.  1.
       -1   -1    0    0    0  501  0.00000000000E+00  0.00000000000E+00 -0.16624510170E+03  0.16624510178E+03  0.50400001928E-02 0. -1.
    10030    2    1    2    0    0  0.00000000000E+00  0.00000000000E+00  0.56996522396E+03  0.90245542745E+03  0.69968953259E+03 0.  0.
        1    1    3    3  502    0  0.34534437349E+03 -0.16495088456E+02  0.21604753690E+03  0.40769027763E+03  0.50400001928E-02 0.  1.
       -1    1    3    3    0  502 -0.34534437349E+03  0.16495088456E+02  0.35391768706E+03  0.49476514983E+03  0.50400001928E-02 0. -1.
</event>
<event>
 5   0  0.1282546E-03  0.7025872E+03  0.7818609E-02  0.9712818E-01
        2   -1    0    0  501    0  0.00000000000E+00  0.00000000000E+00  0.56788728403E+03  0.56788728403E+03  0.25500000920E-02 0.  1.
       -2   -1    0    0    0  501  0.00000000000E+00  0.00000000000E+00 -0.21730931577E+03  0.21730931579E+03  0.25500000920E-02 0. -1.
    10030    2    1    2    0    0  0.00000000000E+00  0.00000000000E+00  0.35057796825E+03  0.78519659982E+03  0.70258721063E+03 0.  0.
        5    1    3    3  502    0 -0.23242792551E+03 -0.24344234978E+03  0.28759419714E+03  0.44274081633E+03  0.46999998093E+01 0.  1.
       -5    1    3    3    0  502  0.23242792551E+03  0.24344234978E+03  0.62983771118E+02  0.34245578349E+03  0.46999998093E+01 0. -1.
</event>
<event>
 5   0  0.7574241E-04  0.6995221E+03  0.7818609E-02  0.9718050E-01
       -1   -1    0    0    0  501  0.00000000000E+00  0.00000000000E+00  0.16794654821E+03  0.16794654829E+03  0.50400001928E-02 0. -1.
        1   -1    0    0  501    0  0.00000000000E+00  0.00000000000E+00 -0.72840308377E+03  0.72840308379E+03  0.50400001928E-02 0.  1.
    10030    2    1    2    0    0  0.00000000000E+00  0.00000000000E+00 -0.56045653556E+03  0.89634963208E+03  0.69952207590E+03 0.  0.
        3    1    3    3  502    0  0.26021456147E+02 -0.64903172853E+02 -0.71935514904E+03  0.72274572201E+03  0.10100000352E+00 0.  1.
       -3    1    3    3    0  502 -0.26021456147E+02  0.64903172853E+02  0.15889861348E+03  0.17360391007E+03  0.10100000352E+00 0. -1.
</event>
<event>
 5   0  0.4936000E-04  0.7000178E+03  0.7818609E-02  0.9717202E-01
        3   -1    0    0  501    0  0.00000000000E+00  0.00000000000E+00  0.45773044471E+03  0.45773045586E+03  0.10100000352E+00 0. -1.
       -3   -1    0    0    0  501  0.00000000000E+00  0.00000000000E+00 -0.26763837061E+03  0.26763838967E+03  0.10100000352E+00 0.  1.
    10030    2    1    2    0    0  0.00000000000E+00  0.00000000000E+00  0.19009207410E+03  0.72536884552E+03  0.70001783222E+03 0.  0.
        5    1    3    3  502    0 -0.13613272804E+03  0.22217658979E+03  0.33715157866E+03  0.42613123998E+03  0.46999998093E+01 0. -1.
       -5    1    3    3    0  502  0.13613272804E+03 -0.22217658979E+03 -0.14705950456E+03  0.29923760555E+03  0.46999998093E+01 0.  1.
</event>
<event>
 5   0  0.7574241E-04  0.6998080E+03  0.7818609E-02  0.9717561E-01
        1   -1    0    0  501    0  0.00000000000E+00  0.00000000000E+00  0.84401940069E+03  0.84401940070E+03  0.50400001928E-02 0.  1.
       -1   -1    0    0    0  501  0.00000000000E+00  0.00000000000E+00 -0.14505924055E+03  0.14505924064E+03  0.50400001928E-02 0. -1.
    10030    2    1    2    0    0  0.00000000000E+00  0.00000000000E+00  0.69896016014E+03  0.98907864134E+03  0.69980801173E+03 0.  0.
        3    1    3    3  502    0  0.10805816648E+03  0.46399216527E+02 -0.11629207437E+03  0.16538836537E+03  0.10100000352E+00 0. -1.
       -3    1    3    3    0  502 -0.10805816648E+03 -0.46399216527E+02  0.81525223451E+03  0.82369027596E+03  0.10100000352E+00 0.  1.
</event>
<event>
 5   0  0.1222679E-03  0.6999930E+03  0.7818609E-02  0.9717244E-01
       -2   -1    0    0    0  501  0.00000000000E+00  0.00000000000E+00  0.21026939931E+03  0.21026939932E+03  0.25500000920E-02 0. -1.
        2   -1    0    0  501    0  0.00000000000E+00  0.00000000000E+00 -0.58257433920E+03  0.58257433920E+03  0.25500000920E-02 0.  1.
    10030    2    1    2    0    0  0.00000000000E+00  0.00000000000E+00 -0.37230493989E+03  0.79284373853E+03  0.69999301815E+03 0.  0.
        2    1    3    3  502    0  0.24203246190E+03  0.11426396022E+03 -0.44159244527E+03  0.51637181657E+03  0.25500000920E-02 0.  1.
       -2    1    3    3    0  502 -0.24203246190E+03 -0.11426396022E+03  0.69287505384E+02  0.27647192195E+03  0.25500000920E-02 0. -1.
</event>
<event>
 5   0  0.1243087E-03  0.7005242E+03  0.7818609E-02  0.9716336E-01
        2   -1    0    0  501    0  0.00000000000E+00  0.00000000000E+00  0.56221297545E+03  0.56221297545E+03  0.25500000920E-02 0. -1.
       -2   -1    0    0    0  501  0.00000000000E+00  0.00000000000E+00 -0.21821538640E+03  0.21821538642E+03  0.25500000920E-02 0.  1.
    10030    2    1    2    0    0  0.00000000000E+00  0.00000000000E+00  0.34399758905E+03  0.78042836187E+03  0.70052415143E+03 0.  0.
        4    1    3    3  502    0 -0.21836673681E+03 -0.16112559868E+03  0.41869888148E+03  0.49895476403E+03  0.12699999809E+01 0. -1.
       -4    1    3    3    0  502  0.21836673681E+03  0.16112559868E+03 -0.74701292432E+02  0.28147359784E+03  0.12699999809E+01 0.  1.
</event>
<event>
 5   0  0.7574241E-04  0.6999156E+03  0.7818609E-02  0.9717377E-01
       -1   -1    0    0    0  501  0.00000000000E+00  0.00000000000E+00  0.17856110837E+03  0.17856110845E+03  0.50400001928E-02 0.  1.
        1   -1    0    0  501    0  0.00000000000E+00  0.00000000000E+00 -0.68587421126E+03  0.68587421128E+03  0.50400001928E-02 0. -1.
    10030    2    1    2    0    0  0.00000000000E+00  0.00000000000E+00 -0.50731310289E+03  0.86443531973E+03  0.69991559322E+03 0.  0.
        3    1    3    3  502    0 -0.29986120755E+03 -0.11307935986E+03 -0.80014615010E+02  0.33031202557E+03  0.10100000352E+00 0.  1.
       -3    1    3    3    0  502  0.29986120755E+03  0.11307935986E+03 -0.42729848788E+03  0.53412329416E+03  0.10100000352E+00 0. -1.
</event>
<event>
 5   0  0.1222679E-03  0.7001914E+03  0.7818609E-02  0.9716905E-01
       -2   -1    0    0    0  501  0.00000000000E+00  0.00000000000E+00  0.95670446596E+03  0.95670446596E+03  0.25500000920E-02 0. -1.
        2   -1    0    0  501    0  0.00000000000E+00  0.00000000000E+00 -0.12811375958E+03  0.12811375960E+03  0.25500000920E-02 0.  1.
    10030    2    1    2    0    0  0.00000000000E+00  0.00000000000E+00  0.82859070638E+03  0.10848182256E+04  0.70019141941E+03 0.  0.
        2    1    3    3  502    0  0.20784286762E+02  0.90939514497E+01  0.95556441871E+03  0.95583369099E+03  0.25500000920E-02 0. -1.
       -2    1    3    3    0  502 -0.20784286762E+02 -0.90939514497E+01 -0.12697371233E+03  0.12898453457E+03  0.25500000920E-02 0.  1.
</event>
<event>
 5   0  0.1243087E-03  0.7000777E+03  0.7818609E-02  0.9717099E-01
       -2   -1    0    0    0  501  0.00000000000E+00  0.00000000000E+00  0.25710452553E+03  0.25710452555E+03  0.25500000920E-02 0.  1.
        2   -1    0    0  501    0  0.00000000000E+00  0.00000000000E+00 -0.47656569214E+03  0.47656569214E+03  0.25500000920E-02 0. -1.
    10030    2    1    2    0    0  0.00000000000E+00  0.00000000000E+00 -0.21946116661E+03  0.73367021769E+03  0.70007769903E+03 0.  0.
        4    1    3    3  502    0  0.37359678446E+01 -0.30665857601E+03  0.67102992456E+02  0.31393926832E+03  0.12699999809E+01 0. -1.
       -4    1    3    3    0  502 -0.37359678446E+01  0.30665857601E+03 -0.28656415906E+03  0.41973094937E+03  0.12699999809E+01 0.  1.
</event>
<event>
 5   0  0.1224048E-03  0.6999952E+03  0.7818609E-02  0.9717240E-01
        2   -1    0    0  501    0  0.00000000000E+00  0.00000000000E+00  0.73123833432E+03  0.73123833433E+03  0.25500000920E-02 0. -1.
       -2   -1    0    0    0  501  0.00000000000E+00  0.00000000000E+00 -0.16752172148E+03  0.16752172150E+03  0.25500000920E-02 0.  1.
    10030    2    1    2    0    0  0.00000000000E+00  0.00000000000E+00  0.56371661284E+03  0.89876005582E+03  0.69999515595E+03 0.  0.
        3    1    3    3  502    0  0.21771588984E+03 -0.29125854627E+01  0.63369297465E+03  0.67005633208E+03  0.10100000352E+00 0. -1.
       -3    1    3    3    0  502 -0.21771588984E+03  0.29125854627E+01 -0.69976361805E+02  0.22870372374E+03  0.10100000352E+00 0.  1.
</event>
<event>
 5   0  0.7574241E-04  0.6998100E+03  0.7818609E-02  0.9717557E-01
        1   -1    0    0  501    0  0.00000000000E+00  0.00000000000E+00  0.50189053332E+03  0.50189053334E+03  0.50400001928E-02 0.  1.
       -1   -1    0    0    0  501  0.00000000000E+00  0.00000000000E+00 -0.24394467698E+03  0.24394467703E+03  0.50400001928E-02 0. -1.
    10030    2    1    2    0    0  0.00000000000E+00  0.00000000000E+00  0.25794585634E+03  0.74583521037E+03  0.69981004296E+03 0.  0.
        3    1    3    3  502    0 -0.18289322496E+03  0.48239519449E+02  0.44270820997E+03  0.48142242609E+03  0.10100000352E+00 0.  1.
       -3    1    3    3    0  502  0.18289322496E+03 -0.48239519449E+02 -0.18476235363E+03  0.26441278428E+03  0.10100000352E+00 0. -1.
</event>
<event>
 5   0  0.1222679E-03  0.6992708E+03  0.7818609E-02  0.9718480E-01
       -2   -1    0    0    0  501  0.00000000000E+00  0.00000000000E+00  0.22573676631E+03  0.22573676633E+03  0.25500000920E-02 0.  1.
        2   -1    0    0  501    0  0.00000000000E+00  0.00000000000E+00 -0.54153745664E+03  0.54153745664E+03  0.25500000920E-02 0. -1.
    10030    2    1    2    0    0  0.00000000000E+00  0.00000000000E+00 -0.31580069032E+03  0.76727422297E+03  0.69927080393E+03 0.  0.
        2    1    3    3  502    0  0.15479874736E+03  0.17677896364E+03 -0.44198289146E+03  0.50056201466E+03  0.25500000920E-02 0. -1.
       -2    1    3    3    0  502 -0.15479874736E+03 -0.17677896364E+03  0.12618220114E+03  0.26671220831E+03  0.25500000920E-02 0.  1.
</event>
<event>
 5   0  0.7570633E-04  0.6997297E+03  0.7818609E-02  0.9717695E-01
       -1   -1    0    0    0  501  0.00000000000E+00  0.00000000000E+00  0.21775423128E+03  0.21775423134E+03  0.50400001928E-02 0.  1.
        1   -1    0    0  501    0  0.00000000000E+00  0.00000000000E+00 -0.56212647650E+03  0.56212647653E+03  0.50400001928E-02 0. -1.
    10030    2    1    2    0    0  0.00000000000E+00  0.00000000000E+00 -0.34437224522E+03  0.77988070786E+03  0.69972971583E+03 0.  0.
        5    1    3    3  502    0  0.49799092129E+02 -0.28587938536E+03  0.45582396020E+02  0.29378021951E+03  0.46999998093E+01 0.  1.
       -5    1    3    3    0  502 -0.49799092129E+02  0.28587938536E+03 -0.38995464124E+03  0.48610048835E+03  0.46999998093E+01 0. -1.
</event>
<event>
 5   0  0.7572415E-04  0.7001131E+03  0.7818609E-02  0.9717039E-01
        1   -1    0    0  501    0  0.00000000000E+00  0.00000000000E+00  0.22907979864E+03  0.22907979869E+03  0.50400001928E-02 0.  1.
       -1   -1    0    0    0  501  0.00000000000E+00  0.00000000000E+00 -0.53492092271E+03  0.53492092273E+03  0.50400001928E-02 0. -1.
    10030    2    1    2    0    0  0.00000000000E+00  0.00000000000E+00 -0.30584112407E+03  0.76400072142E+03  0.70011306884E+03 0.  0.
        4    1    3    3  502    0  0.22425036716E+02  0.19524198991E+03 -0.46903698502E+03  0.50854657910E+03  0.12699999809E+01 0. -1.
       -4    1    3    3    0  502 -0.22425036716E+02 -0.19524198991E+03  0.16319586095E+03  0.25545414232E+03  0.12699999809E+01 0.  1.
</event>
<event>
 5   0  0.1222679E-03  0.7000864E+03  0.7818609E-02  0.9717084E-01
        2   -1    0    0  501    0  0.00000000000E+00  0.00000000000E+00  0.24877229927E+04  0.24877229927E+04  0.25500000920E-02 0.  1.
       -2   -1    0    0    0  501  0.00000000000E+00  0.00000000000E+00 -0.49253973775E+02  0.49253973841E+02  0.25500000920E-02 0. -1.
    10030    2    1    2    0    0  0.00000000000E+00  0.00000000000E+00  0.24384690190E+04  0.25369769666E+04  0.70008640361E+03 0.  0.
        2    1    3    3  502    0 -0.19344218210E+02 -0.25271544345E+03  0.34432035263E+03  0.42754625408E+03  0.25500000920E-02 0. -1.
       -2    1    3    3    0  502  0.19344218210E+02  0.25271544345E+03  0.20941486663E+04  0.21094307125E+04  0.25500000920E-02 0.  1.
</event>
<event>
 5   0  0.7574241E-04  0.6999105E+03  0.7818609E-02  0.9717385E-01
        1   -1    0    0  501    0  0.00000000000E+00  0.00000000000E+00  0.38569307602E+03  0.38569307605E+03  0.50400001928E-02 0.  1.
       -1   -1    0    0    0  501  0.00000000000E+00  0.00000000000E+00 -0.31752885028E+03  0.31752885032E+03  0.50400001928E-02 0. -1.
    10030    2    1    2    0    0  0.00000000000E+00  0.00000000000E+00  0.68164225741E+02  0.70322192637E+03  0.69991050575E+03 0.  0.
        3    1    3    3  502    0 -0.97743842244E+02 -0.31102089058E+03 -0.93723550045E+02  0.33922259227E+03  0.10100000352E+00 0. -1.
       -3    1    3    3    0  502  0.97743842244E+02  0.31102089058E+03  0.16188777579E+03  0.36399933410E+03  0.10100000352E+00 0.  1.
</event>
<event>
 5   0  0.7574241E-04  0.6999919E+03  0.7818609E-02  0.9717246E-01
       -1   -1    0    0    0  501  0.00000000000E+00  0.00000000000E+00  0.23758233016E+03  0.23758233021E+03  0.50400001928E-02 0. -1.
        1   -1    0    0  501    0  0.00000000000E+00  0.00000000000E+00 -0.51559875040E+03  0.51559875042E+03  0.50400001928E-02 0.  1.
    10030    2    1    2    0    0  0.00000000000E+00  0.00000000000E+00 -0.27801642024E+03  0.75318108064E+03  0.69999186446E+03 0.  0.
        3    1    3    3  502    0 -0.37952364436E+01  0.36083126824E+02 -0.51356978430E+03  0.51484981248E+03  0.10100000352E+00 0.  1.
       -3    1    3    3    0  502  0.37952364436E+01 -0.36083126824E+02  0.23555336406E+03  0.23833126816E+03  0.10100000352E+00 0. -1.
</event>
<event>
 5   0  0.7574241E-04  0.7006739E+03  0.7818609E-02  0.9716081E-01
        1   -1    0    0  501    0  0.00000000000E+00  0.00000000000E+00  0.13609487508E+03  0.13609487518E+03  0.50400001928E-02 0.  1.
       -1   -1    0    0    0  501  0.00000000000E+00  0.00000000000E+00 -0.90184116708E+03  0.90184116709E+03  0.50400001928E-02 0. -1.
    10030    2    1    2    0    0  0.00000000000E+00  0.00000000000E+00 -0.76574629200E+03  0.10379360423E+04  0.70067385005E+03 0.  0.
        3    1    3    3  502    0  0.24481582300E+03 -0.17156213386E+03 -0.65346651828E+03  0.71860062182E+03  0.10100000352E+00 0. -1.
       -3    1    3    3    0  502 -0.24481582300E+03  0.17156213386E+03 -0.11227977371E+03  0.31933542045E+03  0.10100000352E+00 0.  1.
</event>
<event>
 5   0  0.7459843E-04  0.7000446E+03  0.7818609E-02  0.9717156E-01
       -1   -1    0    0    0  501  0.00000000000E+00  0.00000000000E+00  0.91350647762E+02  0.91350647901E+02  0.50400001928E-02 0.  1.
        1   -1    0    0  501    0  0.00000000000E+00  0.00000000000E+00 -0.13411576839E+04  0.13411576839E+04  0.50400001928E-02 0. -1.
    10030    2    1    2    0    0  0.00000000000E+00  0.00000000000E+00 -0.12498070361E+04  0.14325083318E+04  0.70004463652E+03 0.  0.
        2    1    3    3  502    0 -0.12779196374E+03 -0.30193833206E+03 -0.87567528726E+03  0.93504264667E+03  0.25500000920E-02 0. -1.
       -2    1    3    3    0  502  0.12779196374E+03  0.30193833206E+03 -0.37413174887E+03  0.49746568514E+03  0.25500000920E-02 0.  1.
</event>
<event>
 5   0  0.1282546E-03  0.6998399E+03  0.7818609E-02  0.9717506E-01
        2   -1    0    0  501    0  0.00000000000E+00  0.00000000000E+00  0.73541418406E+03  0.73541418406E+03  0.25500000920E-02 0.  1.
       -2   -1    0    0    0  501  0.00000000000E+00  0.00000000000E+00 -0.16649660808E+03  0.16649660810E+03  0.25500000920E-02 0. -1.
    10030    2    1    2    0    0  0.00000000000E+00  0.00000000000E+00  0.56891757598E+03  0.90191079216E+03  0.69983988795E+03 0.  0.
        5    1    3    3  502    0 -0.14870809189E+03  0.10274432036E+03  0.67054604874E+03  0.69449592183E+03  0.46999998093E+01 0.  1.
       -5    1    3    3    0  502  0.14870809189E+03 -0.10274432036E+03 -0.10162847277E+03  0.20741487033E+03  0.46999998093E+01 0. -1.
</event>
<event>
 5   0  0.7572415E-04  0.7004619E+03  0.7818609E-02  0.9716443E-01
       -1   -1    0    0    0  501  0.00000000000E+00  0.00000000000E+00  0.16167806066E+03  0.16167806074E+03  0.50400001928E-02 0.  1.
        1   -1    0    0  501    0  0.00000000000E+00  0.00000000000E+00 -0.75867874562E+03  0.75867874563E+03  0.50400001928E-02 0. -1.
    10030    2    1    2    0    0  0.00000000000E+00  0.00000000000E+00 -0.59700068496E+03  0.92035680637E+03  0.70046187133E+03 0.  0.
        4    1    3    3  502    0 -0.24978900154E+03 -0.14042324898E+02 -0.62052907855E+03  0.66906627654E+03  0.12699999809E+01 0. -1.
       -4    1    3    3    0  502  0.24978900154E+03  0.14042324898E+02  0.23528393587E+02  0.25129052983E+03  0.12699999809E+01 0.  1.
</event>
<event>
 5   0  0.7574241E-04  0.6996275E+03  0.7818609E-02  0.9717869E-01
       -1   -1    0    0    0  501  0.00000000000E+00  0.00000000000E+00  0.29492482201E+03  0.29492482205E+03  0.50400001928E-02 0.  1.
        1   -1    0    0  501    0  0.00000000000E+00  0.00000000000E+00 -0.41491811161E+03  0.41491811164E+03  0.50400001928E-02 0. -1.
    10030    2    1    2    0    0  0.00000000000E+00  0.00000000000E+00 -0.11999328960E+03  0.70984293369E+03  0.69962747299E+03 0.  0.
        3    1    3    3  502    0  0.11070736253E+03  0.29934643423E+03 -0.20528397877E+03  0.37948113253E+03  0.10100000352E+00 0. -1.
       -3    1    3    3    0  502 -0.11070736253E+03 -0.29934643423E+03  0.85290689171E+02  0.33036180116E+03  0.10100000352E+00 0.  1.
</event>
<event>
 5   0  0.1222679E-03  0.6997337E+03  0.7818609E-02  0.9717688E-01
        2   -1    0    0  501    0  0.00000000000E+00  0.00000000000E+00  0.68985315554E+03  0.68985315555E+03  0.25500000920E-02 0. -1.
       -2   -1    0    0    0  501  0.00000000000E+00  0.00000000000E+00 -0.17743892526E+03  0.17743892528E+03  0.25500000920E-02 0.  1.
    10030    2    1    2    0    0  0.00000000000E+00  0.00000000000E+00  0.51241423028E+03  0.86729208083E+03  0.69973367082E+03 0.  0.
        2    1    3    3  502    0  0.34638813352E+03  0.42347671804E+02  0.22512808052E+03  0.41528389927E+03  0.25500000920E-02 0. -1.
       -2    1    3    3    0  502 -0.34638813352E+03 -0.42347671804E+02  0.28728614976E+03  0.45200818156E+03  0.25500000920E-02 0.  1.
</event>
<event>
 5   0  0.4936000E-04  0.7006718E+03  0.7818609E-02  0.9716084E-01
        4   -1    0    0  501    0  0.00000000000E+00  0.00000000000E+00  0.26158120889E+03  0.26158429185E+03  0.12699999809E+01 0. -1.
       -4   -1    0    0    0  501  0.00000000000E+00  0.00000000000E+00 -0.46919846875E+03  0.46920018753E+03  0.12699999809E+01 0.  1.
    10030    2    1    2    0    0  0.00000000000E+00  0.00000000000E+00 -0.20761725986E+03  0.73078447939E+03  0.70067184096E+03 0.  0.
        3    1    3    3  502    0  0.12854227435E+03  0.32561898008E+03 -0.11797202827E+03  0.36941608809E+03  0.10100000352E+00 0. -1.
       -3    1    3    3    0  502 -0.12854227435E+03 -0.32561898008E+03 -0.89645231589E+02  0.36136839130E+03  0.10100000352E+00 0.  1.
</event>
<event>
 5   0  0.1282546E-03  0.7003457E+03  0.7818609E-02  0.9716641E-01
       -2   -1    0    0    0  501  0.00000000000E+00  0.00000000000E+00  0.15214927158E+03  0.15214927160E+03  0.25500000920E-02 0.  1.
        2   -1    0    0  501    0  0.00000000000E+00  0.00000000000E+00 -0.80592578830E+03  0.80592578830E+03  0.25500000920E-02 0. -1.
    10030    2    1    2    0    0  0.00000000000E+00  0.00000000000E+00 -0.65377651672E+03  0.95807505991E+03  0.70034569079E+03 0.  0.
        5    1    3    3  502    0 -0.29039015177E+02  0.34275644358E+03 -0.23745718107E+03  0.41801106069E+03  0.46999998093E+01 0.  1.
       -5    1    3    3    0  502  0.29039015177E+02 -0.34275644358E+03 -0.41631933565E+03  0.54006399922E+03  0.46999998093E+01 0. -1.
</event>
<event>
 5   0  0.7013526E-04  0.7000691E+03  0.7818609E-02  0.9717114E-01
       -1   -1    0    0    0  501  0.00000000000E+00  0.00000000000E+00  0.11717118253E+03  0.11717118264E+03  0.50400001928E-02 0.  1.
        1   -1    0    0  501    0  0.00000000000E+00  0.00000000000E+00 -0.10456852336E+04  0.10456852336E+04  0.50400001928E-02 0. -1.
    10030    2    1    2    0    0  0.00000000000E+00  0.00000000000E+00 -0.92851405108E+03  0.11628564163E+04  0.70006906931E+03 0.  0.
        1    1    3    3  502    0  0.27836106047E+03 -0.61627780959E+02 -0.12692976426E+03  0.31208016350E+03  0.50400001928E-02 0.  1.
       -1    1    3    3    0  502 -0.27836106047E+03  0.61627780959E+02 -0.80158428682E+03  0.85077625277E+03  0.50400001928E-02 0. -1.
</event>
<event>
 5   0  0.1224048E-03  0.7001684E+03  0.7818609E-02  0.9716944E-01
        2   -1    0    0  501    0  0.00000000000E+00  0.00000000000E+00  0.46369484013E+03  0.46369484013E+03  0.25500000920E-02 0.  1.
       -2   -1    0    0    0  501  0.00000000000E+00  0.00000000000E+00 -0.26430952345E+03  0.26430952346E+03  0.25500000920E-02 0. -1.
    10030    2    1    2    0    0  0.00000000000E+00  0.00000000000E+00  0.19938531668E+03  0.72800436359E+03  0.70016844323E+03 0.  0.
        3    1    3    3  502    0 -0.24569943402E+03  0.23609797743E+03  0.16197690247E+02  0.34113463939E+03  0.10100000352E+00 0. -1.
       -3    1    3    3    0  502  0.24569943402E+03 -0.23609797743E+03  0.18318762643E+03  0.38686972420E+03  0.10100000352E+00 0.  1.
</event>
<event>
 5   0  0.1282546E-03  0.6999108E+03  0.7818609E-02  0.9717385E-01
       -2   -1    0    0    0  501  0.00000000000E+00  0.00000000000E+00  0.21888644479E+03  0.21888644481E+03  0.25500000920E-02 0.  1.
        2   -1    0    0  501    0  0.00000000000E+00  0.00000000000E+00 -0.55950826412E+03  0.55950826413E+03  0.25500000920E-02 0. -1.
    10030    2    1    2    0    0  0.00000000000E+00  0.00000000000E+00 -0.34062181933E+03  0.77839470894E+03  0.69991077939E+03 0.  0.
        5    1    3    3  502    0 -0.12118690751E+03  0.18281571573E+03 -0.47353594864E+03  0.52188718812E+03  0.46999998093E+01 0. -1.
       -5    1    3    3    0  502  0.12118690751E+03 -0.18281571573E+03  0.13291412931E+03  0.25650752082E+03  0.46999998093E+01 0.  1.
</event>
<event>
 5   0  0.7013526E-04  0.6997426E+03  0.7818609E-02  0.9717673E-01
       -1   -1    0    0    0  501  0.00000000000E+00  0.00000000000E+00  0.16201658048E+03  0.16201658056E+03  0.50400001928E-02 0.  1.
        1   -1    0    0  501    0  0.00000000000E+00  0.00000000000E+00 -0.75553943302E+03  0.75553943304E+03  0.50400001928E-02 0. -1.
    10030    2    1    2    0    0  0.00000000000E+00  0.00000000000E+00 -0.59352285254E+03  0.91755601360E+03  0.69974256809E+03 0.  0.
        1    1    3    3  502    0 -0.75604723715E+02 -0.26814120342E+03 -0.19234660716E+02  0.27925929066E+03  0.50400001928E-02 0.  1.
       -1    1    3    3    0  502  0.75604723715E+02  0.26814120342E+03 -0.57428819183E+03  0.63829672294E+03  0.50400001928E-02 0. -1.
</event>
<event>
 5   0  0.1222679E-03  0.7000612E+03  0.7818609E-02  0.9717128E-01
        2   -1    0    0  501    0  0.00000000000E+00  0.00000000000E+00  0.73312715955E+03  0.73312715955E+03  0.25500000920E-02 0. -1.
       -2   -1    0    0    0  501  0.00000000000E+00  0.00000000000E+00 -0.16712163195E+03  0.16712163197E+03  0.25500000920E-02 0.  1.
    10030    2    1    2    0    0  0.00000000000E+00  0.00000000000E+00  0.56600552760E+03  0.90024879152E+03  0.70006116115E+03 0.  0.
        2    1    3    3  502    0  0.31292003338E+03  0.71965253041E+02  0.10378135469E+03  0.33744409096E+03  0.25500000920E-02 0.  1.
       -2    1    3    3    0  502 -0.31292003338E+03 -0.71965253041E+02  0.46222417291E+03  0.56280470055E+03  0.25500000920E-02 0. -1.
</event>
<event>
 5   0  0.1282546E-03  0.6999055E+03  0.7818609E-02  0.9717394E-01
       -2   -1    0    0    0  501  0.00000000000E+00  0.00000000000E+00  0.92710015520E+02  0.92710015555E+02  0.25500000920E-02 0.  1.
        2   -1    0    0  501    0  0.00000000000E+00  0.00000000000E+00 -0.13209676454E+04  0.13209676454E+04  0.25500000920E-02 0. -1.
    10030    2    1    2    0    0  0.00000000000E+00  0.00000000000E+00 -0.12282576299E+04  0.14136776610E+04  0.69990551057E+03 0.  0.
        5    1    3    3  502    0 -0.12934449446E+03  0.19051677801E+02 -0.12697185119E+04  0.12764404233E+04  0.46999998093E+01 0. -1.
       -5    1    3    3    0  502  0.12934449446E+03 -0.19051677801E+02  0.41460882018E+02  0.13723723770E+03  0.46999998093E+01 0.  1.
</event>
<event>
 5   0  0.7459843E-04  0.7001469E+03  0.7818609E-02  0.9716981E-01
       -1   -1    0    0    0  501  0.00000000000E+00  0.00000000000E+00  0.18829255469E+03  0.18829255476E+03  0.50400001928E-02 0. -1.
        1   -1    0    0  501    0  0.00000000000E+00  0.00000000000E+00 -0.65085641911E+03  0.65085641913E+03  0.50400001928E-02 0.  1.
    10030    2    1    2    0    0  0.00000000000E+00  0.00000000000E+00 -0.46256386442E+03  0.83914897388E+03  0.70014689295E+03 0.  0.
        2    1    3    3  502    0  0.81309000176E+02  0.10515901046E+03 -0.61943235650E+03  0.63353454150E+03  0.25500000920E-02 0.  1.
       -2    1    3    3    0  502 -0.81309000176E+02 -0.10515901046E+03  0.15686849208E+03  0.20561443238E+03  0.25500000920E-02 0. -1.
</event>
<event>
 5   0  0.1282546E-03  0.6999547E+03  0.7818609E-02  0.9717310E-01
        2   -1    0    0  501    0  0.00000000000E+00  0.00000000000E+00  0.56055374638E+03  0.56055374638E+03  0.25500000920E-02 0.  1.
       -2   -1    0    0    0  501  0.00000000000E+00  0.00000000000E+00 -0.21850563334E+03  0.21850563336E+03  0.25500000920E-02 0. -1.
    10030    2    1    2    0    0  0.00000000000E+00  0.00000000000E+00  0.34204811303E+03  0.77905937974E+03  0.69995471677E+03 0.  0.
        5    1    3    3  502    0 -0.49593014179E+02 -0.19481293689E+03  0.48984090848E+03  0.52950708499E+03  0.46999998093E+01 0.  1.
       -5    1    3    3    0  502  0.49593014179E+02  0.19481293689E+03 -0.14779279545E+03  0.24955229475E+03  0.46999998093E+01 0. -1.
</event>
<event>
 5   0  0.7572415E-04  0.7006705E+03  0.7818609E-02  0.9716086E-01
        1   -1    0    0  501    0  0.00000000000E+00  0.00000000000E+00  0.15641025839E+03  0.15641025847E+03  0.50400001928E-02 0. -1.
       -1   -1    0    0    0  501  0.00000000000E+00  0.00000000000E+00 -0.78469789005E+03  0.78469789007E+03  0.50400001928E-02 0.  1.
    10030    2    1    2    0    0  0.00000000000E+00  0.00000000000E+00 -0.62828763166E+03  0.94110814854E+03  0.70067053538E+03 0.  0.
        4    1    3    3  502    0  0.28073496114E+03  0.11048603480E+03 -0.55333795630E+03  0.63024105632E+03  0.12699999809E+01 0.  1.
       -4    1    3    3    0  502 -0.28073496114E+03 -0.11048603480E+03 -0.74949675364E+02  0.31086709222E+03  0.12699999809E+01 0. -1.
</event>
<event>
 5   0  0.7570633E-04  0.6999537E+03  0.7818609E-02  0.9717311E-01
       -1   -1    0    0    0  501  0.00000000000E+00  0.00000000000E+00  0.15445320806E+03  0.15445320814E+03  0.50400001928E-02 0. -1.
        1   -1    0    0  501    0  0.00000000000E+00  0.00000000000E+00 -0.79301544881E+03  0.79301544882E+03  0.50400001928E-02 0.  1.
    10030    2    1    2    0    0  0.00000000000E+00  0.00000000000E+00 -0.63856224075E+03  0.94746865697E+03  0.69995365605E+03 0.  0.
        5    1    3    3  502    0 -0.19225322757E+03 -0.27319305244E+03 -0.17818038670E+03  0.37863714505E+03  0.46999998093E+01 0. -1.
       -5    1    3    3    0  502  0.19225322757E+03  0.27319305244E+03 -0.46038185405E+03  0.56883151191E+03  0.46999998093E+01 0.  1.
</event>
<event>
 5   0  0.7570633E-04  0.7000952E+03  0.7818609E-02  0.9717069E-01
        1   -1    0    0  501    0  0.00000000000E+00  0.00000000000E+00  0.51542251359E+03  0.51542251362E+03  0.50400001928E-02 0. -1.
       -1   -1    0    0    0  501  0.00000000000E+00  0.00000000000E+00 -0.23773370714E+03  0.23773370719E+03  0.50400001928E-02 0.  1.
    10030    2    1    2    0    0  0.00000000000E+00  0.00000000000E+00  0.27768880646E+03  0.75315622081E+03  0.70009515047E+03 0.  0.
        5    1    3    3  502    0 -0.26833551984E+03 -0.20454523163E+03  0.38683029113E+02  0.33964859742E+03  0.46999998093E+01 0.  1.
       -5    1    3    3    0  502  0.26833551984E+03  0.20454523163E+03  0.23900577734E+03  0.41350762338E+03  0.46999998093E+01 0. -1.
</event>
<event>
 5   0  0.7570633E-04  0.7006232E+03  0.7818609E-02  0.9716167E-01
        1   -1    0    0  501    0  0.00000000000E+00  0.00000000000E+00  0.48723066052E+03  0.48723066055E+03  0.50400001928E-02 0.  1.
       -1   -1    0    0    0  501  0.00000000000E+00  0.00000000000E+00 -0.25186882356E+03  0.25186882361E+03  0.50400001928E-02 0. -1.
    10030    2    1    2    0    0  0.00000000000E+00  0.00000000000E+00  0.23536183696E+03  0.73909948416E+03  0.70062318916E+03 0.  0.
        5    1    3    3  502    0 -0.44362960568E+02  0.13067355476E+03 -0.22195078708E+03  0.26139604448E+03  0.46999998093E+01 0. -1.
       -5    1    3    3    0  502  0.44362960568E+02 -0.13067355476E+03  0.45731262404E+03  0.47770343968E+03  0.46999998093E+01 0.  1.
</event>
<event>
 5   0  0.1224048E-03  0.6999961E+03  0.7818609E-02  0.9717239E-01
       -2   -1    0    0    0  501  0.00000000000E+00  0.00000000000E+00  0.24913849047E+03  0.24913849048E+03  0.25500000920E-02 0.  1.
        2   -1    0    0  501    0  0.00000000000E+00  0.00000000000E+00 -0.49168889535E+03  0.49168889536E+03  0.25500000920E-02 0. -1.
    10030    2    1    2    0    0  0.00000000000E+00  0.00000000000E+00 -0.24255040488E+03  0.74082738584E+03  0.69999608335E+03 0.  0.
        3    1    3    3  502    0 -0.22184223656E+03 -0.25069267574E+03 -0.13150135268E+02  0.33501303236E+03  0.10100000352E+00 0.  1.
       -3    1    3    3    0  502  0.22184223656E+03  0.25069267574E+03 -0.22940026962E+03  0.40581435348E+03  0.10100000352E+00 0. -1.
</event>
<event>
 5   0  0.7570633E-04  0.6999521E+03  0.7818609E-02  0.9717314E-01
        1   -1    0    0  501    0  0.00000000000E+00  0.00000000000E+00  0.11239754753E+04  0.11239754753E+04  0.50400001928E-02 0.  1.
       -1   -1    0    0    0  501  0.00000000000E+00  0.00000000000E+00 -0.10897323479E+03  0.10897323490E+03  0.50400001928E-02 0. -1.
    10030    2    1    2    0    0  0.00000000000E+00  0.00000000000E+00  0.10150022405E+04  0.12329487102E+04  0.69995212249E+03 0.  0.
        5    1    3    3  502    0 -0.17631150431E+03 -0.30211202830E+03  0.52544132097E+03  0.63124329381E+03  0.46999998093E+01 0.  1.
       -5    1    3    3    0  502  0.17631150431E+03  0.30211202830E+03  0.48956091956E+03  0.60170541643E+03  0.46999998093E+01 0. -1.
</event>
<event>
 5   0  0.7570633E-04  0.6999542E+03  0.7818609E-02  0.9717311E-01
        1   -1    0    0  501    0  0.00000000000E+00  0.00000000000E+00  0.57316340544E+03  0.57316340546E+03  0.50400001928E-02 0. -1.
       -1   -1    0    0    0  501  0.00000000000E+00  0.00000000000E+00 -0.21369816851E+03  0.21369816857E+03  0.50400001928E-02 0.  1.
    10030    2    1    2    0    0  0.00000000000E+00  0.00000000000E+00  0.35946523693E+03  0.78686157404E+03  0.69995419860E+03 0.  0.
        5    1    3    3  502    0 -0.85739279632E+02 -0.36918886206E+02 -0.19940766835E+03  0.22022655704E+03  0.46999998093E+01 0.  1.
       -5    1    3    3    0  502  0.85739279632E+02  0.36918886206E+02  0.55887290528E+03  0.56663501700E+03  0.46999998093E+01 0. -1.
</event>
<event>
 5   0  0.1224048E-03  0.6999177E+03  0.7818609E-02  0.9717373E-01
       -2   -1    0    0    0  501  0.00000000000E+00  0.00000000000E+00  0.17291335362E+03  0.17291335364E+03  0.25500000920E-02 0. -1.
        2   -1    0    0  501    0  0.00000000000E+00  0.00000000000E+00 -0.70828069278E+03  0.70828069278E+03  0.25500000920E-02 0.  1.
    10030    2    1    2    0    0  0.00000000000E+00  0.00000000000E+00 -0.53536733916E+03  0.88119404642E+03  0.69991768060E+03 0.  0.
        3    1    3    3  502    0  0.21977337071E+03  0.25948719212E+03 -0.37178710876E+03  0.50384481915E+03  0.10100000352E+00 0.  1.
       -3    1    3    3    0  502 -0.21977337071E+03 -0.25948719212E+03 -0.16358023039E+03  0.37734922727E+03  0.10100000352E+00 0. -1.
</event>
<event>
 5   0  0.1265562E-03  0.6997399E+03  0.7818609E-02  0.9717677E-01
        2   -1    0    0  501    0  0.00000000000E+00  0.00000000000E+00  0.31328153978E+03  0.31328153979E+03  0.25500000920E-02 0. -1.
       -2   -1    0    0    0  501  0.00000000000E+00  0.00000000000E+00 -0.39073160276E+03  0.39073160276E+03  0.25500000920E-02 0.  1.
    10030    2    1    2    0    0  0.00000000000E+00  0.00000000000E+00 -0.77450062973E+02  0.70401314256E+03  0.69973994644E+03 0.  0.
        1    1    3    3  502    0  0.69571490155E+02 -0.32249578433E+03 -0.15590635533E+03  0.36489795123E+03  0.50400001928E-02 0.  1.
       -1    1    3    3    0  502 -0.69571490155E+02  0.32249578433E+03  0.78456292356E+02  0.33911519133E+03  0.50400001928E-02 0. -1.
</event>
<event>
 5   0  0.1243087E-03  0.6977736E+03  0.7818609E-02  0.9721047E-01
       -2   -1    0    0    0  501  0.00000000000E+00  0.00000000000E+00  0.94921639438E+02  0.94921639472E+02  0.25500000920E-02 0. -1.
        2   -1    0    0  501    0  0.00000000000E+00  0.00000000000E+00 -0.12823420232E+04  0.12823420232E+04  0.25500000920E-02 0.  1.
    10030    2    1    2    0    0  0.00000000000E+00  0.00000000000E+00 -0.11874203838E+04  0.13772636627E+04  0.69777362287E+03 0.  0.
        4    1    3    3  502    0  0.35757329481E+02 -0.34704499919E+03 -0.59618824417E+03  0.69076830664E+03  0.12699999809E+01 0.  1.
       -4    1    3    3    0  502 -0.35757329481E+02  0.34704499919E+03 -0.59123213964E+03  0.68649535608E+03  0.12699999809E+01 0. -1.
</event>
<event>
 5   0  0.7459843E-04  0.6994302E+03  0.7818609E-02  0.9718207E-01
        1   -1    0    0  501    0  0.00000000000E+00  0.00000000000E+00  0.12212886512E+04  0.12212886513E+04  0.50400001928E-02 0.  1.
       -1   -1    0    0    0  501  0.00000000000E+00  0.00000000000E+00 -0.10014065282E+03  0.10014065294E+03  0.50400001928E-02 0. -1.
    10030    2    1    2    0    0  0.00000000000E+00  0.00000000000E+00  0.11211479984E+04  0.13214293042E+04  0.69943017637E+03 0.  0.
        2    1    3    3  502    0  0.70466216908E+02 -0.83632604636E+02 -0.67003723804E+02  0.12825521156E+03  0.25500000920E-02 0. -1.
       -2    1    3    3    0  502 -0.70466216908E+02  0.83632604636E+02  0.11881517222E+04  0.11931740926E+04  0.25500000920E-02 0.  1.
</event>
<event>
 5   0  0.1282546E-03  0.6998234E+03  0.7818609E-02  0.9717534E-01
        2   -1    0    0  501    0  0.00000000000E+00  0.00000000000E+00  0.30650690650E+03  0.30650690651E+03  0.25500000920E-02 0.  1.
       -2   -1    0    0    0  501  0.00000000000E+00  0.00000000000E+00 -0.39946305874E+03  0.39946305875E+03  0.25500000920E-02 0. -1.
    10030    2    1    2    0    0  0.00000000000E+00  0.00000000000E+00 -0.92956152236E+02  0.70596996526E+03  0.69982336744E+03 0.  0.
        5    1    3    3  502    0 -0.23424155674E+03  0.11403305126E+03  0.18911856708E+03  0.32196360990E+03  0.46999998093E+01 0.  1.
       -5    1    3    3    0  502  0.23424155674E+03 -0.11403305126E+03 -0.28207471932E+03  0.38400635536E+03  0.46999998093E+01 0. -1.
</event>
<event>
 5   0  0.7572415E-04  0.6999863E+03  0.7818609E-02  0.9717256E-01
        1   -1    0    0  501    0  0.00000000000E+00  0.00000000000E+00  0.67476191823E+03  0.67476191825E+03  0.50400001928E-02 0. -1.
       -1   -1    0    0    0  501  0.00000000000E+00  0.00000000000E+00 -0.18153843258E+03  0.18153843265E+03  0.50400001928E-02 0.  1.
    10030    2    1    2    0    0  0.00000000000E+00  0.00000000000E+00  0.49322348565E+03  0.85630035090E+03  0.69998634569E+03 0.  0.
        4    1    3    3  502    0 -0.21601623105E+03  0.72109494107E+02  0.57172424318E+03  0.61541288121E+03  0.12699999809E+01 0. -1.
       -4    1    3    3    0  502  0.21601623105E+03 -0.72109494107E+02 -0.78500757532E+02  0.24088746969E+03  0.12699999809E+01 0.  1.
</event>
<event>
 5   0  0.1265562E-03  0.6989185E+03  0.7818609E-02  0.9719083E-01
       -2   -1    0    0    0  501  0.00000000000E+00  0.00000000000E+00  0.76649031838E+02  0.76649031880E+02  0.25500000920E-02 0. -1.
        2   -1    0    0  501    0  0.00000000000E+00  0.00000000000E+00 -0.15932591025E+04  0.15932591025E+04  0.25500000920E-02 0.  1.
    10030    2    1    2    0    0  0.00000000000E+00  0.00000000000E+00 -0.15166100707E+04  0.16699081344E+04  0.69891850086E+03 0.  0.
        1    1    3    3  502    0  0.33356342394E+03 -0.48685551598E+02 -0.97841579655E+03  0.10348585950E+04  0.50400001928E-02 0. -1.
       -1    1    3    3    0  502 -0.33356342394E+03  0.48685551598E+02 -0.53819427411E+03  0.63504953935E+03  0.50400001928E-02 0.  1.
</event>
<event>
 5   0  0.1282546E-03  0.6993939E+03  0.7818609E-02  0.9718269E-01
       -2   -1    0    0    0  501  0.00000000000E+00  0.00000000000E+00  0.19182929155E+03  0.19182929156E+03  0.25500000920E-02 0. -1.
        2   -1    0    0  501    0  0.00000000000E+00  0.00000000000E+00 -0.63748317375E+03  0.63748317375E+03  0.25500000920E-02 0.  1.
    10030    2    1    2    0    0  0.00000000000E+00  0.00000000000E+00 -0.44565388220E+03  0.82931246532E+03  0.69939386787E+03 0.  0.
        5    1    3    3  502    0 -0.87270594830E+02 -0.25993081702E+03 -0.48012751024E+03  0.55292377635E+03  0.46999998093E+01 0.  1.
       -5    1    3    3    0  502  0.87270594830E+02  0.25993081702E+03  0.34473628046E+02  0.27638868897E+03  0.46999998093E+01 0. -1.
</event>
<event>
 5   0  0.1222679E-03  0.7001085E+03  0.7818609E-02  0.9717047E-01
       -2   -1    0    0    0  501  0.00000000000E+00  0.00000000000E+00  0.79771803550E+02  0.79771803591E+02  0.25500000920E-02 0.  1.
        2   -1    0    0  501    0  0.00000000000E+00  0.00000000000E+00 -0.15361064143E+04  0.15361064143E+04  0.25500000920E-02 0. -1.
    10030    2    1    2    0    0  0.00000000000E+00  0.00000000000E+00 -0.14563346107E+04  0.16158782179E+04  0.70010850344E+03 0.  0.
        2    1    3    3  502    0 -0.18499559134E+02 -0.12856484005E+03  0.22094103175E+02  0.13175470081E+03  0.25500000920E-02 0.  1.
       -2    1    3    3    0  502  0.18499559134E+02  0.12856484005E+03 -0.14784287139E+04  0.14841235171E+04  0.25500000920E-02 0. -1.
</event>
<event>
 5   0  0.7013526E-04  0.7000755E+03  0.7818609E-02  0.9717103E-01
        1   -1    0    0  501    0  0.00000000000E+00  0.00000000000E+00  0.86199188836E+03  0.86199188837E+03  0.50400001928E-02 0.  1.
       -1   -1    0    0    0  501  0.00000000000E+00  0.00000000000E+00 -0.14214334775E+03  0.14214334784E+03  0.50400001928E-02 0. -1.
    10030    2    1    2    0    0  0.00000000000E+00  0.00000000000E+00  0.71984854061E+03  0.10041352362E+04  0.70007546106E+03 0.  0.
        1    1    3    3  502    0 -0.11197596856E+03 -0.34353936273E+02  0.83305044184E+03  0.84124422682E+03  0.50400001928E-02 0.  1.
       -1    1    3    3    0  502  0.11197596856E+03  0.34353936273E+02 -0.11320190123E+03  0.16289100939E+03  0.50400001928E-02 0. -1.
</event>
<event>
 5   0  0.7572415E-04  0.6999289E+03  0.7818609E-02  0.9717354E-01
       -1   -1    0    0    0  501  0.00000000000E+00  0.00000000000E+00  0.22104191298E+03  0.22104191303E+03  0.50400001928E-02 0.  1.
        1   -1    0    0  501    0  0.00000000000E+00  0.00000000000E+00 -0.55408098090E+03  0.55408098092E+03  0.50400001928E-02 0. -1.
    10030    2    1    2    0    0  0.00000000000E+00  0.00000000000E+00 -0.33303906792E+03  0.77512289396E+03  0.69992891066E+03 0.  0.
        4    1    3    3  502    0 -0.14754481775E+03 -0.17325793504E+03  0.12791075177E+03  0.26105661956E+03  0.12699999809E+01 0.  1.
       -4    1    3    3    0  502  0.14754481775E+03  0.17325793504E+03 -0.46094981969E+03  0.51406627440E+03  0.12699999809E+01 0. -1.
</event>
<event>
 5   0  0.1222679E-03  0.7000105E+03  0.7818609E-02  0.9717214E-01
        2   -1    0    0  501    0  0.00000000000E+00  0.00000000000E+00  0.28603788979E+03  0.28603788980E+03  0.25500000920E-02 0. -1.
       -2   -1    0    0    0  501  0.00000000000E+00  0.00000000000E+00 -0.42827782335E+03  0.42827782336E+03  0.25500000920E-02 0.  1.
    10030    2    1    2    0    0  0.00000000000E+00  0.00000000000E+00 -0.14223993357E+03  0.71431571316E+03  0.70001052804E+03 0.  0.
        2    1    3    3  502    0  0.19871155547E+03 -0.70455079854E+02 -0.35620983232E+03  0.41392710131E+03  0.25500000920E-02 0.  1.
       -2    1    3    3    0  502 -0.19871155547E+03  0.70455079854E+02  0.21396989875E+03  0.30038861185E+03  0.25500000920E-02 0. -1.
</event>
<event>
 5   0  0.1282546E-03  0.6998359E+03  0.7818609E-02  0.9717513E-01
       -2   -1    0    0    0  501  0.00000000000E+00  0.00000000000E+00  0.14718025767E+03  0.14718025770E+03  0.25500000920E-02 0.  1.
        2   -1    0    0  501    0  0.00000000000E+00  0.00000000000E+00 -0.83192244573E+03  0.83192244573E+03  0.25500000920E-02 0. -1.
    10030    2    1    2    0    0  0.00000000000E+00  0.00000000000E+00 -0.68474218805E+03  0.97910270343E+03  0.69983586630E+03 0.  0.
        5    1    3    3  502    0 -0.30702286354E+03  0.16468178173E+03 -0.29731090305E+03  0.45803819824E+03  0.46999998093E+01 0.  1.
       -5    1    3    3    0  502  0.30702286354E+03 -0.16468178173E+03 -0.38743128500E+03  0.52106450519E+03  0.46999998093E+01 0. -1.
</event>
<event>
 5   0  0.7572415E-04  0.6996073E+03  0.7818609E-02  0.9717904E-01
        1   -1    0    0  501    0  0.00000000000E+00  0.00000000000E+00  0.38646801705E+03  0.38646801708E+03  0.50400001928E-02 0.  1.
       -1   -1    0    0    0  501  0.00000000000E+00  0.00000000000E+00 -0.31661767979E+03  0.31661767983E+03  0.50400001928E-02 0. -1.
    10030    2    1    2    0    0  0.00000000000E+00  0.00000000000E+00  0.69850337255E+02  0.70308569691E+03  0.69960733814E+03 0.  0.
        4    1    3    3  502    0 -0.69351243296E+02 -0.51689301975E+02 -0.30569894762E+03  0.31770243682E+03  0.12699999809E+01 0. -1.
       -4    1    3    3    0  502  0.69351243296E+02  0.51689301975E+02  0.37554928488E+03  0.38538326009E+03  0.12699999809E+01 0.  1.
</event>
<event>
 5   0  0.7459843E-04  0.7000476E+03  0.7818609E-02  0.9717151E-01
       -1   -1    0    0    0  501  0.00000000000E+00  0.00000000000E+00  0.22128617027E+03  0.22128617033E+03  0.50400001928E-02 0.  1.
        1   -1    0    0  501    0  0.00000000000E+00  0.00000000000E+00 -0.55365705452E+03  0.55365705454E+03  0.50400001928E-02 0. -1.
    10030    2    1    2    0    0  0.00000000000E+00  0.00000000000E+00 -0.33237088425E+03  0.77494322487E+03  0.70004756772E+03 0.  0.
        2    1    3    3  502    0  0.69312353549E+02  0.21644912534E+03  0.12849391993E+03  0.26108449529E+03  0.25500000920E-02 0.  1.
       -2    1    3    3    0  502 -0.69312353549E+02 -0.21644912534E+03 -0.46086480418E+03  0.51385872957E+03  0.25500000920E-02 0. -1.
</event>
<event>
 5   0  0.4936000E-04  0.6987014E+03  0.7818609E-02  0.9719456E-01
       -3   -1    0    0    0  501  0.00000000000E+00  0.00000000000E+00  0.34427958549E+03  0.34427960030E+03  0.10100000352E+00 0. -1.
        3   -1    0    0  501    0  0.00000000000E+00  0.00000000000E+00 -0.35449643583E+03  0.35449645022E+03  0.10100000352E+00 0.  1.
    10030    2    1    2    0    0  0.00000000000E+00  0.00000000000E+00 -0.10216850344E+02  0.69877605052E+03  0.69870135591E+03 0.  0.
        1    1    3    3  502    0  0.22165649386E+03  0.24148899315E+03 -0.12594088070E+03  0.35115472450E+03  0.50400001928E-02 0. -1.
       -1    1    3    3    0  502 -0.22165649386E+03 -0.24148899315E+03  0.11572403035E+03  0.34762132602E+03  0.50400001928E-02 0.  1.
</event>
<event>
 5   0  0.1243087E-03  0.7004587E+03  0.7818609E-02  0.9716448E-01
        2   -1    0    0  501    0  0.00000000000E+00  0.00000000000E+00  0.12843477433E+04  0.12843477433E+04  0.25500000920E-02 0.  1.
       -2   -1    0    0    0  501  0.00000000000E+00  0.00000000000E+00 -0.95504181705E+02  0.95504181739E+02  0.25500000920E-02 0. -1.
    10030    2    1    2    0    0  0.00000000000E+00  0.00000000000E+00  0.11888435616E+04  0.13798519250E+04  0.70045865053E+03 0.  0.
        4    1    3    3  502    0 -0.17271641561E+03 -0.15128348974E+03  0.11153967658E+04  0.11387840939E+04  0.12699999809E+01 0.  1.
       -4    1    3    3    0  502  0.17271641561E+03  0.15128348974E+03  0.73446795774E+02  0.24106783111E+03  0.12699999809E+01 0. -1.
</event>
<event>
 5   0  0.7570633E-04  0.6998099E+03  0.7818609E-02  0.9717557E-01
        1   -1    0    0  501    0  0.00000000000E+00  0.00000000000E+00  0.16661940964E+04  0.16661940964E+04  0.50400001928E-02 0.  1.
       -1   -1    0    0    0  501  0.00000000000E+00  0.00000000000E+00 -0.73480918799E+02  0.73480918972E+02  0.50400001928E-02 0. -1.
    10030    2    1    2    0    0  0.00000000000E+00  0.00000000000E+00  0.15927131776E+04  0.17396750154E+04  0.69980989778E+03 0.  0.
        5    1    3    3  502    0 -0.96251655838E+02 -0.32469448109E+03  0.57792741367E+03  0.66986048754E+03  0.46999998093E+01 0. -1.
       -5    1    3    3    0  502  0.96251655838E+02  0.32469448109E+03  0.10147857639E+04  0.10698145278E+04  0.46999998093E+01 0.  1.
</event>
<event>
 5   0  0.1243087E-03  0.7000613E+03  0.7818609E-02  0.9717127E-01
       -2   -1    0    0    0  501  0.00000000000E+00  0.00000000000E+00  0.84270189343E+02  0.84270189381E+02  0.25500000920E-02 0. -1.
        2   -1    0    0  501    0  0.00000000000E+00  0.00000000000E+00 -0.14539122161E+04  0.14539122161E+04  0.25500000920E-02 0.  1.
    10030    2    1    2    0    0  0.00000000000E+00  0.00000000000E+00 -0.13696420268E+04  0.15381824055E+04  0.70006130523E+03 0.  0.
        4    1    3    3  502    0 -0.70118956332E+02 -0.22283944056E+03 -0.12575549905E+04  0.12790700729E+04  0.12699999809E+01 0.  1.
       -4    1    3    3    0  502  0.70118956332E+02  0.22283944056E+03 -0.11208703624E+03  0.25911233259E+03  0.12699999809E+01 0. -1.
</event>
<event>
 5   0  0.1243087E-03  0.6993403E+03  0.7818609E-02  0.9718361E-01
       -2   -1    0    0    0  501  0.00000000000E+00  0.00000000000E+00  0.90047011485E+03  0.90047011486E+03  0.25500000920E-02 0.  1.
        2   -1    0    0  501    0  0.00000000000E+00  0.00000000000E+00 -0.13578374073E+03  0.13578374076E+03  0.25500000920E-02 0. -1.
    10030    2    1    2    0    0  0.00000000000E+00  0.00000000000E+00  0.76468637412E+03  0.10362538556E+04  0.69934026233E+03 0.  0.
        4    1    3    3  502    0  0.11004765644E+03 -0.32917150466E+03  0.31942123708E+03  0.47169471670E+03  0.12699999809E+01 0. -1.
       -4    1    3    3    0  502 -0.11004765644E+03  0.32917150466E+03  0.44526513704E+03  0.56455913891E+03  0.12699999809E+01 0.  1.
</event>
<event>
 5   0  0.1224048E-03  0.7000014E+03  0.7818609E-02  0.9717230E-01
        2   -1    0    0  501    0  0.00000000000E+00  0.00000000000E+00  0.68823733436E+03  0.68823733436E+03  0.25500000920E-02 0.  1.
       -2   -1    0    0    0  501  0.00000000000E+00  0.00000000000E+00 -0.17799161191E+03  0.17799161193E+03  0.25500000920E-02 0. -1.
    10030    2    1    2    0    0  0.00000000000E+00  0.00000000000E+00  0.51024572244E+03  0.86622894629E+03  0.70000135009E+03 0.  0.
        3    1    3    3  502    0  0.83386138543E+01  0.31451897565E+03  0.44485833066E+03  0.54487674118E+03  0.10100000352E+00 0.  1.
       -3    1    3    3    0  502 -0.83386138543E+01 -0.31451897565E+03  0.65387391784E+02  0.32135220511E+03  0.10100000352E+00 0. -1.
</event>
<event>
 5   0  0.7459843E-04  0.7003122E+03  0.7818609E-02  0.9716698E-01
       -1   -1    0    0    0  501  0.00000000000E+00  0.00000000000E+00  0.32805094194E+03  0.32805094198E+03  0.50400001928E-02 0.  1.
        1   -1    0    0  501    0  0.00000000000E+00  0.00000000000E+00 -0.37375076215E+03  0.37375076218E+03  0.50400001928E-02 0. -1.
    10030    2    1    2    0    0  0.00000000000E+00  0.00000000000E+00 -0.45699820203E+02  0.70180170416E+03  0.70031218639E+03 0.  0.
        2    1    3    3  502    0  0.20574944911E+03 -0.23537771215E+03  0.13519979327E+03  0.34060899473E+03  0.25500000920E-02 0.  1.
       -2    1    3    3    0  502 -0.20574944911E+03  0.23537771215E+03 -0.18089961348E+03  0.36119270943E+03  0.25500000920E-02 0. -1.
</event>
<event>
 5   0  0.7572415E-04  0.6991116E+03  0.7818609E-02  0.9718753E-01
        1   -1    0    0  501    0  0.00000000000E+00  0.00000000000E+00  0.83421736142E+03  0.83421736143E+03  0.50400001928E-02 0.  1.
       -1   -1    0    0    0  501  0.00000000000E+00  0.00000000000E+00 -0.14647173341E+03  0.14647173350E+03  0.50400001928E-02 0. -1.
    10030    2    1    2    0    0  0.00000000000E+00  0.00000000000E+00  0.68774562801E+03  0.98068909493E+03  0.69911161632E+03 0.  0.
        4    1    3    3  502    0 -0.96252392618E+02 -0.14508209524E+03 -0.81316047768E+02  0.19216464287E+03  0.12699999809E+01 0. -1.
       -4    1    3    3    0  502  0.96252392618E+02  0.14508209524E+03  0.76906167577E+03  0.78852445206E+03  0.12699999809E+01 0.  1.
</event>
<event>
 5   0  0.7570633E-04  0.7002676E+03  0.7818609E-02  0.9716775E-01
       -1   -1    0    0    0  501  0.00000000000E+00  0.00000000000E+00  0.77685423784E+02  0.77685423948E+02  0.50400001928E-02 0.  1.
        1   -1    0    0  501    0  0.00000000000E+00  0.00000000000E+00 -0.15780784393E+04  0.15780784393E+04  0.50400001928E-02 0. -1.
    10030    2    1    2    0    0  0.00000000000E+00  0.00000000000E+00 -0.15003930155E+04  0.16557638632E+04  0.70026764158E+03 0.  0.
        5    1    3    3  502    0  0.57520772071E+02 -0.75915107470E+02 -0.15467812866E+04  0.15497180974E+04  0.46999998093E+01 0. -1.
       -5    1    3    3    0  502 -0.57520772071E+02  0.75915107470E+02  0.46388271106E+02  0.10604576586E+03  0.46999998093E+01 0.  1.
</event>
<event>
 5   0  0.1265562E-03  0.6993430E+03  0.7818609E-02  0.9718356E-01
        2   -1    0    0  501    0  0.00000000000E+00  0.00000000000E+00  0.59383127492E+03  0.59383127492E+03  0.25500000920E-02 0.  1.
       -2   -1    0    0    0  501  0.00000000000E+00  0.00000000000E+00 -0.20590049804E+03  0.20590049805E+03  0.25500000920E-02 0. -1.
    10030    2    1    2    0    0  0.00000000000E+00  0.00000000000E+00  0.38793077688E+03  0.79973177298E+03  0.69934299243E+03 0.  0.
        1    1    3    3  502    0  0.32192381995E+03 -0.13633259327E+03  0.20194021844E+03  0.40373428600E+03  0.50400001928E-02 0. -1.
       -1    1    3    3    0  502 -0.32192381995E+03  0.13633259327E+03  0.18599055844E+03  0.39599748698E+03  0.50400001928E-02 0.  1.
</event>
<event>
 5   0  0.1282546E-03  0.7001152E+03  0.7818609E-02  0.9717035E-01
       -2   -1    0    0    0  501  0.00000000000E+00  0.00000000000E+00  0.50094751937E+03  0.50094751937E+03  0.25500000920E-02 0. -1.
        2   -1    0    0  501    0  0.00000000000E+00  0.00000000000E+00 -0.24461707326E+03  0.24461707327E+03  0.25500000920E-02 0.  1.
    10030    2    1    2    0    0  0.00000000000E+00  0.00000000000E+00  0.25633044611E+03  0.74556459265E+03  0.70011517925E+03 0.  0.
        5    1    3    3  502    0 -0.32404366283E+03 -0.54824122029E+01  0.26897558429E+03  0.42119390689E+03  0.46999998093E+01 0. -1.
       -5    1    3    3    0  502  0.32404366283E+03  0.54824122029E+01 -0.12645138179E+02  0.32437068576E+03  0.46999998093E+01 0.  1.
</event>
<event>
 5   0  0.1243087E-03  0.7003601E+03  0.7818609E-02  0.9716617E-01
       -2   -1    0    0    0  501  0.00000000000E+00  0.00000000000E+00  0.19565528761E+03  0.19565528763E+03  0.25500000920E-02 0. -1.
        2   -1    0    0  501    0  0.00000000000E+00  0.00000000000E+00 -0.62674555459E+03  0.62674555459E+03  0.25500000920E-02 0.  1.
    10030    2    1    2    0    0  0.00000000000E+00  0.00000000000E+00 -0.43109026697E+03  0.82240084222E+03  0.70036014093E+03 0.  0.
        4    1    3    3  502    0  0.84076779901E+01 -0.21553470747E+03  0.10838427053E+03  0.24140145437E+03  0.12699999809E+01 0. -1.
       -4    1    3    3    0  502 -0.84076779901E+01  0.21553470747E+03 -0.53947453750E+03  0.58099938785E+03  0.12699999809E+01 0.  1.
</event>
<event>
 5   0  0.7570633E-04  0.6996980E+03  0.7818609E-02  0.9717749E-01
       -1   -1    0    0    0  501  0.00000000000E+00  0.00000000000E+00  0.99230137907E+02  0.99230138035E+02  0.50400001928E-02 0.  1.
        1   -1    0    0  501    0  0.00000000000E+00  0.00000000000E+00 -0.12334391573E+04  0.12334391573E+04  0.50400001928E-02 0. -1.
    10030    2    1    2    0    0  0.00000000000E+00  0.00000000000E+00 -0.11342090194E+04  0.13326692954E+04  0.69969804279E+03 0.  0.
        5    1    3    3  502    0 -0.10309978964E+03  0.30761047764E+03 -0.81630234853E+03  0.87842210058E+03  0.46999998093E+01 0. -1.
       -5    1    3    3    0  502  0.10309978964E+03 -0.30761047764E+03 -0.31790667088E+03  0.45424719478E+03  0.46999998093E+01 0.  1.
</event>
<event>
 5   0  0.7013526E-04  0.6992910E+03  0.7818609E-02  0.9718445E-01
        1   -1    0    0  501    0  0.00000000000E+00  0.00000000000E+00  0.38491942085E+03  0.38491942089E+03  0.50400001928E-02 0.  1.
       -1   -1    0    0    0  501  0.00000000000E+00  0.00000000000E+00 -0.31760411019E+03  0.31760411023E+03  0.50400001928E-02 0. -1.
    10030    2    1    2    0    0  0.00000000000E+00  0.00000000000E+00  0.67315310662E+02  0.70252353112E+03  0.69929104151E+03 0.  0.
        1    1    3    3  502    0  0.30263935574E+03 -0.58406761277E+02 -0.13218133629E+03  0.33537119002E+03  0.50400001928E-02 0. -1.
       -1    1    3    3    0  502 -0.30263935574E+03  0.58406761277E+02  0.19949664695E+03  0.36715234110E+03  0.50400001928E-02 0.  1.
</event>
<event>
 5   0  0.4936000E-04  0.7046495E+03  0.7818609E-02  0.9709314E-01
        4   -1    0    0  501    0  0.00000000000E+00  0.00000000000E+00  0.40520027052E+03  0.40520226076E+03  0.12699999809E+01 0. -1.
       -4   -1    0    0    0  501  0.00000000000E+00  0.00000000000E+00 -0.30634498718E+03  0.30634761966E+03  0.12699999809E+01 0.  1.
    10030    2    1    2    0    0  0.00000000000E+00  0.00000000000E+00  0.98855283331E+02  0.71154988042E+03  0.70464946270E+03 0.  0.
        5    1    3    3  502    0  0.17387437558E+03  0.25089293285E+03  0.22702220034E+03  0.38044806700E+03  0.46999998093E+01 0. -1.
       -5    1    3    3    0  502 -0.17387437558E+03 -0.25089293285E+03 -0.12816691701E+03  0.33110181342E+03  0.46999998093E+01 0.  1.
</event>
<event>
 5   0  0.7459843E-04  0.7000023E+03  0.7818609E-02  0.9717228E-01
       -1   -1    0    0    0  501  0.00000000000E+00  0.00000000000E+00  0.75108642548E+02  0.75108642717E+02  0.50400001928E-02 0.  1.
        1   -1    0    0  501    0  0.00000000000E+00  0.00000000000E+00 -0.16309816505E+04  0.16309816505E+04  0.50400001928E-02 0. -1.
    10030    2    1    2    0    0  0.00000000000E+00  0.00000000000E+00 -0.15558730080E+04  0.17060902932E+04  0.70000233697E+03 0.  0.
        2    1    3    3  502    0  0.87206590284E+02 -0.13249222855E+03 -0.17519452308E+02  0.15958104909E+03  0.25500000920E-02 0.  1.
       -2    1    3    3    0  502 -0.87206590284E+02  0.13249222855E+03 -0.15383535557E+04  0.15465092441E+04  0.25500000920E-02 0. -1.
</event>
<event>
 5   0  0.7574241E-04  0.6999179E+03  0.7818609E-02  0.9717373E-01
       -1   -1    0    0    0  501  0.00000000000E+00  0.00000000000E+00  0.11642681486E+03  0.11642681497E+03  0.50400001928E-02 0.  1.
        1   -1    0    0  501    0  0.00000000000E+00  0.00000000000E+00 -0.10519162229E+04  0.10519162229E+04  0.50400001928E-02 0. -1.
    10030    2    1    2    0    0  0.00000000000E+00  0.00000000000E+00 -0.93548940804E+03  0.11683430379E+04  0.69991786776E+03 0.  0.
        3    1    3    3  502    0 -0.35001884884E+02 -0.26476548857E+03 -0.90236521848E+02  0.28190164235E+03  0.10100000352E+00 0.  1.
       -3    1    3    3    0  502  0.35001884884E+02  0.26476548857E+03 -0.84525288619E+03  0.88644139553E+03  0.10100000352E+00 0. -1.
</event>
<event>
 5   0  0.1265562E-03  0.6997998E+03  0.7818609E-02  0.9717575E-01
        2   -1    0    0  501    0  0.00000000000E+00  0.00000000000E+00  0.15122099452E+04  0.15122099452E+04  0.25500000920E-02 0.  1.
       -2   -1    0    0    0  501  0.00000000000E+00  0.00000000000E+00 -0.80960944952E+02  0.80960944992E+02  0.25500000920E-02 0. -1.
    10030    2    1    2    0    0  0.00000000000E+00  0.00000000000E+00  0.14312490003E+04  0.15931708902E+04  0.69979981757E+03 0.  0.
        1    1    3    3  502    0  0.46098973252E+02  0.27181901242E+03  0.12061229306E+04  0.12372320779E+04  0.50400001928E-02 0.  1.
       -1    1    3    3    0  502 -0.46098973252E+02 -0.27181901242E+03  0.22512606970E+03  0.35593881235E+03  0.50400001928E-02 0. -1.
</event>
<event>
 5   0  0.7459843E-04  0.6994879E+03  0.7818609E-02  0.9718108E-01
        1   -1    0    0  501    0  0.00000000000E+00  0.00000000000E+00  0.14190764145E+04  0.14190764145E+04  0.50400001928E-02 0.  1.
       -1   -1    0    0    0  501  0.00000000000E+00  0.00000000000E+00 -0.86197494671E+02  0.86197494818E+02  0.50400001928E-02 0. -1.
    10030    2    1    2    0    0  0.00000000000E+00  0.00000000000E+00  0.13328789198E+04  0.15052739093E+04  0.69948790352E+03 0.  0.
        2    1    3    3  502    0  0.58693415099E+02 -0.27002146779E+03  0.11278056376E+04  0.11611640996E+04  0.25500000920E-02 0.  1.
       -2    1    3    3    0  502 -0.58693415099E+02  0.27002146779E+03  0.20507328222E+03  0.34410980970E+03  0.25500000920E-02 0. -1.
</event>
<event>
 5   0  0.7572415E-04  0.7000447E+03  0.7818609E-02  0.9717156E-01
       -1   -1    0    0    0  501  0.00000000000E+00  0.00000000000E+00  0.18278979579E+03  0.18278979586E+03  0.50400001928E-02 0. -1.
        1   -1    0    0  501    0  0.00000000000E+00  0.00000000000E+00 -0.67025421765E+03  0.67025421767E+03  0.50400001928E-02 0.  1.
    10030    2    1    2    0    0  0.00000000000E+00  0.00000000000E+00 -0.48746442186E+03  0.85304401353E+03  0.70004466032E+03 0.  0.
        4    1    3    3  502    0 -0.24407450211E+02  0.33291694803E+03 -0.11543839560E+03  0.35320964594E+03  0.12699999809E+01 0. -1.
       -4    1    3    3    0  502  0.24407450211E+02 -0.33291694803E+03 -0.37202602627E+03  0.49983436759E+03  0.12699999809E+01 0.  1.
</event>
<event>
 5   0  0.1243087E-03  0.6996635E+03  0.7818609E-02  0.9717808E-01
       -2   -1    0    0    0  501  0.00000000000E+00  0.00000000000E+00  0.16890931875E+03  0.16890931877E+03  0.25500000920E-02 0.  1.
        2   -1    0    0  501    0  0.00000000000E+00  0.00000000000E+00 -0.72454406868E+03  0.72454406869E+03  0.25500000920E-02 0. -1.
    10030    2    1    2    0    0  0.00000000000E+00  0.00000000000E+00 -0.55563474993E+03  0.89345338746E+03  0.69966347641E+03 0.  0.
        4    1    3    3  502    0 -0.20047410871E+03 -0.95787172132E+02 -0.62287407964E+03  0.66131594764E+03  0.12699999809E+01 0. -1.
       -4    1    3    3    0  502  0.20047410871E+03  0.95787172132E+02  0.67239329710E+02  0.23213743982E+03  0.12699999809E+01 0.  1.
</event>
<event>
 5   0  0.7570633E-04  0.6989170E+03  0.7818609E-02  0.9719086E-01
        1   -1    0    0  501    0  0.00000000000E+00  0.00000000000E+00  0.19900275336E+04  0.19900275336E+04  0.50400001928E-02 0. -1.
       -1   -1    0    0    0  501  0.00000000000E+00  0.00000000000E+00 -0.61366601515E+02  0.61366601722E+02  0.50400001928E-02 0.  1.
    10030    2    1    2    0    0  0.00000000000E+00  0.00000000000E+00  0.19286609321E+04  0.20513941353E+04  0.69891695323E+03 0.  0.
        5    1    3    3  502    0 -0.30051736372E+03 -0.68592073865E+01  0.14872520752E+04  0.15173327123E+04  0.46999998093E+01 0. -1.
       -5    1    3    3    0  502  0.30051736372E+03  0.68592073865E+01  0.44140885683E+03  0.53406142297E+03  0.46999998093E+01 0.  1.
</event>
<event>
 5   0  0.7570633E-04  0.7016251E+03  0.7818609E-02  0.9714457E-01
        1   -1    0    0  501    0  0.00000000000E+00  0.00000000000E+00  0.95533994390E+02  0.95533994523E+02  0.50400001928E-02 0. -1.
       -1   -1    0    0    0  501  0.00000000000E+00  0.00000000000E+00 -0.12882267489E+04  0.12882267489E+04  0.50400001928E-02 0.  1.
    10030    2    1    2    0    0  0.00000000000E+00  0.00000000000E+00 -0.11926927545E+04  0.13837607434E+04  0.70162510531E+03 0.  0.
        5    1    3    3  502    0  0.25822948373E+03  0.13594898534E+03 -0.98020978620E+03  0.10227403912E+04  0.46999998093E+01 0.  1.
       -5    1    3    3    0  502 -0.25822948373E+03 -0.13594898534E+03 -0.21248296830E+03  0.36102035219E+03  0.46999998093E+01 0. -1.
</event>
<event>
 5   0  0.4936000E-04  0.6999706E+03  0.7818609E-02  0.9717283E-01
        3   -1    0    0  501    0  0.00000000000E+00  0.00000000000E+00  0.15917170589E+03  0.15917173793E+03  0.10100000352E+00 0. -1.
       -3   -1    0    0    0  501  0.00000000000E+00  0.00000000000E+00 -0.76954428974E+03  0.76954429637E+03  0.10100000352E+00 0.  1.
    10030    2    1    2    0    0  0.00000000000E+00  0.00000000000E+00 -0.61037258386E+03  0.92871603430E+03  0.69997055742E+03 0.  0.
        3    1    3    3  502    0  0.11117601342E+03  0.11784315960E+03  0.10642452015E+03  0.19383834738E+03  0.10100000352E+00 0. -1.
       -3    1    3    3    0  502 -0.11117601342E+03 -0.11784315960E+03 -0.71679710401E+03  0.73487768693E+03  0.10100000352E+00 0.  1.
</event>
<event>
 5   0  0.7459843E-04  0.7000159E+03  0.7818609E-02  0.9717205E-01
       -1   -1    0    0    0  501  0.00000000000E+00  0.00000000000E+00  0.65870764001E+03  0.65870764003E+03  0.50400001928E-02 0. -1.
        1   -1    0    0  501    0  0.00000000000E+00  0.00000000000E+00 -0.18597865511E+03  0.18597865518E+03  0.50400001928E-02 0.  1.
    10030    2    1    2    0    0  0.00000000000E+00  0.00000000000E+00  0.47272898490E+03  0.84468629520E+03  0.70001588849E+03 0.  0.
        2    1    3    3  502    0  0.24469559750E+03 -0.69134305069E+00 -0.65613852843E+02  0.25334085948E+03  0.25500000920E-02 0.  1.
       -2    1    3    3    0  502 -0.24469559750E+03  0.69134305069E+00  0.53834283774E+03  0.59134543572E+03  0.25500000920E-02 0. -1.
</event>
<event>
 5   0  0.1265562E-03  0.6986186E+03  0.7818609E-02  0.9719598E-01
       -2   -1    0    0    0  501  0.00000000000E+00  0.00000000000E+00  0.10201266307E+03  0.10201266310E+03  0.25500000920E-02 0. -1.
        2   -1    0    0  501    0  0.00000000000E+00  0.00000000000E+00 -0.11960963782E+04  0.11960963782E+04  0.25500000920E-02 0.  1.
    10030    2    1    2    0    0  0.00000000000E+00  0.00000000000E+00 -0.10940837151E+04  0.12981090413E+04  0.69861857075E+03 0.  0.
        1    1    3    3  502    0 -0.24805105818E+03 -0.72008708008E+01 -0.10038335270E+04  0.10340517057E+04  0.50400001928E-02 0. -1.
       -1    1    3    3    0  502  0.24805105818E+03  0.72008708008E+01 -0.90250188048E+02  0.26405733558E+03  0.50400001928E-02 0.  1.
</event>
<event>
 5   0  0.7459843E-04  0.6993893E+03  0.7818609E-02  0.9718277E-01
       -1   -1    0    0    0  501  0.00000000000E+00  0.00000000000E+00  0.53423804307E+03  0.53423804310E+03  0.50400001928E-02 0. -1.
        1   -1    0    0  501    0  0.00000000000E+00  0.00000000000E+00 -0.22889860415E+03  0.22889860421E+03  0.50400001928E-02 0.  1.
    10030    2    1    2    0    0  0.00000000000E+00  0.00000000000E+00  0.30533943892E+03  0.76313664730E+03  0.69938928323E+03 0.  0.
        2    1    3    3  502    0 -0.22793819887E+03 -0.24236219557E+03  0.27014470515E+03  0.42857136871E+03  0.25500000920E-02 0.  1.
       -2    1    3    3    0  502  0.22793819887E+03  0.24236219557E+03  0.35194733771E+02  0.33456527859E+03  0.25500000920E-02 0. -1.
</event>
<event>
 5   0  0.1265562E-03  0.6999310E+03  0.7818609E-02  0.9717350E-01
       -2   -1    0    0    0  501  0.00000000000E+00  0.00000000000E+00  0.11152166033E+03  0.11152166036E+03  0.25500000920E-02 0. -1.
        2   -1    0    0  501    0  0.00000000000E+00  0.00000000000E+00 -0.10982249373E+04  0.10982249373E+04  0.25500000920E-02 0.  1.
    10030    2    1    2    0    0  0.00000000000E+00  0.00000000000E+00 -0.98670327700E+03  0.12097465977E+04  0.69993104931E+03 0.  0.
        1    1    3    3  502    0 -0.19634340488E+03  0.28812497707E+03 -0.44123781368E+03  0.56236780073E+03  0.50400001928E-02 0.  1.
       -1    1    3    3    0  502  0.19634340488E+03 -0.28812497707E+03 -0.54546546332E+03  0.64737879696E+03  0.50400001928E-02 0. -1.
</event>
<event>
 5   0  0.1224048E-03  0.7000473E+03  0.7818609E-02  0.9717151E-01
        2   -1    0    0  501    0  0.00000000000E+00  0.00000000000E+00  0.66119757678E+03  0.66119757679E+03  0.25500000920E-02 0.  1.
       -2   -1    0    0    0  501  0.00000000000E+00  0.00000000000E+00 -0.18529490714E+03  0.18529490716E+03  0.25500000920E-02 0. -1.
    10030    2    1    2    0    0  0.00000000000E+00  0.00000000000E+00  0.47590266964E+03  0.84649248395E+03  0.70004726584E+03 0.  0.
        3    1    3    3  502    0  0.69301179098E+02 -0.23222438303E+03  0.54334319668E+03  0.59493920453E+03  0.10100000352E+00 0.  1.
       -3    1    3    3    0  502 -0.69301179098E+02  0.23222438303E+03 -0.67440527044E+02  0.25155327942E+03  0.10100000352E+00 0. -1.
</event>
<event>
 5   0  0.1224048E-03  0.6995927E+03  0.7818609E-02  0.9717929E-01
        2   -1    0    0  501    0  0.00000000000E+00  0.00000000000E+00  0.41015748404E+03  0.41015748405E+03  0.25500000920E-02 0. -1.
       -2   -1    0    0    0  501  0.00000000000E+00  0.00000000000E+00 -0.29831828104E+03  0.29831828105E+03  0.25500000920E-02 0.  1.
    10030    2    1    2    0    0  0.00000000000E+00  0.00000000000E+00  0.11183920300E+03  0.70847576510E+03  0.69959266892E+03 0.  0.
        3    1    3    3  502    0  0.23083358815E+03  0.10171510089E+03  0.30133396743E+03  0.39297872372E+03  0.10100000352E+00 0. -1.
       -3    1    3    3    0  502 -0.23083358815E+03 -0.10171510089E+03 -0.18949476444E+03  0.31549704138E+03  0.10100000352E+00 0.  1.
</event>
<event>
 5   0  0.7013526E-04  0.6997412E+03  0.7818609E-02  0.9717675E-01
       -1   -1    0    0    0  501  0.00000000000E+00  0.00000000000E+00  0.12281119692E+04  0.12281119692E+04  0.50400001928E-02 0.  1.
        1   -1    0    0  501    0  0.00000000000E+00  0.00000000000E+00 -0.99672860562E+02  0.99672860690E+02  0.50400001928E-02 0. -1.
    10030    2    1    2    0    0  0.00000000000E+00  0.00000000000E+00  0.11284391086E+04  0.13277848299E+04  0.69974118974E+03 0.  0.
        1    1    3    3  502    0 -0.81745708147E+02 -0.19447816414E+03  0.34588050488E+02  0.21377663668E+03  0.50400001928E-02 0. -1.
       -1    1    3    3    0  502  0.81745708147E+02  0.19447816414E+03  0.10938510582E+04  0.11140081932E+04  0.50400001928E-02 0.  1.
</event>
<event>
 5   0  0.7574241E-04  0.6999536E+03  0.7818609E-02  0.9717312E-01
       -1   -1    0    0    0  501  0.00000000000E+00  0.00000000000E+00  0.22696907330E+03  0.22696907336E+03  0.50400001928E-02 0. -1.
        1   -1    0    0  501    0  0.00000000000E+00  0.00000000000E+00 -0.53964955093E+03  0.53964955095E+03  0.50400001928E-02 0.  1.
    10030    2    1    2    0    0  0.00000000000E+00  0.00000000000E+00 -0.31268047762E+03  0.76661862431E+03  0.69995359421E+03 0.  0.
        3    1    3    3  502    0 -0.10416934741E+03  0.33374492292E+03 -0.13913336916E+03  0.37629115208E+03  0.10100000352E+00 0.  1.
       -3    1    3    3    0  502  0.10416934741E+03 -0.33374492292E+03 -0.17354710847E+03  0.39032747223E+03  0.10100000352E+00 0. -1.
</event>
<event>
 5   0  0.1224048E-03  0.6999711E+03  0.7818609E-02  0.9717282E-01
       -2   -1    0    0    0  501  0.00000000000E+00  0.00000000000E+00  0.44114363598E+03  0.44114363599E+03  0.25500000920E-02 0. -1.
        2   -1    0    0  501    0  0.00000000000E+00  0.00000000000E+00 -0.27766442537E+03  0.27766442538E+03  0.25500000920E-02 0.  1.
    10030    2    1    2    0    0  0.00000000000E+00  0.00000000000E+00  0.16347921061E+03  0.71880806137E+03  0.69997112568E+03 0.  0.
        3    1    3    3  502    0  0.15830975852E+03  0.26163858406E+03  0.25653529280E+03  0.39915798246E+03  0.10100000352E+00 0. -1.
       -3    1    3    3    0  502 -0.15830975852E+03 -0.26163858406E+03 -0.93056082198E+02  0.31965007891E+03  0.10100000352E+00 0.  1.
</event>
<event>
 5   0  0.7570633E-04  0.6998234E+03  0.7818609E-02  0.9717534E-01
       -1   -1    0    0    0  501  0.00000000000E+00  0.00000000000E+00  0.15340940784E+03  0.15340940793E+03  0.50400001928E-02 0.  1.
        1   -1    0    0  501    0  0.00000000000E+00  0.00000000000E+00 -0.79811400802E+03  0.79811400804E+03  0.50400001928E-02 0. -1.
    10030    2    1    2    0    0  0.00000000000E+00  0.00000000000E+00 -0.64470460018E+03  0.95152341597E+03  0.69982339890E+03 0.  0.
        5    1    3    3  502    0  0.11302780148E+03  0.26987284637E+02  0.12636199397E+03  0.17173538063E+03  0.46999998093E+01 0.  1.
       -5    1    3    3    0  502 -0.11302780148E+03 -0.26987284637E+02 -0.77106659415E+03  0.77978803534E+03  0.46999998093E+01 0. -1.
</event>
<event>
 5   0  0.1222679E-03  0.6998282E+03  0.7818609E-02  0.9717526E-01
        2   -1    0    0  501    0  0.00000000000E+00  0.00000000000E+00  0.45788655255E+03  0.45788655256E+03  0.25500000920E-02 0. -1.
       -2   -1    0    0    0  501  0.00000000000E+00  0.00000000000E+00 -0.26740217824E+03  0.26740217825E+03  0.25500000920E-02 0.  1.
    10030    2    1    2    0    0  0.00000000000E+00  0.00000000000E+00  0.19048437431E+03  0.72528873081E+03  0.69982815475E+03 0.  0.
        2    1    3    3  502    0  0.18729404919E+03 -0.10181531323E+03  0.38281591609E+03  0.43817056552E+03  0.25500000920E-02 0. -1.
       -2    1    3    3    0  502 -0.18729404919E+03  0.10181531323E+03 -0.19233154178E+03  0.28711816529E+03  0.25500000920E-02 0.  1.
</event>
<event>
 5   0  0.7013526E-04  0.7000197E+03  0.7818609E-02  0.9717199E-01
        1   -1    0    0  501    0  0.00000000000E+00  0.00000000000E+00  0.38947396836E+03  0.38947396840E+03  0.50400001928E-02 0.  1.
       -1   -1    0    0    0  501  0.00000000000E+00  0.00000000000E+00 -0.31454445689E+03  0.31454445693E+03  0.50400001928E-02 0. -1.
    10030    2    1    2    0    0  0.00000000000E+00  0.00000000000E+00  0.74929511479E+02  0.70401842532E+03  0.70001965080E+03 0.  0.
        1    1    3    3  502    0  0.27451413584E+03 -0.63470171544E+01 -0.18082020344E+03  0.32877688696E+03  0.50400001928E-02 0. -1.
       -1    1    3    3    0  502 -0.27451413584E+03  0.63470171544E+01  0.25574971492E+03  0.37524153836E+03  0.50400001928E-02 0.  1.
</event>
<event>
 5   0  0.7013526E-04  0.6998240E+03  0.7818609E-02  0.9717533E-01
        1   -1    0    0  501    0  0.00000000000E+00  0.00000000000E+00  0.16176360429E+04  0.16176360429E+04  0.50400001928E-02 0.  1.
       -1   -1    0    0    0  501  0.00000000000E+00  0.00000000000E+00 -0.75689717479E+02  0.75689717647E+02  0.50400001928E-02 0. -1.
    10030    2    1    2    0    0  0.00000000000E+00  0.00000000000E+00  0.15419463254E+04  0.16933257605E+04  0.69982402136E+03 0.  0.
        1    1    3    3  502    0  0.32629864633E+03 -0.10702664933E+03  0.93352046355E+03  0.99467882563E+03  0.50400001928E-02 0. -1.
       -1    1    3    3    0  502 -0.32629864633E+03  0.10702664933E+03  0.60842586185E+03  0.69864693491E+03  0.50400001928E-02 0.  1.
</event>
<event>
 5   0  0.7459843E-04  0.7001679E+03  0.7818609E-02  0.9716945E-01
        1   -1    0    0  501    0  0.00000000000E+00  0.00000000000E+00  0.52592433482E+03  0.52592433484E+03  0.50400001928E-02 0.  1.
       -1   -1    0    0    0  501  0.00000000000E+00  0.00000000000E+00 -0.23303496257E+03  0.23303496262E+03  0.50400001928E-02 0. -1.
    10030    2    1    2    0    0  0.00000000000E+00  0.00000000000E+00  0.29288937225E+03  0.75895929746E+03  0.70016785904E+03 0.  0.
        2    1    3    3  502    0 -0.17005144370E+03 -0.12422496506E+03  0.44958650610E+03  0.49646486474E+03  0.25500000920E-02 0.  1.
       -2    1    3    3    0  502  0.17005144370E+03  0.12422496506E+03 -0.15669713385E+03  0.26249443273E+03  0.25500000920E-02 0. -1.
</event>
<event>
 5   0  0.1243087E-03  0.7001652E+03  0.7818609E-02  0.9716950E-01
       -2   -1    0    0    0  501  0.00000000000E+00  0.00000000000E+00  0.43210808763E+03  0.43210808764E+03  0.25500000920E-02 0.  1.
        2   -1    0    0  501    0  0.00000000000E+00  0.00000000000E+00 -0.28362773937E+03  0.28362773938E+03  0.25500000920E-02 0. -1.
    10030    2    1    2    0    0  0.00000000000E+00  0.00000000000E+00  0.14848034826E+03  0.71573582702E+03  0.70016523782E+03 0.  0.
        4    1    3    3  502    0  0.78811729116E+02  0.10172238875E+03  0.40705296666E+03  0.42691036950E+03  0.12699999809E+01 0.  1.
       -4    1    3    3    0  502 -0.78811729116E+02 -0.10172238875E+03 -0.25857261840E+03  0.28882545751E+03  0.12699999809E+01 0. -1.
</event>
<event>
 5   0  0.7574241E-04  0.6997248E+03  0.7818609E-02  0.9717703E-01
        1   -1    0    0  501    0  0.00000000000E+00  0.00000000000E+00  0.78458310360E+03  0.78458310362E+03  0.50400001928E-02 0.  1.
       -1   -1    0    0    0  501  0.00000000000E+00  0.00000000000E+00 -0.15601112182E+03  0.15601112190E+03  0.50400001928E-02 0. -1.
    10030    2    1    2    0    0  0.00000000000E+00  0.00000000000E+00  0.62857198178E+03  0.94059422552E+03  0.69972477504E+03 0.  0.
        3    1    3    3  502    0 -0.10679952806E+03  0.71625758476E+02 -0.12309102605E+03  0.17801067206E+03  0.10100000352E+00 0. -1.
       -3    1    3    3    0  502  0.10679952806E+03 -0.71625758476E+02  0.75166300783E+03  0.76258355346E+03  0.10100000352E+00 0.  1.
</event>
<event>
 5   0  0.7570633E-04  0.6999819E+03  0.7818609E-02  0.9717263E-01
        1   -1    0    0  501    0  0.00000000000E+00  0.00000000000E+00  0.30760356592E+03  0.30760356596E+03  0.50400001928E-02 0. -1.
       -1   -1    0    0    0  501  0.00000000000E+00  0.00000000000E+00 -0.39821921341E+03  0.39821921344E+03  0.50400001928E-02 0.  1.
    10030    2    1    2    0    0  0.00000000000E+00  0.00000000000E+00 -0.90615647489E+02  0.70582277940E+03  0.69998185716E+03 0.  0.
        5    1    3    3  502    0  0.12229003208E+03 -0.29573719829E+01 -0.37592788465E+03  0.39535738573E+03  0.46999998093E+01 0.  1.
       -5    1    3    3    0  502 -0.12229003208E+03  0.29573719829E+01  0.28531223716E+03  0.31046539367E+03  0.46999998093E+01 0. -1.
</event>
<event>
 5   0  0.7459843E-04  0.6995871E+03  0.7818609E-02  0.9717939E-01
       -1   -1    0    0    0  501  0.00000000000E+00  0.00000000000E+00  0.13657894372E+04  0.13657894373E+04  0.50400001928E-02 0. -1.
        1   -1    0    0  501    0  0.00000000000E+00  0.00000000000E+00 -0.89585936763E+02  0.89585936905E+02  0.50400001928E-02 0.  1.
    10030    2    1    2    0    0  0.00000000000E+00  0.00000000000E+00  0.12762035005E+04  0.14553753742E+04  0.69958709613E+03 0.  0.
        2    1    3    3  502    0  0.44380199775E+02  0.89471220866E+01  0.13596687227E+04  0.13604222465E+04  0.25500000920E-02 0. -1.
       -2    1    3    3    0  502 -0.44380199775E+02 -0.89471220866E+01 -0.83465222248E+02  0.94953127685E+02  0.25500000920E-02 0.  1.
</event>
<event>
 5   0  0.1222679E-03  0.7001285E+03  0.7818609E-02  0.9717012E-01
       -2   -1    0    0    0  501  0.00000000000E+00  0.00000000000E+00  0.14874849428E+03  0.14874849430E+03  0.25500000920E-02 0.  1.
        2   -1    0    0  501    0  0.00000000000E+00  0.00000000000E+00 -0.82384009468E+03  0.82384009469E+03  0.25500000920E-02 0. -1.
    10030    2    1    2    0    0  0.00000000000E+00  0.00000000000E+00 -0.67509160040E+03  0.97258858899E+03  0.70012848428E+03 0.  0.
        2    1    3    3  502    0 -0.26901292129E+03  0.21541190858E+03 -0.42289401708E+03  0.54553605918E+03  0.25500000920E-02 0. -1.
       -2    1    3    3    0  502  0.26901292129E+03 -0.21541190858E+03 -0.25219758332E+03  0.42705252981E+03  0.25500000920E-02 0.  1.
</event>
<event>
 5   0  0.4936000E-04  0.6999494E+03  0.7818609E-02  0.9717319E-01
       -3   -1    0    0    0  501  0.00000000000E+00  0.00000000000E+00  0.96453476866E+02  0.96453529746E+02  0.10100000352E+00 0. -1.
        3   -1    0    0  501    0  0.00000000000E+00  0.00000000000E+00 -0.12698584086E+04  0.12698584127E+04  0.10100000352E+00 0.  1.
    10030    2    1    2    0    0  0.00000000000E+00  0.00000000000E+00 -0.11734049318E+04  0.13663119424E+04  0.69994941963E+03 0.  0.
        4    1    3    3  502    0 -0.70227622247E+02  0.23675051913E+03 -0.10262646494E+03  0.26742574940E+03  0.12699999809E+01 0. -1.
       -4    1    3    3    0  502  0.70227622247E+02 -0.23675051913E+03 -0.10707784668E+04  0.10988861930E+04  0.12699999809E+01 0.  1.
</event>
<event>
 5   0  0.1243087E-03  0.6999333E+03  0.7818609E-02  0.9717346E-01
       -2   -1    0    0    0  501  0.00000000000E+00  0.00000000000E+00  0.38887393522E+03  0.38887393523E+03  0.25500000920E-02 0. -1.
        2   -1    0    0  501    0  0.00000000000E+00  0.00000000000E+00 -0.31495212064E+03  0.31495212065E+03  0.25500000920E-02 0.  1.
    10030    2    1    2    0    0  0.00000000000E+00  0.00000000000E+00  0.73921814579E+02  0.70382605588E+03  0.69993334130E+03 0.  0.
        4    1    3    3  502    0 -0.78440356922E+02  0.27386210373E+03 -0.16744706698E+03  0.33044435930E+03  0.12699999809E+01 0.  1.
       -4    1    3    3    0  502  0.78440356922E+02 -0.27386210373E+03  0.24136888155E+03  0.37338169658E+03  0.12699999809E+01 0. -1.
</event>
<event>
 5   0  0.1243087E-03  0.6999214E+03  0.7818609E-02  0.9717367E-01
        2   -1    0    0  501    0  0.00000000000E+00  0.00000000000E+00  0.41957247855E+03  0.41957247856E+03  0.25500000920E-02 0. -1.
       -2   -1    0    0    0  501  0.00000000000E+00  0.00000000000E+00 -0.29189826109E+03  0.29189826110E+03  0.25500000920E-02 0.  1.
    10030    2    1    2    0    0  0.00000000000E+00  0.00000000000E+00  0.12767421746E+03  0.71147073966E+03  0.69992135815E+03 0.  0.
        4    1    3    3  502    0  0.12130470350E+03  0.71626580943E+01 -0.26976223234E+03  0.29587059614E+03  0.12699999809E+01 0.  1.
       -4    1    3    3    0  502 -0.12130470350E+03 -0.71626580943E+01  0.39743644980E+03  0.41560014352E+03  0.12699999809E+01 0. -1.
</event>
<event>
 5   0  0.7572415E-04  0.6999677E+03  0.7818609E-02  0.9717287E-01
       -1   -1    0    0    0  501  0.00000000000E+00  0.00000000000E+00  0.20708452511E+03  0.20708452517E+03  0.50400001928E-02 0.  1.
        1   -1    0    0  501    0  0.00000000000E+00  0.00000000000E+00 -0.59149132375E+03  0.59149132377E+03  0.50400001928E-02 0. -1.
    10030    2    1    2    0    0  0.00000000000E+00  0.00000000000E+00 -0.38440679863E+03  0.79857584894E+03  0.69996771331E+03 0.  0.
        4    1    3    3  502    0  0.30185427532E+03 -0.14144374845E+03 -0.70579731120E+02  0.34074249639E+03  0.12699999809E+01 0.  1.
       -4    1    3    3    0  502 -0.30185427532E+03  0.14144374845E+03 -0.31382706751E+03  0.45783335255E+03  0.12699999809E+01 0. -1.
</event>
<event>
 5   0  0.1222679E-03  0.6993359E+03  0.7818609E-02  0.9718369E-01
        2   -1    0    0  501    0  0.00000000000E+00  0.00000000000E+00  0.91151805088E+03  0.91151805089E+03  0.25500000920E-02 0.  1.
       -2   -1    0    0    0  501  0.00000000000E+00  0.00000000000E+00 -0.13413630775E+03  0.13413630778E+03  0.25500000920E-02 0. -1.
    10030    2    1    2    0    0  0.00000000000E+00  0.00000000000E+00  0.77738174313E+03  0.10456543587E+04  0.69933587298E+03 0.  0.
        2    1    3    3  502    0 -0.18004460413E+03 -0.28751488338E+03  0.26193442093E+03  0.42859130709E+03  0.25500000920E-02 0.  1.
       -2    1    3    3    0  502  0.18004460413E+03  0.28751488338E+03  0.51544732220E+03  0.61706305157E+03  0.25500000920E-02 0. -1.
</event>
<event>
 5   0  0.4936000E-04  0.6998016E+03  0.7818609E-02  0.9717572E-01
        3   -1    0    0  501    0  0.00000000000E+00  0.00000000000E+00  0.70465725932E+03  0.70465726656E+03  0.10100000352E+00 0.  1.
       -3   -1    0    0    0  501  0.00000000000E+00  0.00000000000E+00 -0.17374480738E+03  0.17374483674E+03  0.10100000352E+00 0. -1.
    10030    2    1    2    0    0  0.00000000000E+00  0.00000000000E+00  0.53091245194E+03  0.87840210330E+03  0.69980156006E+03 0.  0.
        1    1    3    3  502    0 -0.53801559539E+02 -0.32846333666E+03  0.40092528812E+03  0.52107951218E+03  0.50400001928E-02 0.  1.
       -1    1    3    3    0  502  0.53801559539E+02  0.32846333666E+03  0.12998716382E+03  0.35732259112E+03  0.50400001928E-02 0. -1.
</event>
<event>
 5   0  0.1243087E-03  0.6997951E+03  0.7818609E-02  0.9717583E-01
       -2   -1    0    0    0  501  0.00000000000E+00  0.00000000000E+00  0.99723250001E+03  0.99723250001E+03  0.25500000920E-02 0.  1.
        2   -1    0    0  501    0  0.00000000000E+00  0.00000000000E+00 -0.12276807096E+03  0.12276807098E+03  0.25500000920E-02 0. -1.
    10030    2    1    2    0    0  0.00000000000E+00  0.00000000000E+00  0.87446442905E+03  0.11200005710E+04  0.69979514242E+03 0.  0.
        4    1    3    3  502    0  0.25282433457E+03 -0.22781484166E+03  0.56732339974E+03  0.66157176408E+03  0.12699999809E+01 0.  1.
       -4    1    3    3    0  502 -0.25282433457E+03  0.22781484166E+03  0.30714102931E+03  0.45842880692E+03  0.12699999809E+01 0. -1.
</event>
<event>
 5   0  0.1282546E-03  0.6999212E+03  0.7818609E-02  0.9717367E-01
        2   -1    0    0  501    0  0.00000000000E+00  0.00000000000E+00  0.58690046868E+03  0.58690046868E+03  0.25500000920E-02 0.  1.
       -2   -1    0    0    0  501  0.00000000000E+00  0.00000000000E+00 -0.20867661790E+03  0.20867661792E+03  0.25500000920E-02 0. -1.
    10030    2    1    2    0    0  0.00000000000E+00  0.00000000000E+00  0.37822385078E+03  0.79557708660E+03  0.69992115229E+03 0.  0.
        5    1    3    3  502    0 -0.19999668588E+03  0.25446939429E+03  0.34032264462E+03  0.46967535536E+03  0.46999998093E+01 0.  1.
       -5    1    3    3    0  502  0.19999668588E+03 -0.25446939429E+03  0.37901206155E+02  0.32590173123E+03  0.46999998093E+01 0. -1.
</event>
<event>
 5   0  0.4936000E-04  0.6996676E+03  0.7818609E-02  0.9717801E-01
       -4   -1    0    0    0  501  0.00000000000E+00  0.00000000000E+00  0.78755972499E+03  0.78756074898E+03  0.12699999809E+01 0.  1.
        4   -1    0    0  501    0  0.00000000000E+00  0.00000000000E+00 -0.15539237254E+03  0.15539756221E+03  0.12699999809E+01 0. -1.
    10030    2    1    2    0    0  0.00000000000E+00  0.00000000000E+00  0.63216735246E+03  0.94295831119E+03  0.69966764619E+03 0.  0.
        4    1    3    3  502    0  0.27535086013E+03  0.21573927155E+03  0.32219488661E+03  0.47557616353E+03  0.12699999809E+01 0.  1.
       -4    1    3    3    0  502 -0.27535086013E+03 -0.21573927155E+03  0.30997246585E+03  0.46738214766E+03  0.12699999809E+01 0. -1.
</event>
<event>
 5   0  0.1282546E-03  0.6998748E+03  0.7818609E-02  0.9717446E-01
       -2   -1    0    0    0  501  0.00000000000E+00  0.00000000000E+00  0.38247559069E+03  0.38247559070E+03  0.25500000920E-02 0. -1.
        2   -1    0    0  501    0  0.00000000000E+00  0.00000000000E+00 -0.32016728145E+03  0.32016728146E+03  0.25500000920E-02 0.  1.
    10030    2    1    2    0    0  0.00000000000E+00  0.00000000000E+00  0.62308309249E+02  0.70264287216E+03  0.69987476051E+03 0.  0.
        5    1    3    3  502    0  0.11907205925E+03  0.32901630649E+03  0.33210394108E+02  0.35150377737E+03  0.46999998093E+01 0.  1.
       -5    1    3    3    0  502 -0.11907205925E+03 -0.32901630649E+03  0.29097915140E+02  0.35113909479E+03  0.46999998093E+01 0. -1.
</event>
<event>
 5   0  0.7570633E-04  0.7036821E+03  0.7818609E-02  0.9710956E-01
        1   -1    0    0  501    0  0.00000000000E+00  0.00000000000E+00  0.23175532140E+03  0.23175532146E+03  0.50400001928E-02 0. -1.
       -1   -1    0    0    0  501  0.00000000000E+00  0.00000000000E+00 -0.53415013811E+03  0.53415013813E+03  0.50400001928E-02 0.  1.
    10030    2    1    2    0    0  0.00000000000E+00  0.00000000000E+00 -0.30239481671E+03  0.76590545959E+03  0.70368213553E+03 0.  0.
        5    1    3    3  502    0 -0.13152901607E+03 -0.13993662516E+03  0.16963505414E+03  0.25628164726E+03  0.46999998093E+01 0. -1.
       -5    1    3    3    0  502  0.13152901607E+03  0.13993662516E+03 -0.47202987085E+03  0.50962381233E+03  0.46999998093E+01 0.  1.
</event>
<event>
 5   0  0.7459843E-04  0.6999223E+03  0.7818609E-02  0.9717365E-01
        1   -1    0    0  501    0  0.00000000000E+00  0.00000000000E+00  0.18332273864E+04  0.18332273864E+04  0.50400001928E-02 0.  1.
       -1   -1    0    0    0  501  0.00000000000E+00  0.00000000000E+00 -0.66807216342E+02  0.66807216532E+02  0.50400001928E-02 0. -1.
    10030    2    1    2    0    0  0.00000000000E+00  0.00000000000E+00  0.17664201700E+04  0.19000346029E+04  0.69992233510E+03 0.  0.
        2    1    3    3  502    0  0.18949160927E+03 -0.29223179725E+03  0.79050116116E+03  0.86382786428E+03  0.25500000920E-02 0. -1.
       -2    1    3    3    0  502 -0.18949160927E+03  0.29223179725E+03  0.97591900888E+03  0.10362067386E+04  0.25500000920E-02 0.  1.
</event>
<event>
 5   0  0.1265562E-03  0.6998951E+03  0.7818609E-02  0.9717412E-01
        2   -1    0    0  501    0  0.00000000000E+00  0.00000000000E+00  0.28603772624E+03  0.28603772625E+03  0.25500000920E-02 0.  1.
       -2   -1    0    0    0  501  0.00000000000E+00  0.00000000000E+00 -0.42813682330E+03  0.42813682331E+03  0.25500000920E-02 0. -1.
    10030    2    1    2    0    0  0.00000000000E+00  0.00000000000E+00 -0.14209909706E+03  0.71417454956E+03  0.69989508775E+03 0.  0.
        1    1    3    3  502    0  0.24441864350E+03 -0.58285260449E+02  0.17748835743E+03  0.30763576178E+03  0.50400001928E-02 0.  1.
       -1    1    3    3    0  502 -0.24441864350E+03  0.58285260449E+02 -0.31958745449E+03  0.40653878778E+03  0.50400001928E-02 0. -1.
</event>
<event>
 5   0  0.7572415E-04  0.6990543E+03  0.7818609E-02  0.9718851E-01
        1   -1    0    0  501    0  0.00000000000E+00  0.00000000000E+00  0.15830467428E+04  0.15830467428E+04  0.50400001928E-02 0. -1.
       -1   -1    0    0    0  501  0.00000000000E+00  0.00000000000E+00 -0.77173473438E+02  0.77173473603E+02  0.50400001928E-02 0.  1.
    10030    2    1    2    0    0  0.00000000000E+00  0.00000000000E+00  0.15058732693E+04  0.16602202164E+04  0.69905426370E+03 0.  0.
        4    1    3    3  502    0 -0.20389874838E+03  0.22153868977E+03  0.11745391702E+04  0.12125172023E+04  0.12699999809E+01 0.  1.
       -4    1    3    3    0  502  0.20389874838E+03 -0.22153868977E+03  0.33133409911E+03  0.44770301405E+03  0.12699999809E+01 0. -1.
</event>
<event>
 5   0  0.1224048E-03  0.7000429E+03  0.7818609E-02  0.9717159E-01
       -2   -1    0    0    0  501  0.00000000000E+00  0.00000000000E+00  0.35861079581E+03  0.35861079582E+03  0.25500000920E-02 0. -1.
        2   -1    0    0  501    0  0.00000000000E+00  0.00000000000E+00 -0.34163780292E+03  0.34163780293E+03  0.25500000920E-02 0.  1.
    10030    2    1    2    0    0  0.00000000000E+00  0.00000000000E+00  0.16972992892E+02  0.70024859875E+03  0.70004286837E+03 0.  0.
        3    1    3    3  502    0  0.63426246894E+01 -0.34090893543E+03  0.87603754763E+02  0.35204198499E+03  0.10100000352E+00 0. -1.
       -3    1    3    3    0  502 -0.63426246894E+01  0.34090893543E+03 -0.70630761872E+02  0.34820661376E+03  0.10100000352E+00 0.  1.
</event>
<event>
 5   0  0.7574241E-04  0.7004447E+03  0.7818609E-02  0.9716472E-01
       -1   -1    0    0    0  501  0.00000000000E+00  0.00000000000E+00  0.10375770375E+03  0.10375770387E+03  0.50400001928E-02 0. -1.
        1   -1    0    0  501    0  0.00000000000E+00  0.00000000000E+00 -0.11821357226E+04  0.11821357226E+04  0.50400001928E-02 0.  1.
    10030    2    1    2    0    0  0.00000000000E+00  0.00000000000E+00 -0.10783780189E+04  0.12858934265E+04  0.70044468215E+03 0.  0.
        3    1    3    3  502    0 -0.21883278170E+03  0.27231510521E+03 -0.49375930613E+03  0.60484838221E+03  0.10100000352E+00 0. -1.
       -3    1    3    3    0  502  0.21883278170E+03 -0.27231510521E+03 -0.58461871273E+03  0.68104504429E+03  0.10100000352E+00 0.  1.
</event>
<event>
 5   0  0.7574241E-04  0.6999238E+03  0.7818609E-02  0.9717362E-01
       -1   -1    0    0    0  501  0.00000000000E+00  0.00000000000E+00  0.66853126465E+02  0.66853126655E+02  0.50400001928E-02 0.  1.
        1   -1    0    0  501    0  0.00000000000E+00  0.00000000000E+00 -0.18319762141E+04  0.18319762141E+04  0.50400001928E-02 0. -1.
    10030    2    1    2    0    0  0.00000000000E+00  0.00000000000E+00 -0.17651230876E+04  0.18988293408E+04  0.69992381788E+03 0.  0.
        3    1    3    3  502    0 -0.54751188006E+02  0.99219366472E+02  0.15698642154E+02  0.11440556297E+03  0.10100000352E+00 0.  1.
       -3    1    3    3    0  502  0.54751188006E+02 -0.99219366472E+02 -0.17808217298E+04  0.17844237778E+04  0.10100000352E+00 0. -1.
</event>
<event>
 5   0  0.7570633E-04  0.7001563E+03  0.7818609E-02  0.9716965E-01
        1   -1    0    0  501    0  0.00000000000E+00  0.00000000000E+00  0.39824998813E+03  0.39824998816E+03  0.50400001928E-02 0.  1.
       -1   -1    0    0    0  501  0.00000000000E+00  0.00000000000E+00 -0.30773309015E+03  0.30773309019E+03  0.50400001928E-02 0. -1.
    10030    2    1    2    0    0  0.00000000000E+00  0.00000000000E+00  0.90516897975E+02  0.70598307836E+03  0.70015626692E+03 0.  0.
        5    1    3    3  502    0  0.23272361135E+03  0.23945263265E+03 -0.60662263696E+02  0.33941102339E+03  0.46999998093E+01 0. -1.
       -5    1    3    3    0  502 -0.23272361135E+03 -0.23945263265E+03  0.15117916167E+03  0.36657205497E+03  0.46999998093E+01 0.  1.
</event>
<event>
 5   0  0.1222679E-03  0.6996594E+03  0.7818609E-02  0.9717815E-01
        2   -1    0    0  501    0  0.00000000000E+00  0.00000000000E+00  0.20426798289E+04  0.20426798289E+04  0.25500000920E-02 0.  1.
       -2   -1    0    0    0  501  0.00000000000E+00  0.00000000000E+00 -0.59911895772E+02  0.59911895826E+02  0.25500000920E-02 0. -1.
    10030    2    1    2    0    0  0.00000000000E+00  0.00000000000E+00  0.19827679331E+04  0.21025917247E+04  0.69965940589E+03 0.  0.
        2    1    3    3  502    0  0.20705976920E+03 -0.17745555471E+03  0.16498963895E+04  0.16722805739E+04  0.25500000920E-02 0.  1.
       -2    1    3    3    0  502 -0.20705976920E+03  0.17745555471E+03  0.33287154362E+03  0.43031115077E+03  0.25500000920E-02 0. -1.
</event>
<event>
 5   0  0.1282546E-03  0.6993087E+03  0.7818609E-02  0.9718415E-01
       -2   -1    0    0    0  501  0.00000000000E+00  0.00000000000E+00  0.22501846705E+03  0.22501846706E+03  0.25500000920E-02 0.  1.
        2   -1    0    0  501    0  0.00000000000E+00  0.00000000000E+00 -0.54332504299E+03  0.54332504300E+03  0.25500000920E-02 0. -1.
    10030    2    1    2    0    0  0.00000000000E+00  0.00000000000E+00 -0.31830657594E+03  0.76834351006E+03  0.69930871092E+03 0.  0.
        5    1    3    3  502    0  0.20618624695E+03 -0.28226042990E+03 -0.15120296903E+03  0.38087812560E+03  0.46999998093E+01 0.  1.
       -5    1    3    3    0  502 -0.20618624695E+03  0.28226042990E+03 -0.16710360691E+03  0.38746538447E+03  0.46999998093E+01 0. -1.
</event>
<event>
 5   0  0.7572415E-04  0.7002900E+03  0.7818609E-02  0.9716736E-01
       -1   -1    0    0    0  501  0.00000000000E+00  0.00000000000E+00  0.59285757741E+03  0.59285757743E+03  0.50400001928E-02 0. -1.
        1   -1    0    0  501    0  0.00000000000E+00  0.00000000000E+00 -0.20679760696E+03  0.20679760703E+03  0.50400001928E-02 0.  1.
    10030    2    1    2    0    0  0.00000000000E+00  0.00000000000E+00  0.38605997044E+03  0.79965518445E+03  0.70029002081E+03 0.  0.
        4    1    3    3  502    0  0.93219839911E+02  0.12569954505E+03 -0.16463841721E+03  0.22715134932E+03  0.12699999809E+01 0.  1.
       -4    1    3    3    0  502 -0.93219839911E+02 -0.12569954505E+03  0.55069838765E+03  0.57250383513E+03  0.12699999809E+01 0. -1.
</event>
<event>
 5   0  0.1243087E-03  0.6998111E+03  0.7818609E-02  0.9717555E-01
       -2   -1    0    0    0  501  0.00000000000E+00  0.00000000000E+00  0.62770999677E+02  0.62770999729E+02  0.25500000920E-02 0.  1.
        2   -1    0    0  501    0  0.00000000000E+00  0.00000000000E+00 -0.19504850326E+04  0.19504850326E+04  0.25500000920E-02 0. -1.
    10030    2    1    2    0    0  0.00000000000E+00  0.00000000000E+00 -0.18877140329E+04  0.20132560323E+04  0.69981110424E+03 0.  0.
        4    1    3    3  502    0 -0.27993839019E+03 -0.17323549744E+02 -0.15457093598E+04  0.15709502365E+04  0.12699999809E+01 0. -1.
       -4    1    3    3    0  502  0.27993839019E+03  0.17323549744E+02 -0.34200467307E+03  0.44230579578E+03  0.12699999809E+01 0.  1.
</event>
<event>
 5   0  0.7570633E-04  0.7001359E+03  0.7818609E-02  0.9717000E-01
        1   -1    0    0  501    0  0.00000000000E+00  0.00000000000E+00  0.11305302439E+04  0.11305302439E+04  0.50400001928E-02 0. -1.
       -1   -1    0    0    0  501  0.00000000000E+00  0.00000000000E+00 -0.10839829862E+03  0.10839829874E+03  0.50400001928E-02 0.  1.
    10030    2    1    2    0    0  0.00000000000E+00  0.00000000000E+00  0.10221319452E+04  0.12389285426E+04  0.70013585840E+03 0.  0.
        5    1    3    3  502    0 -0.79028892250E+02 -0.51754637624E+02 -0.85358831051E+02  0.12740615512E+03  0.46999998093E+01 0.  1.
       -5    1    3    3    0  502  0.79028892250E+02  0.51754637624E+02  0.11074907763E+04  0.11115223875E+04  0.46999998093E+01 0. -1.
</event>
<event>
 5   0  0.1222679E-03  0.7002115E+03  0.7818609E-02  0.9716871E-01
        2   -1    0    0  501    0  0.00000000000E+00  0.00000000000E+00  0.99660926973E+03  0.99660926973E+03  0.25500000920E-02 0. -1.
       -2   -1    0    0    0  501  0.00000000000E+00  0.00000000000E+00 -0.12299105504E+03  0.12299105507E+03  0.25500000920E-02 0.  1.
    10030    2    1    2    0    0  0.00000000000E+00  0.00000000000E+00  0.87361821469E+03  0.11196003248E+04  0.70021146968E+03 0.  0.
        2    1    3    3  502    0 -0.21548612262E+03 -0.26709795514E+03  0.32604889516E+03  0.47337455437E+03  0.25500000920E-02 0. -1.
       -2    1    3    3    0  502  0.21548612262E+03  0.26709795514E+03  0.54756931953E+03  0.64622577044E+03  0.25500000920E-02 0.  1.
</event>
<event>
 5   0  0.1224048E-03  0.6997189E+03  0.7818609E-02  0.9717713E-01
        2   -1    0    0  501    0  0.00000000000E+00  0.00000000000E+00  0.56730876828E+03  0.56730876828E+03  0.25500000920E-02 0.  1.
       -2   -1    0    0    0  501  0.00000000000E+00  0.00000000000E+00 -0.21575838814E+03  0.21575838815E+03  0.25500000920E-02 0. -1.
    10030    2    1    2    0    0  0.00000000000E+00  0.00000000000E+00  0.35155038014E+03  0.78306715643E+03  0.69971887334E+03 0.  0.
        3    1    3    3  502    0  0.10678011153E+03 -0.20698876647E+03  0.46793814852E+03  0.52269729548E+03  0.10100000352E+00 0.  1.
       -3    1    3    3    0  502 -0.10678011153E+03  0.20698876647E+03 -0.11638776838E+03  0.26036986095E+03  0.10100000352E+00 0. -1.
</event>
<event>
 5   0  0.7459843E-04  0.7000892E+03  0.7818609E-02  0.9717080E-01
        1   -1    0    0  501    0  0.00000000000E+00  0.00000000000E+00  0.25423201783E+03  0.25423201788E+03  0.50400001928E-02 0.  1.
       -1   -1    0    0    0  501  0.00000000000E+00  0.00000000000E+00 -0.48196607587E+03  0.48196607589E+03  0.50400001928E-02 0. -1.
    10030    2    1    2    0    0  0.00000000000E+00  0.00000000000E+00 -0.22773405804E+03  0.73619809378E+03  0.70008916010E+03 0.  0.
        2    1    3    3  502    0  0.83686641498E+02 -0.33704652005E+03 -0.16003353073E+03  0.38238010095E+03  0.25500000920E-02 0.  1.
       -2    1    3    3    0  502 -0.83686641498E+02  0.33704652005E+03 -0.67700527309E+02  0.35381799282E+03  0.25500000920E-02 0. -1.
</event>
<event>
 5   0  0.7570633E-04  0.6999341E+03  0.7818609E-02  0.9717345E-01
        1   -1    0    0  501    0  0.00000000000E+00  0.00000000000E+00  0.16481391398E+04  0.16481391398E+04  0.50400001928E-02 0.  1.
       -1   -1    0    0    0  501  0.00000000000E+00  0.00000000000E+00 -0.74312252313E+02  0.74312252484E+02  0.50400001928E-02 0. -1.
    10030    2    1    2    0    0  0.00000000000E+00  0.00000000000E+00  0.15738268875E+04  0.17224513923E+04  0.69993408764E+03 0.  0.
        5    1    3    3  502    0 -0.27491268394E+03  0.17586775346E+03  0.47613687236E+03  0.57726498397E+03  0.46999998093E+01 0. -1.
       -5    1    3    3    0  502  0.27491268394E+03 -0.17586775346E+03  0.10976900152E+04  0.11451864083E+04  0.46999998093E+01 0.  1.
</event>
<event>
 5   0  0.1224048E-03  0.6996025E+03  0.7818609E-02  0.9717912E-01
        2   -1    0    0  501    0  0.00000000000E+00  0.00000000000E+00  0.32649011923E+03  0.32649011924E+03  0.25500000920E-02 0. -1.
       -2   -1    0    0    0  501  0.00000000000E+00  0.00000000000E+00 -0.37477672699E+03  0.37477672699E+03  0.25500000920E-02 0.  1.
    10030    2    1    2    0    0  0.00000000000E+00  0.00000000000E+00 -0.48286607754E+02  0.70126684624E+03  0.69960245364E+03 0.  0.
        3    1    3    3  502    0 -0.23311794194E+03 -0.25569967583E+03 -0.75593664298E+02  0.35417610218E+03  0.10100000352E+00 0.  1.
       -3    1    3    3    0  502  0.23311794194E+03  0.25569967583E+03  0.27307056544E+02  0.34709074406E+03  0.10100000352E+00 0. -1.
</event>
<event>
 5   0  0.1224048E-03  0.7001327E+03  0.7818609E-02  0.9717005E-01
        2   -1    0    0  501    0  0.00000000000E+00  0.00000000000E+00  0.81353244335E+03  0.81353244336E+03  0.25500000920E-02 0. -1.
       -2   -1    0    0    0  501  0.00000000000E+00  0.00000000000E+00 -0.15063500224E+03  0.15063500226E+03  0.25500000920E-02 0.  1.
    10030    2    1    2    0    0  0.00000000000E+00  0.00000000000E+00  0.66289744112E+03  0.96416744562E+03  0.70013273438E+03 0.  0.
        3    1    3    3  502    0 -0.22209819541E+03 -0.25538838310E+03  0.45458841203E+03  0.56674638877E+03  0.10100000352E+00 0. -1.
       -3    1    3    3    0  502  0.22209819541E+03  0.25538838310E+03  0.20830902908E+03  0.39742105685E+03  0.10100000352E+00 0.  1.
</event>
<event>
 5   0  0.1222679E-03  0.7000698E+03  0.7818609E-02  0.9717113E-01
        2   -1    0    0  501    0  0.00000000000E+00  0.00000000000E+00  0.20790888857E+03  0.20790888859E+03  0.25500000920E-02 0. -1.
       -2   -1    0    0    0  501  0.00000000000E+00  0.00000000000E+00 -0.58931792745E+03  0.58931792746E+03  0.25500000920E-02 0.  1.
    10030    2    1    2    0    0  0.00000000000E+00  0.00000000000E+00 -0.38140903888E+03  0.79722681605E+03  0.70006981172E+03 0.  0.
        2    1    3    3  502    0  0.11141542852E+03 -0.23596463950E+03 -0.45638925463E+03  0.52572222756E+03  0.25500000920E-02 0.  1.
       -2    1    3    3    0  502 -0.11141542852E+03  0.23596463950E+03  0.74980215743E+02  0.27150458849E+03  0.25500000920E-02 0. -1.
</event>
<event>
 5   0  0.7013526E-04  0.6999443E+03  0.7818609E-02  0.9717327E-01
       -1   -1    0    0    0  501  0.00000000000E+00  0.00000000000E+00  0.48855963150E+03  0.48855963153E+03  0.50400001928E-02 0. -1.
        1   -1    0    0  501    0  0.00000000000E+00  0.00000000000E+00 -0.25069715797E+03  0.25069715802E+03  0.50400001928E-02 0.  1.
    10030    2    1    2    0    0  0.00000000000E+00  0.00000000000E+00  0.23786247353E+03  0.73925678955E+03  0.69994431534E+03 0.  0.
        1    1    3    3  502    0  0.46023657630E+02 -0.29401756536E+03 -0.75575289834E+02  0.30704418291E+03  0.50400001928E-02 0.  1.
       -1    1    3    3    0  502 -0.46023657630E+02  0.29401756536E+03  0.31343776337E+03  0.43221260663E+03  0.50400001928E-02 0. -1.
</event>
<event>
 5   0  0.1243087E-03  0.7001897E+03  0.7818609E-02  0.9716908E-01
       -2   -1    0    0    0  501  0.00000000000E+00  0.00000000000E+00  0.23825059265E+03  0.23825059266E+03  0.25500000920E-02 0.  1.
        2   -1    0    0  501    0  0.00000000000E+00  0.00000000000E+00 -0.51444329135E+03  0.51444329135E+03  0.25500000920E-02 0. -1.
    10030    2    1    2    0    0  0.00000000000E+00  0.00000000000E+00 -0.27619269870E+03  0.75269388401E+03  0.70018974301E+03 0.  0.
        4    1    3    3  502    0  0.29356104704E+03 -0.79497705559E+02  0.48303897276E+02  0.30794943241E+03  0.12699999809E+01 0.  1.
       -4    1    3    3    0  502 -0.29356104704E+03  0.79497705559E+02 -0.32449659597E+03  0.44474445160E+03  0.12699999809E+01 0. -1.
</event>
<event>
 5   0  0.1224048E-03  0.7003365E+03  0.7818609E-02  0.9716657E-01
       -2   -1    0    0    0  501  0.00000000000E+00  0.00000000000E+00  0.42029087928E+03  0.42029087929E+03  0.25500000920E-02 0. -1.
        2   -1    0    0  501    0  0.00000000000E+00  0.00000000000E+00 -0.29174513303E+03  0.29174513304E+03  0.25500000920E-02 0.  1.
    10030    2    1    2    0    0  0.00000000000E+00  0.00000000000E+00  0.12854574626E+03  0.71203601233E+03  0.70033654336E+03 0.  0.
        3    1    3    3  502    0 -0.18383505894E+03 -0.23571488758E+03  0.24969545922E+03  0.38949283649E+03  0.10100000352E+00 0. -1.
       -3    1    3    3    0  502  0.18383505894E+03  0.23571488758E+03 -0.12114971297E+03  0.32254317583E+03  0.10100000352E+00 0.  1.
</event>
<event>
 5   0  0.4936000E-04  0.6996714E+03  0.7818609E-02  0.9717794E-01
       -4   -1    0    0    0  501  0.00000000000E+00  0.00000000000E+00  0.26392122511E+03  0.26392428074E+03  0.12699999809E+01 0. -1.
        4   -1    0    0  501    0  0.00000000000E+00  0.00000000000E+00 -0.46371142415E+03  0.46371316327E+03  0.12699999809E+01 0.  1.
    10030    2    1    2    0    0  0.00000000000E+00  0.00000000000E+00 -0.19979019905E+03  0.72763744401E+03  0.69967144167E+03 0.  0.
        5    1    3    3  502    0 -0.94748835521E+02 -0.31972654614E+03  0.99709242956E+01  0.33365238718E+03  0.46999998093E+01 0. -1.
       -5    1    3    3    0  502  0.94748835521E+02  0.31972654614E+03 -0.20976112334E+03  0.39398505683E+03  0.46999998093E+01 0.  1.
</event>
<event>
 5   0  0.7013526E-04  0.7023713E+03  0.7818609E-02  0.9713185E-01
       -1   -1    0    0    0  501  0.00000000000E+00  0.00000000000E+00  0.19305805987E+03  0.19305805994E+03  0.50400001928E-02 0.  1.
        1   -1    0    0  501    0  0.00000000000E+00  0.00000000000E+00 -0.63883050557E+03  0.63883050559E+03  0.50400001928E-02 0. -1.
    10030    2    1    2    0    0  0.00000000000E+00  0.00000000000E+00 -0.44577244570E+03  0.83188856552E+03  0.70237134915E+03 0.  0.
        1    1    3    3  502    0  0.29166911882E+02 -0.29440311728E+03  0.12361483011E+01  0.29584697446E+03  0.50400001928E-02 0.  1.
       -1    1    3    3    0  502 -0.29166911882E+02  0.29440311728E+03 -0.44700859400E+03  0.53604159106E+03  0.50400001928E-02 0. -1.
</event>
<event>
 5   0  0.1265562E-03  0.6999251E+03  0.7818609E-02  0.9717360E-01
       -2   -1    0    0    0  501  0.00000000000E+00  0.00000000000E+00  0.43060130888E+02  0.43060130963E+02  0.25500000920E-02 0. -1.
        2   -1    0    0  501    0  0.00000000000E+00  0.00000000000E+00 -0.28442500027E+04  0.28442500027E+04  0.25500000920E-02 0.  1.
    10030    2    1    2    0    0  0.00000000000E+00  0.00000000000E+00 -0.28011898718E+04  0.28873101337E+04  0.69992507457E+03 0.  0.
        1    1    3    3  502    0  0.33762246352E+03 -0.63341899957E+01 -0.17796782830E+04  0.18114314342E+04  0.50400001928E-02 0.  1.
       -1    1    3    3    0  502 -0.33762246352E+03  0.63341899957E+01 -0.10215115888E+04  0.10758786994E+04  0.50400001928E-02 0. -1.
</event>
<event>
 5   0  0.7570633E-04  0.6997756E+03  0.7818609E-02  0.9717616E-01
       -1   -1    0    0    0  501  0.00000000000E+00  0.00000000000E+00  0.20818877702E+03  0.20818877708E+03  0.50400001928E-02 0.  1.
        1   -1    0    0  501    0  0.00000000000E+00  0.00000000000E+00 -0.58803102799E+03  0.58803102801E+03  0.50400001928E-02 0. -1.
    10030    2    1    2    0    0  0.00000000000E+00  0.00000000000E+00 -0.37984225097E+03  0.79621980510E+03  0.69977556574E+03 0.  0.
        5    1    3    3  502    0 -0.27985573100E+03 -0.17366166746E+03 -0.55668940748E+02  0.33406395478E+03  0.46999998093E+01 0.  1.
       -5    1    3    3    0  502  0.27985573100E+03  0.17366166746E+03 -0.32417331022E+03  0.46215585032E+03  0.46999998093E+01 0. -1.
</event>
<event>
 5   0  0.7572415E-04  0.7000667E+03  0.7818609E-02  0.9717118E-01
       -1   -1    0    0    0  501  0.00000000000E+00  0.00000000000E+00  0.45823487254E+03  0.45823487257E+03  0.50400001928E-02 0.  1.
        1   -1    0    0  501    0  0.00000000000E+00  0.00000000000E+00 -0.26738110399E+03  0.26738110404E+03  0.50400001928E-02 0. -1.
    10030    2    1    2    0    0  0.00000000000E+00  0.00000000000E+00  0.19085376855E+03  0.72561597661E+03  0.70006670007E+03 0.  0.
        4    1    3    3  502    0 -0.25760709134E+03  0.19546422534E+03  0.23430976245E+03  0.39933739441E+03  0.12699999809E+01 0.  1.
       -4    1    3    3    0  502  0.25760709134E+03 -0.19546422534E+03 -0.43455993905E+02  0.32627858220E+03  0.12699999809E+01 0. -1.
</event>
<event>
 5   0  0.1224048E-03  0.6998439E+03  0.7818609E-02  0.9717499E-01
       -2   -1    0    0    0  501  0.00000000000E+00  0.00000000000E+00  0.16416943519E+03  0.16416943521E+03  0.25500000920E-02 0. -1.
        2   -1    0    0  501    0  0.00000000000E+00  0.00000000000E+00 -0.74584763473E+03  0.74584763474E+03  0.25500000920E-02 0.  1.
    10030    2    1    2    0    0  0.00000000000E+00  0.00000000000E+00 -0.58167819954E+03  0.91001706995E+03  0.69984393958E+03 0.  0.
        3    1    3    3  502    0  0.90782805194E+02  0.33198120736E+03 -0.37299936263E+03  0.50752494961E+03  0.10100000352E+00 0. -1.
       -3    1    3    3    0  502 -0.90782805194E+02 -0.33198120736E+03 -0.20867883692E+03  0.40249212034E+03  0.10100000352E+00 0.  1.
</event>
<event>
 5   0  0.7572415E-04  0.6995443E+03  0.7818609E-02  0.9718012E-01
        1   -1    0    0  501    0  0.00000000000E+00  0.00000000000E+00  0.25177359530E+03  0.25177359535E+03  0.50400001928E-02 0.  1.
       -1   -1    0    0    0  501  0.00000000000E+00  0.00000000000E+00 -0.48591502284E+03  0.48591502286E+03  0.50400001928E-02 0. -1.
    10030    2    1    2    0    0  0.00000000000E+00  0.00000000000E+00 -0.23414142754E+03  0.73768861821E+03  0.69954434409E+03 0.  0.
        4    1    3    3  502    0 -0.33927626163E+03  0.27456070938E+02 -0.32204245672E+02  0.34190780026E+03  0.12699999809E+01 0.  1.
       -4    1    3    3    0  502  0.33927626163E+03 -0.27456070938E+02 -0.20193718187E+03  0.39578081795E+03  0.12699999809E+01 0. -1.
</event>
<event>
 5   0  0.7013526E-04  0.6997683E+03  0.7818609E-02  0.9717629E-01
        1   -1    0    0  501    0  0.00000000000E+00  0.00000000000E+00  0.50797724476E+03  0.50797724478E+03  0.50400001928E-02 0. -1.
       -1   -1    0    0    0  501  0.00000000000E+00  0.00000000000E+00 -0.24099289557E+03  0.24099289562E+03  0.50400001928E-02 0.  1.
    10030    2    1    2    0    0  0.00000000000E+00  0.00000000000E+00  0.26698434918E+03  0.74897014041E+03  0.69976826772E+03 0.  0.
        1    1    3    3  502    0 -0.35489274401E+02  0.25836783063E+03  0.38314218736E+03  0.46347746468E+03  0.50400001928E-02 0. -1.
       -1    1    3    3    0  502  0.35489274401E+02 -0.25836783063E+03 -0.11615783818E+03  0.28549267573E+03  0.50400001928E-02 0.  1.
</event>
<event>
 5   0  0.7459843E-04  0.6997881E+03  0.7818609E-02  0.9717595E-01
        1   -1    0    0  501    0  0.00000000000E+00  0.00000000000E+00  0.25666843979E+03  0.25666843984E+03  0.50400001928E-02 0. -1.
       -1   -1    0    0    0  501  0.00000000000E+00  0.00000000000E+00 -0.47698058525E+03  0.47698058528E+03  0.50400001928E-02 0.  1.
    10030    2    1    2    0    0  0.00000000000E+00  0.00000000000E+00 -0.22031214546E+03  0.73364902512E+03  0.69978814695E+03 0.  0.
        2    1    3    3  502    0 -0.32572609803E+03 -0.23154461925E+02  0.21591816572E+02  0.32726109850E+03  0.25500000920E-02 0. -1.
       -2    1    3    3    0  502  0.32572609803E+03  0.23154461925E+02 -0.24190396203E+03  0.40638792661E+03  0.25500000920E-02 0.  1.
</event>
<event>
 5   0  0.1265562E-03  0.7018134E+03  0.7818609E-02  0.9714136E-01
       -2   -1    0    0    0  501  0.00000000000E+00  0.00000000000E+00  0.47641897090E+03  0.47641897091E+03  0.25500000920E-02 0. -1.
        2   -1    0    0  501    0  0.00000000000E+00  0.00000000000E+00 -0.25846059163E+03  0.25846059164E+03  0.25500000920E-02 0.  1.
    10030    2    1    2    0    0  0.00000000000E+00  0.00000000000E+00  0.21795837927E+03  0.73487956255E+03  0.70181344840E+03 0.  0.
        1    1    3    3  502    0 -0.16845417192E+03 -0.30466970220E+03  0.15504147388E+03  0.38110142235E+03  0.50400001928E-02 0.  1.
       -1    1    3    3    0  502  0.16845417192E+03  0.30466970220E+03  0.62916905390E+02  0.35377814020E+03  0.50400001928E-02 0. -1.
</event>
<event>
 5   0  0.7570633E-04  0.7011827E+03  0.7818609E-02  0.9715212E-01
        1   -1    0    0  501    0  0.00000000000E+00  0.00000000000E+00  0.62877199654E+03  0.62877199656E+03  0.50400001928E-02 0.  1.
       -1   -1    0    0    0  501  0.00000000000E+00  0.00000000000E+00 -0.19548311076E+03  0.19548311083E+03  0.50400001928E-02 0. -1.
    10030    2    1    2    0    0  0.00000000000E+00  0.00000000000E+00  0.43328888578E+03  0.82425510739E+03  0.70118273190E+03 0.  0.
        5    1    3    3  502    0 -0.19153474841E+03 -0.28906505189E+03  0.27713584818E+03  0.44392626912E+03  0.46999998093E+01 0. -1.
       -5    1    3    3    0  502  0.19153474841E+03  0.28906505189E+03  0.15615303760E+03  0.38032883827E+03  0.46999998093E+01 0.  1.
</event>
<event>
 5   0  0.1224048E-03  0.6994870E+03  0.7818609E-02  0.9718110E-01
        2   -1    0    0  501    0  0.00000000000E+00  0.00000000000E+00  0.25233816439E+04  0.25233816439E+04  0.25500000920E-02 0. -1.
       -2   -1    0    0    0  501  0.00000000000E+00  0.00000000000E+00 -0.48474841484E+02  0.48474841551E+02  0.25500000920E-02 0.  1.
    10030    2    1    2    0    0  0.00000000000E+00  0.00000000000E+00  0.24749068024E+04  0.25718564855E+04  0.69948702713E+03 0.  0.
        3    1    3    3  502    0  0.98473328770E+02  0.84104129010E+02  0.24319810704E+04  0.24354265413E+04  0.10100000352E+00 0. -1.
       -3    1    3    3    0  502 -0.98473328770E+02 -0.84104129010E+02  0.42925732013E+02  0.13642994417E+03  0.10100000352E+00 0.  1.
</event>
<event>
 5   0  0.1222679E-03  0.6994614E+03  0.7818609E-02  0.9718154E-01
       -2   -1    0    0    0  501  0.00000000000E+00  0.00000000000E+00  0.24793074398E+03  0.24793074400E+03  0.25500000920E-02 0. -1.
        2   -1    0    0  501    0  0.00000000000E+00  0.00000000000E+00 -0.49332951004E+03  0.49332951004E+03  0.25500000920E-02 0.  1.
    10030    2    1    2    0    0  0.00000000000E+00  0.00000000000E+00 -0.24539876605E+03  0.74126025404E+03  0.69946137123E+03 0.  0.
        2    1    3    3  502    0 -0.76111648074E+02 -0.12816774613E+03 -0.45797794984E+03  0.48162615862E+03  0.25500000920E-02 0.  1.
       -2    1    3    3    0  502  0.76111648074E+02  0.12816774613E+03  0.21257918378E+03  0.25963409542E+03  0.25500000920E-02 0. -1.
</event>
<event>
 5   0  0.1243087E-03  0.6999960E+03  0.7818609E-02  0.9717239E-01
        2   -1    0    0  501    0  0.00000000000E+00  0.00000000000E+00  0.59752026151E+03  0.59752026151E+03  0.25500000920E-02 0. -1.
       -2   -1    0    0    0  501  0.00000000000E+00  0.00000000000E+00 -0.20501165024E+03  0.20501165025E+03  0.25500000920E-02 0.  1.
    10030    2    1    2    0    0  0.00000000000E+00  0.00000000000E+00  0.39250861127E+03  0.80253191177E+03  0.69999604248E+03 0.  0.
        4    1    3    3  502    0 -0.84551882812E+02  0.32792724781E+03  0.29758465457E+03  0.45082539889E+03  0.12699999809E+01 0. -1.
       -4    1    3    3    0  502  0.84551882812E+02 -0.32792724781E+03  0.94923956702E+02  0.35170651288E+03  0.12699999809E+01 0.  1.
</event>
<event>
 5   0  0.1224048E-03  0.6999167E+03  0.7818609E-02  0.9717375E-01
        2   -1    0    0  501    0  0.00000000000E+00  0.00000000000E+00  0.17971756951E+04  0.17971756951E+04  0.25500000920E-02 0.  1.
       -2   -1    0    0    0  501  0.00000000000E+00  0.00000000000E+00 -0.68146277321E+02  0.68146277368E+02  0.25500000920E-02 0. -1.
    10030    2    1    2    0    0  0.00000000000E+00  0.00000000000E+00  0.17290294177E+04  0.18653219724E+04  0.69991666177E+03 0.  0.
        3    1    3    3  502    0  0.30470086280E+03  0.94537096301E+02  0.48116279593E+03  0.57731925722E+03  0.10100000352E+00 0. -1.
       -3    1    3    3    0  502 -0.30470086280E+03 -0.94537096301E+02  0.12478666218E+04  0.12880027152E+04  0.10100000352E+00 0.  1.
</event>
<event>
 5   0  0.7013526E-04  0.7003957E+03  0.7818609E-02  0.9716556E-01
       -1   -1    0    0    0  501  0.00000000000E+00  0.00000000000E+00  0.20882022645E+03  0.20882022651E+03  0.50400001928E-02 0. -1.
        1   -1    0    0  501    0  0.00000000000E+00  0.00000000000E+00 -0.58729245214E+03  0.58729245216E+03  0.50400001928E-02 0.  1.
    10030    2    1    2    0    0  0.00000000000E+00  0.00000000000E+00 -0.37847222569E+03  0.79611267867E+03  0.70039572495E+03 0.  0.
        1    1    3    3  502    0  0.12740563809E+03  0.63525504709E+02  0.17444372293E+03  0.22516282744E+03  0.50400001928E-02 0. -1.
       -1    1    3    3    0  502 -0.12740563809E+03 -0.63525504709E+02 -0.55291594862E+03  0.57094985124E+03  0.50400001928E-02 0.  1.
</event>
<event>
 5   0  0.7570633E-04  0.6997716E+03  0.7818609E-02  0.9717623E-01
       -1   -1    0    0    0  501  0.00000000000E+00  0.00000000000E+00  0.36700545308E+03  0.36700545311E+03  0.50400001928E-02 0.  1.
        1   -1    0    0  501    0  0.00000000000E+00  0.00000000000E+00 -0.33356468669E+03  0.33356468672E+03  0.50400001928E-02 0. -1.
    10030    2    1    2    0    0  0.00000000000E+00  0.00000000000E+00  0.33440766391E+02  0.70057013983E+03  0.69977155985E+03 0.  0.
        5    1    3    3  502    0  0.30437179873E+03  0.17092788109E+03  0.39972662844E+02  0.35139498598E+03  0.46999998093E+01 0.  1.
       -5    1    3    3    0  502 -0.30437179873E+03 -0.17092788109E+03 -0.65318964531E+01  0.34917515385E+03  0.46999998093E+01 0. -1.
</event>
<event>
 5   0  0.4936000E-04  0.7000849E+03  0.7818609E-02  0.9717087E-01
       -3   -1    0    0    0  501  0.00000000000E+00  0.00000000000E+00  0.26004146218E+03  0.26004148179E+03  0.10100000352E+00 0. -1.
        3   -1    0    0  501    0  0.00000000000E+00  0.00000000000E+00 -0.47119293827E+03  0.47119294909E+03  0.10100000352E+00 0.  1.
    10030    2    1    2    0    0  0.00000000000E+00  0.00000000000E+00 -0.21115147609E+03  0.73123443088E+03  0.70008488561E+03 0.  0.
        2    1    3    3  502    0 -0.47269076985E+02  0.61786830007E+02  0.25089787413E+03  0.26268178705E+03  0.25500000920E-02 0. -1.
       -2    1    3    3    0  502  0.47269076985E+02 -0.61786830007E+02 -0.46204935021E+03  0.46855264383E+03  0.25500000920E-02 0.  1.
</event>
<event>
 5   0  0.1243087E-03  0.6999648E+03  0.7818609E-02  0.9717292E-01
        2   -1    0    0  501    0  0.00000000000E+00  0.00000000000E+00  0.33859573374E+03  0.33859573375E+03  0.25500000920E-02 0. -1.
       -2   -1    0    0    0  501  0.00000000000E+00  0.00000000000E+00 -0.36175203432E+03  0.36175203432E+03  0.25500000920E-02 0.  1.
    10030    2    1    2    0    0  0.00000000000E+00  0.00000000000E+00 -0.23156300571E+02  0.70034776808E+03  0.69996484340E+03 0.  0.
        4    1    3    3  502    0  0.34098684927E+03  0.35175354686E+02 -0.82162796764E+02  0.35250769499E+03  0.12699999809E+01 0.  1.
       -4    1    3    3    0  502 -0.34098684927E+03 -0.35175354686E+02  0.59006496193E+02  0.34784007309E+03  0.12699999809E+01 0. -1.
</event>
<event>
 5   0  0.1222679E-03  0.6998407E+03  0.7818609E-02  0.9717505E-01
        2   -1    0    0  501    0  0.00000000000E+00  0.00000000000E+00  0.44710202824E+03  0.44710202825E+03  0.25500000920E-02 0.  1.
       -2   -1    0    0    0  501  0.00000000000E+00  0.00000000000E+00 -0.27386200889E+03  0.27386200890E+03  0.25500000920E-02 0. -1.
    10030    2    1    2    0    0  0.00000000000E+00  0.00000000000E+00  0.17324001935E+03  0.72096403715E+03  0.69984072371E+03 0.  0.
        2    1    3    3  502    0 -0.78984028846E+02  0.71860251419E+01 -0.26448073092E+03  0.27611623060E+03  0.25500000920E-02 0. -1.
       -2    1    3    3    0  502  0.78984028846E+02 -0.71860251419E+01  0.43772075027E+03  0.44484780655E+03  0.25500000920E-02 0.  1.
</event>
<event>
 5   0  0.7459843E-04  0.6994811E+03  0.7818609E-02  0.9718120E-01
       -1   -1    0    0    0  501  0.00000000000E+00  0.00000000000E+00  0.28529219914E+03  0.28529219918E+03  0.50400001928E-02 0.  1.
        1   -1    0    0  501    0  0.00000000000E+00  0.00000000000E+00 -0.42874795349E+03  0.42874795352E+03  0.50400001928E-02 0. -1.
    10030    2    1    2    0    0  0.00000000000E+00  0.00000000000E+00 -0.14345575435E+03  0.71404015270E+03  0.69948108353E+03 0.  0.
        2    1    3    3  502    0  0.27250229178E+03 -0.18669118865E+03 -0.18904312547E+03  0.38058954563E+03  0.25500000920E-02 0. -1.
       -2    1    3    3    0  502 -0.27250229178E+03  0.18669118865E+03  0.45587371114E+02  0.33345060708E+03  0.25500000920E-02 0.  1.
</event>
<event>
 5   0  0.4936000E-04  0.7001298E+03  0.7818609E-02  0.9717010E-01
        4   -1    0    0  501    0  0.00000000000E+00  0.00000000000E+00  0.20890808025E+03  0.20891194052E+03  0.12699999809E+01 0.  1.
       -4   -1    0    0    0  501  0.00000000000E+00  0.00000000000E+00 -0.58658973451E+03  0.58659110932E+03  0.12699999809E+01 0. -1.
    10030    2    1    2    0    0  0.00000000000E+00  0.00000000000E+00 -0.37768165426E+03  0.79550304984E+03  0.70012975250E+03 0.  0.
        1    1    3    3  502    0 -0.10442182328E+03  0.16136251408E+03 -0.52127788483E+03  0.55558294733E+03  0.50400001928E-02 0. -1.
       -1    1    3    3    0  502  0.10442182328E+03 -0.16136251408E+03  0.14359623057E+03  0.23992010251E+03  0.50400001928E-02 0.  1.
</event>
<event>
 5   0  0.1265562E-03  0.7010820E+03  0.7818609E-02  0.9715384E-01
       -2   -1    0    0    0  501  0.00000000000E+00  0.00000000000E+00  0.22413462744E+03  0.22413462746E+03  0.25500000920E-02 0. -1.
        2   -1    0    0  501    0  0.00000000000E+00  0.00000000000E+00 -0.54823750566E+03  0.54823750567E+03  0.25500000920E-02 0.  1.
    10030    2    1    2    0    0  0.00000000000E+00  0.00000000000E+00 -0.32410287822E+03  0.77237213312E+03  0.70108204681E+03 0.  0.
        1    1    3    3  502    0  0.65611930439E+02 -0.51657555492E+02  0.21301648408E+03  0.22880002398E+03  0.50400001928E-02 0. -1.
       -1    1    3    3    0  502 -0.65611930439E+02  0.51657555492E+02 -0.53711936230E+03  0.54357210914E+03  0.50400001928E-02 0.  1.
</event>
<event>
 5   0  0.7572415E-04  0.6998688E+03  0.7818609E-02  0.9717457E-01
        1   -1    0    0  501    0  0.00000000000E+00  0.00000000000E+00  0.46248761746E+03  0.46248761748E+03  0.50400001928E-02 0. -1.
       -1   -1    0    0    0  501  0.00000000000E+00  0.00000000000E+00 -0.26477268056E+03  0.26477268061E+03  0.50400001928E-02 0.  1.
    10030    2    1    2    0    0  0.00000000000E+00  0.00000000000E+00  0.19771493690E+03  0.72726029809E+03  0.69986880550E+03 0.  0.
        4    1    3    3  502    0 -0.12987396796E+03 -0.25308542558E+03  0.31063011210E+03  0.42120322843E+03  0.12699999809E+01 0.  1.
       -4    1    3    3    0  502  0.12987396796E+03  0.25308542558E+03 -0.11291517520E+03  0.30605706966E+03  0.12699999809E+01 0. -1.
</event>
<event>
 5   0  0.7570633E-04  0.6999772E+03  0.7818609E-02  0.9717271E-01
       -1   -1    0    0    0  501  0.00000000000E+00  0.00000000000E+00  0.18022049356E+03  0.18022049363E+03  0.50400001928E-02 0.  1.
        1   -1    0    0  501    0  0.00000000000E+00  0.00000000000E+00 -0.67967866054E+03  0.67967866056E+03  0.50400001928E-02 0. -1.
    10030    2    1    2    0    0  0.00000000000E+00  0.00000000000E+00 -0.49945816698E+03  0.85989915419E+03  0.69997721021E+03 0.  0.
        5    1    3    3  502    0 -0.11666728024E+03 -0.17161519982E+03  0.96443563805E+02  0.22888093429E+03  0.46999998093E+01 0.  1.
       -5    1    3    3    0  502  0.11666728024E+03  0.17161519982E+03 -0.59590173079E+03  0.63101821990E+03  0.46999998093E+01 0. -1.
</event>
<event>
 5   0  0.7013526E-04  0.6999351E+03  0.7818609E-02  0.9717343E-01
        1   -1    0    0  501    0  0.00000000000E+00  0.00000000000E+00  0.53205409680E+03  0.53205409682E+03  0.50400001928E-02 0. -1.
       -1   -1    0    0    0  501  0.00000000000E+00  0.00000000000E+00 -0.23019706238E+03  0.23019706244E+03  0.50400001928E-02 0.  1.
    10030    2    1    2    0    0  0.00000000000E+00  0.00000000000E+00  0.30185703442E+03  0.76225115926E+03  0.69993511168E+03 0.  0.
        1    1    3    3  502    0 -0.92041977101E+02  0.10987048669E+03  0.49862470862E+03  0.51881581459E+03  0.50400001928E-02 0. -1.
       -1    1    3    3    0  502  0.92041977101E+02 -0.10987048669E+03 -0.19676767421E+03  0.24343534467E+03  0.50400001928E-02 0.  1.
</event>
<event>
 5   0  0.7574241E-04  0.6988404E+03  0.7818609E-02  0.9719217E-01
       -1   -1    0    0    0  501  0.00000000000E+00  0.00000000000E+00  0.16693501203E+03  0.16693501210E+03  0.50400001928E-02 0. -1.
        1   -1    0    0  501    0  0.00000000000E+00  0.00000000000E+00 -0.73138926222E+03  0.73138926224E+03  0.50400001928E-02 0.  1.
    10030    2    1    2    0    0  0.00000000000E+00  0.00000000000E+00 -0.56445425020E+03  0.89832427435E+03  0.69884039760E+03 0.  0.
        3    1    3    3  502    0 -0.21156411594E+03  0.25309591210E+03 -0.43034725822E+03  0.54223213547E+03  0.10100000352E+00 0.  1.
       -3    1    3    3    0  502  0.21156411594E+03 -0.25309591210E+03 -0.13410699197E+03  0.35609213888E+03  0.10100000352E+00 0. -1.
</event>
<event>
 5   0  0.1224048E-03  0.7002067E+03  0.7818609E-02  0.9716879E-01
        2   -1    0    0  501    0  0.00000000000E+00  0.00000000000E+00  0.55052328982E+03  0.55052328983E+03  0.25500000920E-02 0.  1.
       -2   -1    0    0    0  501  0.00000000000E+00  0.00000000000E+00 -0.22264700094E+03  0.22264700095E+03  0.25500000920E-02 0. -1.
    10030    2    1    2    0    0  0.00000000000E+00  0.00000000000E+00  0.32787628888E+03  0.77317029078E+03  0.70020671072E+03 0.  0.
        3    1    3    3  502    0 -0.30594974946E+03  0.82259975428E+02 -0.58585355582E+00  0.31681588687E+03  0.10100000352E+00 0. -1.
       -3    1    3    3    0  502  0.30594974946E+03 -0.82259975428E+02  0.32846214244E+03  0.45635440391E+03  0.10100000352E+00 0.  1.
</event>
<event>
 5   0  0.1265562E-03  0.6984121E+03  0.7818609E-02  0.9719952E-01
       -2   -1    0    0    0  501  0.00000000000E+00  0.00000000000E+00  0.71481233570E+03  0.71481233570E+03  0.25500000920E-02 0. -1.
        2   -1    0    0  501    0  0.00000000000E+00  0.00000000000E+00 -0.17059703312E+03  0.17059703313E+03  0.25500000920E-02 0.  1.
    10030    2    1    2    0    0  0.00000000000E+00  0.00000000000E+00  0.54421530258E+03  0.88540936884E+03  0.69841209530E+03 0.  0.
        1    1    3    3  502    0 -0.30774721624E+03 -0.13103192785E+03  0.39930720802E+03  0.52088766699E+03  0.50400001928E-02 0.  1.
       -1    1    3    3    0  502  0.30774721624E+03  0.13103192785E+03  0.14490809456E+03  0.36452170185E+03  0.50400001928E-02 0. -1.
</event>
<event>
 5   0  0.7570633E-04  0.7010942E+03  0.7818609E-02  0.9715363E-01
        1   -1    0    0  501    0  0.00000000000E+00  0.00000000000E+00  0.74712892669E+03  0.74712892670E+03  0.50400001928E-02 0.  1.
       -1   -1    0    0    0  501  0.00000000000E+00  0.00000000000E+00 -0.16447396057E+03  0.16447396064E+03  0.50400001928E-02 0. -1.
    10030    2    1    2    0    0  0.00000000000E+00  0.00000000000E+00  0.58265496612E+03  0.91160288735E+03  0.70109415536E+03 0.  0.
        5    1    3    3  502    0  0.47530671014E+02  0.26137610666E+03  0.58864188638E+03  0.64583124283E+03  0.46999998093E+01 0.  1.
       -5    1    3    3    0  502 -0.47530671014E+02 -0.26137610666E+03 -0.59869202586E+01  0.26577164452E+03  0.46999998093E+01 0. -1.
</event>
<event>
 5   0  0.1243087E-03  0.7000325E+03  0.7818609E-02  0.9717177E-01
       -2   -1    0    0    0  501  0.00000000000E+00  0.00000000000E+00  0.22271819551E+03  0.22271819553E+03  0.25500000920E-02 0.  1.
        2   -1    0    0  501    0  0.00000000000E+00  0.00000000000E+00 -0.55007346636E+03  0.55007346637E+03  0.25500000920E-02 0. -1.
    10030    2    1    2    0    0  0.00000000000E+00  0.00000000000E+00 -0.32735527085E+03  0.77279166190E+03  0.70003248449E+03 0.  0.
        4    1    3    3  502    0 -0.84986629039E+02 -0.93440868756E+01 -0.53836577120E+03  0.54511407575E+03  0.12699999809E+01 0. -1.
       -4    1    3    3    0  502  0.84986629039E+02  0.93440868756E+01  0.21101050036E+03  0.22767758615E+03  0.12699999809E+01 0.  1.
</event>
<event>
 5   0  0.7459843E-04  0.7001606E+03  0.7818609E-02  0.9716958E-01
        1   -1    0    0  501    0  0.00000000000E+00  0.00000000000E+00  0.14974254425E+04  0.14974254425E+04  0.50400001928E-02 0.  1.
       -1   -1    0    0    0  501  0.00000000000E+00  0.00000000000E+00 -0.81844626096E+02  0.81844626251E+02  0.50400001928E-02 0. -1.
    10030    2    1    2    0    0  0.00000000000E+00  0.00000000000E+00  0.14155808164E+04  0.15792700687E+04  0.70016062607E+03 0.  0.
        2    1    3    3  502    0  0.13666757319E+03  0.21055048465E+03  0.12582019666E+04  0.12829971633E+04  0.25500000920E-02 0.  1.
       -2    1    3    3    0  502 -0.13666757319E+03 -0.21055048465E+03  0.15737884974E+03  0.29627290544E+03  0.25500000920E-02 0. -1.
</event>
<event>
 5   0  0.1282546E-03  0.7001273E+03  0.7818609E-02  0.9717015E-01
        2   -1    0    0  501    0  0.00000000000E+00  0.00000000000E+00  0.27310679886E+03  0.27310679887E+03  0.25500000920E-02 0.  1.
       -2   -1    0    0    0  501  0.00000000000E+00  0.00000000000E+00 -0.44870563596E+03  0.44870563597E+03  0.25500000920E-02 0. -1.
    10030    2    1    2    0    0  0.00000000000E+00  0.00000000000E+00 -0.17559883710E+03  0.72181243483E+03  0.70012730234E+03 0.  0.
        5    1    3    3  502    0 -0.28369074931E+03 -0.86940395559E+02  0.10364925512E+03  0.31433156334E+03  0.46999998093E+01 0.  1.
       -5    1    3    3    0  502  0.28369074931E+03  0.86940395559E+02 -0.27924809222E+03  0.40748087150E+03  0.46999998093E+01 0. -1.
</event>
<event>
 5   0  0.1282546E-03  0.6998258E+03  0.7818609E-02  0.9717530E-01
        2   -1    0    0  501    0  0.00000000000E+00  0.00000000000E+00  0.14123577215E+04  0.14123577215E+04  0.25500000920E-02 0. -1.
       -2   -1    0    0    0  501  0.00000000000E+00  0.00000000000E+00 -0.86691229895E+02  0.86691229932E+02  0.25500000920E-02 0.  1.
    10030    2    1    2    0    0  0.00000000000E+00  0.00000000000E+00  0.13256664916E+04  0.14990489514E+04  0.69982577248E+03 0.  0.
        5    1    3    3  502    0  0.58892380402E+02  0.12834509698E+03  0.13485382322E+04  0.13559196990E+04  0.46999998093E+01 0. -1.
       -5    1    3    3    0  502 -0.58892380402E+02 -0.12834509698E+03 -0.22871740603E+02  0.14312925244E+03  0.46999998093E+01 0.  1.
</event>
<event>
 5   0  0.1224048E-03  0.6999767E+03  0.7818609E-02  0.9717272E-01
       -2   -1    0    0    0  501  0.00000000000E+00  0.00000000000E+00  0.40292542452E+03  0.40292542453E+03  0.25500000920E-02 0.  1.
        2   -1    0    0  501    0  0.00000000000E+00  0.00000000000E+00 -0.30400623539E+03  0.30400623540E+03  0.25500000920E-02 0. -1.
    10030    2    1    2    0    0  0.00000000000E+00  0.00000000000E+00  0.98919189128E+02  0.70693165993E+03  0.69997668949E+03 0.  0.
        3    1    3    3  502    0  0.32458808074E+03  0.13063904664E+03  0.57778463165E+02  0.35462986856E+03  0.10100000352E+00 0.  1.
       -3    1    3    3    0  502 -0.32458808074E+03 -0.13063904664E+03  0.41140725963E+02  0.35230179137E+03  0.10100000352E+00 0. -1.
</event>
<event>
 5   0  0.1282546E-03  0.7000159E+03  0.7818609E-02  0.9717205E-01
        2   -1    0    0  501    0  0.00000000000E+00  0.00000000000E+00  0.25770583243E+03  0.25770583245E+03  0.25500000920E-02 0.  1.
       -2   -1    0    0    0  501  0.00000000000E+00  0.00000000000E+00 -0.47536973045E+03  0.47536973046E+03  0.25500000920E-02 0. -1.
    10030    2    1    2    0    0  0.00000000000E+00  0.00000000000E+00 -0.21766389802E+03  0.73307556291E+03  0.70001586299E+03 0.  0.
        5    1    3    3  502    0 -0.14724418276E+03  0.95705847535E+02 -0.42585476407E+03  0.46066780731E+03  0.46999998093E+01 0. -1.
       -5    1    3    3    0  502  0.14724418276E+03 -0.95705847535E+02  0.20819086605E+03  0.27240775560E+03  0.46999998093E+01 0.  1.
</event>
<event>
 5   0  0.1222679E-03  0.6998466E+03  0.7818609E-02  0.9717494E-01
        2   -1    0    0  501    0  0.00000000000E+00  0.00000000000E+00  0.25483889000E+03  0.25483889002E+03  0.25500000920E-02 0. -1.
       -2   -1    0    0    0  501  0.00000000000E+00  0.00000000000E+00 -0.48048526167E+03  0.48048526168E+03  0.25500000920E-02 0.  1.
    10030    2    1    2    0    0  0.00000000000E+00  0.00000000000E+00 -0.22564637167E+03  0.73532415170E+03  0.69984664250E+03 0.  0.
        2    1    3    3  502    0  0.20765780143E+03  0.22559303967E+03  0.64343603803E+02  0.31329551769E+03  0.25500000920E-02 0. -1.
       -2    1    3    3    0  502 -0.20765780143E+03 -0.22559303967E+03 -0.28998997547E+03  0.42202863401E+03  0.25500000920E-02 0.  1.
</event>
<event>
 5   0  0.1282546E-03  0.7003899E+03  0.7818609E-02  0.9716566E-01
       -2   -1    0    0    0  501  0.00000000000E+00  0.00000000000E+00  0.96347399847E+02  0.96347399881E+02  0.25500000920E-02 0.  1.
        2   -1    0    0  501    0  0.00000000000E+00  0.00000000000E+00 -0.12728572994E+04  0.12728572994E+04  0.25500000920E-02 0. -1.
    10030    2    1    2    0    0  0.00000000000E+00  0.00000000000E+00 -0.11765098996E+04  0.13692046993E+04  0.70038986629E+03 0.  0.
        5    1    3    3  502    0  0.27455880765E+03 -0.13893591897E+03 -0.91495836618E+03  0.96532721410E+03  0.46999998093E+01 0. -1.
       -5    1    3    3    0  502 -0.27455880765E+03  0.13893591897E+03 -0.26155153341E+03  0.40387748522E+03  0.46999998093E+01 0.  1.
</event>
<event>
 5   0  0.1222679E-03  0.7001145E+03  0.7818609E-02  0.9717036E-01
       -2   -1    0    0    0  501  0.00000000000E+00  0.00000000000E+00  0.17588862334E+03  0.17588862336E+03  0.25500000920E-02 0. -1.
        2   -1    0    0  501    0  0.00000000000E+00  0.00000000000E+00 -0.69669128098E+03  0.69669128098E+03  0.25500000920E-02 0.  1.
    10030    2    1    2    0    0  0.00000000000E+00  0.00000000000E+00 -0.52080265764E+03  0.87257990434E+03  0.70011447725E+03 0.  0.
        2    1    3    3  502    0  0.66064877537E+02  0.27329247285E+03 -0.49640486674E+00  0.28116470295E+03  0.25500000920E-02 0. -1.
       -2    1    3    3    0  502 -0.66064877537E+02 -0.27329247285E+03 -0.52030625277E+03  0.59141520139E+03  0.25500000920E-02 0.  1.
</event>
<event>
 5   0  0.1243087E-03  0.7000192E+03  0.7818609E-02  0.9717199E-01
        2   -1    0    0  501    0  0.00000000000E+00  0.00000000000E+00  0.94691357081E+03  0.94691357081E+03  0.25500000920E-02 0.  1.
       -2   -1    0    0    0  501  0.00000000000E+00  0.00000000000E+00 -0.12937475521E+03  0.12937475524E+03  0.25500000920E-02 0. -1.
    10030    2    1    2    0    0  0.00000000000E+00  0.00000000000E+00  0.81753881560E+03  0.10762883260E+04  0.70001917529E+03 0.  0.
        4    1    3    3  502    0  0.20585077176E+03  0.72407183491E+02  0.82951939147E+03  0.85774202076E+03  0.12699999809E+01 0.  1.
       -4    1    3    3    0  502 -0.20585077176E+03 -0.72407183491E+02 -0.11980575877E+02  0.21854630528E+03  0.12699999809E+01 0. -1.
</event>
<event>
 5   0  0.1265562E-03  0.7000254E+03  0.7818609E-02  0.9717189E-01
       -2   -1    0    0    0  501  0.00000000000E+00  0.00000000000E+00  0.18033125918E+03  0.18033125919E+03  0.25500000920E-02 0.  1.
        2   -1    0    0  501    0  0.00000000000E+00  0.00000000000E+00 -0.67935464080E+03  0.67935464080E+03  0.25500000920E-02 0. -1.
    10030    2    1    2    0    0  0.00000000000E+00  0.00000000000E+00 -0.49902338162E+03  0.85968590000E+03  0.70002536472E+03 0.  0.
        1    1    3    3  502    0  0.29477097374E+03 -0.18404882342E+03 -0.30081217118E+03  0.45962142978E+03  0.50400001928E-02 0.  1.
       -1    1    3    3    0  502 -0.29477097374E+03  0.18404882342E+03 -0.19821121044E+03  0.40006447021E+03  0.50400001928E-02 0. -1.
</event>
<event>
 5   0  0.7013526E-04  0.6999858E+03  0.7818609E-02  0.9717256E-01
       -1   -1    0    0    0  501  0.00000000000E+00  0.00000000000E+00  0.14058404955E+03  0.14058404964E+03  0.50400001928E-02 0.  1.
        1   -1    0    0  501    0  0.00000000000E+00  0.00000000000E+00 -0.87132954477E+03  0.87132954478E+03  0.50400001928E-02 0. -1.
    10030    2    1    2    0    0  0.00000000000E+00  0.00000000000E+00 -0.73074549522E+03  0.10119135944E+04  0.69998581686E+03 0.  0.
        1    1    3    3  502    0  0.27660888389E+03  0.16390966551E+03 -0.56524604523E+03  0.65029373730E+03  0.50400001928E-02 0. -1.
       -1    1    3    3    0  502 -0.27660888389E+03 -0.16390966551E+03 -0.16549944998E+03  0.36161985712E+03  0.50400001928E-02 0.  1.
</event>
<event>
 5   0  0.7570633E-04  0.6996681E+03  0.7818609E-02  0.9717800E-01
       -1   -1    0    0    0  501  0.00000000000E+00  0.00000000000E+00  0.22038405361E+03  0.22038405367E+03  0.50400001928E-02 0.  1.
        1   -1    0    0  501    0  0.00000000000E+00  0.00000000000E+00 -0.55532092805E+03  0.55532092807E+03  0.50400001928E-02 0. -1.
    10030    2    1    2    0    0  0.00000000000E+00  0.00000000000E+00 -0.33493687444E+03  0.77570498174E+03  0.69966814193E+03 0.  0.
        5    1    3    3  502    0 -0.16609219704E+03 -0.58247224746E+02  0.16767894571E+03  0.24314126745E+03  0.46999998093E+01 0.  1.
       -5    1    3    3    0  502  0.16609219704E+03  0.58247224746E+02 -0.50261582015E+03  0.53256371428E+03  0.46999998093E+01 0. -1.
</event>
<event>
 5   0  0.7459843E-04  0.6999907E+03  0.7818609E-02  0.9717248E-01
       -1   -1    0    0    0  501  0.00000000000E+00  0.00000000000E+00  0.21600095568E+03  0.21600095573E+03  0.50400001928E-02 0.  1.
        1   -1    0    0  501    0  0.00000000000E+00  0.00000000000E+00 -0.56711198007E+03  0.56711198009E+03  0.50400001928E-02 0. -1.
    10030    2    1    2    0    0  0.00000000000E+00  0.00000000000E+00 -0.35111102439E+03  0.78311293583E+03  0.69999065623E+03 0.  0.
        2    1    3    3  502    0  0.16707942445E+03 -0.30499374902E+03 -0.13136839562E+03  0.37174504219E+03  0.25500000920E-02 0.  1.
       -2    1    3    3    0  502 -0.16707942445E+03  0.30499374902E+03 -0.21974262877E+03  0.41136789364E+03  0.25500000920E-02 0. -1.
</event>
<event>
 5   0  0.7570633E-04  0.7003102E+03  0.7818609E-02  0.9716702E-01
       -1   -1    0    0    0  501  0.00000000000E+00  0.00000000000E+00  0.13257982110E+03  0.13257982119E+03  0.50400001928E-02 0. -1.
        1   -1    0    0  501    0  0.00000000000E+00  0.00000000000E+00 -0.92479067645E+03  0.92479067646E+03  0.50400001928E-02 0.  1.
    10030    2    1    2    0    0  0.00000000000E+00  0.00000000000E+00 -0.79221085535E+03  0.10573704977E+04  0.70031016698E+03 0.  0.
        5    1    3    3  502    0  0.11710680934E+03 -0.16482541385E+03  0.35474524191E+02  0.20533376174E+03  0.46999998093E+01 0. -1.
       -5    1    3    3    0  502 -0.11710680934E+03  0.16482541385E+03 -0.82768537955E+03  0.85203673592E+03  0.46999998093E+01 0.  1.
</event>
<event>
 5   0  0.1265562E-03  0.6998959E+03  0.7818609E-02  0.9717410E-01
        2   -1    0    0  501    0  0.00000000000E+00  0.00000000000E+00  0.27449696206E+03  0.27449696207E+03  0.25500000920E-02 0. -1.
       -2   -1    0    0    0  501  0.00000000000E+00  0.00000000000E+00 -0.44613819669E+03  0.44613819670E+03  0.25500000920E-02 0.  1.
    10030    2    1    2    0    0  0.00000000000E+00  0.00000000000E+00 -0.17164123464E+03  0.72063515877E+03  0.69989593414E+03 0.  0.
        1    1    3    3  502    0  0.28721995339E+03  0.26999743122E+02  0.11813823382E+03  0.31173856045E+03  0.50400001928E-02 0. -1.
       -1    1    3    3    0  502 -0.28721995339E+03 -0.26999743122E+02 -0.28977946845E+03  0.40889659832E+03  0.50400001928E-02 0.  1.
</event>
<event>
 5   0  0.1243087E-03  0.7003539E+03  0.7818609E-02  0.9716627E-01
       -2   -1    0    0    0  501  0.00000000000E+00  0.00000000000E+00  0.26893509170E+03  0.26893509171E+03  0.25500000920E-02 0.  1.
        2   -1    0    0  501    0  0.00000000000E+00  0.00000000000E+00 -0.45596096580E+03  0.45596096581E+03  0.25500000920E-02 0. -1.
    10030    2    1    2    0    0  0.00000000000E+00  0.00000000000E+00 -0.18702587410E+03  0.72489605752E+03  0.70035392240E+03 0.  0.
        4    1    3    3  502    0  0.32784241783E+03 -0.75694576574E+02 -0.19392790916E+03  0.38835546437E+03  0.12699999809E+01 0. -1.
       -4    1    3    3    0  502 -0.32784241783E+03  0.75694576574E+02  0.69020350582E+01  0.33654059315E+03  0.12699999809E+01 0.  1.
</event>
<event>
 5   0  0.7572415E-04  0.7000199E+03  0.7818609E-02  0.9717198E-01
        1   -1    0    0  501    0  0.00000000000E+00  0.00000000000E+00  0.41464319135E+03  0.41464319138E+03  0.50400001928E-02 0. -1.
       -1   -1    0    0    0  501  0.00000000000E+00  0.00000000000E+00 -0.29545154575E+03  0.29545154580E+03  0.50400001928E-02 0.  1.
    10030    2    1    2    0    0  0.00000000000E+00  0.00000000000E+00  0.11919164559E+03  0.71009473717E+03  0.70001991928E+03 0.  0.
        4    1    3    3  502    0 -0.27844766793E+03  0.85653461553E+02  0.25638722661E+03  0.38807942759E+03  0.12699999809E+01 0. -1.
       -4    1    3    3    0  502  0.27844766793E+03 -0.85653461553E+02 -0.13719558102E+03  0.32201530958E+03  0.12699999809E+01 0.  1.
</event>
<event>
 5   0  0.7459843E-04  0.7001770E+03  0.7818609E-02  0.9716930E-01
       -1   -1    0    0    0  501  0.00000000000E+00  0.00000000000E+00  0.40500027938E+03  0.40500027942E+03  0.50400001928E-02 0.  1.
        1   -1    0    0  501    0  0.00000000000E+00  0.00000000000E+00 -0.30262188170E+03  0.30262188175E+03  0.50400001928E-02 0. -1.
    10030    2    1    2    0    0  0.00000000000E+00  0.00000000000E+00  0.10237839768E+03  0.70762216116E+03  0.70017696810E+03 0.  0.
        2    1    3    3  502    0 -0.24440957227E+02  0.21313318758E+03  0.33078749216E+03  0.39426321286E+03  0.25500000920E-02 0.  1.
       -2    1    3    3    0  502  0.24440957227E+02 -0.21313318758E+03 -0.22840909447E+03  0.31335894831E+03  0.25500000920E-02 0. -1.
</event>
<event>
 5   0  0.7459843E-04  0.6998791E+03  0.7818609E-02  0.9717439E-01
       -1   -1    0    0    0  501  0.00000000000E+00  0.00000000000E+00  0.18270703515E+03  0.18270703522E+03  0.50400001928E-02 0.  1.
        1   -1    0    0  501    0  0.00000000000E+00  0.00000000000E+00 -0.67024062521E+03  0.67024062523E+03  0.50400001928E-02 0. -1.
    10030    2    1    2    0    0  0.00000000000E+00  0.00000000000E+00 -0.48753359006E+03  0.85294766045E+03  0.69987906814E+03 0.  0.
        2    1    3    3  502    0 -0.25231529572E+03 -0.22170218015E+03 -0.36344118858E+03  0.49487812914E+03  0.25500000920E-02 0.  1.
       -2    1    3    3    0  502  0.25231529572E+03  0.22170218015E+03 -0.12409240148E+03  0.35806953130E+03  0.25500000920E-02 0. -1.
</event>
<event>
 5   0  0.1222679E-03  0.7012516E+03  0.7818609E-02  0.9715094E-01
        2   -1    0    0  501    0  0.00000000000E+00  0.00000000000E+00  0.23833958816E+04  0.23833958816E+04  0.25500000920E-02 0. -1.
       -2   -1    0    0    0  501  0.00000000000E+00  0.00000000000E+00 -0.51581213261E+02  0.51581213324E+02  0.25500000920E-02 0.  1.
    10030    2    1    2    0    0  0.00000000000E+00  0.00000000000E+00  0.23318146683E+04  0.24349770949E+04  0.70125159916E+03 0.  0.
        2    1    3    3  502    0  0.62634024961E+02  0.31791949274E+03  0.16310262719E+04  0.16629018385E+04  0.25500000920E-02 0. -1.
       -2    1    3    3    0  502 -0.62634024961E+02 -0.31791949274E+03  0.70078839642E+03  0.77207525638E+03  0.25500000920E-02 0.  1.
</event>
<event>
 5   0  0.7572415E-04  0.6984676E+03  0.7818609E-02  0.9719856E-01
       -1   -1    0    0    0  501  0.00000000000E+00  0.00000000000E+00  0.11468748636E+03  0.11468748647E+03  0.50400001928E-02 0. -1.
        1   -1    0    0  501    0  0.00000000000E+00  0.00000000000E+00 -0.10634485904E+04  0.10634485904E+04  0.50400001928E-02 0.  1.
    10030    2    1    2    0    0  0.00000000000E+00  0.00000000000E+00 -0.94876110400E+03  0.11781360768E+04  0.69846759630E+03 0.  0.
        4    1    3    3  502    0  0.10547272045E+03 -0.18366933607E+03 -0.60129582163E+01  0.21188838651E+03  0.12699999809E+01 0. -1.
       -4    1    3    3    0  502 -0.10547272045E+03  0.18366933607E+03 -0.94274814579E+03  0.96624769033E+03  0.12699999809E+01 0.  1.
</event>
<event>
 5   0  0.7459843E-04  0.7000627E+03  0.7818609E-02  0.9717125E-01
        1   -1    0    0  501    0  0.00000000000E+00  0.00000000000E+00  0.51683229704E+03  0.51683229706E+03  0.50400001928E-02 0.  1.
       -1   -1    0    0    0  501  0.00000000000E+00  0.00000000000E+00 -0.23706323680E+03  0.23706323685E+03  0.50400001928E-02 0. -1.
    10030    2    1    2    0    0  0.00000000000E+00  0.00000000000E+00  0.27976906024E+03  0.75389553391E+03  0.70006267504E+03 0.  0.
        2    1    3    3  502    0 -0.29524602763E+03  0.12849916927E+03  0.28769699299E+03  0.43180066364E+03  0.25500000920E-02 0. -1.
       -2    1    3    3    0  502  0.29524602763E+03 -0.12849916927E+03 -0.79279327515E+01  0.32209487028E+03  0.25500000920E-02 0.  1.
</event>
<event>
 5   0  0.7574241E-04  0.7000512E+03  0.7818609E-02  0.9717145E-01
        1   -1    0    0  501    0  0.00000000000E+00  0.00000000000E+00  0.76563978703E+03  0.76563978705E+03  0.50400001928E-02 0.  1.
       -1   -1    0    0    0  501  0.00000000000E+00  0.00000000000E+00 -0.16002031046E+03  0.16002031054E+03  0.50400001928E-02 0. -1.
    10030    2    1    2    0    0  0.00000000000E+00  0.00000000000E+00  0.60561947657E+03  0.92566009759E+03  0.70005118804E+03 0.  0.
        3    1    3    3  502    0 -0.19924671637E+03 -0.53183740810E+02 -0.71163030641E+02  0.21815579617E+03  0.10100000352E+00 0. -1.
       -3    1    3    3    0  502  0.19924671637E+03  0.53183740810E+02  0.67678250721E+03  0.70750430143E+03  0.10100000352E+00 0.  1.
</event>
<event>
 5   0  0.7572415E-04  0.6998775E+03  0.7818609E-02  0.9717442E-01
       -1   -1    0    0    0  501  0.00000000000E+00  0.00000000000E+00  0.27578835480E+03  0.27578835484E+03  0.50400001928E-02 0. -1.
        1   -1    0    0  501    0  0.00000000000E+00  0.00000000000E+00 -0.44402572128E+03  0.44402572131E+03  0.50400001928E-02 0.  1.
    10030    2    1    2    0    0  0.00000000000E+00  0.00000000000E+00 -0.16823736649E+03  0.71981407615E+03  0.69987748410E+03 0.  0.
        4    1    3    3  502    0 -0.15643999750E+03 -0.27717621132E+03  0.65473459635E+02  0.32494385939E+03  0.12699999809E+01 0. -1.
       -4    1    3    3    0  502  0.15643999750E+03  0.27717621132E+03 -0.23371082612E+03  0.39487021676E+03  0.12699999809E+01 0.  1.
</event>
<event>
 5   0  0.1243087E-03  0.6997565E+03  0.7818609E-02  0.9717649E-01
        2   -1    0    0  501    0  0.00000000000E+00  0.00000000000E+00  0.19655010246E+04  0.19655010246E+04  0.25500000920E-02 0.  1.
       -2   -1    0    0    0  501  0.00000000000E+00  0.00000000000E+00 -0.62281721754E+02  0.62281721807E+02  0.25500000920E-02 0. -1.
    10030    2    1    2    0    0  0.00000000000E+00  0.00000000000E+00  0.19032193029E+04  0.20277827464E+04  0.69975649473E+03 0.  0.
        4    1    3    3  502    0 -0.96738249809E+02  0.33540908235E+03  0.10199172043E+04  0.10780029026E+04  0.12699999809E+01 0. -1.
       -4    1    3    3    0  502  0.96738249809E+02 -0.33540908235E+03  0.88330209859E+03  0.94977984384E+03  0.12699999809E+01 0.  1.
</event>
<event>
 5   0  0.1222679E-03  0.7000018E+03  0.7818609E-02  0.9717229E-01
        2   -1    0    0  501    0  0.00000000000E+00  0.00000000000E+00  0.13455423346E+04  0.13455423346E+04  0.25500000920E-02 0. -1.
       -2   -1    0    0    0  501  0.00000000000E+00  0.00000000000E+00 -0.91041832554E+02  0.91041832590E+02  0.25500000920E-02 0.  1.
    10030    2    1    2    0    0  0.00000000000E+00  0.00000000000E+00  0.12545005021E+04  0.14365841672E+04  0.70000182843E+03 0.  0.
        2    1    3    3  502    0 -0.23441853056E+03  0.27321098162E+02  0.11576790820E+04  0.11814903075E+04  0.25500000920E-02 0. -1.
       -2    1    3    3    0  502  0.23441853056E+03 -0.27321098162E+02  0.96821420119E+02  0.25509385974E+03  0.25500000920E-02 0.  1.
</event>
<event>
 5   0  0.1282546E-03  0.6994580E+03  0.7818609E-02  0.9718160E-01
        2   -1    0    0  501    0  0.00000000000E+00  0.00000000000E+00  0.58482437787E+03  0.58482437788E+03  0.25500000920E-02 0. -1.
       -2   -1    0    0    0  501  0.00000000000E+00  0.00000000000E+00 -0.20914033647E+03  0.20914033648E+03  0.25500000920E-02 0.  1.
    10030    2    1    2    0    0  0.00000000000E+00  0.00000000000E+00  0.37568404140E+03  0.79396471436E+03  0.69945798208E+03 0.  0.
        5    1    3    3  502    0 -0.22909819151E+03  0.13839844891E+03  0.44330115115E+03  0.51785916292E+03  0.46999998093E+01 0. -1.
       -5    1    3    3    0  502  0.22909819151E+03 -0.13839844891E+03 -0.67617109742E+02  0.27610555145E+03  0.46999998093E+01 0.  1.
</event>
<event>
 5   0  0.1224048E-03  0.6996128E+03  0.7818609E-02  0.9717895E-01
       -2   -1    0    0    0  501  0.00000000000E+00  0.00000000000E+00  0.37801550924E+03  0.37801550925E+03  0.25500000920E-02 0. -1.
        2   -1    0    0  501    0  0.00000000000E+00  0.00000000000E+00 -0.32370236984E+03  0.32370236985E+03  0.25500000920E-02 0.  1.
    10030    2    1    2    0    0  0.00000000000E+00  0.00000000000E+00  0.54313139398E+02  0.70171787910E+03  0.69961279630E+03 0.  0.
        3    1    3    3  502    0  0.80835856330E+02 -0.40363002567E+02  0.36610962879E+03  0.37709399112E+03  0.10100000352E+00 0. -1.
       -3    1    3    3    0  502 -0.80835856330E+02  0.40363002567E+02 -0.31179648940E+03  0.32462388798E+03  0.10100000352E+00 0.  1.
</event>
<event>
 5   0  0.1265562E-03  0.6999932E+03  0.7818609E-02  0.9717244E-01
       -2   -1    0    0    0  501  0.00000000000E+00  0.00000000000E+00  0.74042636776E+02  0.74042636820E+02  0.25500000920E-02 0.  1.
        2   -1    0    0  501    0  0.00000000000E+00  0.00000000000E+00 -0.16544201781E+04  0.16544201781E+04  0.25500000920E-02 0. -1.
    10030    2    1    2    0    0  0.00000000000E+00  0.00000000000E+00 -0.15803775414E+04  0.17284628149E+04  0.69999323529E+03 0.  0.
        1    1    3    3  502    0 -0.75632953939E+02  0.17675065767E+03 -0.15123628884E+04  0.15245335827E+04  0.50400001928E-02 0. -1.
       -1    1    3    3    0  502  0.75632953939E+02 -0.17675065767E+03 -0.68014652966E+02  0.20392923221E+03  0.50400001928E-02 0.  1.
</event>
<event>
 5   0  0.7574241E-04  0.6998057E+03  0.7818609E-02  0.9717565E-01
       -1   -1    0    0    0  501  0.00000000000E+00  0.00000000000E+00  0.33922322036E+03  0.33922322040E+03  0.50400001928E-02 0. -1.
        1   -1    0    0  501    0  0.00000000000E+00  0.00000000000E+00 -0.36091865532E+03  0.36091865536E+03  0.50400001928E-02 0.  1.
    10030    2    1    2    0    0  0.00000000000E+00  0.00000000000E+00 -0.21695434963E+02  0.70014187575E+03  0.69980565465E+03 0.  0.
        3    1    3    3  502    0 -0.32247777511E+03  0.66374977999E+02 -0.12937161432E+03  0.35374366134E+03  0.10100000352E+00 0.  1.
       -3    1    3    3    0  502  0.32247777511E+03 -0.66374977999E+02  0.10767617935E+03  0.34639821441E+03  0.10100000352E+00 0. -1.
</event>
<event>
 5   0  0.7013526E-04  0.6999317E+03  0.7818609E-02  0.9717349E-01
       -1   -1    0    0    0  501  0.00000000000E+00  0.00000000000E+00  0.69964974148E+02  0.69964974329E+02  0.50400001928E-02 0.  1.
        1   -1    0    0  501    0  0.00000000000E+00  0.00000000000E+00 -0.17505346598E+04  0.17505346598E+04  0.50400001928E-02 0. -1.
    10030    2    1    2    0    0  0.00000000000E+00  0.00000000000E+00 -0.16805696856E+04  0.18204996341E+04  0.69993174635E+03 0.  0.
        1    1    3    3  502    0  0.11146222660E+03  0.11569314638E+03 -0.31608238798E+02  0.16373091603E+03  0.50400001928E-02 0.  1.
       -1    1    3    3    0  502 -0.11146222660E+03 -0.11569314638E+03 -0.16489614468E+04  0.16567687181E+04  0.50400001928E-02 0. -1.
</event>
<event>
 5   0  0.1282546E-03  0.7000432E+03  0.7818609E-02  0.9717158E-01
       -2   -1    0    0    0  501  0.00000000000E+00  0.00000000000E+00  0.82543045442E+02  0.82543045482E+02  0.25500000920E-02 0. -1.
        2   -1    0    0  501    0  0.00000000000E+00  0.00000000000E+00 -0.14842572292E+04  0.14842572292E+04  0.25500000920E-02 0.  1.
    10030    2    1    2    0    0  0.00000000000E+00  0.00000000000E+00 -0.14017141837E+04  0.15668002746E+04  0.70004317566E+03 0.  0.
        5    1    3    3  502    0 -0.69427174014E+02 -0.12126734246E+03  0.17330831347E+02  0.14088416715E+03  0.46999998093E+01 0. -1.
       -5    1    3    3    0  502  0.69427174014E+02  0.12126734246E+03 -0.14190450151E+04  0.14259161075E+04  0.46999998093E+01 0.  1.
</event>
<event>
 5   0  0.7459843E-04  0.6998648E+03  0.7818609E-02  0.9717464E-01
       -1   -1    0    0    0  501  0.00000000000E+00  0.00000000000E+00  0.82654516709E+02  0.82654516863E+02  0.50400001928E-02 0. -1.
        1   -1    0    0  501    0  0.00000000000E+00  0.00000000000E+00 -0.14815000451E+04  0.14815000451E+04  0.50400001928E-02 0.  1.
    10030    2    1    2    0    0  0.00000000000E+00  0.00000000000E+00 -0.13988455284E+04  0.15641545620E+04  0.69986475939E+03 0.  0.
        2    1    3    3  502    0  0.93758260113E+02  0.33063389672E+02  0.50427753350E+02  0.11147536674E+03  0.25500000920E-02 0. -1.
       -2    1    3    3    0  502 -0.93758260113E+02 -0.33063389672E+02 -0.14492732818E+04  0.14526791952E+04  0.25500000920E-02 0.  1.
</event>
<event>
 5   0  0.1265562E-03  0.6999793E+03  0.7818609E-02  0.9717268E-01
        2   -1    0    0  501    0  0.00000000000E+00  0.00000000000E+00  0.27308489018E+03  0.27308489019E+03  0.25500000920E-02 0.  1.
       -2   -1    0    0    0  501  0.00000000000E+00  0.00000000000E+00 -0.44855192948E+03  0.44855192948E+03  0.25500000920E-02 0. -1.
    10030    2    1    2    0    0  0.00000000000E+00  0.00000000000E+00 -0.17546703930E+03  0.72163681968E+03  0.69997929800E+03 0.  0.
        1    1    3    3  502    0 -0.17646866983E+03 -0.27864525810E+03  0.32971853881E+02  0.33146872321E+03  0.50400001928E-02 0.  1.
       -1    1    3    3    0  502  0.17646866983E+03  0.27864525810E+03 -0.20843889318E+03  0.39016809647E+03  0.50400001928E-02 0. -1.
</event>
<event>
 5   0  0.4936000E-04  0.7002127E+03  0.7818609E-02  0.9716868E-01
        3   -1    0    0  501    0  0.00000000000E+00  0.00000000000E+00  0.28221560988E+03  0.28221562795E+03  0.10100000352E+00 0.  1.
       -3   -1    0    0    0  501  0.00000000000E+00  0.00000000000E+00 -0.43432913318E+03  0.43432914493E+03  0.10100000352E+00 0. -1.
    10030    2    1    2    0    0  0.00000000000E+00  0.00000000000E+00 -0.15211352331E+03  0.71654477287E+03  0.70021274450E+03 0.  0.
        5    1    3    3  502    0 -0.23057704650E+03  0.25492123350E+03 -0.81634325782E+01  0.34385947899E+03  0.46999998093E+01 0.  1.
       -5    1    3    3    0  502  0.23057704650E+03 -0.25492123350E+03 -0.14395009073E+03  0.37268529389E+03  0.46999998093E+01 0. -1.
</event>
<event>
 5   0  0.1224048E-03  0.6993313E+03  0.7818609E-02  0.9718376E-01
        2   -1    0    0  501    0  0.00000000000E+00  0.00000000000E+00  0.86647139673E+03  0.86647139674E+03  0.25500000920E-02 0.  1.
       -2   -1    0    0    0  501  0.00000000000E+00  0.00000000000E+00 -0.14110803041E+03  0.14110803043E+03  0.25500000920E-02 0. -1.
    10030    2    1    2    0    0  0.00000000000E+00  0.00000000000E+00  0.72536336632E+03  0.10075794272E+04  0.69933131551E+03 0.  0.
        3    1    3    3  502    0  0.21773740305E+03  0.26147318354E+03  0.47873576629E+03  0.58733784701E+03  0.10100000352E+00 0.  1.
       -3    1    3    3    0  502 -0.21773740305E+03 -0.26147318354E+03  0.24662760003E+03  0.42024158016E+03  0.10100000352E+00 0. -1.
</event>
<event>
 5   0  0.4936000E-04  0.6987895E+03  0.7818609E-02  0.9719305E-01
       -3   -1    0    0    0  501  0.00000000000E+00  0.00000000000E+00  0.33822323601E+03  0.33822325109E+03  0.10100000352E+00 0.  1.
        3   -1    0    0  501    0  0.00000000000E+00  0.00000000000E+00 -0.36093522492E+03  0.36093523905E+03  0.10100000352E+00 0. -1.
    10030    2    1    2    0    0  0.00000000000E+00  0.00000000000E+00 -0.22711988908E+02  0.69915849014E+03  0.69878949613E+03 0.  0.
        1    1    3    3  502    0  0.58544033221E+02 -0.16035529110E+03  0.29365817132E+03  0.33967093608E+03  0.50400001928E-02 0.  1.
       -1    1    3    3    0  502 -0.58544033221E+02  0.16035529110E+03 -0.31637016023E+03  0.35948755406E+03  0.50400001928E-02 0. -1.
</event>
<event>
 5   0  0.7013526E-04  0.6995927E+03  0.7818609E-02  0.9717929E-01
       -1   -1    0    0    0  501  0.00000000000E+00  0.00000000000E+00  0.25084107302E+03  0.25084107307E+03  0.50400001928E-02 0.  1.
        1   -1    0    0  501    0  0.00000000000E+00  0.00000000000E+00 -0.48778890617E+03  0.48778890620E+03  0.50400001928E-02 0. -1.
    10030    2    1    2    0    0  0.00000000000E+00  0.00000000000E+00 -0.23694783315E+03  0.73862997927E+03  0.69959271769E+03 0.  0.
        1    1    3    3  502    0  0.22134051140E+03  0.22721004519E+03  0.37203660255E+02  0.31937460604E+03  0.50400001928E-02 0.  1.
       -1    1    3    3    0  502 -0.22134051140E+03 -0.22721004519E+03 -0.27415149341E+03  0.41925537323E+03  0.50400001928E-02 0. -1.
</event>
<event>
 5   0  0.1224048E-03  0.6992915E+03  0.7818609E-02  0.9718445E-01
        2   -1    0    0  501    0  0.00000000000E+00  0.00000000000E+00  0.12979708850E+03  0.12979708853E+03  0.25500000920E-02 0.  1.
       -2   -1    0    0    0  501  0.00000000000E+00  0.00000000000E+00 -0.94187123499E+03  0.94187123499E+03  0.25500000920E-02 0. -1.
    10030    2    1    2    0    0  0.00000000000E+00  0.00000000000E+00 -0.81207414649E+03  0.10716683235E+04  0.69929148160E+03 0.  0.
        3    1    3    3  502    0  0.12033919919E+03 -0.24639687593E+03 -0.73848557674E+03  0.78775243610E+03  0.10100000352E+00 0. -1.
       -3    1    3    3    0  502 -0.12033919919E+03  0.24639687593E+03 -0.73588569749E+02  0.28391588742E+03  0.10100000352E+00 0.  1.
</event>
<event>
 5   0  0.1265562E-03  0.7009501E+03  0.7818609E-02  0.9715609E-01
        2   -1    0    0  501    0  0.00000000000E+00  0.00000000000E+00  0.38256351193E+03  0.38256351194E+03  0.25500000920E-02 0.  1.
       -2   -1    0    0    0  501  0.00000000000E+00  0.00000000000E+00 -0.32107812204E+03  0.32107812205E+03  0.25500000920E-02 0. -1.
    10030    2    1    2    0    0  0.00000000000E+00  0.00000000000E+00  0.61485389888E+02  0.70364163399E+03  0.70095013797E+03 0.  0.
        1    1    3    3  502    0  0.28703522148E+03 -0.19224409435E+03 -0.28524364333E+02  0.34664196164E+03  0.50400001928E-02 0. -1.
       -1    1    3    3    0  502 -0.28703522148E+03  0.19224409435E+03  0.90009754220E+02  0.35699967235E+03  0.50400001928E-02 0.  1.
</event>
<event>
 5   0  0.7459843E-04  0.6995609E+03  0.7818609E-02  0.9717983E-01
        1   -1    0    0  501    0  0.00000000000E+00  0.00000000000E+00  0.34943831667E+03  0.34943831671E+03  0.50400001928E-02 0. -1.
       -1   -1    0    0    0  501  0.00000000000E+00  0.00000000000E+00 -0.35012290753E+03  0.35012290757E+03  0.50400001928E-02 0.  1.
    10030    2    1    2    0    0  0.00000000000E+00  0.00000000000E+00 -0.68459086263E+00  0.69956122428E+03  0.69956088931E+03 0.  0.
        2    1    3    3  502    0 -0.20994822898E+03 -0.26268466350E+03  0.95911935828E+02  0.34968641771E+03  0.25500000920E-02 0.  1.
       -2    1    3    3    0  502  0.20994822898E+03  0.26268466350E+03 -0.96596526691E+02  0.34987480656E+03  0.25500000920E-02 0. -1.
</event>
<event>
 5   0  0.1243087E-03  0.6999396E+03  0.7818609E-02  0.9717336E-01
        2   -1    0    0  501    0  0.00000000000E+00  0.00000000000E+00  0.12801627474E+04  0.12801627474E+04  0.25500000920E-02 0. -1.
       -2   -1    0    0    0  501  0.00000000000E+00  0.00000000000E+00 -0.95674437350E+02  0.95674437384E+02  0.25500000920E-02 0.  1.
    10030    2    1    2    0    0  0.00000000000E+00  0.00000000000E+00  0.11844883100E+04  0.13758371848E+04  0.69993957052E+03 0.  0.
        4    1    3    3  502    0 -0.19228183991E+03  0.18642587172E+03  0.14942549357E+03  0.30668632613E+03  0.12699999809E+01 0.  1.
       -4    1    3    3    0  502  0.19228183991E+03 -0.18642587172E+03  0.10350628164E+04  0.10691508586E+04  0.12699999809E+01 0. -1.
</event>
<event>
 5   0  0.1222679E-03  0.6997543E+03  0.7818609E-02  0.9717652E-01
        2   -1    0    0  501    0  0.00000000000E+00  0.00000000000E+00  0.57349337913E+03  0.57349337914E+03  0.25500000920E-02 0.  1.
       -2   -1    0    0    0  501  0.00000000000E+00  0.00000000000E+00 -0.21345324481E+03  0.21345324482E+03  0.25500000920E-02 0. -1.
    10030    2    1    2    0    0  0.00000000000E+00  0.00000000000E+00  0.36004013433E+03  0.78694662396E+03  0.69975430734E+03 0.  0.
        2    1    3    3  502    0 -0.90207585255E+02 -0.15474595450E+03 -0.15797972366E+03  0.23883323045E+03  0.25500000920E-02 0. -1.
       -2    1    3    3    0  502  0.90207585255E+02  0.15474595450E+03  0.51801985799E+03  0.54811339351E+03  0.25500000920E-02 0.  1.
</event>
<event>
 5   0  0.7574241E-04  0.7000427E+03  0.7818609E-02  0.9717159E-01
        1   -1    0    0  501    0  0.00000000000E+00  0.00000000000E+00  0.21448692674E+03  0.21448692680E+03  0.50400001928E-02 0. -1.
       -1   -1    0    0    0  501  0.00000000000E+00  0.00000000000E+00 -0.57120011995E+03  0.57120011998E+03  0.50400001928E-02 0.  1.
    10030    2    1    2    0    0  0.00000000000E+00  0.00000000000E+00 -0.35671319322E+03  0.78568704677E+03  0.70004273673E+03 0.  0.
        3    1    3    3  502    0  0.23339052903E+03 -0.14842021636E+03  0.62398741299E+02  0.28353714533E+03  0.10100000352E+00 0. -1.
       -3    1    3    3    0  502 -0.23339052903E+03  0.14842021636E+03 -0.41911193452E+03  0.50214990144E+03  0.10100000352E+00 0.  1.
</event>
<event>
 5   0  0.7572415E-04  0.6999737E+03  0.7818609E-02  0.9717277E-01
        1   -1    0    0  501    0  0.00000000000E+00  0.00000000000E+00  0.20652232419E+04  0.20652232419E+04  0.50400001928E-02 0.  1.
       -1   -1    0    0    0  501  0.00000000000E+00  0.00000000000E+00 -0.59311163017E+02  0.59311163231E+02  0.50400001928E-02 0. -1.
    10030    2    1    2    0    0  0.00000000000E+00  0.00000000000E+00  0.20059120789E+04  0.21245344051E+04  0.69997369265E+03 0.  0.
        4    1    3    3  502    0 -0.31612160447E+03 -0.14950755393E+03  0.10462858199E+04  0.11031776862E+04  0.12699999809E+01 0.  1.
       -4    1    3    3    0  502  0.31612160447E+03  0.14950755393E+03  0.95962625899E+03  0.10213567190E+04  0.12699999809E+01 0. -1.
</event>
<event>
 5   0  0.7570633E-04  0.7006773E+03  0.7818609E-02  0.9716075E-01
       -1   -1    0    0    0  501  0.00000000000E+00  0.00000000000E+00  0.14428127488E+03  0.14428127496E+03  0.50400001928E-02 0. -1.
        1   -1    0    0  501    0  0.00000000000E+00  0.00000000000E+00 -0.85067984912E+03  0.85067984913E+03  0.50400001928E-02 0.  1.
    10030    2    1    2    0    0  0.00000000000E+00  0.00000000000E+00 -0.70639857424E+03  0.99496112410E+03  0.70067731002E+03 0.  0.
        5    1    3    3  502    0 -0.26363201901E+03  0.51610437449E+02 -0.67246107323E+03  0.72414878561E+03  0.46999998093E+01 0.  1.
       -5    1    3    3    0  502  0.26363201901E+03 -0.51610437449E+02 -0.33937501014E+02  0.27081233848E+03  0.46999998093E+01 0. -1.
</event>
<event>
 5   0  0.7572415E-04  0.7001949E+03  0.7818609E-02  0.9716899E-01
       -1   -1    0    0    0  501  0.00000000000E+00  0.00000000000E+00  0.20240693153E+03  0.20240693159E+03  0.50400001928E-02 0. -1.
        1   -1    0    0  501    0  0.00000000000E+00  0.00000000000E+00 -0.60555357276E+03  0.60555357278E+03  0.50400001928E-02 0.  1.
    10030    2    1    2    0    0  0.00000000000E+00  0.00000000000E+00 -0.40314664123E+03  0.80796050438E+03  0.70019494592E+03 0.  0.
        4    1    3    3  502    0 -0.49126016269E+02 -0.33992970519E+02 -0.59962596823E+03  0.60259588631E+03  0.12699999809E+01 0.  1.
       -4    1    3    3    0  502  0.49126016269E+02  0.33992970519E+02  0.19647932700E+03  0.20536461807E+03  0.12699999809E+01 0. -1.
</event>
<event>
 5   0  0.7013526E-04  0.6999837E+03  0.7818609E-02  0.9717260E-01
        1   -1    0    0  501    0  0.00000000000E+00  0.00000000000E+00  0.91789737877E+03  0.91789737878E+03  0.50400001928E-02 0.  1.
       -1   -1    0    0    0  501  0.00000000000E+00  0.00000000000E+00 -0.13345098183E+03  0.13345098192E+03  0.50400001928E-02 0. -1.
    10030    2    1    2    0    0  0.00000000000E+00  0.00000000000E+00  0.78444639694E+03  0.10513483607E+04  0.69998373259E+03 0.  0.
        1    1    3    3  502    0 -0.12383029749E+03 -0.30720613719E+02 -0.97279294832E+02  0.16043989501E+03  0.50400001928E-02 0. -1.
       -1    1    3    3    0  502  0.12383029749E+03  0.30720613719E+02  0.88172569177E+03  0.89090846569E+03  0.50400001928E-02 0.  1.
</event>
<event>
 5   0  0.1282546E-03  0.6999917E+03  0.7818609E-02  0.9717246E-01
        2   -1    0    0  501    0  0.00000000000E+00  0.00000000000E+00  0.54908049139E+03  0.54908049139E+03  0.25500000920E-02 0.  1.
       -2   -1    0    0    0  501  0.00000000000E+00  0.00000000000E+00 -0.22309496330E+03  0.22309496332E+03  0.25500000920E-02 0. -1.
    10030    2    1    2    0    0  0.00000000000E+00  0.00000000000E+00  0.32598552808E+03  0.77217545471E+03  0.69999169162E+03 0.  0.
        5    1    3    3  502    0 -0.11498790463E+03  0.75491908123E+02  0.51797452089E+03  0.53594863625E+03  0.46999998093E+01 0.  1.
       -5    1    3    3    0  502  0.11498790463E+03 -0.75491908123E+02 -0.19198899281E+03  0.23622681847E+03  0.46999998093E+01 0. -1.
</event>
<event>
 5   0  0.7572415E-04  0.7001528E+03  0.7818609E-02  0.9716971E-01
        1   -1    0    0  501    0  0.00000000000E+00  0.00000000000E+00  0.82801955393E+03  0.82801955395E+03  0.50400001928E-02 0. -1.
       -1   -1    0    0    0  501  0.00000000000E+00  0.00000000000E+00 -0.14800797193E+03  0.14800797201E+03  0.50400001928E-02 0.  1.
    10030    2    1    2    0    0  0.00000000000E+00  0.00000000000E+00  0.68001158200E+03  0.97602752596E+03  0.70015282602E+03 0.  0.
        4    1    3    3  502    0  0.89006113235E+02 -0.32489580425E+03  0.20722570272E+03  0.39550407909E+03  0.12699999809E+01 0.  1.
       -4    1    3    3    0  502 -0.89006113235E+02  0.32489580425E+03  0.47278587929E+03  0.58052344687E+03  0.12699999809E+01 0. -1.
</event>
<event>
 5   0  0.4936000E-04  0.6996792E+03  0.7818609E-02  0.9717781E-01
        4   -1    0    0  501    0  0.00000000000E+00  0.00000000000E+00  0.11858316404E+03  0.11858996456E+03  0.12699999809E+01 0.  1.
       -4   -1    0    0    0  501  0.00000000000E+00  0.00000000000E+00 -0.10320469211E+04  0.10320477025E+04  0.12699999809E+01 0. -1.
    10030    2    1    2    0    0  0.00000000000E+00  0.00000000000E+00 -0.91346375705E+03  0.11506376671E+04  0.69967921608E+03 0.  0.
        2    1    3    3  502    0 -0.92833471983E+02 -0.32476342293E+03 -0.60654064899E+03  0.69424843772E+03  0.25500000920E-02 0. -1.
       -2    1    3    3    0  502  0.92833471983E+02  0.32476342293E+03 -0.30692310806E+03  0.45638922934E+03  0.25500000920E-02 0.  1.
</event>
<event>
 5   0  0.1224048E-03  0.7044253E+03  0.7818609E-02  0.9709694E-01
       -2   -1    0    0    0  501  0.00000000000E+00  0.00000000000E+00  0.49607952081E+03  0.49607952081E+03  0.25500000920E-02 0. -1.
        2   -1    0    0  501    0  0.00000000000E+00  0.00000000000E+00 -0.25006826518E+03  0.25006826519E+03  0.25500000920E-02 0.  1.
    10030    2    1    2    0    0  0.00000000000E+00  0.00000000000E+00  0.24601125563E+03  0.74614778600E+03  0.70442528395E+03 0.  0.
        3    1    3    3  502    0 -0.22679584958E+03  0.22696293803E+03  0.27688651413E+03  0.42380972680E+03  0.10100000352E+00 0. -1.
       -3    1    3    3    0  502  0.22679584958E+03 -0.22696293803E+03 -0.30875258501E+02  0.32233805920E+03  0.10100000352E+00 0.  1.
</event>
<event>
 5   0  0.1224048E-03  0.7001075E+03  0.7818609E-02  0.9717048E-01
        2   -1    0    0  501    0  0.00000000000E+00  0.00000000000E+00  0.35462592445E+03  0.35462592446E+03  0.25500000920E-02 0.  1.
       -2   -1    0    0    0  501  0.00000000000E+00  0.00000000000E+00 -0.34554055274E+03  0.34554055275E+03  0.25500000920E-02 0. -1.
    10030    2    1    2    0    0  0.00000000000E+00  0.00000000000E+00  0.90853717057E+01  0.70016647721E+03  0.70010752876E+03 0.  0.
        3    1    3    3  502    0 -0.15663490761E+03  0.31070628832E+03  0.42817776220E+02  0.35057989681E+03  0.10100000352E+00 0. -1.
       -3    1    3    3    0  502  0.15663490761E+03 -0.31070628832E+03 -0.33732404514E+02  0.34958658040E+03  0.10100000352E+00 0.  1.
</event>
<event>
 5   0  0.7570633E-04  0.7002987E+03  0.7818609E-02  0.9716721E-01
        1   -1    0    0  501    0  0.00000000000E+00  0.00000000000E+00  0.17835834735E+03  0.17835834742E+03  0.50400001928E-02 0. -1.
       -1   -1    0    0    0  501  0.00000000000E+00  0.00000000000E+00 -0.68740588763E+03  0.68740588765E+03  0.50400001928E-02 0.  1.
    10030    2    1    2    0    0  0.00000000000E+00  0.00000000000E+00 -0.50904754027E+03  0.86576423507E+03  0.70029873088E+03 0.  0.
        5    1    3    3  502    0 -0.24822776690E+02 -0.34233536754E+03 -0.33993275439E+03  0.48310044672E+03  0.46999998093E+01 0. -1.
       -5    1    3    3    0  502  0.24822776690E+02  0.34233536754E+03 -0.16911478589E+03  0.38266378835E+03  0.46999998093E+01 0.  1.
</event>
<event>
 5   0  0.1282546E-03  0.7001086E+03  0.7818609E-02  0.9717046E-01
        2   -1    0    0  501    0  0.00000000000E+00  0.00000000000E+00  0.11753886344E+04  0.11753886345E+04  0.25500000920E-02 0.  1.
       -2   -1    0    0    0  501  0.00000000000E+00  0.00000000000E+00 -0.10425319732E+03  0.10425319735E+03  0.25500000920E-02 0. -1.
    10030    2    1    2    0    0  0.00000000000E+00  0.00000000000E+00  0.10711354371E+04  0.12796418318E+04  0.70010862943E+03 0.  0.
        5    1    3    3  502    0  0.33114023229E+03  0.69864006786E+02  0.37227967546E+03  0.50313922491E+03  0.46999998093E+01 0. -1.
       -5    1    3    3    0  502 -0.33114023229E+03 -0.69864006786E+02  0.69885576168E+03  0.77650260689E+03  0.46999998093E+01 0.  1.
</event>
<event>
 5   0  0.1224048E-03  0.6998038E+03  0.7818609E-02  0.9717568E-01
        2   -1    0    0  501    0  0.00000000000E+00  0.00000000000E+00  0.49840650374E+03  0.49840650374E+03  0.25500000920E-02 0. -1.
       -2   -1    0    0    0  501  0.00000000000E+00  0.00000000000E+00 -0.24564552013E+03  0.24564552014E+03  0.25500000920E-02 0.  1.
    10030    2    1    2    0    0  0.00000000000E+00  0.00000000000E+00  0.25276098361E+03  0.74405202389E+03  0.69980375779E+03 0.  0.
        3    1    3    3  502    0 -0.16969789790E+03 -0.31174923379E+02 -0.19727129788E+03  0.26207866676E+03  0.10100000352E+00 0.  1.
       -3    1    3    3    0  502  0.16969789790E+03  0.31174923379E+02  0.45003228149E+03  0.48197335713E+03  0.10100000352E+00 0. -1.
</event>
<event>
 5   0  0.7013526E-04  0.6991294E+03  0.7818609E-02  0.9718722E-01
        1   -1    0    0  501    0  0.00000000000E+00  0.00000000000E+00  0.16632954473E+03  0.16632954481E+03  0.50400001928E-02 0. -1.
       -1   -1    0    0    0  501  0.00000000000E+00  0.00000000000E+00 -0.73465884527E+03  0.73465884529E+03  0.50400001928E-02 0.  1.
    10030    2    1    2    0    0  0.00000000000E+00  0.00000000000E+00 -0.56832930054E+03  0.90098839009E+03  0.69912937660E+03 0.  0.
        1    1    3    3  502    0  0.21028634308E+03  0.20971836672E+03 -0.52177125622E+03  0.60037270364E+03  0.50400001928E-02 0.  1.
       -1    1    3    3    0  502 -0.21028634308E+03 -0.20971836672E+03 -0.46558044316E+02  0.30061568645E+03  0.50400001928E-02 0. -1.
</event>
<event>
 5   0  0.7574241E-04  0.6982117E+03  0.7818609E-02  0.9720295E-01
        1   -1    0    0  501    0  0.00000000000E+00  0.00000000000E+00  0.88731086630E+03  0.88731086632E+03  0.50400001928E-02 0.  1.
       -1   -1    0    0    0  501  0.00000000000E+00  0.00000000000E+00 -0.13735308811E+03  0.13735308821E+03  0.50400001928E-02 0. -1.
    10030    2    1    2    0    0  0.00000000000E+00  0.00000000000E+00  0.74995777819E+03  0.10246639545E+04  0.69821168039E+03 0.  0.
        3    1    3    3  502    0 -0.25749984641E+03 -0.40390611000E+02  0.71580979662E+03  0.76178819070E+03  0.10100000352E+00 0.  1.
       -3    1    3    3    0  502  0.25749984641E+03  0.40390611000E+02  0.34147981570E+02  0.26287576382E+03  0.10100000352E+00 0. -1.
</event>
<event>
 5   0  0.7572415E-04  0.7012146E+03  0.7818609E-02  0.9715157E-01
        1   -1    0    0  501    0  0.00000000000E+00  0.00000000000E+00  0.33062328126E+03  0.33062328130E+03  0.50400001928E-02 0. -1.
       -1   -1    0    0    0  501  0.00000000000E+00  0.00000000000E+00 -0.37179920584E+03  0.37179920587E+03  0.50400001928E-02 0.  1.
    10030    2    1    2    0    0  0.00000000000E+00  0.00000000000E+00 -0.41175924576E+02  0.70242248717E+03  0.70121458465E+03 0.  0.
        4    1    3    3  502    0  0.24490471707E+03  0.19237869882E+03  0.14073595780E+03  0.34175445414E+03  0.12699999809E+01 0.  1.
       -4    1    3    3    0  502 -0.24490471707E+03 -0.19237869882E+03 -0.18191188238E+03  0.36066803304E+03  0.12699999809E+01 0. -1.
</event>
<event>
 5   0  0.4936000E-04  0.6990034E+03  0.7818609E-02  0.9718938E-01
        3   -1    0    0  501    0  0.00000000000E+00  0.00000000000E+00  0.17979839434E+04  0.17979839462E+04  0.10100000352E+00 0.  1.
       -3   -1    0    0    0  501  0.00000000000E+00  0.00000000000E+00 -0.67937971796E+02  0.67938046872E+02  0.10100000352E+00 0. -1.
    10030    2    1    2    0    0  0.00000000000E+00  0.00000000000E+00  0.17300459716E+04  0.18659219931E+04  0.69900344813E+03 0.  0.
        1    1    3    3  502    0 -0.61516004061E+02 -0.10643956223E+03 -0.83160375591E+01  0.12321832522E+03  0.50400001928E-02 0. -1.
       -1    1    3    3    0  502  0.61516004061E+02  0.10643956223E+03  0.17383620091E+04  0.17427036679E+04  0.50400001928E-02 0.  1.
</event>
<event>
 5   0  0.1265562E-03  0.7009761E+03  0.7818609E-02  0.9715564E-01
        2   -1    0    0  501    0  0.00000000000E+00  0.00000000000E+00  0.64967048164E+03  0.64967048165E+03  0.25500000920E-02 0. -1.
       -2   -1    0    0    0  501  0.00000000000E+00  0.00000000000E+00 -0.18908335227E+03  0.18908335228E+03  0.25500000920E-02 0.  1.
    10030    2    1    2    0    0  0.00000000000E+00  0.00000000000E+00  0.46058712938E+03  0.83875383393E+03  0.70097609816E+03 0.  0.
        1    1    3    3  502    0  0.45281406391E+01  0.34904964965E+03  0.26786052091E+03  0.44000615981E+03  0.50400001928E-02 0. -1.
       -1    1    3    3    0  502 -0.45281406391E+01 -0.34904964965E+03  0.19272660847E+03  0.39874767412E+03  0.50400001928E-02 0.  1.
</event>
<event>
 5   0  0.4936000E-04  0.7007259E+03  0.7818609E-02  0.9715992E-01
       -4   -1    0    0    0  501  0.00000000000E+00  0.00000000000E+00  0.24567232686E+03  0.24567560946E+03  0.12699999809E+01 0. -1.
        4   -1    0    0  501    0  0.00000000000E+00  0.00000000000E+00 -0.49965895750E+03  0.49966057150E+03  0.12699999809E+01 0.  1.
    10030    2    1    2    0    0  0.00000000000E+00  0.00000000000E+00 -0.25398663064E+03  0.74533618096E+03  0.70072591939E+03 0.  0.
        2    1    3    3  502    0 -0.18654919132E+03 -0.25856504829E+03 -0.28149092650E+03  0.42531591398E+03  0.25500000920E-02 0.  1.
       -2    1    3    3    0  502  0.18654919132E+03  0.25856504829E+03  0.27504295854E+02  0.32002026698E+03  0.25500000920E-02 0. -1.
</event>
<event>
 5   0  0.1222679E-03  0.7005020E+03  0.7818609E-02  0.9716374E-01
       -2   -1    0    0    0  501  0.00000000000E+00  0.00000000000E+00  0.11003167063E+03  0.11003167066E+03  0.25500000920E-02 0. -1.
        2   -1    0    0  501    0  0.00000000000E+00  0.00000000000E+00 -0.11149131197E+04  0.11149131197E+04  0.25500000920E-02 0.  1.
    10030    2    1    2    0    0  0.00000000000E+00  0.00000000000E+00 -0.10048814491E+04  0.12249447903E+04  0.70050197196E+03 0.  0.
        2    1    3    3  502    0  0.20819478972E+03  0.16604231132E+03 -0.10460210013E+03  0.28610613236E+03  0.25500000920E-02 0. -1.
       -2    1    3    3    0  502 -0.20819478972E+03 -0.16604231132E+03 -0.90027934892E+03  0.93883865798E+03  0.25500000920E-02 0.  1.
</event>
<event>
 5   0  0.1224048E-03  0.6999779E+03  0.7818609E-02  0.9717270E-01
        2   -1    0    0  501    0  0.00000000000E+00  0.00000000000E+00  0.26843248633E+03  0.26843248634E+03  0.25500000920E-02 0. -1.
       -2   -1    0    0    0  501  0.00000000000E+00  0.00000000000E+00 -0.45632424670E+03  0.45632424671E+03  0.25500000920E-02 0.  1.
    10030    2    1    2    0    0  0.00000000000E+00  0.00000000000E+00 -0.18789176037E+03  0.72475673305E+03  0.69997786286E+03 0.  0.
        3    1    3    3  502    0  0.94707416389E+02  0.33692493838E+03 -0.91790582107E+02  0.36181960973E+03  0.10100000352E+00 0.  1.
       -3    1    3    3    0  502 -0.94707416389E+02 -0.33692493838E+03 -0.96101178266E+02  0.36293712332E+03  0.10100000352E+00 0. -1.
</event>
<event>
 5   0  0.7459843E-04  0.7001640E+03  0.7818609E-02  0.9716952E-01
       -1   -1    0    0    0  501  0.00000000000E+00  0.00000000000E+00  0.41907560633E+03  0.41907560636E+03  0.50400001928E-02 0.  1.
        1   -1    0    0  501    0  0.00000000000E+00  0.00000000000E+00 -0.29244704267E+03  0.29244704271E+03  0.50400001928E-02 0. -1.
    10030    2    1    2    0    0  0.00000000000E+00  0.00000000000E+00  0.12662856367E+03  0.71152264907E+03  0.70016404292E+03 0.  0.
        2    1    3    3  502    0  0.19914471999E+03  0.20554334751E+03  0.26820539599E+03  0.39222547297E+03  0.25500000920E-02 0.  1.
       -2    1    3    3    0  502 -0.19914471999E+03 -0.20554334751E+03 -0.14157683232E+03  0.31929717610E+03  0.25500000920E-02 0. -1.
</event>
<event>
 5   0  0.7013526E-04  0.6999037E+03  0.7818609E-02  0.9717397E-01
       -1   -1    0    0    0  501  0.00000000000E+00  0.00000000000E+00  0.17212967980E+03  0.17212967988E+03  0.50400001928E-02 0. -1.
        1   -1    0    0  501    0  0.00000000000E+00  0.00000000000E+00 -0.71147689126E+03  0.71147689127E+03  0.50400001928E-02 0.  1.
    10030    2    1    2    0    0  0.00000000000E+00  0.00000000000E+00 -0.53934721145E+03  0.88360657115E+03  0.69990367771E+03 0.  0.
        1    1    3    3  502    0  0.15731875784E+03 -0.30883463174E+03 -0.33072109676E+03  0.47906624301E+03  0.50400001928E-02 0. -1.
       -1    1    3    3    0  502 -0.15731875784E+03  0.30883463174E+03 -0.20862611470E+03  0.40454032814E+03  0.50400001928E-02 0.  1.
</event>
<event>
 5   0  0.1224048E-03  0.6995054E+03  0.7818609E-02  0.9718078E-01
        2   -1    0    0  501    0  0.00000000000E+00  0.00000000000E+00  0.87238484609E+03  0.87238484610E+03  0.25500000920E-02 0. -1.
       -2   -1    0    0    0  501  0.00000000000E+00  0.00000000000E+00 -0.14022132217E+03  0.14022132220E+03  0.25500000920E-02 0.  1.
    10030    2    1    2    0    0  0.00000000000E+00  0.00000000000E+00  0.73216352392E+03  0.10126061683E+04  0.69950541549E+03 0.  0.
        3    1    3    3  502    0 -0.15423691817E+03 -0.15535087772E+03 -0.28782383161E+02  0.22079709671E+03  0.10100000352E+00 0.  1.
       -3    1    3    3    0  502  0.15423691817E+03  0.15535087772E+03  0.76094590708E+03  0.79180907158E+03  0.10100000352E+00 0. -1.
</event>
<event>
 5   0  0.1282546E-03  0.7001901E+03  0.7818609E-02  0.9716907E-01
       -2   -1    0    0    0  501  0.00000000000E+00  0.00000000000E+00  0.73861226624E+02  0.73861226668E+02  0.25500000920E-02 0. -1.
        2   -1    0    0  501    0  0.00000000000E+00  0.00000000000E+00 -0.16594166953E+04  0.16594166953E+04  0.25500000920E-02 0.  1.
    10030    2    1    2    0    0  0.00000000000E+00  0.00000000000E+00 -0.15855554686E+04  0.17332779219E+04  0.70019012456E+03 0.  0.
        5    1    3    3  502    0  0.45359321993E+02 -0.17145133557E+03 -0.15398988201E+04  0.15500849960E+04  0.46999998093E+01 0.  1.
       -5    1    3    3    0  502 -0.45359321993E+02  0.17145133557E+03 -0.45656648500E+02  0.18319292593E+03  0.46999998093E+01 0. -1.
</event>
<event>
 5   0  0.7574241E-04  0.7001321E+03  0.7818609E-02  0.9717006E-01
        1   -1    0    0  501    0  0.00000000000E+00  0.00000000000E+00  0.77510951026E+03  0.77510951028E+03  0.50400001928E-02 0.  1.
       -1   -1    0    0    0  501  0.00000000000E+00  0.00000000000E+00 -0.15810185843E+03  0.15810185852E+03  0.50400001928E-02 0. -1.
    10030    2    1    2    0    0  0.00000000000E+00  0.00000000000E+00  0.61700765183E+03  0.93321136880E+03  0.70013214212E+03 0.  0.
        3    1    3    3  502    0 -0.29240762355E+02 -0.24430286073E+03 -0.23407089010E+02  0.24715746390E+03  0.10100000352E+00 0. -1.
       -3    1    3    3    0  502  0.29240762355E+02  0.24430286073E+03  0.64041474084E+03  0.68605390490E+03  0.10100000352E+00 0.  1.
</event>
<event>
 5   0  0.7459843E-04  0.6998899E+03  0.7818609E-02  0.9717420E-01
        1   -1    0    0  501    0  0.00000000000E+00  0.00000000000E+00  0.92738390951E+03  0.92738390952E+03  0.50400001928E-02 0. -1.
       -1   -1    0    0    0  501  0.00000000000E+00  0.00000000000E+00 -0.13205047029E+03  0.13205047039E+03  0.50400001928E-02 0.  1.
    10030    2    1    2    0    0  0.00000000000E+00  0.00000000000E+00  0.79533343922E+03  0.10594343799E+04  0.69988993834E+03 0.  0.
        2    1    3    3  502    0 -0.25790230040E+03 -0.44730123467E+02  0.74925012445E+03  0.79365617839E+03  0.25500000920E-02 0. -1.
       -2    1    3    3    0  502  0.25790230040E+03  0.44730123467E+02  0.46083314767E+02  0.26577820152E+03  0.25500000920E-02 0.  1.
</event>
<event>
 5   0  0.7459843E-04  0.6999375E+03  0.7818609E-02  0.9717339E-01
        1   -1    0    0  501    0  0.00000000000E+00  0.00000000000E+00  0.72256415653E+03  0.72256415655E+03  0.50400001928E-02 0. -1.
       -1   -1    0    0    0  501  0.00000000000E+00  0.00000000000E+00 -0.16950486314E+03  0.16950486322E+03  0.50400001928E-02 0.  1.
    10030    2    1    2    0    0  0.00000000000E+00  0.00000000000E+00  0.55305929339E+03  0.89206901977E+03  0.69993753581E+03 0.  0.
        2    1    3    3  502    0 -0.32757166079E+03 -0.94695160122E+02  0.37694660421E+03  0.50829037836E+03  0.25500000920E-02 0. -1.
       -2    1    3    3    0  502  0.32757166079E+03  0.94695160122E+02  0.17611268918E+03  0.38377864141E+03  0.25500000920E-02 0.  1.
</event>
<event>
 5   0  0.1243087E-03  0.6999215E+03  0.7818609E-02  0.9717366E-01
        2   -1    0    0  501    0  0.00000000000E+00  0.00000000000E+00  0.79858244246E+03  0.79858244247E+03  0.25500000920E-02 0.  1.
       -2   -1    0    0    0  501  0.00000000000E+00  0.00000000000E+00 -0.15336242995E+03  0.15336242997E+03  0.25500000920E-02 0. -1.
    10030    2    1    2    0    0  0.00000000000E+00  0.00000000000E+00  0.64522001252E+03  0.95194487244E+03  0.69992154961E+03 0.  0.
        4    1    3    3  502    0 -0.15256974293E+00 -0.16767269735E+03  0.74039128673E+03  0.75914097971E+03  0.12699999809E+01 0.  1.
       -4    1    3    3    0  502  0.15256974293E+00  0.16767269735E+03 -0.95171274215E+02  0.19280389272E+03  0.12699999809E+01 0. -1.
</event>
<event>
 5   0  0.4936000E-04  0.6996480E+03  0.7818609E-02  0.9717834E-01
       -3   -1    0    0    0  501  0.00000000000E+00  0.00000000000E+00  0.66230246093E+03  0.66230246863E+03  0.10100000352E+00 0.  1.
        3   -1    0    0  501    0  0.00000000000E+00  0.00000000000E+00 -0.18477480822E+03  0.18477483583E+03  0.10100000352E+00 0. -1.
    10030    2    1    2    0    0  0.00000000000E+00  0.00000000000E+00  0.47752765271E+03  0.84707730446E+03  0.69964798336E+03 0.  0.
        5    1    3    3  502    0 -0.22691768051E+03 -0.19045289784E+03  0.13586980295E+02  0.29659844243E+03  0.46999998093E+01 0.  1.
       -5    1    3    3    0  502  0.22691768051E+03  0.19045289784E+03  0.46394067242E+03  0.55047886203E+03  0.46999998093E+01 0. -1.
</event>
<event>
 5   0  0.7570633E-04  0.6999422E+03  0.7818609E-02  0.9717331E-01
        1   -1    0    0  501    0  0.00000000000E+00  0.00000000000E+00  0.40171345591E+03  0.40171345594E+03  0.50400001928E-02 0.  1.
       -1   -1    0    0    0  501  0.00000000000E+00  0.00000000000E+00 -0.30489338522E+03  0.30489338527E+03  0.50400001928E-02 0. -1.
    10030    2    1    2    0    0  0.00000000000E+00  0.00000000000E+00  0.96820070684E+02  0.70660684121E+03  0.69994221330E+03 0.  0.
        5    1    3    3  502    0  0.18753460997E+03 -0.12806379890E+03 -0.22037332400E+03  0.31647441990E+03  0.46999998093E+01 0. -1.
       -5    1    3    3    0  502 -0.18753460997E+03  0.12806379890E+03  0.31719339468E+03  0.39013242130E+03  0.46999998093E+01 0.  1.
</event>
<event>
 5   0  0.1282546E-03  0.7000582E+03  0.7818609E-02  0.9717133E-01
       -2   -1    0    0    0  501  0.00000000000E+00  0.00000000000E+00  0.16315523710E+04  0.16315523710E+04  0.25500000920E-02 0. -1.
        2   -1    0    0  501    0  0.00000000000E+00  0.00000000000E+00 -0.75094355364E+02  0.75094355407E+02  0.25500000920E-02 0.  1.
    10030    2    1    2    0    0  0.00000000000E+00  0.00000000000E+00  0.15564580156E+04  0.17066467264E+04  0.70005820780E+03 0.  0.
        5    1    3    3  502    0  0.34128845205E+03  0.38242686250E+02  0.61364207362E+03  0.70322044557E+03  0.46999998093E+01 0.  1.
       -5    1    3    3    0  502 -0.34128845205E+03 -0.38242686250E+02  0.94281594197E+03  0.10034262808E+04  0.46999998093E+01 0. -1.
</event>
<event>
 5   0  0.7459843E-04  0.6997302E+03  0.7818609E-02  0.9717694E-01
        1   -1    0    0  501    0  0.00000000000E+00  0.00000000000E+00  0.56566536277E+03  0.56566536279E+03  0.50400001928E-02 0.  1.
       -1   -1    0    0    0  501  0.00000000000E+00  0.00000000000E+00 -0.21639221610E+03  0.21639221616E+03  0.50400001928E-02 0. -1.
    10030    2    1    2    0    0  0.00000000000E+00  0.00000000000E+00  0.34927314667E+03  0.78205757895E+03  0.69973018072E+03 0.  0.
        2    1    3    3  502    0 -0.52557256384E+02 -0.34410712981E+03  0.21389159380E+03  0.40856039443E+03  0.25500000920E-02 0.  1.
       -2    1    3    3    0  502  0.52557256384E+02  0.34410712981E+03  0.13538155286E+03  0.37349718453E+03  0.25500000920E-02 0. -1.
</event>
<event>
 5   0  0.4936000E-04  0.6999406E+03  0.7818609E-02  0.9717334E-01
       -3   -1    0    0    0  501  0.00000000000E+00  0.00000000000E+00  0.81258956504E+03  0.81258957131E+03  0.10100000352E+00 0.  1.
        3   -1    0    0  501    0  0.00000000000E+00  0.00000000000E+00 -0.15072701495E+03  0.15072704879E+03  0.10100000352E+00 0. -1.
    10030    2    1    2    0    0  0.00000000000E+00  0.00000000000E+00  0.66186255008E+03  0.96331662011E+03  0.69994062275E+03 0.  0.
        3    1    3    3  502    0 -0.15561133352E+03  0.31451727901E+02  0.76017970931E+03  0.77658051672E+03  0.10100000352E+00 0.  1.
       -3    1    3    3    0  502  0.15561133352E+03 -0.31451727901E+02 -0.98317159223E+02  0.18673610339E+03  0.10100000352E+00 0. -1.
</event>
<event>
 5   0  0.1265562E-03  0.6999090E+03  0.7818609E-02  0.9717388E-01
        2   -1    0    0  501    0  0.00000000000E+00  0.00000000000E+00  0.10278482834E+04  0.10278482834E+04  0.25500000920E-02 0.  1.
       -2   -1    0    0    0  501  0.00000000000E+00  0.00000000000E+00 -0.11915001703E+03  0.11915001706E+03  0.25500000920E-02 0. -1.
    10030    2    1    2    0    0  0.00000000000E+00  0.00000000000E+00  0.90869826634E+03  0.11469983004E+04  0.69990896690E+03 0.  0.
        1    1    3    3  502    0 -0.26717627656E+03  0.16732123914E+03  0.70336087988E+03  0.77077628868E+03  0.50400001928E-02 0.  1.
       -1    1    3    3    0  502  0.26717627656E+03 -0.16732123914E+03  0.20533738647E+03  0.37622201175E+03  0.50400001928E-02 0. -1.
</event>
<event>
 5   0  0.7574241E-04  0.7000940E+03  0.7818609E-02  0.9717071E-01
       -1   -1    0    0    0  501  0.00000000000E+00  0.00000000000E+00  0.34576246018E+03  0.34576246022E+03  0.50400001928E-02 0. -1.
        1   -1    0    0  501    0  0.00000000000E+00  0.00000000000E+00 -0.35438461760E+03  0.35438461763E+03  0.50400001928E-02 0.  1.
    10030    2    1    2    0    0  0.00000000000E+00  0.00000000000E+00 -0.86221574162E+01  0.70014707785E+03  0.70009398585E+03 0.  0.
        3    1    3    3  502    0 -0.40060010967E+02  0.34625370675E+03  0.27885354949E+02  0.34967704692E+03  0.10100000352E+00 0.  1.
       -3    1    3    3    0  502  0.40060010967E+02 -0.34625370675E+03 -0.36507512365E+02  0.35047003093E+03  0.10100000352E+00 0. -1.
</event>
<event>
 5   0  0.4936000E-04  0.7001020E+03  0.7818609E-02  0.9717058E-01
       -4   -1    0    0    0  501  0.00000000000E+00  0.00000000000E+00  0.76115318381E+03  0.76115424332E+03  0.12699999809E+01 0.  1.
        4   -1    0    0  501    0  0.00000000000E+00  0.00000000000E+00 -0.16098323773E+03  0.16098824718E+03  0.12699999809E+01 0. -1.
    10030    2    1    2    0    0  0.00000000000E+00  0.00000000000E+00  0.60016994608E+03  0.92214249049E+03  0.70010199871E+03 0.  0.
        1    1    3    3  502    0 -0.11217482627E+03 -0.43623915712E+02 -0.13287527699E+03  0.17928211548E+03  0.50400001928E-02 0. -1.
       -1    1    3    3    0  502  0.11217482627E+03  0.43623915712E+02  0.73304522307E+03  0.74286037501E+03  0.50400001928E-02 0.  1.
</event>
<event>
 5   0  0.1222679E-03  0.7002248E+03  0.7818609E-02  0.9716848E-01
        2   -1    0    0  501    0  0.00000000000E+00  0.00000000000E+00  0.74035020451E+03  0.74035020451E+03  0.25500000920E-02 0.  1.
       -2   -1    0    0    0  501  0.00000000000E+00  0.00000000000E+00 -0.16556852222E+03  0.16556852224E+03  0.25500000920E-02 0. -1.
    10030    2    1    2    0    0  0.00000000000E+00  0.00000000000E+00  0.57478168229E+03  0.90591872675E+03  0.70022479047E+03 0.  0.
        2    1    3    3  502    0  0.26387100481E+03 -0.58629414220E+02  0.57527184958E+03  0.63561231605E+03  0.25500000920E-02 0.  1.
       -2    1    3    3    0  502 -0.26387100481E+03  0.58629414220E+02 -0.49016729177E+00  0.27030641070E+03  0.25500000920E-02 0. -1.
</event>
<event>
 5   0  0.1222679E-03  0.7001483E+03  0.7818609E-02  0.9716979E-01
       -2   -1    0    0    0  501  0.00000000000E+00  0.00000000000E+00  0.11830667908E+03  0.11830667911E+03  0.25500000920E-02 0.  1.
        2   -1    0    0  501    0  0.00000000000E+00  0.00000000000E+00 -0.10358832561E+04  0.10358832561E+04  0.25500000920E-02 0. -1.
    10030    2    1    2    0    0  0.00000000000E+00  0.00000000000E+00 -0.91757657700E+03  0.11541899352E+04  0.70014829275E+03 0.  0.
        2    1    3    3  502    0  0.21948097208E+03 -0.25904550004E+03 -0.59939850377E+03  0.68887955009E+03  0.25500000920E-02 0.  1.
       -2    1    3    3    0  502 -0.21948097208E+03  0.25904550004E+03 -0.31817807323E+03  0.46531038511E+03  0.25500000920E-02 0. -1.
</event>
<event>
 5   0  0.1243087E-03  0.7000386E+03  0.7818609E-02  0.9717166E-01
       -2   -1    0    0    0  501  0.00000000000E+00  0.00000000000E+00  0.28986359362E+03  0.28986359364E+03  0.25500000920E-02 0.  1.
        2   -1    0    0  501    0  0.00000000000E+00  0.00000000000E+00 -0.42265912998E+03  0.42265912998E+03  0.25500000920E-02 0. -1.
    10030    2    1    2    0    0  0.00000000000E+00  0.00000000000E+00 -0.13279553635E+03  0.71252272362E+03  0.70003855408E+03 0.  0.
        4    1    3    3  502    0 -0.33721955271E+03 -0.79361908912E+02 -0.11725423748E+03  0.36573967302E+03  0.12699999809E+01 0.  1.
       -4    1    3    3    0  502  0.33721955271E+03  0.79361908912E+02 -0.15541298875E+02  0.34678305060E+03  0.12699999809E+01 0. -1.
</event>
<event>
 5   0  0.1222679E-03  0.7002787E+03  0.7818609E-02  0.9716756E-01
        2   -1    0    0  501    0  0.00000000000E+00  0.00000000000E+00  0.15543305983E+04  0.15543305983E+04  0.25500000920E-02 0. -1.
       -2   -1    0    0    0  501  0.00000000000E+00  0.00000000000E+00 -0.78874838958E+02  0.78874838999E+02  0.25500000920E-02 0.  1.
    10030    2    1    2    0    0  0.00000000000E+00  0.00000000000E+00  0.14754557593E+04  0.16332054373E+04  0.70027873212E+03 0.  0.
        2    1    3    3  502    0 -0.22382250326E+03 -0.26412203927E+03  0.85982167207E+03  0.92690359388E+03  0.25500000920E-02 0. -1.
       -2    1    3    3    0  502  0.22382250326E+03  0.26412203927E+03  0.61563408727E+03  0.70630184341E+03  0.25500000920E-02 0.  1.
</event>
<event>
 5   0  0.1222679E-03  0.7011014E+03  0.7818609E-02  0.9715351E-01
        2   -1    0    0  501    0  0.00000000000E+00  0.00000000000E+00  0.80417856184E+03  0.80417856184E+03  0.25500000920E-02 0.  1.
       -2   -1    0    0    0  501  0.00000000000E+00  0.00000000000E+00 -0.15280907707E+03  0.15280907709E+03  0.25500000920E-02 0. -1.
    10030    2    1    2    0    0  0.00000000000E+00  0.00000000000E+00  0.65136948477E+03  0.95698763893E+03  0.70110137311E+03 0.  0.
        2    1    3    3  502    0  0.24948589162E+03 -0.12831301067E+03  0.61258453332E+03  0.67377091752E+03  0.25500000920E-02 0.  1.
       -2    1    3    3    0  502 -0.24948589162E+03  0.12831301067E+03  0.38784951457E+02  0.28321672142E+03  0.25500000920E-02 0. -1.
</event>
<event>
 5   0  0.1224048E-03  0.6999199E+03  0.7818609E-02  0.9717369E-01
       -2   -1    0    0    0  501  0.00000000000E+00  0.00000000000E+00  0.42397058687E+03  0.42397058687E+03  0.25500000920E-02 0.  1.
        2   -1    0    0  501    0  0.00000000000E+00  0.00000000000E+00 -0.28886900313E+03  0.28886900314E+03  0.25500000920E-02 0. -1.
    10030    2    1    2    0    0  0.00000000000E+00  0.00000000000E+00  0.13510158373E+03  0.71283959001E+03  0.69991988339E+03 0.  0.
        3    1    3    3  502    0  0.25152361339E+03 -0.21953210556E+03  0.17443307141E+03  0.37667675806E+03  0.10100000352E+00 0.  1.
       -3    1    3    3    0  502 -0.25152361339E+03  0.21953210556E+03 -0.39331487680E+02  0.33616283195E+03  0.10100000352E+00 0. -1.
</event>
<event>
 5   0  0.7459843E-04  0.7000693E+03  0.7818609E-02  0.9717114E-01
       -1   -1    0    0    0  501  0.00000000000E+00  0.00000000000E+00  0.17694181319E+03  0.17694181326E+03  0.50400001928E-02 0.  1.
        1   -1    0    0  501    0  0.00000000000E+00  0.00000000000E+00 -0.69245507058E+03  0.69245507060E+03  0.50400001928E-02 0. -1.
    10030    2    1    2    0    0  0.00000000000E+00  0.00000000000E+00 -0.51551325740E+03  0.86939688386E+03  0.70006929880E+03 0.  0.
        2    1    3    3  502    0  0.14904248533E+03 -0.16670938862E+03  0.76670632347E+02  0.23639811454E+03  0.25500000920E-02 0.  1.
       -2    1    3    3    0  502 -0.14904248533E+03  0.16670938862E+03 -0.59218388974E+03  0.63299876932E+03  0.25500000920E-02 0. -1.
</event>
<event>
 5   0  0.7013526E-04  0.6996485E+03  0.7818609E-02  0.9717833E-01
        1   -1    0    0  501    0  0.00000000000E+00  0.00000000000E+00  0.19557033473E+03  0.19557033479E+03  0.50400001928E-02 0. -1.
       -1   -1    0    0    0  501  0.00000000000E+00  0.00000000000E+00 -0.62574430527E+03  0.62574430529E+03  0.50400001928E-02 0.  1.
    10030    2    1    2    0    0  0.00000000000E+00  0.00000000000E+00 -0.43017397054E+03  0.82131464008E+03  0.69964854968E+03 0.  0.
        1    1    3    3  502    0  0.85035168433E+02  0.29077935971E+03 -0.97611724903E+01  0.30311531868E+03  0.50400001928E-02 0. -1.
       -1    1    3    3    0  502 -0.85035168433E+02 -0.29077935971E+03 -0.42041279805E+03  0.51819932140E+03  0.50400001928E-02 0.  1.
</event>
<event>
 5   0  0.7574241E-04  0.6998412E+03  0.7818609E-02  0.9717504E-01
        1   -1    0    0  501    0  0.00000000000E+00  0.00000000000E+00  0.32416206127E+03  0.32416206131E+03  0.50400001928E-02 0. -1.
       -1   -1    0    0    0  501  0.00000000000E+00  0.00000000000E+00 -0.37772593975E+03  0.37772593979E+03  0.50400001928E-02 0.  1.
    10030    2    1    2    0    0  0.00000000000E+00  0.00000000000E+00 -0.53563878486E+02  0.70188800109E+03  0.69984117984E+03 0.  0.
        3    1    3    3  502    0 -0.28434475299E+03  0.50718281585E+02  0.17133091758E+03  0.33582521668E+03  0.10100000352E+00 0. -1.
       -3    1    3    3    0  502  0.28434475299E+03 -0.50718281585E+02 -0.22489479606E+03  0.36606278442E+03  0.10100000352E+00 0.  1.
</event>
<event>
 5   0  0.4936000E-04  0.7000879E+03  0.7818609E-02  0.9717082E-01
       -3   -1    0    0    0  501  0.00000000000E+00  0.00000000000E+00  0.15177376142E+03  0.15177379503E+03  0.10100000352E+00 0. -1.
        3   -1    0    0  501    0  0.00000000000E+00  0.00000000000E+00 -0.80732507358E+03  0.80732507990E+03  0.10100000352E+00 0.  1.
    10030    2    1    2    0    0  0.00000000000E+00  0.00000000000E+00 -0.65555131216E+03  0.95909887493E+03  0.70008794377E+03 0.  0.
        1    1    3    3  502    0  0.29666576517E+03 -0.17823361533E+03 -0.39965641531E+03  0.52868047835E+03  0.50400001928E-02 0.  1.
       -1    1    3    3    0  502 -0.29666576517E+03  0.17823361533E+03 -0.25589489684E+03  0.43041839658E+03  0.50400001928E-02 0. -1.
</event>
<event>
 5   0  0.7459843E-04  0.6993490E+03  0.7818609E-02  0.9718346E-01
        1   -1    0    0  501    0  0.00000000000E+00  0.00000000000E+00  0.63297833843E+03  0.63297833845E+03  0.50400001928E-02 0. -1.
       -1   -1    0    0    0  501  0.00000000000E+00  0.00000000000E+00 -0.19316970575E+03  0.19316970581E+03  0.50400001928E-02 0.  1.
    10030    2    1    2    0    0  0.00000000000E+00  0.00000000000E+00  0.43980863269E+03  0.82614804426E+03  0.69934895271E+03 0.  0.
        2    1    3    3  502    0 -0.24074962488E+02  0.17854201457E+03 -0.13412507404E+03  0.22460273881E+03  0.25500000920E-02 0.  1.
       -2    1    3    3    0  502  0.24074962488E+02 -0.17854201457E+03  0.57393370673E+03  0.60154530545E+03  0.25500000920E-02 0. -1.
</event>
<event>
 5   0  0.7013526E-04  0.6999881E+03  0.7818609E-02  0.9717253E-01
       -1   -1    0    0    0  501  0.00000000000E+00  0.00000000000E+00  0.23790147461E+03  0.23790147466E+03  0.50400001928E-02 0.  1.
        1   -1    0    0  501    0  0.00000000000E+00  0.00000000000E+00 -0.51490153936E+03  0.51490153938E+03  0.50400001928E-02 0. -1.
    10030    2    1    2    0    0  0.00000000000E+00  0.00000000000E+00 -0.27700006475E+03  0.75280301404E+03  0.69998810138E+03 0.  0.
        1    1    3    3  502    0 -0.21653556393E+03 -0.24965833061E+03 -0.26242870289E+03  0.42200208130E+03  0.50400001928E-02 0.  1.
       -1    1    3    3    0  502  0.21653556393E+03  0.24965833061E+03 -0.14571361861E+02  0.33080093274E+03  0.50400001928E-02 0. -1.
</event>
<event>
 5   0  0.1243087E-03  0.7000390E+03  0.7818609E-02  0.9717165E-01
       -2   -1    0    0    0  501  0.00000000000E+00  0.00000000000E+00  0.14424068817E+03  0.14424068819E+03  0.25500000920E-02 0.  1.
        2   -1    0    0  501    0  0.00000000000E+00  0.00000000000E+00 -0.84936957118E+03  0.84936957118E+03  0.25500000920E-02 0. -1.
    10030    2    1    2    0    0  0.00000000000E+00  0.00000000000E+00 -0.70512888301E+03  0.99361025938E+03  0.70003900312E+03 0.  0.
        4    1    3    3  502    0  0.88570246275E+02  0.14366272221E+02  0.12763596346E+03  0.15602445440E+03  0.12699999809E+01 0.  1.
       -4    1    3    3    0  502 -0.88570246275E+02 -0.14366272221E+02 -0.83276484646E+03  0.83758580498E+03  0.12699999809E+01 0. -1.
</event>
<event>
 5   0  0.1243087E-03  0.6999445E+03  0.7818609E-02  0.9717327E-01
       -2   -1    0    0    0  501  0.00000000000E+00  0.00000000000E+00  0.12347374801E+03  0.12347374803E+03  0.25500000920E-02 0. -1.
        2   -1    0    0  501    0  0.00000000000E+00  0.00000000000E+00 -0.99195651859E+03  0.99195651860E+03  0.25500000920E-02 0.  1.
    10030    2    1    2    0    0  0.00000000000E+00  0.00000000000E+00 -0.86848277058E+03  0.11154302666E+04  0.69994453846E+03 0.  0.
        4    1    3    3  502    0 -0.33952618348E+03  0.68644681221E+02 -0.51374348081E+03  0.61961608961E+03  0.12699999809E+01 0.  1.
       -4    1    3    3    0  502  0.33952618348E+03 -0.68644681221E+02 -0.35473928977E+03  0.49581417702E+03  0.12699999809E+01 0. -1.
</event>
<event>
 5   0  0.1222679E-03  0.6999710E+03  0.7818609E-02  0.9717282E-01
       -2   -1    0    0    0  501  0.00000000000E+00  0.00000000000E+00  0.14693965932E+03  0.14693965935E+03  0.25500000920E-02 0. -1.
        2   -1    0    0  501    0  0.00000000000E+00  0.00000000000E+00 -0.83360649655E+03  0.83360649656E+03  0.25500000920E-02 0.  1.
    10030    2    1    2    0    0  0.00000000000E+00  0.00000000000E+00 -0.68666683723E+03  0.98054615590E+03  0.69997101262E+03 0.  0.
        2    1    3    3  502    0  0.14373791139E+03 -0.17425051340E+03  0.31154492511E+02  0.22802287385E+03  0.25500000920E-02 0. -1.
       -2    1    3    3    0  502 -0.14373791139E+03  0.17425051340E+03 -0.71782132974E+03  0.75252328205E+03  0.25500000920E-02 0.  1.
</event>
<event>
 5   0  0.7570633E-04  0.7006443E+03  0.7818609E-02  0.9716131E-01
        1   -1    0    0  501    0  0.00000000000E+00  0.00000000000E+00  0.96710904988E+03  0.96710904990E+03  0.50400001928E-02 0. -1.
       -1   -1    0    0    0  501  0.00000000000E+00  0.00000000000E+00 -0.12689945139E+03  0.12689945149E+03  0.50400001928E-02 0.  1.
    10030    2    1    2    0    0  0.00000000000E+00  0.00000000000E+00  0.84020959849E+03  0.10940085014E+04  0.70064429757E+03 0.  0.
        5    1    3    3  502    0  0.25459204538E+03 -0.20125900954E+03  0.62596065549E+03  0.70510363119E+03  0.46999998093E+01 0. -1.
       -5    1    3    3    0  502 -0.25459204538E+03  0.20125900954E+03  0.21424894300E+03  0.38890487020E+03  0.46999998093E+01 0.  1.
</event>
<event>
 5   0  0.7572415E-04  0.6998574E+03  0.7818609E-02  0.9717476E-01
       -1   -1    0    0    0  501  0.00000000000E+00  0.00000000000E+00  0.11919299552E+04  0.11919299552E+04  0.50400001928E-02 0.  1.
        1   -1    0    0  501    0  0.00000000000E+00  0.00000000000E+00 -0.10273261465E+03  0.10273261477E+03  0.50400001928E-02 0. -1.
    10030    2    1    2    0    0  0.00000000000E+00  0.00000000000E+00  0.10891973406E+04  0.12946625700E+04  0.69985735937E+03 0.  0.
        4    1    3    3  502    0  0.16241249895E+03  0.17671875637E+03  0.10156544573E+04  0.10436296892E+04  0.12699999809E+01 0.  1.
       -4    1    3    3    0  502 -0.16241249895E+03 -0.17671875637E+03  0.73542883290E+02  0.25103288082E+03  0.12699999809E+01 0. -1.
</event>
<event>
 5   0  0.7574241E-04  0.7000738E+03  0.7818609E-02  0.9717106E-01
       -1   -1    0    0    0  501  0.00000000000E+00  0.00000000000E+00  0.40233360718E+03  0.40233360721E+03  0.50400001928E-02 0. -1.
        1   -1    0    0  501    0  0.00000000000E+00  0.00000000000E+00 -0.30453790448E+03  0.30453790452E+03  0.50400001928E-02 0.  1.
    10030    2    1    2    0    0  0.00000000000E+00  0.00000000000E+00  0.97795702703E+02  0.70687151173E+03  0.70007380656E+03 0.  0.
        3    1    3    3  502    0 -0.55563763098E+02  0.93926756681E+02 -0.28692181670E+03  0.30697509099E+03  0.10100000352E+00 0.  1.
       -3    1    3    3    0  502  0.55563763098E+02 -0.93926756681E+02  0.38471751940E+03  0.39989642074E+03  0.10100000352E+00 0. -1.
</event>
<event>
 5   0  0.4936000E-04  0.6998082E+03  0.7818609E-02  0.9717560E-01
        3   -1    0    0  501    0  0.00000000000E+00  0.00000000000E+00  0.21930186357E+03  0.21930188683E+03  0.10100000352E+00 0. -1.
       -3   -1    0    0    0  501  0.00000000000E+00  0.00000000000E+00 -0.55828465508E+03  0.55828466422E+03  0.10100000352E+00 0.  1.
    10030    2    1    2    0    0  0.00000000000E+00  0.00000000000E+00 -0.33898279151E+03  0.77758655105E+03  0.69980819617E+03 0.  0.
        4    1    3    3  502    0 -0.23313939212E+03  0.95623220241E+02  0.10025198156E+03  0.27120075427E+03  0.12699999809E+01 0. -1.
       -4    1    3    3    0  502  0.23313939212E+03 -0.95623220241E+02 -0.43923477307E+03  0.50638579678E+03  0.12699999809E+01 0.  1.
</event>
<event>
 5   0  0.7572415E-04  0.7002436E+03  0.7818609E-02  0.9716816E-01
        1   -1    0    0  501    0  0.00000000000E+00  0.00000000000E+00  0.84866623374E+03  0.84866623375E+03  0.50400001928E-02 0. -1.
       -1   -1    0    0    0  501  0.00000000000E+00  0.00000000000E+00 -0.14444461267E+03  0.14444461276E+03  0.50400001928E-02 0.  1.
    10030    2    1    2    0    0  0.00000000000E+00  0.00000000000E+00  0.70422162106E+03  0.99311084651E+03  0.70024357326E+03 0.  0.
        4    1    3    3  502    0 -0.16769281297E+03 -0.17086587812E+03  0.71443514030E+03  0.75348205713E+03  0.12699999809E+01 0. -1.
       -4    1    3    3    0  502  0.16769281297E+03  0.17086587812E+03 -0.10213519233E+02  0.23962878938E+03  0.12699999809E+01 0.  1.
</event>
<event>
 5   0  0.7459843E-04  0.7004078E+03  0.7818609E-02  0.9716535E-01
       -1   -1    0    0    0  501  0.00000000000E+00  0.00000000000E+00  0.93674724027E+02  0.93674724163E+02  0.50400001928E-02 0. -1.
        1   -1    0    0  501    0  0.00000000000E+00  0.00000000000E+00 -0.13092409669E+04  0.13092409669E+04  0.50400001928E-02 0.  1.
    10030    2    1    2    0    0  0.00000000000E+00  0.00000000000E+00 -0.12155662429E+04  0.14029156911E+04  0.70040784223E+03 0.  0.
        2    1    3    3  502    0 -0.29968561570E+03 -0.12499951968E+03 -0.87052304050E+03  0.92911071042E+03  0.25500000920E-02 0.  1.
       -2    1    3    3    0  502  0.29968561570E+03  0.12499951968E+03 -0.34504320239E+03  0.47380498066E+03  0.25500000920E-02 0. -1.
</event>
<event>
 5   0  0.1265562E-03  0.7003022E+03  0.7818609E-02  0.9716716E-01
        2   -1    0    0  501    0  0.00000000000E+00  0.00000000000E+00  0.11393825758E+04  0.11393825758E+04  0.25500000920E-02 0.  1.
       -2   -1    0    0    0  501  0.00000000000E+00  0.00000000000E+00 -0.10760721811E+03  0.10760721814E+03  0.25500000920E-02 0. -1.
    10030    2    1    2    0    0  0.00000000000E+00  0.00000000000E+00  0.10317753576E+04  0.12469897939E+04  0.70030219009E+03 0.  0.
        1    1    3    3  502    0  0.22708552178E+03  0.48596699571E+02  0.98252654624E+03  0.10095978841E+04  0.50400001928E-02 0.  1.
       -1    1    3    3    0  502 -0.22708552178E+03 -0.48596699571E+02  0.49248811412E+02  0.23739190985E+03  0.50400001928E-02 0. -1.
</event>
<event>
 5   0  0.1222679E-03  0.6997198E+03  0.7818609E-02  0.9717711E-01
        2   -1    0    0  501    0  0.00000000000E+00  0.00000000000E+00  0.24261179432E+03  0.24261179433E+03  0.25500000920E-02 0.  1.
       -2   -1    0    0    0  501  0.00000000000E+00  0.00000000000E+00 -0.50451772703E+03  0.50451772704E+03  0.25500000920E-02 0. -1.
    10030    2    1    2    0    0  0.00000000000E+00  0.00000000000E+00 -0.26190593272E+03  0.74712952137E+03  0.69971980400E+03 0.  0.
        2    1    3    3  502    0 -0.32370717018E+03 -0.67156691069E+02 -0.87166792942E+01  0.33071488277E+03  0.25500000920E-02 0.  1.
       -2    1    3    3    0  502  0.32370717018E+03  0.67156691069E+02 -0.25318925342E+03  0.41641463860E+03  0.25500000920E-02 0. -1.
</event>
<event>
 5   0  0.1224048E-03  0.6998409E+03  0.7818609E-02  0.9717504E-01
        2   -1    0    0  501    0  0.00000000000E+00  0.00000000000E+00  0.75240915540E+03  0.75240915541E+03  0.25500000920E-02 0.  1.
       -2   -1    0    0    0  501  0.00000000000E+00  0.00000000000E+00 -0.16273633991E+03  0.16273633993E+03  0.25500000920E-02 0. -1.
    10030    2    1    2    0    0  0.00000000000E+00  0.00000000000E+00  0.58967281549E+03  0.91514549534E+03  0.69984087357E+03 0.  0.
        3    1    3    3  502    0  0.23885446526E+02  0.67057799730E+02 -0.15316813457E+03  0.16890160067E+03  0.10100000352E+00 0. -1.
       -3    1    3    3    0  502 -0.23885446526E+02 -0.67057799730E+02  0.74284095005E+03  0.74624389467E+03  0.10100000352E+00 0.  1.
</event>
<event>
 5   0  0.1282546E-03  0.6999587E+03  0.7818609E-02  0.9717303E-01
       -2   -1    0    0    0  501  0.00000000000E+00  0.00000000000E+00  0.52275858763E+03  0.52275858764E+03  0.25500000920E-02 0. -1.
        2   -1    0    0  501    0  0.00000000000E+00  0.00000000000E+00 -0.23430615141E+03  0.23430615142E+03  0.25500000920E-02 0.  1.
    10030    2    1    2    0    0  0.00000000000E+00  0.00000000000E+00  0.28845243623E+03  0.75706473906E+03  0.69995872104E+03 0.  0.
        5    1    3    3  502    0 -0.19405267929E+03  0.23683939747E+03 -0.39050942308E+02  0.30870116395E+03  0.46999998093E+01 0.  1.
       -5    1    3    3    0  502  0.19405267929E+03 -0.23683939747E+03  0.32750337854E+03  0.44836357511E+03  0.46999998093E+01 0. -1.
</event>
<event>
 5   0  0.4936000E-04  0.6997548E+03  0.7818609E-02  0.9717652E-01
        3   -1    0    0  501    0  0.00000000000E+00  0.00000000000E+00  0.15789071425E+03  0.15789074656E+03  0.10100000352E+00 0.  1.
       -3   -1    0    0    0  501  0.00000000000E+00  0.00000000000E+00 -0.77530949806E+03  0.77530950464E+03  0.10100000352E+00 0. -1.
    10030    2    1    2    0    0  0.00000000000E+00  0.00000000000E+00 -0.61741878381E+03  0.93320025120E+03  0.69975478151E+03 0.  0.
        3    1    3    3  502    0 -0.32466722941E+03  0.12366084415E+03 -0.25350751961E+03  0.43007776846E+03  0.10100000352E+00 0.  1.
       -3    1    3    3    0  502  0.32466722941E+03 -0.12366084415E+03 -0.36391126420E+03  0.50312248274E+03  0.10100000352E+00 0. -1.
</event>
<event>
 5   0  0.7574241E-04  0.6991299E+03  0.7818609E-02  0.9718721E-01
       -1   -1    0    0    0  501  0.00000000000E+00  0.00000000000E+00  0.17801492061E+03  0.17801492068E+03  0.50400001928E-02 0.  1.
        1   -1    0    0  501    0  0.00000000000E+00  0.00000000000E+00 -0.68643498157E+03  0.68643498159E+03  0.50400001928E-02 0. -1.
    10030    2    1    2    0    0  0.00000000000E+00  0.00000000000E+00 -0.50842006096E+03  0.86444990227E+03  0.69912994154E+03 0.  0.
        3    1    3    3  502    0 -0.13223742182E+03 -0.12369229703E+03 -0.62392997799E+03  0.64967310835E+03  0.10100000352E+00 0. -1.
       -3    1    3    3    0  502  0.13223742182E+03  0.12369229703E+03  0.11550991703E+03  0.21477679393E+03  0.10100000352E+00 0.  1.
</event>
<event>
 5   0  0.7459843E-04  0.7000378E+03  0.7818609E-02  0.9717167E-01
       -1   -1    0    0    0  501  0.00000000000E+00  0.00000000000E+00  0.12984442479E+03  0.12984442488E+03  0.50400001928E-02 0. -1.
        1   -1    0    0  501    0  0.00000000000E+00  0.00000000000E+00 -0.94353875021E+03  0.94353875022E+03  0.50400001928E-02 0.  1.
    10030    2    1    2    0    0  0.00000000000E+00  0.00000000000E+00 -0.81369432543E+03  0.10733831751E+04  0.70003784567E+03 0.  0.
        2    1    3    3  502    0 -0.13734632754E+03 -0.24756025513E+03 -0.91254134427E+02  0.29745152658E+03  0.25500000920E-02 0. -1.
       -2    1    3    3    0  502  0.13734632754E+03  0.24756025513E+03 -0.72244019100E+03  0.77593164853E+03  0.25500000920E-02 0.  1.
</event>
<event>
 5   0  0.7574241E-04  0.7004046E+03  0.7818609E-02  0.9716541E-01
        1   -1    0    0  501    0  0.00000000000E+00  0.00000000000E+00  0.44466686638E+03  0.44466686641E+03  0.50400001928E-02 0. -1.
       -1   -1    0    0    0  501  0.00000000000E+00  0.00000000000E+00 -0.27580565217E+03  0.27580565221E+03  0.50400001928E-02 0.  1.
    10030    2    1    2    0    0  0.00000000000E+00  0.00000000000E+00  0.16886121421E+03  0.72047251862E+03  0.70040455482E+03 0.  0.
        3    1    3    3  502    0 -0.14226735056E+03  0.19417150027E+03 -0.17721739611E+03  0.29891233872E+03  0.10100000352E+00 0. -1.
       -3    1    3    3    0  502  0.14226735056E+03 -0.19417150027E+03  0.34607861032E+03  0.42156017990E+03  0.10100000352E+00 0.  1.
</event>
<event>
 5   0  0.1222679E-03  0.6993984E+03  0.7818609E-02  0.9718262E-01
        2   -1    0    0  501    0  0.00000000000E+00  0.00000000000E+00  0.11326903604E+04  0.11326903604E+04  0.25500000920E-02 0. -1.
       -2   -1    0    0    0  501  0.00000000000E+00  0.00000000000E+00 -0.10796377453E+03  0.10796377456E+03  0.25500000920E-02 0.  1.
    10030    2    1    2    0    0  0.00000000000E+00  0.00000000000E+00  0.10247265859E+04  0.12406541350E+04  0.69939838921E+03 0.  0.
        2    1    3    3  502    0 -0.25231140291E+02 -0.17766519681E+03 -0.20063078352E+02  0.18056594285E+03  0.25500000920E-02 0.  1.
       -2    1    3    3    0  502  0.25231140291E+02  0.17766519681E+03  0.10447896643E+04  0.10600881922E+04  0.25500000920E-02 0. -1.
</event>
<event>
 5   0  0.1265562E-03  0.7004208E+03  0.7818609E-02  0.9716513E-01
       -2   -1    0    0    0  501  0.00000000000E+00  0.00000000000E+00  0.31187694533E+03  0.31187694534E+03  0.25500000920E-02 0. -1.
        2   -1    0    0  501    0  0.00000000000E+00  0.00000000000E+00 -0.39325555241E+03  0.39325555242E+03  0.25500000920E-02 0.  1.
    10030    2    1    2    0    0  0.00000000000E+00  0.00000000000E+00 -0.81378607080E+02  0.70513249776E+03  0.70042084614E+03 0.  0.
        1    1    3    3  502    0  0.21801288496E+03 -0.84933831493E+02  0.22164751041E+03  0.32229023044E+03  0.50400001928E-02 0. -1.
       -1    1    3    3    0  502 -0.21801288496E+03  0.84933831493E+02 -0.30302611749E+03  0.38284226732E+03  0.50400001928E-02 0.  1.
</event>
<event>
 5   0  0.1265562E-03  0.7011217E+03  0.7818609E-02  0.9715316E-01
        2   -1    0    0  501    0  0.00000000000E+00  0.00000000000E+00  0.46862329955E+03  0.46862329956E+03  0.25500000920E-02 0. -1.
       -2   -1    0    0    0  501  0.00000000000E+00  0.00000000000E+00 -0.26224243994E+03  0.26224243996E+03  0.25500000920E-02 0.  1.
    10030    2    1    2    0    0  0.00000000000E+00  0.00000000000E+00  0.20638085961E+03  0.73086573951E+03  0.70112172266E+03 0.  0.
        1    1    3    3  502    0 -0.21535181299E+03  0.84444036190E+02 -0.17139609917E+03  0.28789550438E+03  0.50400001928E-02 0.  1.
       -1    1    3    3    0  502  0.21535181299E+03 -0.84444036190E+02  0.37777695878E+03  0.44297023513E+03  0.50400001928E-02 0. -1.
</event>
<event>
 5   0  0.1224048E-03  0.7006311E+03  0.7818609E-02  0.9716153E-01
       -2   -1    0    0    0  501  0.00000000000E+00  0.00000000000E+00  0.13268990564E+03  0.13268990567E+03  0.25500000920E-02 0. -1.
        2   -1    0    0  501    0  0.00000000000E+00  0.00000000000E+00 -0.92487060291E+03  0.92487060292E+03  0.25500000920E-02 0.  1.
    10030    2    1    2    0    0  0.00000000000E+00  0.00000000000E+00 -0.79218069727E+03  0.10575605086E+04  0.70063112419E+03 0.  0.
        3    1    3    3  502    0  0.31208986435E+03 -0.78905607339E+02 -0.18750999110E+03  0.37254017939E+03  0.10100000352E+00 0. -1.
       -3    1    3    3    0  502 -0.31208986435E+03  0.78905607339E+02 -0.60467070617E+03  0.68502032919E+03  0.10100000352E+00 0.  1.
</event>
<event>
 5   0  0.7572415E-04  0.7001732E+03  0.7818609E-02  0.9716936E-01
        1   -1    0    0  501    0  0.00000000000E+00  0.00000000000E+00  0.77260045048E+03  0.77260045050E+03  0.50400001928E-02 0.  1.
       -1   -1    0    0    0  501  0.00000000000E+00  0.00000000000E+00 -0.15863391649E+03  0.15863391657E+03  0.50400001928E-02 0. -1.
    10030    2    1    2    0    0  0.00000000000E+00  0.00000000000E+00  0.61396653399E+03  0.93123436707E+03  0.70017322254E+03 0.  0.
        4    1    3    3  502    0 -0.16993765196E+03 -0.24475740634E+03  0.62558655563E+02  0.30446706192E+03  0.12699999809E+01 0. -1.
       -4    1    3    3    0  502  0.16993765196E+03  0.24475740634E+03  0.55140787843E+03  0.62676730515E+03  0.12699999809E+01 0.  1.
</event>
<event>
 5   0  0.1224048E-03  0.7008970E+03  0.7818609E-02  0.9715699E-01
        2   -1    0    0  501    0  0.00000000000E+00  0.00000000000E+00  0.42912333943E+03  0.42912333944E+03  0.25500000920E-02 0. -1.
       -2   -1    0    0    0  501  0.00000000000E+00  0.00000000000E+00 -0.28619782135E+03  0.28619782136E+03  0.25500000920E-02 0.  1.
    10030    2    1    2    0    0  0.00000000000E+00  0.00000000000E+00  0.14292551808E+03  0.71532116080E+03  0.70089703906E+03 0.  0.
        3    1    3    3  502    0  0.93416576872E+02  0.33100709616E+03  0.28345718901E+01  0.34394825125E+03  0.10100000352E+00 0.  1.
       -3    1    3    3    0  502 -0.93416576872E+02 -0.33100709616E+03  0.14009094619E+03  0.37137290955E+03  0.10100000352E+00 0. -1.
</event>
<event>
 5   0  0.7459843E-04  0.6985042E+03  0.7818609E-02  0.9719794E-01
       -1   -1    0    0    0  501  0.00000000000E+00  0.00000000000E+00  0.30197503717E+03  0.30197503721E+03  0.50400001928E-02 0. -1.
        1   -1    0    0  501    0  0.00000000000E+00  0.00000000000E+00 -0.40393082031E+03  0.40393082035E+03  0.50400001928E-02 0.  1.
    10030    2    1    2    0    0  0.00000000000E+00  0.00000000000E+00 -0.10195578315E+03  0.70590585755E+03  0.69850418611E+03 0.  0.
        2    1    3    3  502    0  0.24498489423E+03  0.27093630629E+02  0.19908166155E+03  0.31683618984E+03  0.25500000920E-02 0. -1.
       -2    1    3    3    0  502 -0.24498489423E+03 -0.27093630629E+02 -0.30103744469E+03  0.38906966771E+03  0.25500000920E-02 0.  1.
</event>
<event>
 5   0  0.1282546E-03  0.6980990E+03  0.7818609E-02  0.9720489E-01
       -2   -1    0    0    0  501  0.00000000000E+00  0.00000000000E+00  0.29568786638E+03  0.29568786639E+03  0.25500000920E-02 0. -1.
        2   -1    0    0  501    0  0.00000000000E+00  0.00000000000E+00 -0.41204115254E+03  0.41204115255E+03  0.25500000920E-02 0.  1.
    10030    2    1    2    0    0  0.00000000000E+00  0.00000000000E+00 -0.11635328617E+03  0.70772901894E+03  0.69809904530E+03 0.  0.
        5    1    3    3  502    0 -0.91162303295E+02 -0.28590930017E+02  0.28214057634E+03  0.29791509132E+03  0.46999998093E+01 0. -1.
       -5    1    3    3    0  502  0.91162303295E+02  0.28590930017E+02 -0.39849386250E+03  0.40981392762E+03  0.46999998093E+01 0.  1.
</event>
<event>
 5   0  0.1224048E-03  0.7003547E+03  0.7818609E-02  0.9716626E-01
        2   -1    0    0  501    0  0.00000000000E+00  0.00000000000E+00  0.82413400195E+03  0.82413400195E+03  0.25500000920E-02 0.  1.
       -2   -1    0    0    0  501  0.00000000000E+00  0.00000000000E+00 -0.14879155520E+03  0.14879155522E+03  0.25500000920E-02 0. -1.
    10030    2    1    2    0    0  0.00000000000E+00  0.00000000000E+00  0.67534244675E+03  0.97292555717E+03  0.70035470971E+03 0.  0.
        3    1    3    3  502    0  0.12253842811E+03 -0.18440965685E+03 -0.39210547694E+02  0.22485565404E+03  0.10100000352E+00 0. -1.
       -3    1    3    3    0  502 -0.12253842811E+03  0.18440965685E+03  0.71455299445E+03  0.74806990313E+03  0.10100000352E+00 0.  1.
</event>
<event>
 5   0  0.7459843E-04  0.7000189E+03  0.7818609E-02  0.9717200E-01
        1   -1    0    0  501    0  0.00000000000E+00  0.00000000000E+00  0.82360070205E+03  0.82360070206E+03  0.50400001928E-02 0. -1.
       -1   -1    0    0    0  501  0.00000000000E+00  0.00000000000E+00 -0.14874514147E+03  0.14874514156E+03  0.50400001928E-02 0.  1.
    10030    2    1    2    0    0  0.00000000000E+00  0.00000000000E+00  0.67485556057E+03  0.97234584362E+03  0.70001886543E+03 0.  0.
        2    1    3    3  502    0  0.15877987749E+02 -0.14915225040E+03  0.77669480563E+03  0.79104571638E+03  0.25500000920E-02 0. -1.
       -2    1    3    3    0  502 -0.15877987749E+02  0.14915225040E+03 -0.10183924506E+03  0.18130012724E+03  0.25500000920E-02 0.  1.
</event>
<event>
 5   0  0.7459843E-04  0.7000436E+03  0.7818609E-02  0.9717158E-01
       -1   -1    0    0    0  501  0.00000000000E+00  0.00000000000E+00  0.23211132942E+03  0.23211132947E+03  0.50400001928E-02 0. -1.
        1   -1    0    0  501    0  0.00000000000E+00  0.00000000000E+00 -0.52782973690E+03  0.52782973692E+03  0.50400001928E-02 0.  1.
    10030    2    1    2    0    0  0.00000000000E+00  0.00000000000E+00 -0.29571840748E+03  0.75994106640E+03  0.70004360426E+03 0.  0.
        2    1    3    3  502    0  0.32218249864E+03  0.98670473078E+02 -0.45000585343E+02  0.33994481519E+03  0.25500000920E-02 0. -1.
       -2    1    3    3    0  502 -0.32218249864E+03 -0.98670473078E+02 -0.25071782214E+03  0.41999625121E+03  0.25500000920E-02 0.  1.
</event>
<event>
 5   0  0.4936000E-04  0.6999802E+03  0.7818609E-02  0.9717266E-01
        3   -1    0    0  501    0  0.00000000000E+00  0.00000000000E+00  0.33890064748E+03  0.33890066253E+03  0.10100000352E+00 0. -1.
       -3   -1    0    0    0  501  0.00000000000E+00  0.00000000000E+00 -0.36144243958E+03  0.36144245369E+03  0.10100000352E+00 0.  1.
    10030    2    1    2    0    0  0.00000000000E+00  0.00000000000E+00 -0.22541792104E+02  0.70034311622E+03  0.69998024833E+03 0.  0.
        1    1    3    3  502    0  0.12527973674E+03  0.18882300132E+03  0.25559560523E+03  0.34158198387E+03  0.50400001928E-02 0. -1.
       -1    1    3    3    0  502 -0.12527973674E+03 -0.18882300132E+03 -0.27813739734E+03  0.35876113235E+03  0.50400001928E-02 0.  1.
</event>
<event>
 5   0  0.7570633E-04  0.7004285E+03  0.7818609E-02  0.9716500E-01
       -1   -1    0    0    0  501  0.00000000000E+00  0.00000000000E+00  0.11845091181E+03  0.11845091191E+03  0.50400001928E-02 0. -1.
        1   -1    0    0  501    0  0.00000000000E+00  0.00000000000E+00 -0.10354502432E+04  0.10354502432E+04  0.50400001928E-02 0.  1.
    10030    2    1    2    0    0  0.00000000000E+00  0.00000000000E+00 -0.91699933135E+03  0.11539011551E+04  0.70042851313E+03 0.  0.
        5    1    3    3  502    0  0.79332306599E+02  0.68354197580E+02  0.92000608280E+02  0.13947083250E+03  0.46999998093E+01 0. -1.
       -5    1    3    3    0  502 -0.79332306599E+02 -0.68354197580E+02 -0.10089999396E+04  0.10144303226E+04  0.46999998093E+01 0.  1.
</event>
<event>
 5   0  0.1222679E-03  0.7000210E+03  0.7818609E-02  0.9717196E-01
        2   -1    0    0  501    0  0.00000000000E+00  0.00000000000E+00  0.23318519766E+04  0.23318519766E+04  0.25500000920E-02 0.  1.
       -2   -1    0    0    0  501  0.00000000000E+00  0.00000000000E+00 -0.52536502566E+02  0.52536502628E+02  0.25500000920E-02 0. -1.
    10030    2    1    2    0    0  0.00000000000E+00  0.00000000000E+00  0.22793154741E+04  0.23843884793E+04  0.70002099234E+03 0.  0.
        2    1    3    3  502    0  0.21990665356E+03 -0.64253416584E+02  0.23834247778E+03  0.33059729966E+03  0.25500000920E-02 0. -1.
       -2    1    3    3    0  502 -0.21990665356E+03  0.64253416584E+02  0.20409729963E+04  0.20537911796E+04  0.25500000920E-02 0.  1.
</event>
<event>
 5   0  0.1222679E-03  0.7001022E+03  0.7818609E-02  0.9717057E-01
        2   -1    0    0  501    0  0.00000000000E+00  0.00000000000E+00  0.19172973040E+04  0.19172973040E+04  0.25500000920E-02 0. -1.
       -2   -1    0    0    0  501  0.00000000000E+00  0.00000000000E+00 -0.63910681694E+02  0.63910681745E+02  0.25500000920E-02 0.  1.
    10030    2    1    2    0    0  0.00000000000E+00  0.00000000000E+00  0.18533866223E+04  0.19812079857E+04  0.70010221471E+03 0.  0.
        2    1    3    3  502    0 -0.25322896534E+03 -0.20729569591E+03  0.12783211990E+04  0.13195459455E+04  0.25500000920E-02 0. -1.
       -2    1    3    3    0  502  0.25322896534E+03  0.20729569591E+03  0.57506542330E+03  0.66166204025E+03  0.25500000920E-02 0.  1.
</event>
<event>
 5   0  0.7574241E-04  0.6993477E+03  0.7818609E-02  0.9718348E-01
        1   -1    0    0  501    0  0.00000000000E+00  0.00000000000E+00  0.40150126052E+03  0.40150126055E+03  0.50400001928E-02 0.  1.
       -1   -1    0    0    0  501  0.00000000000E+00  0.00000000000E+00 -0.30453653968E+03  0.30453653972E+03  0.50400001928E-02 0. -1.
    10030    2    1    2    0    0  0.00000000000E+00  0.00000000000E+00  0.96964720840E+02  0.70603780028E+03  0.69934770918E+03 0.  0.
        3    1    3    3  502    0 -0.18841344273E+03  0.28087016498E+03  0.13812433062E+03  0.36533000956E+03  0.10100000352E+00 0. -1.
       -3    1    3    3    0  502  0.18841344273E+03 -0.28087016498E+03 -0.41159609779E+02  0.34070779072E+03  0.10100000352E+00 0.  1.
</event>
<event>
 5   0  0.1243087E-03  0.6998169E+03  0.7818609E-02  0.9717545E-01
        2   -1    0    0  501    0  0.00000000000E+00  0.00000000000E+00  0.12488089355E+04  0.12488089355E+04  0.25500000920E-02 0. -1.
       -2   -1    0    0    0  501  0.00000000000E+00  0.00000000000E+00 -0.98042154854E+02  0.98042154888E+02  0.25500000920E-02 0.  1.
    10030    2    1    2    0    0  0.00000000000E+00  0.00000000000E+00  0.11507667806E+04  0.13468510903E+04  0.69981688764E+03 0.  0.
        4    1    3    3  502    0 -0.15730245249E+03  0.20977908899E+03  0.12946696963E+03  0.29242885778E+03  0.12699999809E+01 0.  1.
       -4    1    3    3    0  502  0.15730245249E+03 -0.20977908899E+03  0.10212998110E+04  0.10544222326E+04  0.12699999809E+01 0. -1.
</event>
<event>
 5   0  0.7013526E-04  0.7000790E+03  0.7818609E-02  0.9717097E-01
       -1   -1    0    0    0  501  0.00000000000E+00  0.00000000000E+00  0.74019912884E+03  0.74019912885E+03  0.50400001928E-02 0. -1.
        1   -1    0    0  501    0  0.00000000000E+00  0.00000000000E+00 -0.16553334759E+03  0.16553334767E+03  0.50400001928E-02 0.  1.
    10030    2    1    2    0    0  0.00000000000E+00  0.00000000000E+00  0.57466578125E+03  0.90573247652E+03  0.70007896619E+03 0.  0.
        1    1    3    3  502    0  0.17670101625E+03  0.27136736334E+03  0.11538406369E+03  0.34376878452E+03  0.50400001928E-02 0.  1.
       -1    1    3    3    0  502 -0.17670101625E+03 -0.27136736334E+03  0.45928171756E+03  0.56196369201E+03  0.50400001928E-02 0. -1.
</event>
<event>
 5   0  0.1222679E-03  0.7008032E+03  0.7818609E-02  0.9715860E-01
        2   -1    0    0  501    0  0.00000000000E+00  0.00000000000E+00  0.10174309039E+04  0.10174309039E+04  0.25500000920E-02 0.  1.
       -2   -1    0    0    0  501  0.00000000000E+00  0.00000000000E+00 -0.12067777565E+03  0.12067777568E+03  0.25500000920E-02 0. -1.
    10030    2    1    2    0    0  0.00000000000E+00  0.00000000000E+00  0.89675312824E+03  0.11381086796E+04  0.70080324879E+03 0.  0.
        2    1    3    3  502    0  0.15980079451E+03  0.31062955550E+03  0.40377449680E+03  0.53391090919E+03  0.25500000920E-02 0. -1.
       -2    1    3    3    0  502 -0.15980079451E+03 -0.31062955550E+03  0.49297863144E+03  0.60419777039E+03  0.25500000920E-02 0.  1.
</event>
<event>
 5   0  0.7574241E-04  0.7001053E+03  0.7818609E-02  0.9717052E-01
        1   -1    0    0  501    0  0.00000000000E+00  0.00000000000E+00  0.14224839682E+04  0.14224839682E+04  0.50400001928E-02 0. -1.
       -1   -1    0    0    0  501  0.00000000000E+00  0.00000000000E+00 -0.86142880137E+02  0.86142880284E+02  0.50400001928E-02 0.  1.
    10030    2    1    2    0    0  0.00000000000E+00  0.00000000000E+00  0.13363410880E+04  0.15086268485E+04  0.70010532375E+03 0.  0.
        3    1    3    3  502    0  0.93462764119E+02 -0.31148248192E+03  0.94730755304E+03  0.10015728806E+04  0.10100000352E+00 0. -1.
       -3    1    3    3    0  502 -0.93462764119E+02  0.31148248192E+03  0.38903353498E+03  0.50705396790E+03  0.10100000352E+00 0.  1.
</event>
<event>
 5   0  0.4936000E-04  0.7000700E+03  0.7818609E-02  0.9717112E-01
       -3   -1    0    0    0  501  0.00000000000E+00  0.00000000000E+00  0.61164014279E+02  0.61164097669E+02  0.10100000352E+00 0. -1.
        3   -1    0    0  501    0  0.00000000000E+00  0.00000000000E+00 -0.20032107758E+04  0.20032107784E+04  0.10100000352E+00 0.  1.
    10030    2    1    2    0    0  0.00000000000E+00  0.00000000000E+00 -0.19420467616E+04  0.20643748760E+04  0.70006999993E+03 0.  0.
        3    1    3    3  502    0  0.99296783229E+02 -0.29363177547E+02  0.14967153598E+02  0.10462348323E+03  0.10100000352E+00 0. -1.
       -3    1    3    3    0  502 -0.99296783229E+02  0.29363177547E+02 -0.19570139152E+04  0.19597513928E+04  0.10100000352E+00 0.  1.
</event>
<event>
 5   0  0.1265562E-03  0.6979010E+03  0.7818609E-02  0.9720828E-01
       -2   -1    0    0    0  501  0.00000000000E+00  0.00000000000E+00  0.10517460846E+04  0.10517460846E+04  0.25500000920E-02 0. -1.
        2   -1    0    0  501    0  0.00000000000E+00  0.00000000000E+00 -0.11577553081E+03  0.11577553083E+03  0.25500000920E-02 0.  1.
    10030    2    1    2    0    0  0.00000000000E+00  0.00000000000E+00  0.93597055377E+03  0.11675216154E+04  0.69790102803E+03 0.  0.
        1    1    3    3  502    0  0.33760092275E+03  0.16576069437E+02  0.32294040388E+03  0.46748224951E+03  0.50400001928E-02 0.  1.
       -1    1    3    3    0  502 -0.33760092275E+03 -0.16576069437E+02  0.61303014989E+03  0.70003936591E+03  0.50400001928E-02 0. -1.
</event>
<event>
 5   0  0.4936000E-04  0.7001896E+03  0.7818609E-02  0.9716908E-01
       -4   -1    0    0    0  501  0.00000000000E+00  0.00000000000E+00  0.14307712531E+03  0.14308276167E+03  0.12699999809E+01 0.  1.
        4   -1    0    0  501    0  0.00000000000E+00  0.00000000000E+00 -0.85662244379E+03  0.85662338522E+03  0.12699999809E+01 0. -1.
    10030    2    1    2    0    0  0.00000000000E+00  0.00000000000E+00 -0.71354531847E+03  0.99970614689E+03  0.70018958762E+03 0.  0.
        2    1    3    3  502    0  0.20471239098E+03 -0.70783143927E+02 -0.74947018163E+03  0.78014291617E+03  0.25500000920E-02 0. -1.
       -2    1    3    3    0  502 -0.20471239098E+03  0.70783143927E+02  0.35924863158E+02  0.21956323072E+03  0.25500000920E-02 0.  1.
</event>
<event>
 5   0  0.7013526E-04  0.7001771E+03  0.7818609E-02  0.9716929E-01
        1   -1    0    0  501    0  0.00000000000E+00  0.00000000000E+00  0.19452883931E+03  0.19452883938E+03  0.50400001928E-02 0.  1.
       -1   -1    0    0    0  501  0.00000000000E+00  0.00000000000E+00 -0.63004533915E+03  0.63004533917E+03  0.50400001928E-02 0. -1.
    10030    2    1    2    0    0  0.00000000000E+00  0.00000000000E+00 -0.43551649983E+03  0.82457417854E+03  0.70017708781E+03 0.  0.
        1    1    3    3  502    0 -0.13148704885E+03 -0.15115892812E+03  0.12034473361E+03  0.23371076248E+03  0.50400001928E-02 0.  1.
       -1    1    3    3    0  502  0.13148704885E+03  0.15115892812E+03 -0.55586123344E+03  0.59086341606E+03  0.50400001928E-02 0. -1.
</event>
<event>
 5   0  0.7459843E-04  0.6997393E+03  0.7818609E-02  0.9717678E-01
        1   -1    0    0  501    0  0.00000000000E+00  0.00000000000E+00  0.12233625584E+04  0.12233625585E+04  0.50400001928E-02 0.  1.
       -1   -1    0    0    0  501  0.00000000000E+00  0.00000000000E+00 -0.10005928527E+03  0.10005928540E+03  0.50400001928E-02 0. -1.
    10030    2    1    2    0    0  0.00000000000E+00  0.00000000000E+00  0.11233032732E+04  0.13234218439E+04  0.69973933238E+03 0.  0.
        2    1    3    3  502    0 -0.40084761022E+02  0.17490029464E+03 -0.64079381750E+01  0.17954933252E+03  0.25500000920E-02 0. -1.
       -2    1    3    3    0  502  0.40084761022E+02 -0.17490029464E+03  0.11297112113E+04  0.11438725113E+04  0.25500000920E-02 0.  1.
</event>
<event>
 5   0  0.7572415E-04  0.6967586E+03  0.7818609E-02  0.9722792E-01
       -1   -1    0    0    0  501  0.00000000000E+00  0.00000000000E+00  0.12429196826E+03  0.12429196836E+03  0.50400001928E-02 0. -1.
        1   -1    0    0  501    0  0.00000000000E+00  0.00000000000E+00 -0.97647606923E+03  0.97647606924E+03  0.50400001928E-02 0.  1.
    10030    2    1    2    0    0  0.00000000000E+00  0.00000000000E+00 -0.85218410097E+03  0.11007680376E+04  0.69675858852E+03 0.  0.
        4    1    3    3  502    0 -0.24298612601E+03 -0.24233733173E+03 -0.33134265373E+03  0.47703166233E+03  0.12699999809E+01 0. -1.
       -4    1    3    3    0  502  0.24298612601E+03  0.24233733173E+03 -0.52084144724E+03  0.62373637528E+03  0.12699999809E+01 0.  1.
</event>
<event>
 5   0  0.1222679E-03  0.6998041E+03  0.7818609E-02  0.9717567E-01
        2   -1    0    0  501    0  0.00000000000E+00  0.00000000000E+00  0.41197152223E+03  0.41197152224E+03  0.25500000920E-02 0. -1.
       -2   -1    0    0    0  501  0.00000000000E+00  0.00000000000E+00 -0.29718426369E+03  0.29718426371E+03  0.25500000920E-02 0.  1.
    10030    2    1    2    0    0  0.00000000000E+00  0.00000000000E+00  0.11478725854E+03  0.70915578595E+03  0.69980412546E+03 0.  0.
        2    1    3    3  502    0  0.29740640332E+03  0.74636508208E+02  0.22819953464E+03  0.38222533238E+03  0.25500000920E-02 0. -1.
       -2    1    3    3    0  502 -0.29740640332E+03 -0.74636508208E+02 -0.11341227610E+03  0.32693045357E+03  0.25500000920E-02 0.  1.
</event>
<event>
 5   0  0.1222679E-03  0.6998480E+03  0.7818609E-02  0.9717492E-01
        2   -1    0    0  501    0  0.00000000000E+00  0.00000000000E+00  0.14192856360E+04  0.14192856360E+04  0.25500000920E-02 0. -1.
       -2   -1    0    0    0  501  0.00000000000E+00  0.00000000000E+00 -0.86273553504E+02  0.86273553541E+02  0.25500000920E-02 0.  1.
    10030    2    1    2    0    0  0.00000000000E+00  0.00000000000E+00  0.13330120825E+04  0.15055591895E+04  0.69984802717E+03 0.  0.
        2    1    3    3  502    0  0.43810636057E+02  0.34716860753E+03  0.66395936772E+03  0.75052478699E+03  0.25500000920E-02 0. -1.
       -2    1    3    3    0  502 -0.43810636057E+02 -0.34716860753E+03  0.66905271475E+03  0.75503440254E+03  0.25500000920E-02 0.  1.
</event>
<event>
 5   0  0.1243087E-03  0.6998229E+03  0.7818609E-02  0.9717535E-01
       -2   -1    0    0    0  501  0.00000000000E+00  0.00000000000E+00  0.21966067206E+03  0.21966067207E+03  0.25500000920E-02 0. -1.
        2   -1    0    0  501    0  0.00000000000E+00  0.00000000000E+00 -0.55739617928E+03  0.55739617929E+03  0.25500000920E-02 0.  1.
    10030    2    1    2    0    0  0.00000000000E+00  0.00000000000E+00 -0.33773550722E+03  0.77705685136E+03  0.69982289002E+03 0.  0.
        4    1    3    3  502    0 -0.20624553283E+03 -0.89958146383E+02  0.12867350164E+03  0.25920681094E+03  0.12699999809E+01 0. -1.
       -4    1    3    3    0  502  0.20624553283E+03  0.89958146383E+02 -0.46640900886E+03  0.51785004042E+03  0.12699999809E+01 0.  1.
</event>
<event>
 5   0  0.4936000E-04  0.6998248E+03  0.7818609E-02  0.9717532E-01
        3   -1    0    0  501    0  0.00000000000E+00  0.00000000000E+00  0.47324384236E+03  0.47324385314E+03  0.10100000352E+00 0. -1.
       -3   -1    0    0    0  501  0.00000000000E+00  0.00000000000E+00 -0.25872218962E+03  0.25872220934E+03  0.10100000352E+00 0.  1.
    10030    2    1    2    0    0  0.00000000000E+00  0.00000000000E+00  0.21452165274E+03  0.73196606248E+03  0.69982481889E+03 0.  0.
        5    1    3    3  502    0  0.65958186400E+02 -0.32697059729E+03 -0.32138349903E+01  0.33360556437E+03  0.46999998093E+01 0.  1.
       -5    1    3    3    0  502 -0.65958186400E+02  0.32697059729E+03  0.21773548773E+03  0.39836049811E+03  0.46999998093E+01 0. -1.
</event>
<event>
 5   0  0.1282546E-03  0.7002552E+03  0.7818609E-02  0.9716796E-01
       -2   -1    0    0    0  501  0.00000000000E+00  0.00000000000E+00  0.91327791985E+02  0.91327792021E+02  0.25500000920E-02 0.  1.
        2   -1    0    0  501    0  0.00000000000E+00  0.00000000000E+00 -0.13423005331E+04  0.13423005331E+04  0.25500000920E-02 0. -1.
    10030    2    1    2    0    0  0.00000000000E+00  0.00000000000E+00 -0.12509727411E+04  0.14336283251E+04  0.70025522174E+03 0.  0.
        5    1    3    3  502    0 -0.15702228329E+03 -0.20638596687E+03 -0.11069970800E+04  0.11369766004E+04  0.46999998093E+01 0. -1.
       -5    1    3    3    0  502  0.15702228329E+03  0.20638596687E+03 -0.14397566110E+03  0.29665172469E+03  0.46999998093E+01 0.  1.
</event>
<event>
 5   0  0.1222679E-03  0.7004847E+03  0.7818609E-02  0.9716404E-01
        2   -1    0    0  501    0  0.00000000000E+00  0.00000000000E+00  0.39942219028E+03  0.39942219029E+03  0.25500000920E-02 0. -1.
       -2   -1    0    0    0  501  0.00000000000E+00  0.00000000000E+00 -0.30711790580E+03  0.30711790581E+03  0.25500000920E-02 0.  1.
    10030    2    1    2    0    0  0.00000000000E+00  0.00000000000E+00  0.92304284478E+02  0.70654009610E+03  0.70048470823E+03 0.  0.
        2    1    3    3  502    0 -0.13020269191E+03  0.12545121383E+03 -0.25640585398E+03  0.31374306366E+03  0.25500000920E-02 0.  1.
       -2    1    3    3    0  502  0.13020269191E+03 -0.12545121383E+03  0.34871013845E+03  0.39279703245E+03  0.25500000920E-02 0. -1.
</event>
<event>
 5   0  0.1265562E-03  0.6997900E+03  0.7818609E-02  0.9717591E-01
       -2   -1    0    0    0  501  0.00000000000E+00  0.00000000000E+00  0.22307694221E+03  0.22307694222E+03  0.25500000920E-02 0. -1.
        2   -1    0    0  501    0  0.00000000000E+00  0.00000000000E+00 -0.54880842873E+03  0.54880842873E+03  0.25500000920E-02 0.  1.
    10030    2    1    2    0    0  0.00000000000E+00  0.00000000000E+00 -0.32573148652E+03  0.77188537096E+03  0.69978998606E+03 0.  0.
        1    1    3    3  502    0 -0.22237926292E+03  0.65275165459E+02  0.12627209406E+03  0.26392806893E+03  0.50400001928E-02 0. -1.
       -1    1    3    3    0  502  0.22237926292E+03 -0.65275165459E+02 -0.45200358058E+03  0.50795730203E+03  0.50400001928E-02 0.  1.
</event>
<event>
 5   0  0.1243087E-03  0.6975296E+03  0.7818609E-02  0.9721466E-01
        2   -1    0    0  501    0  0.00000000000E+00  0.00000000000E+00  0.45187969696E+03  0.45187969697E+03  0.25500000920E-02 0. -1.
       -2   -1    0    0    0  501  0.00000000000E+00  0.00000000000E+00 -0.26917982416E+03  0.26917982417E+03  0.25500000920E-02 0.  1.
    10030    2    1    2    0    0  0.00000000000E+00  0.00000000000E+00  0.18269987280E+03  0.72105952114E+03  0.69752963343E+03 0.  0.
        4    1    3    3  502    0  0.31735233134E+02  0.53379976631E+02  0.44611586230E+03  0.45041927404E+03  0.12699999809E+01 0. -1.
       -4    1    3    3    0  502 -0.31735233134E+02 -0.53379976631E+02 -0.26341598950E+03  0.27064024711E+03  0.12699999809E+01 0.  1.
</event>
<event>
 5   0  0.1243087E-03  0.6999877E+03  0.7818609E-02  0.9717253E-01
        2   -1    0    0  501    0  0.00000000000E+00  0.00000000000E+00  0.18266100414E+04  0.18266100414E+04  0.25500000920E-02 0. -1.
       -2   -1    0    0    0  501  0.00000000000E+00  0.00000000000E+00 -0.67061766541E+02  0.67061766589E+02  0.25500000920E-02 0.  1.
    10030    2    1    2    0    0  0.00000000000E+00  0.00000000000E+00  0.17595482749E+04  0.18936718080E+04  0.69998770334E+03 0.  0.
        4    1    3    3  502    0 -0.54946098844E+02  0.28600277825E+03  0.35465858254E+03  0.45891283052E+03  0.12699999809E+01 0.  1.
       -4    1    3    3    0  502  0.54946098844E+02 -0.28600277825E+03  0.14048896924E+04  0.14347589775E+04  0.12699999809E+01 0. -1.
</event>
<event>
 5   0  0.1282546E-03  0.6998339E+03  0.7818609E-02  0.9717516E-01
        2   -1    0    0  501    0  0.00000000000E+00  0.00000000000E+00  0.97726255057E+03  0.97726255057E+03  0.25500000920E-02 0. -1.
       -2   -1    0    0    0  501  0.00000000000E+00  0.00000000000E+00 -0.12529065060E+03  0.12529065063E+03  0.25500000920E-02 0.  1.
    10030    2    1    2    0    0  0.00000000000E+00  0.00000000000E+00  0.85197189997E+03  0.11025532012E+04  0.69983386824E+03 0.  0.
        5    1    3    3  502    0  0.57255051370E+01 -0.19748427211E+03  0.88092545129E+03  0.90282033643E+03  0.46999998093E+01 0. -1.
       -5    1    3    3    0  502 -0.57255051370E+01  0.19748427211E+03 -0.28953551316E+02  0.19973286477E+03  0.46999998093E+01 0.  1.
</event>
<event>
 5   0  0.7459843E-04  0.6998407E+03  0.7818609E-02  0.9717505E-01
        1   -1    0    0  501    0  0.00000000000E+00  0.00000000000E+00  0.93321614518E+03  0.93321614519E+03  0.50400001928E-02 0.  1.
       -1   -1    0    0    0  501  0.00000000000E+00  0.00000000000E+00 -0.13120674931E+03  0.13120674940E+03  0.50400001928E-02 0. -1.
    10030    2    1    2    0    0  0.00000000000E+00  0.00000000000E+00  0.80200939587E+03  0.10644228946E+04  0.69984071578E+03 0.  0.
        2    1    3    3  502    0 -0.94453538265E+01  0.30238965739E+03  0.66843055770E+03  0.73370847759E+03  0.25500000920E-02 0.  1.
       -2    1    3    3    0  502  0.94453538265E+01 -0.30238965739E+03  0.13357883817E+03  0.33071441701E+03  0.25500000920E-02 0. -1.
</event>
<event>
 5   0  0.1282546E-03  0.6997052E+03  0.7818609E-02  0.9717736E-01
       -2   -1    0    0    0  501  0.00000000000E+00  0.00000000000E+00  0.38946393357E+02  0.38946393441E+02  0.25500000920E-02 0. -1.
        2   -1    0    0  501    0  0.00000000000E+00  0.00000000000E+00 -0.31427007152E+04  0.31427007152E+04  0.25500000920E-02 0.  1.
    10030    2    1    2    0    0  0.00000000000E+00  0.00000000000E+00 -0.31037543218E+04  0.31816471086E+04  0.69970524763E+03 0.  0.
        5    1    3    3  502    0  0.18229274274E+03 -0.18973795397E+03 -0.26001214333E+04  0.26134048085E+04  0.46999998093E+01 0. -1.
       -5    1    3    3    0  502 -0.18229274274E+03  0.18973795397E+03 -0.50363288849E+03  0.56824230008E+03  0.46999998093E+01 0.  1.
</event>
<event>
 5   0  0.1224048E-03  0.7000376E+03  0.7818609E-02  0.9717168E-01
       -2   -1    0    0    0  501  0.00000000000E+00  0.00000000000E+00  0.36798501962E+03  0.36798501963E+03  0.25500000920E-02 0.  1.
        2   -1    0    0  501    0  0.00000000000E+00  0.00000000000E+00 -0.33292975940E+03  0.33292975941E+03  0.25500000920E-02 0. -1.
    10030    2    1    2    0    0  0.00000000000E+00  0.00000000000E+00  0.35055260223E+02  0.70091477903E+03  0.70003761056E+03 0.  0.
        3    1    3    3  502    0 -0.27969159667E+02 -0.21007036296E+03 -0.26139156616E+03  0.33650764085E+03  0.10100000352E+00 0. -1.
       -3    1    3    3    0  502  0.27969159667E+02  0.21007036296E+03  0.29644682638E+03  0.36440713819E+03  0.10100000352E+00 0.  1.
</event>
<event>
 5   0  0.4936000E-04  0.6999198E+03  0.7818609E-02  0.9717369E-01
        4   -1    0    0  501    0  0.00000000000E+00  0.00000000000E+00  0.78196162993E+03  0.78196266125E+03  0.12699999809E+01 0.  1.
       -4   -1    0    0    0  501  0.00000000000E+00  0.00000000000E+00 -0.15661770081E+03  0.15662284989E+03  0.12699999809E+01 0. -1.
    10030    2    1    2    0    0  0.00000000000E+00  0.00000000000E+00  0.62534392912E+03  0.93858551114E+03  0.69991980400E+03 0.  0.
        4    1    3    3  502    0  0.64899160668E+00 -0.16487512944E+03  0.72661475065E+03  0.74508713468E+03  0.12699999809E+01 0.  1.
       -4    1    3    3    0  502 -0.64899160668E+00  0.16487512944E+03 -0.10127082153E+03  0.19349837646E+03  0.12699999809E+01 0. -1.
</event>
<event>
 5   0  0.7572415E-04  0.6999750E+03  0.7818609E-02  0.9717275E-01
        1   -1    0    0  501    0  0.00000000000E+00  0.00000000000E+00  0.14758230090E+04  0.14758230090E+04  0.50400001928E-02 0.  1.
       -1   -1    0    0    0  501  0.00000000000E+00  0.00000000000E+00 -0.82998602834E+02  0.82998602987E+02  0.50400001928E-02 0. -1.
    10030    2    1    2    0    0  0.00000000000E+00  0.00000000000E+00  0.13928244061E+04  0.15588216119E+04  0.69997499355E+03 0.  0.
        4    1    3    3  502    0  0.26623200986E+02 -0.47428938045E+02  0.14663484752E+04  0.14673574079E+04  0.12699999809E+01 0.  1.
       -4    1    3    3    0  502 -0.26623200986E+02  0.47428938045E+02 -0.73524069042E+02  0.91464204054E+02  0.12699999809E+01 0. -1.
</event>
<event>
 5   0  0.7570633E-04  0.7002391E+03  0.7818609E-02  0.9716823E-01
       -1   -1    0    0    0  501  0.00000000000E+00  0.00000000000E+00  0.19481621944E+03  0.19481621951E+03  0.50400001928E-02 0.  1.
        1   -1    0    0  501    0  0.00000000000E+00  0.00000000000E+00 -0.62922733733E+03  0.62922733735E+03  0.50400001928E-02 0. -1.
    10030    2    1    2    0    0  0.00000000000E+00  0.00000000000E+00 -0.43441111789E+03  0.82404355686E+03  0.70023907650E+03 0.  0.
        5    1    3    3  502    0 -0.78901704681E+02  0.18279907845E+02 -0.61801367041E+03  0.62331582753E+03  0.46999998093E+01 0. -1.
       -5    1    3    3    0  502  0.78901704681E+02 -0.18279907845E+02  0.18360255252E+03  0.20072772933E+03  0.46999998093E+01 0.  1.
</event>
<event>
 5   0  0.7570633E-04  0.6996652E+03  0.7818609E-02  0.9717805E-01
       -1   -1    0    0    0  501  0.00000000000E+00  0.00000000000E+00  0.18742568552E+03  0.18742568559E+03  0.50400001928E-02 0.  1.
        1   -1    0    0  501    0  0.00000000000E+00  0.00000000000E+00 -0.65296725700E+03  0.65296725702E+03  0.50400001928E-02 0. -1.
    10030    2    1    2    0    0  0.00000000000E+00  0.00000000000E+00 -0.46554157148E+03  0.84039294261E+03  0.69966516507E+03 0.  0.
        5    1    3    3  502    0  0.28248199151E+03 -0.18250352598E+03 -0.34833687130E+03  0.48421511586E+03  0.46999998093E+01 0. -1.
       -5    1    3    3    0  502 -0.28248199151E+03  0.18250352598E+03 -0.11720470018E+03  0.35617782675E+03  0.46999998093E+01 0.  1.
</event>
<event>
 5   0  0.4936000E-04  0.6994708E+03  0.7818609E-02  0.9718138E-01
       -3   -1    0    0    0  501  0.00000000000E+00  0.00000000000E+00  0.10542649348E+04  0.10542649396E+04  0.10100000352E+00 0. -1.
        3   -1    0    0  501    0  0.00000000000E+00  0.00000000000E+00 -0.11601906331E+03  0.11601910727E+03  0.10100000352E+00 0.  1.
    10030    2    1    2    0    0  0.00000000000E+00  0.00000000000E+00  0.93824587149E+03  0.11702840469E+04  0.69947082504E+03 0.  0.
        1    1    3    3  502    0  0.11848298443E+03 -0.22835508532E+03  0.86551185671E+03  0.90293689521E+03  0.50400001928E-02 0. -1.
       -1    1    3    3    0  502 -0.11848298443E+03  0.22835508532E+03  0.72734014781E+02  0.26734715170E+03  0.50400001928E-02 0.  1.
</event>
<event>
 5   0  0.1265562E-03  0.6977289E+03  0.7818609E-02  0.9721124E-01
       -2   -1    0    0    0  501  0.00000000000E+00  0.00000000000E+00  0.62839827318E+02  0.62839827369E+02  0.25500000920E-02 0.  1.
        2   -1    0    0  501    0  0.00000000000E+00  0.00000000000E+00 -0.19367719472E+04  0.19367719472E+04  0.25500000920E-02 0. -1.
    10030    2    1    2    0    0  0.00000000000E+00  0.00000000000E+00 -0.18739321199E+04  0.19996117746E+04  0.69772892951E+03 0.  0.
        1    1    3    3  502    0 -0.19941010111E+03  0.20738962478E+03 -0.37149561184E+03  0.46987640347E+03  0.50400001928E-02 0.  1.
       -1    1    3    3    0  502  0.19941010111E+03 -0.20738962478E+03 -0.15024365080E+04  0.15297353711E+04  0.50400001928E-02 0. -1.
</event>
<event>
 5   0  0.1265562E-03  0.7018607E+03  0.7818609E-02  0.9714056E-01
       -2   -1    0    0    0  501  0.00000000000E+00  0.00000000000E+00  0.29840056919E+03  0.29840056920E+03  0.25500000920E-02 0. -1.
        2   -1    0    0  501    0  0.00000000000E+00  0.00000000000E+00 -0.41270730358E+03  0.41270730359E+03  0.25500000920E-02 0.  1.
    10030    2    1    2    0    0  0.00000000000E+00  0.00000000000E+00 -0.11430673439E+03  0.71110787279E+03  0.70186065370E+03 0.  0.
        1    1    3    3  502    0 -0.90152033101E+02  0.28127295479E+02  0.28528423458E+03  0.30050894886E+03  0.50400001928E-02 0. -1.
       -1    1    3    3    0  502  0.90152033101E+02 -0.28127295479E+02 -0.39959096897E+03  0.41059892393E+03  0.50400001928E-02 0.  1.
</event>
<event>
 5   0  0.7572415E-04  0.6999020E+03  0.7818609E-02  0.9717400E-01
        1   -1    0    0  501    0  0.00000000000E+00  0.00000000000E+00  0.71555184690E+03  0.71555184691E+03  0.50400001928E-02 0.  1.
       -1   -1    0    0    0  501  0.00000000000E+00  0.00000000000E+00 -0.17114861854E+03  0.17114861861E+03  0.50400001928E-02 0. -1.
    10030    2    1    2    0    0  0.00000000000E+00  0.00000000000E+00  0.54440322836E+03  0.88670046552E+03  0.69990202208E+03 0.  0.
        4    1    3    3  502    0 -0.28867221967E+03 -0.18426289516E+03  0.18102380498E+03  0.38737023093E+03  0.12699999809E+01 0. -1.
       -4    1    3    3    0  502  0.28867221967E+03  0.18426289516E+03  0.36337942338E+03  0.49933023459E+03  0.12699999809E+01 0.  1.
</event>
<event>
 5   0  0.1222679E-03  0.6998513E+03  0.7818609E-02  0.9717486E-01
        2   -1    0    0  501    0  0.00000000000E+00  0.00000000000E+00  0.11960139003E+04  0.11960139003E+04  0.25500000920E-02 0. -1.
       -2   -1    0    0    0  501  0.00000000000E+00  0.00000000000E+00 -0.10238005302E+03  0.10238005305E+03  0.25500000920E-02 0.  1.
    10030    2    1    2    0    0  0.00000000000E+00  0.00000000000E+00  0.10936338473E+04  0.12983939534E+04  0.69985131720E+03 0.  0.
        2    1    3    3  502    0  0.34862730428E+03  0.15941663664E+02  0.49941438296E+03  0.60926994004E+03  0.25500000920E-02 0. -1.
       -2    1    3    3    0  502 -0.34862730428E+03 -0.15941663664E+02  0.59421946432E+03  0.68912401331E+03  0.25500000920E-02 0.  1.
</event>
<event>
 5   0  0.7570633E-04  0.7005913E+03  0.7818609E-02  0.9716221E-01
        1   -1    0    0  501    0  0.00000000000E+00  0.00000000000E+00  0.29633020306E+03  0.29633020311E+03  0.50400001928E-02 0. -1.
       -1   -1    0    0    0  501  0.00000000000E+00  0.00000000000E+00 -0.41408892390E+03  0.41408892393E+03  0.50400001928E-02 0.  1.
    10030    2    1    2    0    0  0.00000000000E+00  0.00000000000E+00 -0.11775872084E+03  0.71041912704E+03  0.70059133575E+03 0.  0.
        5    1    3    3  502    0 -0.31686925949E+03 -0.13790063281E+03 -0.11679671133E+03  0.36480991477E+03  0.46999998093E+01 0.  1.
       -5    1    3    3    0  502  0.31686925949E+03  0.13790063281E+03 -0.96200951008E+00  0.34560921227E+03  0.46999998093E+01 0. -1.
</event>
<event>
 5   0  0.1282546E-03  0.7001719E+03  0.7818609E-02  0.9716938E-01
       -2   -1    0    0    0  501  0.00000000000E+00  0.00000000000E+00  0.11764078174E+03  0.11764078176E+03  0.25500000920E-02 0.  1.
        2   -1    0    0  501    0  0.00000000000E+00  0.00000000000E+00 -0.10418170081E+04  0.10418170081E+04  0.25500000920E-02 0. -1.
    10030    2    1    2    0    0  0.00000000000E+00  0.00000000000E+00 -0.92417622640E+03  0.11594577899E+04  0.70017188541E+03 0.  0.
        5    1    3    3  502    0  0.18698009715E+02 -0.12450419709E+03  0.78798664836E+02  0.14860090928E+03  0.46999998093E+01 0.  1.
       -5    1    3    3    0  502 -0.18698009715E+02  0.12450419709E+03 -0.10029748912E+04  0.10108568806E+04  0.46999998093E+01 0. -1.
</event>
<event>
 5   0  0.1282546E-03  0.6998324E+03  0.7818609E-02  0.9717519E-01
       -2   -1    0    0    0  501  0.00000000000E+00  0.00000000000E+00  0.15124567018E+03  0.15124567020E+03  0.25500000920E-02 0. -1.
        2   -1    0    0  501    0  0.00000000000E+00  0.00000000000E+00 -0.80955277676E+03  0.80955277677E+03  0.25500000920E-02 0.  1.
    10030    2    1    2    0    0  0.00000000000E+00  0.00000000000E+00 -0.65830710659E+03  0.96079844697E+03  0.69983241502E+03 0.  0.
        5    1    3    3  502    0 -0.10178871772E+03 -0.28290118081E+03 -0.57484183454E+03  0.64873665374E+03  0.46999998093E+01 0.  1.
       -5    1    3    3    0  502  0.10178871772E+03  0.28290118081E+03 -0.83465272042E+02  0.31206179323E+03  0.46999998093E+01 0. -1.
</event>
<event>
 5   0  0.7013526E-04  0.7024020E+03  0.7818609E-02  0.9713133E-01
       -1   -1    0    0    0  501  0.00000000000E+00  0.00000000000E+00  0.57136972774E+02  0.57136972996E+02  0.50400001928E-02 0. -1.
        1   -1    0    0  501    0  0.00000000000E+00  0.00000000000E+00 -0.21587099716E+04  0.21587099716E+04  0.50400001928E-02 0.  1.
    10030    2    1    2    0    0  0.00000000000E+00  0.00000000000E+00 -0.21015729988E+04  0.22158469446E+04  0.70240203054E+03 0.  0.
        1    1    3    3  502    0  0.17091644059E+03 -0.10876822088E+03 -0.14577978562E+03  0.24958906518E+03  0.50400001928E-02 0. -1.
       -1    1    3    3    0  502 -0.17091644059E+03  0.10876822088E+03 -0.19557932132E+04  0.19662578794E+04  0.50400001928E-02 0.  1.
</event>
<event>
 5   0  0.7572415E-04  0.7024132E+03  0.7818609E-02  0.9713114E-01
       -1   -1    0    0    0  501  0.00000000000E+00  0.00000000000E+00  0.25427318329E+03  0.25427318334E+03  0.50400001928E-02 0. -1.
        1   -1    0    0  501    0  0.00000000000E+00  0.00000000000E+00 -0.48509276522E+03  0.48509276524E+03  0.50400001928E-02 0.  1.
    10030    2    1    2    0    0  0.00000000000E+00  0.00000000000E+00 -0.23081958192E+03  0.73936594859E+03  0.70241321637E+03 0.  0.
        4    1    3    3  502    0 -0.13013970320E+03 -0.32514808427E+03 -0.14299635560E+03  0.37829510923E+03  0.12699999809E+01 0. -1.
       -4    1    3    3    0  502  0.13013970320E+03  0.32514808427E+03 -0.87823226319E+02  0.36107083936E+03  0.12699999809E+01 0.  1.
</event>
<event>
 5   0  0.1224048E-03  0.7005915E+03  0.7818609E-02  0.9716221E-01
       -2   -1    0    0    0  501  0.00000000000E+00  0.00000000000E+00  0.10235071192E+03  0.10235071195E+03  0.25500000920E-02 0.  1.
        2   -1    0    0  501    0  0.00000000000E+00  0.00000000000E+00 -0.11988888370E+04  0.11988888370E+04  0.25500000920E-02 0. -1.
    10030    2    1    2    0    0  0.00000000000E+00  0.00000000000E+00 -0.10965381250E+04  0.13012395489E+04  0.70059153863E+03 0.  0.
        3    1    3    3  502    0 -0.33368632773E+03  0.69046677075E+02 -0.69908159208E+03  0.77770758741E+03  0.10100000352E+00 0.  1.
       -3    1    3    3    0  502  0.33368632773E+03 -0.69046677075E+02 -0.39745653295E+03  0.52353196150E+03  0.10100000352E+00 0. -1.
</event>
<event>
 5   0  0.1265562E-03  0.7017236E+03  0.7818609E-02  0.9714289E-01
       -2   -1    0    0    0  501  0.00000000000E+00  0.00000000000E+00  0.48821006956E+03  0.48821006956E+03  0.25500000920E-02 0.  1.
        2   -1    0    0  501    0  0.00000000000E+00  0.00000000000E+00 -0.25215373888E+03  0.25215373890E+03  0.25500000920E-02 0. -1.
    10030    2    1    2    0    0  0.00000000000E+00  0.00000000000E+00  0.23605633067E+03  0.74036380846E+03  0.70172357636E+03 0.  0.
        1    1    3    3  502    0 -0.16107995108E+03 -0.53271469165E+02  0.44205398230E+03  0.47349374163E+03  0.50400001928E-02 0.  1.
       -1    1    3    3    0  502  0.16107995108E+03  0.53271469165E+02 -0.20599765163E+03  0.26687006683E+03  0.50400001928E-02 0. -1.
</event>
<event>
 5   0  0.1282546E-03  0.7009879E+03  0.7818609E-02  0.9715544E-01
        2   -1    0    0  501    0  0.00000000000E+00  0.00000000000E+00  0.86908367809E+03  0.86908367810E+03  0.25500000920E-02 0. -1.
       -2   -1    0    0    0  501  0.00000000000E+00  0.00000000000E+00 -0.14135120498E+03  0.14135120500E+03  0.25500000920E-02 0.  1.
    10030    2    1    2    0    0  0.00000000000E+00  0.00000000000E+00  0.72773247311E+03  0.10104348831E+04  0.70098794609E+03 0.  0.
        5    1    3    3  502    0 -0.12572210813E+03 -0.24418910930E+03  0.50076203782E+02  0.27922049666E+03  0.46999998093E+01 0.  1.
       -5    1    3    3    0  502  0.12572210813E+03  0.24418910930E+03  0.67765626933E+03  0.73121438644E+03  0.46999998093E+01 0. -1.
</event>
<event>
 5   0  0.4936000E-04  0.6999873E+03  0.7818609E-02  0.9717254E-01
       -4   -1    0    0    0  501  0.00000000000E+00  0.00000000000E+00  0.57980554770E+03  0.57980693859E+03  0.12699999809E+01 0.  1.
        4   -1    0    0  501    0  0.00000000000E+00  0.00000000000E+00 -0.21126650956E+03  0.21127032674E+03  0.12699999809E+01 0. -1.
    10030    2    1    2    0    0  0.00000000000E+00  0.00000000000E+00  0.36853903813E+03  0.79107726533E+03  0.69998729781E+03 0.  0.
        4    1    3    3  502    0  0.15405268249E+03  0.19089960329E+03  0.46639295856E+03  0.52697143396E+03  0.12699999809E+01 0.  1.
       -4    1    3    3    0  502 -0.15405268249E+03 -0.19089960329E+03 -0.97853920424E+02  0.26410583137E+03  0.12699999809E+01 0. -1.
</event>
<event>
 5   0  0.1224048E-03  0.6999269E+03  0.7818609E-02  0.9717357E-01
        2   -1    0    0  501    0  0.00000000000E+00  0.00000000000E+00  0.96744533928E+03  0.96744533928E+03  0.25500000920E-02 0.  1.
       -2   -1    0    0    0  501  0.00000000000E+00  0.00000000000E+00 -0.12659571187E+03  0.12659571189E+03  0.25500000920E-02 0. -1.
    10030    2    1    2    0    0  0.00000000000E+00  0.00000000000E+00  0.84084962741E+03  0.10940410512E+04  0.69992694315E+03 0.  0.
        3    1    3    3  502    0  0.33306304025E+03  0.42143680603E+02  0.26594593161E+03  0.42829233864E+03  0.10100000352E+00 0. -1.
       -3    1    3    3    0  502 -0.33306304025E+03 -0.42143680603E+02  0.57490369580E+03  0.66574871253E+03  0.10100000352E+00 0.  1.
</event>
<event>
 5   0  0.1243087E-03  0.7002606E+03  0.7818609E-02  0.9716787E-01
        2   -1    0    0  501    0  0.00000000000E+00  0.00000000000E+00  0.13287780764E+04  0.13287780764E+04  0.25500000920E-02 0. -1.
       -2   -1    0    0    0  501  0.00000000000E+00  0.00000000000E+00 -0.92258616257E+02  0.92258616292E+02  0.25500000920E-02 0.  1.
    10030    2    1    2    0    0  0.00000000000E+00  0.00000000000E+00  0.12365194601E+04  0.14210366927E+04  0.70026059911E+03 0.  0.
        4    1    3    3  502    0 -0.17953755747E+03  0.17147851960E+03  0.11726171369E+03  0.27457337749E+03  0.12699999809E+01 0.  1.
       -4    1    3    3    0  502  0.17953755747E+03 -0.17147851960E+03  0.11192577464E+04  0.11464633152E+04  0.12699999809E+01 0. -1.
</event>
<event>
 5   0  0.7570633E-04  0.6992164E+03  0.7818609E-02  0.9718573E-01
       -1   -1    0    0    0  501  0.00000000000E+00  0.00000000000E+00  0.13043038721E+03  0.13043038731E+03  0.50400001928E-02 0.  1.
        1   -1    0    0  501    0  0.00000000000E+00  0.00000000000E+00 -0.93709669412E+03  0.93709669413E+03  0.50400001928E-02 0. -1.
    10030    2    1    2    0    0  0.00000000000E+00  0.00000000000E+00 -0.80666630691E+03  0.10675270814E+04  0.69921637489E+03 0.  0.
        5    1    3    3  502    0  0.12873570811E+03 -0.32387614239E+03 -0.36193726244E+03  0.50248314409E+03  0.46999998093E+01 0.  1.
       -5    1    3    3    0  502 -0.12873570811E+03  0.32387614239E+03 -0.44472904447E+03  0.56504393736E+03  0.46999998093E+01 0. -1.
</event>
<event>
 5   0  0.1224048E-03  0.7001875E+03  0.7818609E-02  0.9716912E-01
        2   -1    0    0  501    0  0.00000000000E+00  0.00000000000E+00  0.45438914133E+03  0.45438914134E+03  0.25500000920E-02 0. -1.
       -2   -1    0    0    0  501  0.00000000000E+00  0.00000000000E+00 -0.26973715868E+03  0.26973715869E+03  0.25500000920E-02 0.  1.
    10030    2    1    2    0    0  0.00000000000E+00  0.00000000000E+00  0.18465198265E+03  0.72412630003E+03  0.70018750610E+03 0.  0.
        3    1    3    3  502    0 -0.62635549429E+02 -0.29332783551E+03 -0.94405136841E+02  0.31444677006E+03  0.10100000352E+00 0.  1.
       -3    1    3    3    0  502  0.62635549429E+02  0.29332783551E+03  0.27905711949E+03  0.40967952997E+03  0.10100000352E+00 0. -1.
</event>
<event>
 5   0  0.1243087E-03  0.7001951E+03  0.7818609E-02  0.9716899E-01
        2   -1    0    0  501    0  0.00000000000E+00  0.00000000000E+00  0.61623278980E+03  0.61623278980E+03  0.25500000920E-02 0. -1.
       -2   -1    0    0    0  501  0.00000000000E+00  0.00000000000E+00 -0.19889933501E+03  0.19889933503E+03  0.25500000920E-02 0.  1.
    10030    2    1    2    0    0  0.00000000000E+00  0.00000000000E+00  0.41733345479E+03  0.81513212483E+03  0.70019509313E+03 0.  0.
        4    1    3    3  502    0  0.13473653708E+03 -0.31738753196E+03  0.13806605036E+03  0.37141974507E+03  0.12699999809E+01 0.  1.
       -4    1    3    3    0  502 -0.13473653708E+03  0.31738753196E+03  0.27926740443E+03  0.44371237975E+03  0.12699999809E+01 0. -1.
</event>
<event>
 5   0  0.1265562E-03  0.6999948E+03  0.7818609E-02  0.9717241E-01
       -2   -1    0    0    0  501  0.00000000000E+00  0.00000000000E+00  0.21224070306E+03  0.21224070308E+03  0.25500000920E-02 0.  1.
        2   -1    0    0  501    0  0.00000000000E+00  0.00000000000E+00 -0.57716621253E+03  0.57716621254E+03  0.25500000920E-02 0. -1.
    10030    2    1    2    0    0  0.00000000000E+00  0.00000000000E+00 -0.36492550947E+03  0.78940691562E+03  0.69999475067E+03 0.  0.
        1    1    3    3  502    0  0.25594565223E+03  0.21173645024E+03 -0.30680856782E+03  0.45218580093E+03  0.50400001928E-02 0. -1.
       -1    1    3    3    0  502 -0.25594565223E+03 -0.21173645024E+03 -0.58116941651E+02  0.33722111468E+03  0.50400001928E-02 0.  1.
</event>
<event>
 5   0  0.7572415E-04  0.7001601E+03  0.7818609E-02  0.9716958E-01
       -1   -1    0    0    0  501  0.00000000000E+00  0.00000000000E+00  0.32538796895E+03  0.32538796899E+03  0.50400001928E-02 0.  1.
        1   -1    0    0  501    0  0.00000000000E+00  0.00000000000E+00 -0.37664592072E+03  0.37664592075E+03  0.50400001928E-02 0. -1.
    10030    2    1    2    0    0  0.00000000000E+00  0.00000000000E+00 -0.51257951767E+02  0.70203388974E+03  0.70016012792E+03 0.  0.
        4    1    3    3  502    0 -0.33425196534E+03 -0.59673945270E+02 -0.11111605773E+03  0.35725865597E+03  0.12699999809E+01 0.  1.
       -4    1    3    3    0  502  0.33425196534E+03  0.59673945270E+02  0.59858105961E+02  0.34477523378E+03  0.12699999809E+01 0. -1.
</event>
<event>
 5   0  0.1224048E-03  0.7002006E+03  0.7818609E-02  0.9716889E-01
        2   -1    0    0  501    0  0.00000000000E+00  0.00000000000E+00  0.10829252209E+04  0.10829252209E+04  0.25500000920E-02 0. -1.
       -2   -1    0    0    0  501  0.00000000000E+00  0.00000000000E+00 -0.11318436965E+03  0.11318436968E+03  0.25500000920E-02 0.  1.
    10030    2    1    2    0    0  0.00000000000E+00  0.00000000000E+00  0.96974085120E+03  0.11961095905E+04  0.70020056704E+03 0.  0.
        3    1    3    3  502    0 -0.29987409350E+03  0.17452114679E+03  0.56477684488E+03  0.66283859072E+03  0.10100000352E+00 0. -1.
       -3    1    3    3    0  502  0.29987409350E+03 -0.17452114679E+03  0.40496400632E+03  0.53327099982E+03  0.10100000352E+00 0.  1.
</event>
<event>
 5   0  0.1282546E-03  0.6994104E+03  0.7818609E-02  0.9718241E-01
       -2   -1    0    0    0  501  0.00000000000E+00  0.00000000000E+00  0.17946636860E+03  0.17946636862E+03  0.25500000920E-02 0. -1.
        2   -1    0    0  501    0  0.00000000000E+00  0.00000000000E+00 -0.68142984432E+03  0.68142984433E+03  0.25500000920E-02 0.  1.
    10030    2    1    2    0    0  0.00000000000E+00  0.00000000000E+00 -0.50196347572E+03  0.86089621294E+03  0.69941043637E+03 0.  0.
        5    1    3    3  502    0 -0.93254038942E+02 -0.33511582005E+03 -0.29489394775E+03  0.45605203546E+03  0.46999998093E+01 0. -1.
       -5    1    3    3    0  502  0.93254038942E+02  0.33511582005E+03 -0.20706952797E+03  0.40484417748E+03  0.46999998093E+01 0.  1.
</event>
<event>
 5   0  0.7013526E-04  0.6998688E+03  0.7818609E-02  0.9717457E-01
        1   -1    0    0  501    0  0.00000000000E+00  0.00000000000E+00  0.11328804351E+04  0.11328804351E+04  0.50400001928E-02 0. -1.
       -1   -1    0    0    0  501  0.00000000000E+00  0.00000000000E+00 -0.10809090723E+03  0.10809090734E+03  0.50400001928E-02 0.  1.
    10030    2    1    2    0    0  0.00000000000E+00  0.00000000000E+00  0.10247895278E+04  0.12409713424E+04  0.69986877080E+03 0.  0.
        1    1    3    3  502    0 -0.30820802700E+03  0.10262877275E+03  0.74310328049E+03  0.81100390776E+03  0.50400001928E-02 0. -1.
       -1    1    3    3    0  502  0.30820802700E+03 -0.10262877275E+03  0.28168624736E+03  0.42996743467E+03  0.50400001928E-02 0.  1.
</event>
<event>
 5   0  0.4936000E-04  0.7000858E+03  0.7818609E-02  0.9717086E-01
       -3   -1    0    0    0  501  0.00000000000E+00  0.00000000000E+00  0.18638490267E+03  0.18638493004E+03  0.10100000352E+00 0. -1.
        3   -1    0    0  501    0  0.00000000000E+00  0.00000000000E+00 -0.65740303708E+03  0.65740304484E+03  0.10100000352E+00 0.  1.
    10030    2    1    2    0    0  0.00000000000E+00  0.00000000000E+00 -0.47101813440E+03  0.84378797488E+03  0.70008575447E+03 0.  0.
        4    1    3    3  502    0 -0.80068139610E+02  0.20114058053E+03  0.96015069765E+02  0.23683105083E+03  0.12699999809E+01 0. -1.
       -4    1    3    3    0  502  0.80068139610E+02 -0.20114058053E+03 -0.56703320417E+03  0.60695692404E+03  0.12699999809E+01 0.  1.
</event>
<event>
 5   0  0.7572415E-04  0.6991644E+03  0.7818609E-02  0.9718662E-01
       -1   -1    0    0    0  501  0.00000000000E+00  0.00000000000E+00  0.20518469268E+03  0.20518469274E+03  0.50400001928E-02 0. -1.
        1   -1    0    0  501    0  0.00000000000E+00  0.00000000000E+00 -0.59559858184E+03  0.59559858187E+03  0.50400001928E-02 0.  1.
    10030    2    1    2    0    0  0.00000000000E+00  0.00000000000E+00 -0.39041388916E+03  0.80078327461E+03  0.69916439272E+03 0.  0.
        4    1    3    3  502    0 -0.12040782316E+03 -0.22499444906E+03  0.78445163578E+02  0.26697528458E+03  0.12699999809E+01 0. -1.
       -4    1    3    3    0  502  0.12040782316E+03  0.22499444906E+03 -0.46885905274E+03  0.53380799003E+03  0.12699999809E+01 0.  1.
</event>
<event>
 5   0  0.1243087E-03  0.7030159E+03  0.7818609E-02  0.9712088E-01
       -2   -1    0    0    0  501  0.00000000000E+00  0.00000000000E+00  0.30156327680E+03  0.30156327681E+03  0.25500000920E-02 0.  1.
        2   -1    0    0  501    0  0.00000000000E+00  0.00000000000E+00 -0.40972443819E+03  0.40972443820E+03  0.25500000920E-02 0. -1.
    10030    2    1    2    0    0  0.00000000000E+00  0.00000000000E+00 -0.10816116139E+03  0.71128771502E+03  0.70301591497E+03 0.  0.
        4    1    3    3  502    0  0.30647355778E+03 -0.11414317437E+03  0.76282359873E+02  0.33582036449E+03  0.12699999809E+01 0.  1.
       -4    1    3    3    0  502 -0.30647355778E+03  0.11414317437E+03 -0.18444352126E+03  0.37546735053E+03  0.12699999809E+01 0. -1.
</event>
<event>
 5   0  0.7574241E-04  0.6998222E+03  0.7818609E-02  0.9717536E-01
        1   -1    0    0  501    0  0.00000000000E+00  0.00000000000E+00  0.59857137885E+03  0.59857137887E+03  0.50400001928E-02 0.  1.
       -1   -1    0    0    0  501  0.00000000000E+00  0.00000000000E+00 -0.20455002515E+03  0.20455002521E+03  0.50400001928E-02 0. -1.
    10030    2    1    2    0    0  0.00000000000E+00  0.00000000000E+00  0.39402135370E+03  0.80312140408E+03  0.69982223637E+03 0.  0.
        3    1    3    3  502    0  0.64395247460E+02  0.30794425358E+03  0.21230401756E+02  0.31532071193E+03  0.10100000352E+00 0. -1.
       -3    1    3    3    0  502 -0.64395247460E+02 -0.30794425358E+03  0.37279095195E+03  0.48780069215E+03  0.10100000352E+00 0.  1.
</event>
<event>
 5   0  0.1282546E-03  0.6959970E+03  0.7818609E-02  0.9724102E-01
       -2   -1    0    0    0  501  0.00000000000E+00  0.00000000000E+00  0.78795575911E+02  0.78795575952E+02  0.25500000920E-02 0. -1.
        2   -1    0    0  501    0  0.00000000000E+00  0.00000000000E+00 -0.15369257674E+04  0.15369257674E+04  0.25500000920E-02 0.  1.
    10030    2    1    2    0    0  0.00000000000E+00  0.00000000000E+00 -0.14581301915E+04  0.16157213434E+04  0.69599698565E+03 0.  0.
        5    1    3    3  502    0 -0.55163140553E+02 -0.33678884267E+03 -0.88670436244E+03  0.95012441975E+03  0.46999998093E+01 0.  1.
       -5    1    3    3    0  502  0.55163140553E+02  0.33678884267E+03 -0.57142582905E+03  0.66559692361E+03  0.46999998093E+01 0. -1.
</event>
<event>
 5   0  0.1222679E-03  0.6992556E+03  0.7818609E-02  0.9718506E-01
        2   -1    0    0  501    0  0.00000000000E+00  0.00000000000E+00  0.50259602586E+03  0.50259602586E+03  0.25500000920E-02 0.  1.
       -2   -1    0    0    0  501  0.00000000000E+00  0.00000000000E+00 -0.24321637462E+03  0.24321637463E+03  0.25500000920E-02 0. -1.
    10030    2    1    2    0    0  0.00000000000E+00  0.00000000000E+00  0.25937965124E+03  0.74581240050E+03  0.69925555647E+03 0.  0.
        2    1    3    3  502    0 -0.29738564896E+02 -0.61446686030E+01  0.50118681622E+03  0.50210592902E+03  0.25500000920E-02 0.  1.
       -2    1    3    3    0  502  0.29738564896E+02  0.61446686030E+01 -0.24180716499E+03  0.24370647148E+03  0.25500000920E-02 0. -1.
</event>
<event>
 5   0  0.1282546E-03  0.7001442E+03  0.7818609E-02  0.9716986E-01
       -2   -1    0    0    0  501  0.00000000000E+00  0.00000000000E+00  0.18194519248E+03  0.18194519250E+03  0.25500000920E-02 0. -1.
        2   -1    0    0  501    0  0.00000000000E+00  0.00000000000E+00 -0.67355700662E+03  0.67355700663E+03  0.25500000920E-02 0.  1.
    10030    2    1    2    0    0  0.00000000000E+00  0.00000000000E+00 -0.49161181414E+03  0.85550219913E+03  0.70014415438E+03 0.  0.
        5    1    3    3  502    0 -0.26512385453E+03 -0.21243958501E+03 -0.34881626736E+03  0.48694569912E+03  0.46999998093E+01 0.  1.
       -5    1    3    3    0  502  0.26512385453E+03  0.21243958501E+03 -0.14279554678E+03  0.36855650001E+03  0.46999998093E+01 0. -1.
</event>
<event>
 5   0  0.7574241E-04  0.6997146E+03  0.7818609E-02  0.9717720E-01
        1   -1    0    0  501    0  0.00000000000E+00  0.00000000000E+00  0.32424215144E+03  0.32424215148E+03  0.50400001928E-02 0. -1.
       -1   -1    0    0    0  501  0.00000000000E+00  0.00000000000E+00 -0.37749601674E+03  0.37749601677E+03  0.50400001928E-02 0.  1.
    10030    2    1    2    0    0  0.00000000000E+00  0.00000000000E+00 -0.53253865299E+02  0.70173816825E+03  0.69971457224E+03 0.  0.
        3    1    3    3  502    0 -0.33054150488E+03  0.10729801633E+03  0.13857617405E+02  0.34779677187E+03  0.10100000352E+00 0. -1.
       -3    1    3    3    0  502  0.33054150488E+03 -0.10729801633E+03 -0.67111482704E+02  0.35394139638E+03  0.10100000352E+00 0.  1.
</event>
<event>
 5   0  0.7459843E-04  0.6997736E+03  0.7818609E-02  0.9717619E-01
       -1   -1    0    0    0  501  0.00000000000E+00  0.00000000000E+00  0.13232961636E+03  0.13232961645E+03  0.50400001928E-02 0.  1.
        1   -1    0    0  501    0  0.00000000000E+00  0.00000000000E+00 -0.92511997275E+03  0.92511997276E+03  0.50400001928E-02 0. -1.
    10030    2    1    2    0    0  0.00000000000E+00  0.00000000000E+00 -0.79279035639E+03  0.10574495892E+04  0.69977359521E+03 0.  0.
        2    1    3    3  502    0  0.32620983585E+03 -0.28277194615E+02 -0.21003948601E+03  0.38901033717E+03  0.25500000920E-02 0.  1.
       -2    1    3    3    0  502 -0.32620983585E+03  0.28277194615E+02 -0.58275087038E+03  0.66843925204E+03  0.25500000920E-02 0. -1.
</event>
<event>
 5   0  0.1224048E-03  0.7000805E+03  0.7818609E-02  0.9717094E-01
        2   -1    0    0  501    0  0.00000000000E+00  0.00000000000E+00  0.13003463647E+04  0.13003463647E+04  0.25500000920E-02 0.  1.
       -2   -1    0    0    0  501  0.00000000000E+00  0.00000000000E+00 -0.94227345062E+02  0.94227345096E+02  0.25500000920E-02 0. -1.
    10030    2    1    2    0    0  0.00000000000E+00  0.00000000000E+00  0.12061190197E+04  0.13945737098E+04  0.70008052576E+03 0.  0.
        3    1    3    3  502    0 -0.61878614739E+02 -0.22450589579E+03  0.11236450647E+04  0.11475234646E+04  0.10100000352E+00 0.  1.
       -3    1    3    3    0  502  0.61878614739E+02  0.22450589579E+03  0.82473954945E+02  0.24705024520E+03  0.10100000352E+00 0. -1.
</event>
<event>
 5   0  0.7459843E-04  0.7000277E+03  0.7818609E-02  0.9717185E-01
        1   -1    0    0  501    0  0.00000000000E+00  0.00000000000E+00  0.88745654537E+03  0.88745654538E+03  0.50400001928E-02 0. -1.
       -1   -1    0    0    0  501  0.00000000000E+00  0.00000000000E+00 -0.13804586267E+03  0.13804586276E+03  0.50400001928E-02 0.  1.
    10030    2    1    2    0    0  0.00000000000E+00  0.00000000000E+00  0.74941068270E+03  0.10255024081E+04  0.70002772643E+03 0.  0.
        2    1    3    3  502    0 -0.12385179300E+03  0.11108024094E+03 -0.76420830068E+02  0.18307984551E+03  0.25500000920E-02 0.  1.
       -2    1    3    3    0  502  0.12385179300E+03 -0.11108024094E+03  0.82583151277E+03  0.84242256264E+03  0.25500000920E-02 0. -1.
</event>
<event>
 5   0  0.1243087E-03  0.6999091E+03  0.7818609E-02  0.9717388E-01
       -2   -1    0    0    0  501  0.00000000000E+00  0.00000000000E+00  0.29615980075E+03  0.29615980076E+03  0.25500000920E-02 0.  1.
        2   -1    0    0  501    0  0.00000000000E+00  0.00000000000E+00 -0.41352066994E+03  0.41352066994E+03  0.25500000920E-02 0. -1.
    10030    2    1    2    0    0  0.00000000000E+00  0.00000000000E+00 -0.11736086919E+03  0.70968047070E+03  0.69990913473E+03 0.  0.
        4    1    3    3  502    0  0.18427009197E+02  0.31354873969E+03  0.97792550809E+02  0.32896407512E+03  0.12699999809E+01 0.  1.
       -4    1    3    3    0  502 -0.18427009197E+02 -0.31354873969E+03 -0.21515342000E+03  0.38071639558E+03  0.12699999809E+01 0. -1.
</event>
<event>
 5   0  0.7572415E-04  0.6996884E+03  0.7818609E-02  0.9717765E-01
        1   -1    0    0  501    0  0.00000000000E+00  0.00000000000E+00  0.73628002611E+03  0.73628002613E+03  0.50400001928E-02 0.  1.
       -1   -1    0    0    0  501  0.00000000000E+00  0.00000000000E+00 -0.16622880408E+03  0.16622880416E+03  0.50400001928E-02 0. -1.
    10030    2    1    2    0    0  0.00000000000E+00  0.00000000000E+00  0.57005122203E+03  0.90250883029E+03  0.69968835421E+03 0.  0.
        4    1    3    3  502    0 -0.28710671315E+03 -0.80137537508E+02  0.52124155915E+03  0.60045538180E+03  0.12699999809E+01 0.  1.
       -4    1    3    3    0  502  0.28710671315E+03  0.80137537508E+02  0.48809662877E+02  0.30205344848E+03  0.12699999809E+01 0. -1.
</event>
<event>
 5   0  0.7013526E-04  0.6998403E+03  0.7818609E-02  0.9717505E-01
       -1   -1    0    0    0  501  0.00000000000E+00  0.00000000000E+00  0.28938270363E+03  0.28938270368E+03  0.50400001928E-02 0.  1.
        1   -1    0    0  501    0  0.00000000000E+00  0.00000000000E+00 -0.42312178600E+03  0.42312178603E+03  0.50400001928E-02 0. -1.
    10030    2    1    2    0    0  0.00000000000E+00  0.00000000000E+00 -0.13373908236E+03  0.71250448971E+03  0.69984034301E+03 0.  0.
        1    1    3    3  502    0  0.55645769292E+02 -0.18059975097E+03  0.23296165767E+03  0.29997309156E+03  0.50400001928E-02 0.  1.
       -1    1    3    3    0  502 -0.55645769292E+02  0.18059975097E+03 -0.36670074003E+03  0.41253139814E+03  0.50400001928E-02 0. -1.
</event>
<event>
 5   0  0.7570633E-04  0.7014374E+03  0.7818609E-02  0.9714777E-01
        1   -1    0    0  501    0  0.00000000000E+00  0.00000000000E+00  0.75006863127E+03  0.75006863128E+03  0.50400001928E-02 0.  1.
       -1   -1    0    0    0  501  0.00000000000E+00  0.00000000000E+00 -0.16398979067E+03  0.16398979075E+03  0.50400001928E-02 0. -1.
    10030    2    1    2    0    0  0.00000000000E+00  0.00000000000E+00  0.58607884060E+03  0.91405842203E+03  0.70143737532E+03 0.  0.
        5    1    3    3  502    0  0.89404575541E+02 -0.10458136046E+03  0.71338678039E+03  0.72654884730E+03  0.46999998093E+01 0.  1.
       -5    1    3    3    0  502 -0.89404575541E+02  0.10458136046E+03 -0.12730793979E+03  0.18750957473E+03  0.46999998093E+01 0. -1.
</event>
<event>
 5   0  0.7574241E-04  0.6998960E+03  0.7818609E-02  0.9717410E-01
        1   -1    0    0  501    0  0.00000000000E+00  0.00000000000E+00  0.53164850505E+03  0.53164850507E+03  0.50400001928E-02 0. -1.
       -1   -1    0    0    0  501  0.00000000000E+00  0.00000000000E+00 -0.23034695528E+03  0.23034695533E+03  0.50400001928E-02 0.  1.
    10030    2    1    2    0    0  0.00000000000E+00  0.00000000000E+00  0.30130154977E+03  0.76199546040E+03  0.69989603355E+03 0.  0.
        3    1    3    3  502    0 -0.34554245021E+03 -0.34309468156E+02  0.19794313222E+03  0.39969765861E+03  0.10100000352E+00 0. -1.
       -3    1    3    3    0  502  0.34554245021E+03  0.34309468156E+02  0.10335841755E+03  0.36229780179E+03  0.10100000352E+00 0.  1.
</event>
<event>
 5   0  0.1222679E-03  0.6993776E+03  0.7818609E-02  0.9718297E-01
        2   -1    0    0  501    0  0.00000000000E+00  0.00000000000E+00  0.63477067159E+03  0.63477067160E+03  0.25500000920E-02 0.  1.
       -2   -1    0    0    0  501  0.00000000000E+00  0.00000000000E+00 -0.19264007362E+03  0.19264007363E+03  0.25500000920E-02 0. -1.
    10030    2    1    2    0    0  0.00000000000E+00  0.00000000000E+00  0.44213059798E+03  0.82741074523E+03  0.69937763452E+03 0.  0.
        2    1    3    3  502    0  0.10381261598E+03  0.30772670528E+03  0.67678983725E+02  0.33174271540E+03  0.25500000920E-02 0. -1.
       -2    1    3    3    0  502 -0.10381261598E+03 -0.30772670528E+03  0.37445161425E+03  0.49566802983E+03  0.25500000920E-02 0.  1.
</event>
<event>
 5   0  0.7572415E-04  0.7001653E+03  0.7818609E-02  0.9716950E-01
       -1   -1    0    0    0  501  0.00000000000E+00  0.00000000000E+00  0.94551574446E+03  0.94551574448E+03  0.50400001928E-02 0. -1.
        1   -1    0    0  501    0  0.00000000000E+00  0.00000000000E+00 -0.12962011915E+03  0.12962011925E+03  0.50400001928E-02 0.  1.
    10030    2    1    2    0    0  0.00000000000E+00  0.00000000000E+00  0.81589562532E+03  0.10751358637E+04  0.70016530481E+03 0.  0.
        4    1    3    3  502    0 -0.13777008867E+02  0.34583761217E+02  0.94246422884E+03  0.94320002018E+03  0.12699999809E+01 0. -1.
       -4    1    3    3    0  502  0.13777008867E+02 -0.34583761217E+02 -0.12656860353E+03  0.13193584355E+03  0.12699999809E+01 0.  1.
</event>
<event>
 5   0  0.1224048E-03  0.7000544E+03  0.7818609E-02  0.9717139E-01
        2   -1    0    0  501    0  0.00000000000E+00  0.00000000000E+00  0.93626248605E+03  0.93626248606E+03  0.25500000920E-02 0.  1.
       -2   -1    0    0    0  501  0.00000000000E+00  0.00000000000E+00 -0.13085973105E+03  0.13085973107E+03  0.25500000920E-02 0. -1.
    10030    2    1    2    0    0  0.00000000000E+00  0.00000000000E+00  0.80540275501E+03  0.10671222171E+04  0.70005444682E+03 0.  0.
        3    1    3    3  502    0 -0.21983487468E+03 -0.26706291797E+03  0.32105195529E+03  0.47193679924E+03  0.10100000352E+00 0. -1.
       -3    1    3    3    0  502  0.21983487468E+03  0.26706291797E+03  0.48435079972E+03  0.59518541789E+03  0.10100000352E+00 0.  1.
</event>
<event>
 5   0  0.4936000E-04  0.7000741E+03  0.7818609E-02  0.9717105E-01
       -3   -1    0    0    0  501  0.00000000000E+00  0.00000000000E+00  0.10657246956E+03  0.10657251742E+03  0.10100000352E+00 0. -1.
        3   -1    0    0  501    0  0.00000000000E+00  0.00000000000E+00 -0.11496957306E+04  0.11496957350E+04  0.10100000352E+00 0.  1.
    10030    2    1    2    0    0  0.00000000000E+00  0.00000000000E+00 -0.10431232610E+04  0.12562682525E+04  0.70007412781E+03 0.  0.
        4    1    3    3  502    0  0.99022257776E+02 -0.31389794424E+03 -0.73530061277E+03  0.80560904350E+03  0.12699999809E+01 0.  1.
       -4    1    3    3    0  502 -0.99022257776E+02  0.31389794424E+03 -0.30782264827E+03  0.45065920896E+03  0.12699999809E+01 0. -1.
</event>
<event>
 5   0  0.1243087E-03  0.6996835E+03  0.7818609E-02  0.9717774E-01
        2   -1    0    0  501    0  0.00000000000E+00  0.00000000000E+00  0.58305632944E+03  0.58305632945E+03  0.25500000920E-02 0.  1.
       -2   -1    0    0    0  501  0.00000000000E+00  0.00000000000E+00 -0.20990982113E+03  0.20990982115E+03  0.25500000920E-02 0. -1.
    10030    2    1    2    0    0  0.00000000000E+00  0.00000000000E+00  0.37314650831E+03  0.79296615059E+03  0.69968349939E+03 0.  0.
        4    1    3    3  502    0  0.41288799552E+02 -0.23874564578E+03  0.47257329748E+03  0.53106626962E+03  0.12699999809E+01 0.  1.
       -4    1    3    3    0  502 -0.41288799552E+02  0.23874564578E+03 -0.99426789167E+02  0.26189988097E+03  0.12699999809E+01 0. -1.
</event>
<event>
 5   0  0.7013526E-04  0.6999484E+03  0.7818609E-02  0.9717320E-01
       -1   -1    0    0    0  501  0.00000000000E+00  0.00000000000E+00  0.82910310856E+02  0.82910311009E+02  0.50400001928E-02 0. -1.
        1   -1    0    0  501    0  0.00000000000E+00  0.00000000000E+00 -0.14772823570E+04  0.14772823570E+04  0.50400001928E-02 0.  1.
    10030    2    1    2    0    0  0.00000000000E+00  0.00000000000E+00 -0.13943720462E+04  0.15601926681E+04  0.69994839687E+03 0.  0.
        1    1    3    3  502    0  0.52138769098E+02  0.58907525605E+02  0.62947223373E+02  0.10075167875E+03  0.50400001928E-02 0. -1.
       -1    1    3    3    0  502 -0.52138769098E+02 -0.58907525605E+02 -0.14573192696E+04  0.14594409893E+04  0.50400001928E-02 0.  1.
</event>
<event>
 5   0  0.1282546E-03  0.7024117E+03  0.7818609E-02  0.9713117E-01
       -2   -1    0    0    0  501  0.00000000000E+00  0.00000000000E+00  0.11865316368E+03  0.11865316370E+03  0.25500000920E-02 0.  1.
        2   -1    0    0  501    0  0.00000000000E+00  0.00000000000E+00 -0.10395469719E+04  0.10395469719E+04  0.25500000920E-02 0. -1.
    10030    2    1    2    0    0  0.00000000000E+00  0.00000000000E+00 -0.92089380820E+03  0.11582001356E+04  0.70241166568E+03 0.  0.
        5    1    3    3  502    0 -0.20870797429E+03 -0.15238239904E+03 -0.85253647087E+03  0.89085348865E+03  0.46999998093E+01 0. -1.
       -5    1    3    3    0  502  0.20870797429E+03  0.15238239904E+03 -0.68357337331E+02  0.26734664694E+03  0.46999998093E+01 0.  1.
</event>
<event>
 5   0  0.4936000E-04  0.6998410E+03  0.7818609E-02  0.9717504E-01
       -3   -1    0    0    0  501  0.00000000000E+00  0.00000000000E+00  0.17633370710E+03  0.17633373602E+03  0.10100000352E+00 0. -1.
        3   -1    0    0  501    0  0.00000000000E+00  0.00000000000E+00 -0.69438987391E+03  0.69438988125E+03  0.10100000352E+00 0.  1.
    10030    2    1    2    0    0  0.00000000000E+00  0.00000000000E+00 -0.51805616681E+03  0.87072361727E+03  0.69984100031E+03 0.  0.
        2    1    3    3  502    0 -0.24920087378E+02 -0.34868968320E+03 -0.27825652173E+03  0.44680219093E+03  0.25500000920E-02 0.  1.
       -2    1    3    3    0  502  0.24920087378E+02  0.34868968320E+03 -0.23979964508E+03  0.42392142635E+03  0.25500000920E-02 0. -1.
</event>
<event>
 5   0  0.1265562E-03  0.7008283E+03  0.7818609E-02  0.9715817E-01
       -2   -1    0    0    0  501  0.00000000000E+00  0.00000000000E+00  0.15669636214E+03  0.15669636217E+03  0.25500000920E-02 0. -1.
        2   -1    0    0  501    0  0.00000000000E+00  0.00000000000E+00 -0.78361791213E+03  0.78361791214E+03  0.25500000920E-02 0.  1.
    10030    2    1    2    0    0  0.00000000000E+00  0.00000000000E+00 -0.62692154999E+03  0.94031427430E+03  0.70082829896E+03 0.  0.
        1    1    3    3  502    0 -0.72630303184E+02 -0.50230800257E+02 -0.76844338821E+03  0.77350083074E+03  0.50400001928E-02 0.  1.
       -1    1    3    3    0  502  0.72630303184E+02  0.50230800257E+02  0.14152183822E+03  0.16681344357E+03  0.50400001928E-02 0. -1.
</event>
<event>
 5   0  0.1224048E-03  0.7000251E+03  0.7818609E-02  0.9717189E-01
       -2   -1    0    0    0  501  0.00000000000E+00  0.00000000000E+00  0.23865127537E+03  0.23865127538E+03  0.25500000920E-02 0. -1.
        2   -1    0    0  501    0  0.00000000000E+00  0.00000000000E+00 -0.51333808207E+03  0.51333808208E+03  0.25500000920E-02 0.  1.
    10030    2    1    2    0    0  0.00000000000E+00  0.00000000000E+00 -0.27468680670E+03  0.75198935746E+03  0.70002510809E+03 0.  0.
        3    1    3    3  502    0 -0.14330121287E+03 -0.27214026838E+03  0.42131200528E+02  0.31043616340E+03  0.10100000352E+00 0. -1.
       -3    1    3    3    0  502  0.14330121287E+03  0.27214026838E+03 -0.31681800723E+03  0.44155319407E+03  0.10100000352E+00 0.  1.
</event>
<event>
 5   0  0.7013526E-04  0.6986209E+03  0.7818609E-02  0.9719594E-01
        1   -1    0    0  501    0  0.00000000000E+00  0.00000000000E+00  0.19790087698E+03  0.19790087704E+03  0.50400001928E-02 0. -1.
       -1   -1    0    0    0  501  0.00000000000E+00  0.00000000000E+00 -0.61656011522E+03  0.61656011524E+03  0.50400001928E-02 0.  1.
    10030    2    1    2    0    0  0.00000000000E+00  0.00000000000E+00 -0.41865923824E+03  0.81446099228E+03  0.69862089160E+03 0.  0.
        1    1    3    3  502    0 -0.18927297994E+03 -0.38125906676E+02  0.13003987509E+03  0.23278362235E+03  0.50400001928E-02 0.  1.
       -1    1    3    3    0  502  0.18927297994E+03  0.38125906676E+02 -0.54869911333E+03  0.58167736993E+03  0.50400001928E-02 0. -1.
</event>
<event>
 5   0  0.4936000E-04  0.7047550E+03  0.7818609E-02  0.9709135E-01
       -4   -1    0    0    0  501  0.00000000000E+00  0.00000000000E+00  0.96162245666E+03  0.96162329530E+03  0.12699999809E+01 0.  1.
        4   -1    0    0  501    0  0.00000000000E+00  0.00000000000E+00 -0.12912139896E+03  0.12912764448E+03  0.12699999809E+01 0. -1.
    10030    2    1    2    0    0  0.00000000000E+00  0.00000000000E+00  0.83250105771E+03  0.10907509398E+04  0.70475499398E+03 0.  0.
        3    1    3    3  502    0  0.25745138984E+03  0.14489805269E+03  0.11897391042E+03  0.31848306920E+03  0.10100000352E+00 0. -1.
       -3    1    3    3    0  502 -0.25745138984E+03 -0.14489805269E+03  0.71352714729E+03  0.77226787058E+03  0.10100000352E+00 0.  1.
</event>
<event>
 5   0  0.1265562E-03  0.7000885E+03  0.7818609E-02  0.9717081E-01
       -2   -1    0    0    0  501  0.00000000000E+00  0.00000000000E+00  0.88884811343E+03  0.88884811344E+03  0.25500000920E-02 0. -1.
        2   -1    0    0  501    0  0.00000000000E+00  0.00000000000E+00 -0.13785365819E+03  0.13785365821E+03  0.25500000920E-02 0.  1.
    10030    2    1    2    0    0  0.00000000000E+00  0.00000000000E+00  0.75099445524E+03  0.10267017716E+04  0.70008846306E+03 0.  0.
        1    1    3    3  502    0  0.14585176755E+03 -0.31394186782E+03  0.29931194698E+03  0.45762416468E+03  0.50400001928E-02 0. -1.
       -1    1    3    3    0  502 -0.14585176755E+03  0.31394186782E+03  0.45168250826E+03  0.56907760697E+03  0.50400001928E-02 0.  1.
</event>
<event>
 5   0  0.1224048E-03  0.7005099E+03  0.7818609E-02  0.9716361E-01
       -2   -1    0    0    0  501  0.00000000000E+00  0.00000000000E+00  0.74458636553E+02  0.74458636597E+02  0.25500000920E-02 0. -1.
        2   -1    0    0  501    0  0.00000000000E+00  0.00000000000E+00 -0.16476064203E+04  0.16476064203E+04  0.25500000920E-02 0.  1.
    10030    2    1    2    0    0  0.00000000000E+00  0.00000000000E+00 -0.15731477837E+04  0.17220650569E+04  0.70050989335E+03 0.  0.
        3    1    3    3  502    0 -0.28914262029E+02 -0.14554145711E+03 -0.66286645952E+01  0.14853383345E+03  0.10100000352E+00 0. -1.
       -3    1    3    3    0  502  0.28914262029E+02  0.14554145711E+03 -0.15665191191E+04  0.15735312234E+04  0.10100000352E+00 0.  1.
</event>
<event>
 5   0  0.7570633E-04  0.7009932E+03  0.7818609E-02  0.9715535E-01
       -1   -1    0    0    0  501  0.00000000000E+00  0.00000000000E+00  0.32537278771E+03  0.32537278775E+03  0.50400001928E-02 0. -1.
        1   -1    0    0  501    0  0.00000000000E+00  0.00000000000E+00 -0.37756037828E+03  0.37756037831E+03  0.50400001928E-02 0.  1.
    10030    2    1    2    0    0  0.00000000000E+00  0.00000000000E+00 -0.52187590569E+02  0.70293316606E+03  0.70099321775E+03 0.  0.
        5    1    3    3  502    0  0.43905284296E+01 -0.34042030038E+03  0.57326120184E+02  0.34527327106E+03  0.46999998093E+01 0. -1.
       -5    1    3    3    0  502 -0.43905284296E+01  0.34042030038E+03 -0.10951371075E+03  0.35765989500E+03  0.46999998093E+01 0.  1.
</event>
<event>
 5   0  0.1224048E-03  0.7006267E+03  0.7818609E-02  0.9716161E-01
       -2   -1    0    0    0  501  0.00000000000E+00  0.00000000000E+00  0.15759779662E+03  0.15759779664E+03  0.25500000920E-02 0.  1.
        2   -1    0    0  501    0  0.00000000000E+00  0.00000000000E+00 -0.77868757125E+03  0.77868757126E+03  0.25500000920E-02 0. -1.
    10030    2    1    2    0    0  0.00000000000E+00  0.00000000000E+00 -0.62108977464E+03  0.93628536790E+03  0.70062670658E+03 0.  0.
        3    1    3    3  502    0  0.21938127626E+03 -0.20191222799E+03 -0.55631324201E+03  0.63117440191E+03  0.10100000352E+00 0. -1.
       -3    1    3    3    0  502 -0.21938127626E+03  0.20191222799E+03 -0.64776532622E+02  0.30511096599E+03  0.10100000352E+00 0.  1.
</event>
<event>
 5   0  0.7459843E-04  0.7003201E+03  0.7818609E-02  0.9716685E-01
        1   -1    0    0  501    0  0.00000000000E+00  0.00000000000E+00  0.43172708981E+03  0.43172708984E+03  0.50400001928E-02 0. -1.
       -1   -1    0    0    0  501  0.00000000000E+00  0.00000000000E+00 -0.28400361280E+03  0.28400361284E+03  0.50400001928E-02 0.  1.
    10030    2    1    2    0    0  0.00000000000E+00  0.00000000000E+00  0.14772347701E+03  0.71573070268E+03  0.70032007903E+03 0.  0.
        2    1    3    3  502    0 -0.13322585860E+03 -0.13466568061E+03 -0.22711499957E+03  0.29574515714E+03  0.25500000920E-02 0.  1.
       -2    1    3    3    0  502  0.13322585860E+03  0.13466568061E+03  0.37483847658E+03  0.41998554554E+03  0.25500000920E-02 0. -1.
</event>
<event>
 5   0  0.7572415E-04  0.6998943E+03  0.7818609E-02  0.9717413E-01
       -1   -1    0    0    0  501  0.00000000000E+00  0.00000000000E+00  0.33009243555E+03  0.33009243559E+03  0.50400001928E-02 0.  1.
        1   -1    0    0  501    0  0.00000000000E+00  0.00000000000E+00 -0.37099607727E+03  0.37099607730E+03  0.50400001928E-02 0. -1.
    10030    2    1    2    0    0  0.00000000000E+00  0.00000000000E+00 -0.40903641718E+02  0.70108851289E+03  0.69989427416E+03 0.  0.
        4    1    3    3  502    0  0.18478663668E+03  0.24650726492E+03 -0.18671531441E+03  0.36024457566E+03  0.12699999809E+01 0. -1.
       -4    1    3    3    0  502 -0.18478663668E+03 -0.24650726492E+03  0.14581167269E+03  0.34084393723E+03  0.12699999809E+01 0.  1.
</event>
<event>
 5   0  0.1224048E-03  0.6995347E+03  0.7818609E-02  0.9718028E-01
        2   -1    0    0  501    0  0.00000000000E+00  0.00000000000E+00  0.77142243210E+03  0.77142243211E+03  0.25500000920E-02 0.  1.
       -2   -1    0    0    0  501  0.00000000000E+00  0.00000000000E+00 -0.15858653434E+03  0.15858653436E+03  0.25500000920E-02 0. -1.
    10030    2    1    2    0    0  0.00000000000E+00  0.00000000000E+00  0.61283589777E+03  0.93000896646E+03  0.69953473117E+03 0.  0.
        3    1    3    3  502    0 -0.34921395030E+03  0.57512983242E+01  0.33142252610E+03  0.48148142386E+03  0.10100000352E+00 0.  1.
       -3    1    3    3    0  502  0.34921395030E+03 -0.57512983242E+01  0.28141337167E+03  0.44852754260E+03  0.10100000352E+00 0. -1.
</event>
<event>
 5   0  0.7574241E-04  0.6996673E+03  0.7818609E-02  0.9717801E-01
       -1   -1    0    0    0  501  0.00000000000E+00  0.00000000000E+00  0.14517519896E+03  0.14517519905E+03  0.50400001928E-02 0.  1.
        1   -1    0    0  501    0  0.00000000000E+00  0.00000000000E+00 -0.84300621544E+03  0.84300621546E+03  0.50400001928E-02 0. -1.
    10030    2    1    2    0    0  0.00000000000E+00  0.00000000000E+00 -0.69783101649E+03  0.98818141450E+03  0.69966733553E+03 0.  0.
        3    1    3    3  502    0  0.30396054185E+02 -0.74595329591E+02  0.13189927277E+03  0.15455035317E+03  0.10100000352E+00 0.  1.
       -3    1    3    3    0  502 -0.30396054185E+02  0.74595329591E+02 -0.82973028926E+03  0.83363106133E+03  0.10100000352E+00 0. -1.
</event>
<event>
 5   0  0.7013526E-04  0.7003780E+03  0.7818609E-02  0.9716586E-01
       -1   -1    0    0    0  501  0.00000000000E+00  0.00000000000E+00  0.14804687337E+03  0.14804687345E+03  0.50400001928E-02 0. -1.
        1   -1    0    0  501    0  0.00000000000E+00  0.00000000000E+00 -0.82833441369E+03  0.82833441371E+03  0.50400001928E-02 0.  1.
    10030    2    1    2    0    0  0.00000000000E+00  0.00000000000E+00 -0.68028754032E+03  0.97638128716E+03  0.70037795539E+03 0.  0.
        1    1    3    3  502    0  0.15752822399E+03 -0.24060174451E+02  0.94572233277E+02  0.18530499367E+03  0.50400001928E-02 0. -1.
       -1    1    3    3    0  502 -0.15752822399E+03  0.24060174451E+02 -0.77485977360E+03  0.79107629349E+03  0.50400001928E-02 0.  1.
</event>
<event>
 5   0  0.7572415E-04  0.7000668E+03  0.7818609E-02  0.9717118E-01
        1   -1    0    0  501    0  0.00000000000E+00  0.00000000000E+00  0.85249314846E+03  0.85249314847E+03  0.50400001928E-02 0.  1.
       -1   -1    0    0    0  501  0.00000000000E+00  0.00000000000E+00 -0.14372360200E+03  0.14372360209E+03  0.50400001928E-02 0. -1.
    10030    2    1    2    0    0  0.00000000000E+00  0.00000000000E+00  0.70876954645E+03  0.99621675056E+03  0.70006681404E+03 0.  0.
        4    1    3    3  502    0 -0.29008665717E+03 -0.16308512648E+03  0.19996954688E+03  0.38824793589E+03  0.12699999809E+01 0.  1.
       -4    1    3    3    0  502  0.29008665717E+03  0.16308512648E+03  0.50879999957E+03  0.60796881467E+03  0.12699999809E+01 0. -1.
</event>
<event>
 5   0  0.1222679E-03  0.6997531E+03  0.7818609E-02  0.9717654E-01
        2   -1    0    0  501    0  0.00000000000E+00  0.00000000000E+00  0.78621446808E+03  0.78621446808E+03  0.25500000920E-02 0. -1.
       -2   -1    0    0    0  501  0.00000000000E+00  0.00000000000E+00 -0.15570002135E+03  0.15570002137E+03  0.25500000920E-02 0.  1.
    10030    2    1    2    0    0  0.00000000000E+00  0.00000000000E+00  0.63051444673E+03  0.94191448945E+03  0.69975312639E+03 0.  0.
        2    1    3    3  502    0 -0.16502306934E+02 -0.24106796896E+03  0.65586139481E+03  0.69895655158E+03  0.25500000920E-02 0. -1.
       -2    1    3    3    0  502  0.16502306934E+02  0.24106796896E+03 -0.25346948074E+02  0.24295793787E+03  0.25500000920E-02 0.  1.
</event>
<event>
 5   0  0.1222679E-03  0.6997487E+03  0.7818609E-02  0.9717662E-01
        2   -1    0    0  501    0  0.00000000000E+00  0.00000000000E+00  0.87706296219E+03  0.87706296219E+03  0.25500000920E-02 0.  1.
       -2   -1    0    0    0  501  0.00000000000E+00  0.00000000000E+00 -0.13957041705E+03  0.13957041708E+03  0.25500000920E-02 0. -1.
    10030    2    1    2    0    0  0.00000000000E+00  0.00000000000E+00  0.73749254513E+03  0.10166333793E+04  0.69974865038E+03 0.  0.
        2    1    3    3  502    0  0.58118219584E+02 -0.71709673828E+02  0.85905427188E+03  0.86399898542E+03  0.25500000920E-02 0.  1.
       -2    1    3    3    0  502 -0.58118219584E+02  0.71709673828E+02 -0.12156172675E+03  0.15263439384E+03  0.25500000920E-02 0. -1.
</event>
<event>
 5   0  0.1222679E-03  0.6997446E+03  0.7818609E-02  0.9717669E-01
        2   -1    0    0  501    0  0.00000000000E+00  0.00000000000E+00  0.18224345708E+03  0.18224345710E+03  0.25500000920E-02 0. -1.
       -2   -1    0    0    0  501  0.00000000000E+00  0.00000000000E+00 -0.67168729877E+03  0.67168729878E+03  0.25500000920E-02 0.  1.
    10030    2    1    2    0    0  0.00000000000E+00  0.00000000000E+00 -0.48944384169E+03  0.85393075588E+03  0.69974456887E+03 0.  0.
        2    1    3    3  502    0 -0.17963061444E+03 -0.81696003508E+02 -0.59729268669E+03  0.62904685693E+03  0.25500000920E-02 0.  1.
       -2    1    3    3    0  502  0.17963061444E+03  0.81696003508E+02  0.10784884500E+03  0.22488389895E+03  0.25500000920E-02 0. -1.
</event>
<event>
 5   0  0.4936000E-04  0.7002580E+03  0.7818609E-02  0.9716791E-01
        4   -1    0    0  501    0  0.00000000000E+00  0.00000000000E+00  0.29315126178E+03  0.29315401273E+03  0.12699999809E+01 0.  1.
       -4   -1    0    0    0  501  0.00000000000E+00  0.00000000000E+00 -0.41817543095E+03  0.41817735944E+03  0.12699999809E+01 0. -1.
    10030    2    1    2    0    0  0.00000000000E+00  0.00000000000E+00 -0.12502416918E+03  0.71133137218E+03  0.70025800828E+03 0.  0.
        5    1    3    3  502    0 -0.19752256072E+02  0.31501089867E+03 -0.21638754886E+03  0.38271096039E+03  0.46999998093E+01 0. -1.
       -5    1    3    3    0  502  0.19752256072E+02 -0.31501089867E+03  0.91363379688E+02  0.32862041179E+03  0.46999998093E+01 0.  1.
</event>
<event>
 5   0  0.7572415E-04  0.7002779E+03  0.7818609E-02  0.9716757E-01
        1   -1    0    0  501    0  0.00000000000E+00  0.00000000000E+00  0.52450701130E+03  0.52450701132E+03  0.50400001928E-02 0.  1.
       -1   -1    0    0    0  501  0.00000000000E+00  0.00000000000E+00 -0.23373810158E+03  0.23373810163E+03  0.50400001928E-02 0. -1.
    10030    2    1    2    0    0  0.00000000000E+00  0.00000000000E+00  0.29076890972E+03  0.75824511296E+03  0.70027786803E+03 0.  0.
        4    1    3    3  502    0  0.20549239949E+03 -0.47825682937E+01  0.45230109341E+03  0.49681776459E+03  0.12699999809E+01 0.  1.
       -4    1    3    3    0  502 -0.20549239949E+03  0.47825682937E+01 -0.16153218369E+03  0.26142734837E+03  0.12699999809E+01 0. -1.
</event>
<event>
 5   0  0.7574241E-04  0.7000807E+03  0.7818609E-02  0.9717094E-01
        1   -1    0    0  501    0  0.00000000000E+00  0.00000000000E+00  0.26757132154E+03  0.26757132159E+03  0.50400001928E-02 0. -1.
       -1   -1    0    0    0  501  0.00000000000E+00  0.00000000000E+00 -0.45792737465E+03  0.45792737468E+03  0.50400001928E-02 0.  1.
    10030    2    1    2    0    0  0.00000000000E+00  0.00000000000E+00 -0.19035605311E+03  0.72549869627E+03  0.70008066059E+03 0.  0.
        3    1    3    3  502    0  0.69067962999E+02  0.34178363770E+03 -0.63375308666E+02  0.35440496394E+03  0.10100000352E+00 0.  1.
       -3    1    3    3    0  502 -0.69067962999E+02 -0.34178363770E+03 -0.12698074445E+03  0.37109373233E+03  0.10100000352E+00 0. -1.
</event>
<event>
 5   0  0.1282546E-03  0.7008334E+03  0.7818609E-02  0.9715808E-01
        2   -1    0    0  501    0  0.00000000000E+00  0.00000000000E+00  0.15360774991E+04  0.15360774991E+04  0.25500000920E-02 0. -1.
       -2   -1    0    0    0  501  0.00000000000E+00  0.00000000000E+00 -0.79938581910E+02  0.79938581950E+02  0.25500000920E-02 0.  1.
    10030    2    1    2    0    0  0.00000000000E+00  0.00000000000E+00  0.14561389172E+04  0.16160160811E+04  0.70083338111E+03 0.  0.
        5    1    3    3  502    0  0.30159688206E+03 -0.13946059518E+03  0.98442171836E+03  0.10389986268E+04  0.46999998093E+01 0. -1.
       -5    1    3    3    0  502 -0.30159688206E+03  0.13946059518E+03  0.47171719887E+03  0.57701745431E+03  0.46999998093E+01 0.  1.
</event>
<event>
 5   0  0.7572415E-04  0.6998982E+03  0.7818609E-02  0.9717406E-01
        1   -1    0    0  501    0  0.00000000000E+00  0.00000000000E+00  0.58158735695E+03  0.58158735697E+03  0.50400001928E-02 0.  1.
       -1   -1    0    0    0  501  0.00000000000E+00  0.00000000000E+00 -0.21056919796E+03  0.21056919802E+03  0.50400001928E-02 0. -1.
    10030    2    1    2    0    0  0.00000000000E+00  0.00000000000E+00  0.37101815899E+03  0.79215655499E+03  0.69989823068E+03 0.  0.
        4    1    3    3  502    0  0.20679121724E+02  0.82475408191E+02 -0.19869720762E+03  0.21612961909E+03  0.12699999809E+01 0. -1.
       -4    1    3    3    0  502 -0.20679121724E+02 -0.82475408191E+02  0.56971536661E+03  0.57602693590E+03  0.12699999809E+01 0.  1.
</event>
<event>
 5   0  0.1282546E-03  0.7007604E+03  0.7818609E-02  0.9715933E-01
        2   -1    0    0  501    0  0.00000000000E+00  0.00000000000E+00  0.61354431012E+03  0.61354431012E+03  0.25500000920E-02 0.  1.
       -2   -1    0    0    0  501  0.00000000000E+00  0.00000000000E+00 -0.20009361082E+03  0.20009361084E+03  0.25500000920E-02 0. -1.
    10030    2    1    2    0    0  0.00000000000E+00  0.00000000000E+00  0.41345069930E+03  0.81363792096E+03  0.70076043387E+03 0.  0.
        5    1    3    3  502    0 -0.32552051381E+02 -0.10771459878E+03  0.59195528844E+03  0.60257383311E+03  0.46999998093E+01 0.  1.
       -5    1    3    3    0  502  0.32552051381E+02  0.10771459878E+03 -0.17850458914E+03  0.21106408785E+03  0.46999998093E+01 0. -1.
</event>
<event>
 5   0  0.7572415E-04  0.6999723E+03  0.7818609E-02  0.9717279E-01
        1   -1    0    0  501    0  0.00000000000E+00  0.00000000000E+00  0.90632138865E+03  0.90632138867E+03  0.50400001928E-02 0. -1.
       -1   -1    0    0    0  501  0.00000000000E+00  0.00000000000E+00 -0.13515108638E+03  0.13515108647E+03  0.50400001928E-02 0.  1.
    10030    2    1    2    0    0  0.00000000000E+00  0.00000000000E+00  0.77117030227E+03  0.10414724751E+04  0.69997234328E+03 0.  0.
        4    1    3    3  502    0  0.43055520724E+02 -0.13714373464E+03  0.86037057617E+03  0.87229657975E+03  0.12699999809E+01 0. -1.
       -4    1    3    3    0  502 -0.43055520724E+02  0.13714373464E+03 -0.89200273893E+02  0.16917589539E+03  0.12699999809E+01 0.  1.
</event>
<event>
 5   0  0.7570633E-04  0.6995442E+03  0.7818609E-02  0.9718012E-01
        1   -1    0    0  501    0  0.00000000000E+00  0.00000000000E+00  0.56216109642E+03  0.56216109644E+03  0.50400001928E-02 0. -1.
       -1   -1    0    0    0  501  0.00000000000E+00  0.00000000000E+00 -0.21762535673E+03  0.21762535679E+03  0.50400001928E-02 0.  1.
    10030    2    1    2    0    0  0.00000000000E+00  0.00000000000E+00  0.34453573969E+03  0.77978645323E+03  0.69954416353E+03 0.  0.
        5    1    3    3  502    0  0.12115285860E+03 -0.24583656983E+03 -0.69920654190E+02  0.28288623525E+03  0.46999998093E+01 0.  1.
       -5    1    3    3    0  502 -0.12115285860E+03  0.24583656983E+03  0.41445639388E+03  0.49690021799E+03  0.46999998093E+01 0. -1.
</event>
<event>
 5   0  0.7574241E-04  0.7000234E+03  0.7818609E-02  0.9717192E-01
        1   -1    0    0  501    0  0.00000000000E+00  0.00000000000E+00  0.81866338151E+03  0.81866338153E+03  0.50400001928E-02 0.  1.
       -1   -1    0    0    0  501  0.00000000000E+00  0.00000000000E+00 -0.14964414737E+03  0.14964414746E+03  0.50400001928E-02 0. -1.
    10030    2    1    2    0    0  0.00000000000E+00  0.00000000000E+00  0.66901923414E+03  0.96830752899E+03  0.70002338178E+03 0.  0.
        3    1    3    3  502    0 -0.26767474837E+03  0.40238919593E+02  0.64145167289E+03  0.69622496395E+03  0.10100000352E+00 0.  1.
       -3    1    3    3    0  502  0.26767474837E+03 -0.40238919593E+02  0.27567561246E+02  0.27208256504E+03  0.10100000352E+00 0. -1.
</event>
<event>
 5   0  0.7013526E-04  0.6997132E+03  0.7818609E-02  0.9717723E-01
        1   -1    0    0  501    0  0.00000000000E+00  0.00000000000E+00  0.75323848275E+03  0.75323848276E+03  0.50400001928E-02 0. -1.
       -1   -1    0    0    0  501  0.00000000000E+00  0.00000000000E+00 -0.16249787027E+03  0.16249787035E+03  0.50400001928E-02 0.  1.
    10030    2    1    2    0    0  0.00000000000E+00  0.00000000000E+00  0.59074061247E+03  0.91573635312E+03  0.69971322497E+03 0.  0.
        1    1    3    3  502    0 -0.19576919554E+03 -0.23885213591E+03  0.80229393141E+02  0.31908098706E+03  0.50400001928E-02 0.  1.
       -1    1    3    3    0  502  0.19576919554E+03  0.23885213591E+03  0.51051121933E+03  0.59665536606E+03  0.50400001928E-02 0. -1.
</event>
<event>
 5   0  0.1243087E-03  0.6973467E+03  0.7818609E-02  0.9721781E-01
        2   -1    0    0  501    0  0.00000000000E+00  0.00000000000E+00  0.57582607755E+03  0.57582607756E+03  0.25500000920E-02 0.  1.
       -2   -1    0    0    0  501  0.00000000000E+00  0.00000000000E+00 -0.21112815481E+03  0.21112815482E+03  0.25500000920E-02 0. -1.
    10030    2    1    2    0    0  0.00000000000E+00  0.00000000000E+00  0.36469792275E+03  0.78695423238E+03  0.69734667778E+03 0.  0.
        4    1    3    3  502    0 -0.42738558198E+02  0.25304806167E+03  0.44871169969E+03  0.51691750620E+03  0.12699999809E+01 0.  1.
       -4    1    3    3    0  502  0.42738558198E+02 -0.25304806167E+03 -0.84013776947E+02  0.27003672619E+03  0.12699999809E+01 0. -1.
</event>
<event>
 5   0  0.1222679E-03  0.6996616E+03  0.7818609E-02  0.9717811E-01
        2   -1    0    0  501    0  0.00000000000E+00  0.00000000000E+00  0.67006707767E+03  0.67006707768E+03  0.25500000920E-02 0.  1.
       -2   -1    0    0    0  501  0.00000000000E+00  0.00000000000E+00 -0.18264079422E+03  0.18264079424E+03  0.25500000920E-02 0. -1.
    10030    2    1    2    0    0  0.00000000000E+00  0.00000000000E+00  0.48742628345E+03  0.85270787192E+03  0.69966158465E+03 0.  0.
        2    1    3    3  502    0 -0.16038129729E+03 -0.18583071353E+03  0.54748688131E+03  0.59999758318E+03  0.25500000920E-02 0.  1.
       -2    1    3    3    0  502  0.16038129729E+03  0.18583071353E+03 -0.60060597858E+02  0.25271028874E+03  0.25500000920E-02 0. -1.
</event>
<event>
 5   0  0.7574241E-04  0.6999453E+03  0.7818609E-02  0.9717326E-01
        1   -1    0    0  501    0  0.00000000000E+00  0.00000000000E+00  0.46067557308E+03  0.46067557311E+03  0.50400001928E-02 0.  1.
       -1   -1    0    0    0  501  0.00000000000E+00  0.00000000000E+00 -0.26587223969E+03  0.26587223974E+03  0.50400001928E-02 0. -1.
    10030    2    1    2    0    0  0.00000000000E+00  0.00000000000E+00  0.19480333339E+03  0.72654781285E+03  0.69994527333E+03 0.  0.
        3    1    3    3  502    0  0.30652953721E+03  0.50811018491E+02 -0.69774506789E+02  0.31845032388E+03  0.10100000352E+00 0. -1.
       -3    1    3    3    0  502 -0.30652953721E+03 -0.50811018491E+02  0.26457784018E+03  0.40809748896E+03  0.10100000352E+00 0.  1.
</event>
<event>
 5   0  0.1224048E-03  0.7000261E+03  0.7818609E-02  0.9717188E-01
       -2   -1    0    0    0  501  0.00000000000E+00  0.00000000000E+00  0.37391976677E+03  0.37391976678E+03  0.25500000920E-02 0. -1.
        2   -1    0    0  501    0  0.00000000000E+00  0.00000000000E+00 -0.32763478760E+03  0.32763478761E+03  0.25500000920E-02 0.  1.
    10030    2    1    2    0    0  0.00000000000E+00  0.00000000000E+00  0.46284979174E+02  0.70155455439E+03  0.70002606629E+03 0.  0.
        3    1    3    3  502    0  0.19883612834E+03 -0.24493783629E+03 -0.12877597595E+03  0.34075447431E+03  0.10100000352E+00 0.  1.
       -3    1    3    3    0  502 -0.19883612834E+03  0.24493783629E+03  0.17506095513E+03  0.36080008008E+03  0.10100000352E+00 0. -1.
</event>
<event>
 5   0  0.7013526E-04  0.6997826E+03  0.7818609E-02  0.9717604E-01
        1   -1    0    0  501    0  0.00000000000E+00  0.00000000000E+00  0.62133385474E+03  0.62133385476E+03  0.50400001928E-02 0. -1.
       -1   -1    0    0    0  501  0.00000000000E+00  0.00000000000E+00 -0.19703406362E+03  0.19703406368E+03  0.50400001928E-02 0.  1.
    10030    2    1    2    0    0  0.00000000000E+00  0.00000000000E+00  0.42429979112E+03  0.81836791844E+03  0.69978263567E+03 0.  0.
        1    1    3    3  502    0 -0.13831157227E+03  0.31700842573E+03  0.15027339157E+03  0.37710280461E+03  0.50400001928E-02 0.  1.
       -1    1    3    3    0  502  0.13831157227E+03 -0.31700842573E+03  0.27402639955E+03  0.44126511383E+03  0.50400001928E-02 0. -1.
</event>
<event>
 5   0  0.7572415E-04  0.6998242E+03  0.7818609E-02  0.9717533E-01
        1   -1    0    0  501    0  0.00000000000E+00  0.00000000000E+00  0.41984101070E+03  0.41984101073E+03  0.50400001928E-02 0. -1.
       -1   -1    0    0    0  501  0.00000000000E+00  0.00000000000E+00 -0.29163059053E+03  0.29163059058E+03  0.50400001928E-02 0.  1.
    10030    2    1    2    0    0  0.00000000000E+00  0.00000000000E+00  0.12821042016E+03  0.71147160130E+03  0.69982421195E+03 0.  0.
        4    1    3    3  502    0 -0.14468490577E+03 -0.30047703208E+03 -0.43566388949E+02  0.33633288854E+03  0.12699999809E+01 0.  1.
       -4    1    3    3    0  502  0.14468490577E+03  0.30047703208E+03  0.17177680911E+03  0.37513871277E+03  0.12699999809E+01 0. -1.
</event>
<event>
 5   0  0.7570633E-04  0.6999927E+03  0.7818609E-02  0.9717245E-01
        1   -1    0    0  501    0  0.00000000000E+00  0.00000000000E+00  0.87998736791E+03  0.87998736792E+03  0.50400001928E-02 0. -1.
       -1   -1    0    0    0  501  0.00000000000E+00  0.00000000000E+00 -0.13920364324E+03  0.13920364334E+03  0.50400001928E-02 0.  1.
    10030    2    1    2    0    0  0.00000000000E+00  0.00000000000E+00  0.74078372466E+03  0.10191910113E+04  0.69999270761E+03 0.  0.
        5    1    3    3  502    0 -0.15873688131E+03  0.14830609066E+03 -0.29103082577E+02  0.21922858716E+03  0.46999998093E+01 0.  1.
       -5    1    3    3    0  502  0.15873688131E+03 -0.14830609066E+03  0.76988680724E+03  0.79996242410E+03  0.46999998093E+01 0. -1.
</event>
<event>
 5   0  0.1224048E-03  0.7004866E+03  0.7818609E-02  0.9716400E-01
        2   -1    0    0  501    0  0.00000000000E+00  0.00000000000E+00  0.39001921344E+03  0.39001921344E+03  0.25500000920E-02 0. -1.
       -2   -1    0    0    0  501  0.00000000000E+00  0.00000000000E+00 -0.31452391336E+03  0.31452391337E+03  0.25500000920E-02 0.  1.
    10030    2    1    2    0    0  0.00000000000E+00  0.00000000000E+00  0.75495300077E+02  0.70454312681E+03  0.70048660031E+03 0.  0.
        3    1    3    3  502    0  0.35670221068E+02  0.34403851050E+03 -0.17666758977E+02  0.34633363388E+03  0.10100000352E+00 0.  1.
       -3    1    3    3    0  502 -0.35670221068E+02 -0.34403851050E+03  0.93162059054E+02  0.35820949294E+03  0.10100000352E+00 0. -1.
</event>
<event>
 5   0  0.7013526E-04  0.6996506E+03  0.7818609E-02  0.9717830E-01
        1   -1    0    0  501    0  0.00000000000E+00  0.00000000000E+00  0.27933658856E+03  0.27933658860E+03  0.50400001928E-02 0.  1.
       -1   -1    0    0    0  501  0.00000000000E+00  0.00000000000E+00 -0.43810139465E+03  0.43810139467E+03  0.50400001928E-02 0. -1.
    10030    2    1    2    0    0  0.00000000000E+00  0.00000000000E+00 -0.15876480609E+03  0.71743798328E+03  0.69965062438E+03 0.  0.
        1    1    3    3  502    0  0.31646602574E+03 -0.10894754887E+03  0.24976438997E+02  0.33562499368E+03  0.50400001928E-02 0.  1.
       -1    1    3    3    0  502 -0.31646602574E+03  0.10894754887E+03 -0.18374124508E+03  0.38181298960E+03  0.50400001928E-02 0. -1.
</event>
<event>
 5   0  0.1265562E-03  0.6993211E+03  0.7818609E-02  0.9718394E-01
       -2   -1    0    0    0  501  0.00000000000E+00  0.00000000000E+00  0.46711168508E+02  0.46711168578E+02  0.25500000920E-02 0. -1.
        2   -1    0    0  501    0  0.00000000000E+00  0.00000000000E+00 -0.26174145348E+04  0.26174145348E+04  0.25500000920E-02 0.  1.
    10030    2    1    2    0    0  0.00000000000E+00  0.00000000000E+00 -0.25707033663E+04  0.26641257034E+04  0.69932107500E+03 0.  0.
        1    1    3    3  502    0  0.23634710424E+02 -0.31045648308E+03 -0.67915208859E+03  0.74712073113E+03  0.50400001928E-02 0. -1.
       -1    1    3    3    0  502 -0.23634710424E+02  0.31045648308E+03 -0.18915512777E+04  0.19170049722E+04  0.50400001928E-02 0.  1.
</event>
<event>
 5   0  0.7572415E-04  0.6998179E+03  0.7818609E-02  0.9717544E-01
       -1   -1    0    0    0  501  0.00000000000E+00  0.00000000000E+00  0.18465501615E+03  0.18465501622E+03  0.50400001928E-02 0.  1.
        1   -1    0    0  501    0  0.00000000000E+00  0.00000000000E+00 -0.66305416854E+03  0.66305416856E+03  0.50400001928E-02 0. -1.
    10030    2    1    2    0    0  0.00000000000E+00  0.00000000000E+00 -0.47839915238E+03  0.84770918478E+03  0.69981791414E+03 0.  0.
        4    1    3    3  502    0  0.14992555664E+03  0.22775846077E+03 -0.50481785381E+03  0.57375453585E+03  0.12699999809E+01 0. -1.
       -4    1    3    3    0  502 -0.14992555664E+03 -0.22775846077E+03  0.26418701428E+02  0.27395464893E+03  0.12699999809E+01 0.  1.
</event>
<event>
 5   0  0.7570633E-04  0.6997817E+03  0.7818609E-02  0.9717606E-01
        1   -1    0    0  501    0  0.00000000000E+00  0.00000000000E+00  0.25031952789E+03  0.25031952794E+03  0.50400001928E-02 0. -1.
       -1   -1    0    0    0  501  0.00000000000E+00  0.00000000000E+00 -0.48906937692E+03  0.48906937694E+03  0.50400001928E-02 0.  1.
    10030    2    1    2    0    0  0.00000000000E+00  0.00000000000E+00 -0.23874984902E+03  0.73938890489E+03  0.69978172473E+03 0.  0.
        5    1    3    3  502    0  0.21327989737E+02 -0.28303064892E+03  0.96751414879E+02  0.29990691498E+03  0.46999998093E+01 0.  1.
       -5    1    3    3    0  502 -0.21327989737E+02  0.28303064892E+03 -0.33550126390E+03  0.43948198991E+03  0.46999998093E+01 0. -1.
</event>
<event>
 5   0  0.4936000E-04  0.7000244E+03  0.7818609E-02  0.9717190E-01
        3   -1    0    0  501    0  0.00000000000E+00  0.00000000000E+00  0.29882032666E+03  0.29882034373E+03  0.10100000352E+00 0. -1.
       -3   -1    0    0    0  501  0.00000000000E+00  0.00000000000E+00 -0.40997387831E+03  0.40997389076E+03  0.10100000352E+00 0.  1.
    10030    2    1    2    0    0  0.00000000000E+00  0.00000000000E+00 -0.11115355165E+03  0.70879423448E+03  0.70002439585E+03 0.  0.
        1    1    3    3  502    0 -0.24410264520E+03 -0.90055718792E+02 -0.29263030699E+03  0.39157199909E+03  0.50400001928E-02 0.  1.
       -1    1    3    3    0  502  0.24410264520E+03  0.90055718792E+02  0.18147675533E+03  0.31722223539E+03  0.50400001928E-02 0. -1.
</event>
<event>
 5   0  0.7459843E-04  0.6998028E+03  0.7818609E-02  0.9717570E-01
        1   -1    0    0  501    0  0.00000000000E+00  0.00000000000E+00  0.75097608843E+03  0.75097608845E+03  0.50400001928E-02 0.  1.
       -1   -1    0    0    0  501  0.00000000000E+00  0.00000000000E+00 -0.16302913717E+03  0.16302913725E+03  0.50400001928E-02 0. -1.
    10030    2    1    2    0    0  0.00000000000E+00  0.00000000000E+00  0.58794695126E+03  0.91400522569E+03  0.69980278300E+03 0.  0.
        2    1    3    3  502    0  0.51678368762E+02  0.19873461425E+03 -0.76055558559E+02  0.21897613727E+03  0.25500000920E-02 0. -1.
       -2    1    3    3    0  502 -0.51678368762E+02 -0.19873461425E+03  0.66400250982E+03  0.69502908842E+03  0.25500000920E-02 0.  1.
</event>
<event>
 5   0  0.4936000E-04  0.6997137E+03  0.7818609E-02  0.9717722E-01
        3   -1    0    0  501    0  0.00000000000E+00  0.00000000000E+00  0.23675420906E+03  0.23675423060E+03  0.10100000352E+00 0.  1.
       -3   -1    0    0    0  501  0.00000000000E+00  0.00000000000E+00 -0.51699105590E+03  0.51699106576E+03  0.10100000352E+00 0. -1.
    10030    2    1    2    0    0  0.00000000000E+00  0.00000000000E+00 -0.28023684684E+03  0.75374529636E+03  0.69971371393E+03 0.  0.
        5    1    3    3  502    0 -0.63345972692E+02 -0.14268684812E+03  0.19711406908E+03  0.25149213728E+03  0.46999998093E+01 0.  1.
       -5    1    3    3    0  502  0.63345972692E+02  0.14268684812E+03 -0.47735091592E+03  0.50225315909E+03  0.46999998093E+01 0. -1.
</event>
<event>
 5   0  0.7459843E-04  0.6998293E+03  0.7818609E-02  0.9717524E-01
        1   -1    0    0  501    0  0.00000000000E+00  0.00000000000E+00  0.41996038158E+03  0.41996038161E+03  0.50400001928E-02 0.  1.
       -1   -1    0    0    0  501  0.00000000000E+00  0.00000000000E+00 -0.29155191644E+03  0.29155191649E+03  0.50400001928E-02 0. -1.
    10030    2    1    2    0    0  0.00000000000E+00  0.00000000000E+00  0.12840846514E+03  0.71151229810E+03  0.69982927663E+03 0.  0.
        2    1    3    3  502    0  0.11408059117E+03 -0.33025948816E+03  0.83347891324E+02  0.35921105467E+03  0.25500000920E-02 0. -1.
       -2    1    3    3    0  502 -0.11408059117E+03  0.33025948816E+03  0.45060573816E+02  0.35230124343E+03  0.25500000920E-02 0.  1.
</event>
<event>
 5   0  0.4936000E-04  0.7019923E+03  0.7818609E-02  0.9713831E-01
       -3   -1    0    0    0  501  0.00000000000E+00  0.00000000000E+00  0.47975407982E+03  0.47975409045E+03  0.10100000352E+00 0.  1.
        3   -1    0    0  501    0  0.00000000000E+00  0.00000000000E+00 -0.25679463719E+03  0.25679465705E+03  0.10100000352E+00 0. -1.
    10030    2    1    2    0    0  0.00000000000E+00  0.00000000000E+00  0.22295944263E+03  0.73654874750E+03  0.70199226804E+03 0.  0.
        3    1    3    3  502    0 -0.63741705457E+02 -0.19271177996E+03  0.41192771999E+03  0.45922248622E+03  0.10100000352E+00 0.  1.
       -3    1    3    3    0  502  0.63741705457E+02  0.19271177996E+03 -0.18896827736E+03  0.27732626128E+03  0.10100000352E+00 0. -1.
</event>
<event>
 5   0  0.7570633E-04  0.7003126E+03  0.7818609E-02  0.9716698E-01
       -1   -1    0    0    0  501  0.00000000000E+00  0.00000000000E+00  0.25623623504E+03  0.25623623509E+03  0.50400001928E-02 0.  1.
        1   -1    0    0  501    0  0.00000000000E+00  0.00000000000E+00 -0.47850152370E+03  0.47850152372E+03  0.50400001928E-02 0. -1.
    10030    2    1    2    0    0  0.00000000000E+00  0.00000000000E+00 -0.22226528866E+03  0.73473775881E+03  0.70031258427E+03 0.  0.
        5    1    3    3  502    0 -0.93747165166E+02  0.31935697826E+03  0.28828988863E+01  0.33287807324E+03  0.46999998093E+01 0.  1.
       -5    1    3    3    0  502  0.93747165166E+02 -0.31935697826E+03 -0.22514818754E+03  0.40185968558E+03  0.46999998093E+01 0. -1.
</event>
<event>
 5   0  0.1222679E-03  0.7000102E+03  0.7818609E-02  0.9717215E-01
       -2   -1    0    0    0  501  0.00000000000E+00  0.00000000000E+00  0.19712634480E+03  0.19712634481E+03  0.25500000920E-02 0.  1.
        2   -1    0    0  501    0  0.00000000000E+00  0.00000000000E+00 -0.62144702318E+03  0.62144702318E+03  0.25500000920E-02 0. -1.
    10030    2    1    2    0    0  0.00000000000E+00  0.00000000000E+00 -0.42432067838E+03  0.81857336800E+03  0.70001022899E+03 0.  0.
        2    1    3    3  502    0 -0.29035527266E+03 -0.11778317419E+03 -0.39453956229E+03  0.50382588927E+03  0.25500000920E-02 0. -1.
       -2    1    3    3    0  502  0.29035527266E+03  0.11778317419E+03 -0.29781116098E+02  0.31474747873E+03  0.25500000920E-02 0.  1.
</event>
<event>
 5   0  0.7572415E-04  0.7002846E+03  0.7818609E-02  0.9716746E-01
       -1   -1    0    0    0  501  0.00000000000E+00  0.00000000000E+00  0.20947485541E+03  0.20947485547E+03  0.50400001928E-02 0. -1.
        1   -1    0    0  501    0  0.00000000000E+00  0.00000000000E+00 -0.58527127401E+03  0.58527127403E+03  0.50400001928E-02 0.  1.
    10030    2    1    2    0    0  0.00000000000E+00  0.00000000000E+00 -0.37579641860E+03  0.79474612950E+03  0.70028455797E+03 0.  0.
        4    1    3    3  502    0 -0.38930009150E+02 -0.30227417587E+03  0.77273122015E+01  0.30487136183E+03  0.12699999809E+01 0. -1.
       -4    1    3    3    0  502  0.38930009150E+02  0.30227417587E+03 -0.38352373080E+03  0.48987476767E+03  0.12699999809E+01 0.  1.
</event>
<event>
 5   0  0.7013526E-04  0.7004751E+03  0.7818609E-02  0.9716420E-01
       -1   -1    0    0    0  501  0.00000000000E+00  0.00000000000E+00  0.35119037317E+03  0.35119037321E+03  0.50400001928E-02 0. -1.
        1   -1    0    0  501    0  0.00000000000E+00  0.00000000000E+00 -0.34928732936E+03  0.34928732939E+03  0.50400001928E-02 0.  1.
    10030    2    1    2    0    0  0.00000000000E+00  0.00000000000E+00  0.19030438131E+01  0.70047770260E+03  0.70047511752E+03 0.  0.
        1    1    3    3  502    0 -0.36313282224E+02  0.23986059930E+03  0.25356794456E+03  0.35092515455E+03  0.50400001928E-02 0. -1.
       -1    1    3    3    0  502  0.36313282224E+02 -0.23986059930E+03 -0.25166490074E+03  0.34955254806E+03  0.50400001928E-02 0.  1.
</event>
<event>
 5   0  0.7013526E-04  0.6999818E+03  0.7818609E-02  0.9717263E-01
       -1   -1    0    0    0  501  0.00000000000E+00  0.00000000000E+00  0.95450565035E+02  0.95450565168E+02  0.50400001928E-02 0. -1.
        1   -1    0    0  501    0  0.00000000000E+00  0.00000000000E+00 -0.12833201774E+04  0.12833201774E+04  0.50400001928E-02 0.  1.
    10030    2    1    2    0    0  0.00000000000E+00  0.00000000000E+00 -0.11878696124E+04  0.13787707426E+04  0.69998181735E+03 0.  0.
        1    1    3    3  502    0 -0.18494463442E+03 -0.33962113077E+02 -0.12496894985E+02  0.18845189130E+03  0.50400001928E-02 0. -1.
       -1    1    3    3    0  502  0.18494463442E+03  0.33962113077E+02 -0.11753727174E+04  0.11903188513E+04  0.50400001928E-02 0.  1.
</event>
<event>
 5   0  0.4936000E-04  0.6986466E+03  0.7818609E-02  0.9719549E-01
        3   -1    0    0  501    0  0.00000000000E+00  0.00000000000E+00  0.24318206757E+03  0.24318208855E+03  0.10100000352E+00 0.  1.
       -3   -1    0    0    0  501  0.00000000000E+00  0.00000000000E+00 -0.50179180531E+03  0.50179181547E+03  0.10100000352E+00 0. -1.
    10030    2    1    2    0    0  0.00000000000E+00  0.00000000000E+00 -0.25860973774E+03  0.74497390402E+03  0.69864663544E+03 0.  0.
        4    1    3    3  502    0 -0.77548005257E+01  0.22429613942E+03 -0.41474208290E+03  0.47157343365E+03  0.12699999809E+01 0. -1.
       -4    1    3    3    0  502  0.77548005257E+01 -0.22429613942E+03  0.15613234517E+03  0.27340047037E+03  0.12699999809E+01 0.  1.
</event>
<event>
 5   0  0.1243087E-03  0.7001694E+03  0.7818609E-02  0.9716942E-01
       -2   -1    0    0    0  501  0.00000000000E+00  0.00000000000E+00  0.20765457667E+03  0.20765457669E+03  0.25500000920E-02 0.  1.
        2   -1    0    0  501    0  0.00000000000E+00  0.00000000000E+00 -0.59020761893E+03  0.59020761893E+03  0.25500000920E-02 0. -1.
    10030    2    1    2    0    0  0.00000000000E+00  0.00000000000E+00 -0.38255304226E+03  0.79786219562E+03  0.70016944596E+03 0.  0.
        4    1    3    3  502    0  0.38364756094E+02  0.30459252710E+03 -0.38300597038E+03  0.49086011075E+03  0.12699999809E+01 0. -1.
       -4    1    3    3    0  502 -0.38364756094E+02 -0.30459252710E+03  0.45292812806E+00  0.30700208487E+03  0.12699999809E+01 0.  1.
</event>
<event>
 5   0  0.7013526E-04  0.6998154E+03  0.7818609E-02  0.9717548E-01
        1   -1    0    0  501    0  0.00000000000E+00  0.00000000000E+00  0.55336644079E+03  0.55336644081E+03  0.50400001928E-02 0.  1.
       -1   -1    0    0    0  501  0.00000000000E+00  0.00000000000E+00 -0.22125552270E+03  0.22125552275E+03  0.50400001928E-02 0. -1.
    10030    2    1    2    0    0  0.00000000000E+00  0.00000000000E+00  0.33211091809E+03  0.77462196357E+03  0.69981535031E+03 0.  0.
        1    1    3    3  502    0  0.16089167954E+03  0.21001942658E+03  0.41953458056E+03  0.49598745588E+03  0.50400001928E-02 0.  1.
       -1    1    3    3    0  502 -0.16089167954E+03 -0.21001942658E+03 -0.87423662466E+02  0.27863450768E+03  0.50400001928E-02 0. -1.
</event>
<event>
 5   0  0.1243087E-03  0.6996103E+03  0.7818609E-02  0.9717899E-01
       -2   -1    0    0    0  501  0.00000000000E+00  0.00000000000E+00  0.51511252245E+02  0.51511252308E+02  0.25500000920E-02 0.  1.
        2   -1    0    0  501    0  0.00000000000E+00  0.00000000000E+00 -0.23754743784E+04  0.23754743784E+04  0.25500000920E-02 0. -1.
    10030    2    1    2    0    0  0.00000000000E+00  0.00000000000E+00 -0.23239631261E+04  0.24269856307E+04  0.69961034865E+03 0.  0.
        4    1    3    3  502    0 -0.27032730038E+03  0.99023127116E+02 -0.18512643786E+04  0.18735164375E+04  0.12699999809E+01 0.  1.
       -4    1    3    3    0  502  0.27032730038E+03 -0.99023127116E+02 -0.47269874750E+03  0.55346919320E+03  0.12699999809E+01 0. -1.
</event>
<event>
 5   0  0.1224048E-03  0.7000027E+03  0.7818609E-02  0.9717228E-01
        2   -1    0    0  501    0  0.00000000000E+00  0.00000000000E+00  0.26215488697E+03  0.26215488699E+03  0.25500000920E-02 0. -1.
       -2   -1    0    0    0  501  0.00000000000E+00  0.00000000000E+00 -0.46728455236E+03  0.46728455237E+03  0.25500000920E-02 0.  1.
    10030    2    1    2    0    0  0.00000000000E+00  0.00000000000E+00 -0.20512966539E+03  0.72943943935E+03  0.70000265432E+03 0.  0.
        3    1    3    3  502    0 -0.15801094927E+03 -0.25119442671E+03  0.90804881232E+02  0.31034116188E+03  0.10100000352E+00 0. -1.
       -3    1    3    3    0  502  0.15801094927E+03  0.25119442671E+03 -0.29593454662E+03  0.41909827747E+03  0.10100000352E+00 0.  1.
</event>
<event>
 5   0  0.1265562E-03  0.6999532E+03  0.7818609E-02  0.9717312E-01
        2   -1    0    0  501    0  0.00000000000E+00  0.00000000000E+00  0.85577320896E+03  0.85577320897E+03  0.25500000920E-02 0. -1.
       -2   -1    0    0    0  501  0.00000000000E+00  0.00000000000E+00 -0.14312625257E+03  0.14312625259E+03  0.25500000920E-02 0.  1.
    10030    2    1    2    0    0  0.00000000000E+00  0.00000000000E+00  0.71264695639E+03  0.99889946156E+03  0.69995317690E+03 0.  0.
        1    1    3    3  502    0  0.31540886294E+02 -0.20422605681E+03  0.75941268923E+03  0.78702651949E+03  0.50400001928E-02 0. -1.
       -1    1    3    3    0  502 -0.31540886294E+02  0.20422605681E+03 -0.46765732834E+02  0.21187294207E+03  0.50400001928E-02 0.  1.
</event>
<event>
 5   0  0.1243087E-03  0.6997793E+03  0.7818609E-02  0.9717610E-01
       -2   -1    0    0    0  501  0.00000000000E+00  0.00000000000E+00  0.54061228682E+03  0.54061228682E+03  0.25500000920E-02 0.  1.
        2   -1    0    0  501    0  0.00000000000E+00  0.00000000000E+00 -0.22645204826E+03  0.22645204828E+03  0.25500000920E-02 0. -1.
    10030    2    1    2    0    0  0.00000000000E+00  0.00000000000E+00  0.31416023856E+03  0.76706433510E+03  0.69977927855E+03 0.  0.
        4    1    3    3  502    0  0.34903197257E+03 -0.22033947907E+02  0.16869798619E+03  0.38829040186E+03  0.12699999809E+01 0. -1.
       -4    1    3    3    0  502 -0.34903197257E+03  0.22033947907E+02  0.14546225237E+03  0.37877393324E+03  0.12699999809E+01 0.  1.
</event>
<event>
 5   0  0.7013526E-04  0.7000516E+03  0.7818609E-02  0.9717144E-01
        1   -1    0    0  501    0  0.00000000000E+00  0.00000000000E+00  0.94590943321E+03  0.94590943322E+03  0.50400001928E-02 0. -1.
       -1   -1    0    0    0  501  0.00000000000E+00  0.00000000000E+00 -0.12952409832E+03  0.12952409842E+03  0.50400001928E-02 0.  1.
    10030    2    1    2    0    0  0.00000000000E+00  0.00000000000E+00  0.81638533489E+03  0.10754335316E+04  0.70005161663E+03 0.  0.
        1    1    3    3  502    0  0.49595034461E+02 -0.25461231617E+03  0.76922395153E+03  0.81178358361E+03  0.50400001928E-02 0. -1.
       -1    1    3    3    0  502 -0.49595034461E+02  0.25461231617E+03  0.47161383358E+02  0.26364994802E+03  0.50400001928E-02 0.  1.
</event>
<event>
 5   0  0.1224048E-03  0.6998445E+03  0.7818609E-02  0.9717498E-01
       -2   -1    0    0    0  501  0.00000000000E+00  0.00000000000E+00  0.15010176025E+03  0.15010176027E+03  0.25500000920E-02 0. -1.
        2   -1    0    0  501    0  0.00000000000E+00  0.00000000000E+00 -0.81575045991E+03  0.81575045991E+03  0.25500000920E-02 0.  1.
    10030    2    1    2    0    0  0.00000000000E+00  0.00000000000E+00 -0.66564869966E+03  0.96585222018E+03  0.69984449692E+03 0.  0.
        3    1    3    3  502    0 -0.20632935671E+03 -0.24386223392E+03 -0.13568324446E+03  0.34705985882E+03  0.10100000352E+00 0. -1.
       -3    1    3    3    0  502  0.20632935671E+03  0.24386223392E+03 -0.52996545520E+03  0.61879236137E+03  0.10100000352E+00 0.  1.
</event>
<event>
 5   0  0.7013526E-04  0.7000332E+03  0.7818609E-02  0.9717175E-01
       -1   -1    0    0    0  501  0.00000000000E+00  0.00000000000E+00  0.36838670263E+03  0.36838670267E+03  0.50400001928E-02 0.  1.
        1   -1    0    0  501    0  0.00000000000E+00  0.00000000000E+00 -0.33256254960E+03  0.33256254964E+03  0.50400001928E-02 0. -1.
    10030    2    1    2    0    0  0.00000000000E+00  0.00000000000E+00  0.35824153035E+02  0.70094925230E+03  0.70003320233E+03 0.  0.
        1    1    3    3  502    0  0.17768351026E+02  0.16038147055E+03  0.32892066659E+03  0.36636967032E+03  0.50400001928E-02 0.  1.
       -1    1    3    3    0  502 -0.17768351026E+02 -0.16038147055E+03 -0.29309651356E+03  0.33457958198E+03  0.50400001928E-02 0. -1.
</event>
<event>
 5   0  0.1243087E-03  0.7000070E+03  0.7818609E-02  0.9717220E-01
        2   -1    0    0  501    0  0.00000000000E+00  0.00000000000E+00  0.21537024911E+04  0.21537024911E+04  0.25500000920E-02 0. -1.
       -2   -1    0    0    0  501  0.00000000000E+00  0.00000000000E+00 -0.56879935079E+02  0.56879935137E+02  0.25500000920E-02 0.  1.
    10030    2    1    2    0    0  0.00000000000E+00  0.00000000000E+00  0.20968225560E+04  0.22105824262E+04  0.70000702264E+03 0.  0.
        4    1    3    3  502    0  0.43285347701E+02  0.27558677479E+01 -0.48353033471E+02  0.64968029664E+02  0.12699999809E+01 0.  1.
       -4    1    3    3    0  502 -0.43285347701E+02 -0.27558677479E+01  0.21451755895E+04  0.21456143965E+04  0.12699999809E+01 0. -1.
</event>
<event>
 5   0  0.1222679E-03  0.7001498E+03  0.7818609E-02  0.9716976E-01
       -2   -1    0    0    0  501  0.00000000000E+00  0.00000000000E+00  0.13639112904E+03  0.13639112906E+03  0.25500000920E-02 0. -1.
        2   -1    0    0  501    0  0.00000000000E+00  0.00000000000E+00 -0.89853676516E+03  0.89853676517E+03  0.25500000920E-02 0.  1.
    10030    2    1    2    0    0  0.00000000000E+00  0.00000000000E+00 -0.76214563612E+03  0.10349278942E+04  0.70014982368E+03 0.  0.
        2    1    3    3  502    0 -0.66510573410E+02  0.31284611623E+03 -0.17069644080E+03  0.36253775490E+03  0.25500000920E-02 0.  1.
       -2    1    3    3    0  502  0.66510573410E+02 -0.31284611623E+03 -0.59144919532E+03  0.67239013933E+03  0.25500000920E-02 0. -1.
</event>
<event>
 5   0  0.1265562E-03  0.6998600E+03  0.7818609E-02  0.9717472E-01
        2   -1    0    0  501    0  0.00000000000E+00  0.00000000000E+00  0.44357135367E+03  0.44357135368E+03  0.25500000920E-02 0.  1.
       -2   -1    0    0    0  501  0.00000000000E+00  0.00000000000E+00 -0.27605707806E+03  0.27605707808E+03  0.25500000920E-02 0. -1.
    10030    2    1    2    0    0  0.00000000000E+00  0.00000000000E+00  0.16751427561E+03  0.71962843176E+03  0.69986001976E+03 0.  0.
        1    1    3    3  502    0 -0.18472686771E+03 -0.20801170811E+03 -0.13450765557E+03  0.30900678924E+03  0.50400001928E-02 0. -1.
       -1    1    3    3    0  502  0.18472686771E+03  0.20801170811E+03  0.30202193118E+03  0.41062164251E+03  0.50400001928E-02 0.  1.
</event>
<event>
 5   0  0.1224048E-03  0.6997567E+03  0.7818609E-02  0.9717648E-01
       -2   -1    0    0    0  501  0.00000000000E+00  0.00000000000E+00  0.22996953714E+03  0.22996953715E+03  0.25500000920E-02 0.  1.
        2   -1    0    0  501    0  0.00000000000E+00  0.00000000000E+00 -0.53230895263E+03  0.53230895264E+03  0.25500000920E-02 0. -1.
    10030    2    1    2    0    0  0.00000000000E+00  0.00000000000E+00 -0.30233941550E+03  0.76227848979E+03  0.69975665330E+03 0.  0.
        3    1    3    3  502    0 -0.27724009551E+03 -0.13000037811E+03  0.33225289812E+02  0.30800340737E+03  0.10100000352E+00 0. -1.
       -3    1    3    3    0  502  0.27724009551E+03  0.13000037811E+03 -0.33556470531E+03  0.45427508243E+03  0.10100000352E+00 0.  1.
</event>
<event>
 5   0  0.4936000E-04  0.7005361E+03  0.7818609E-02  0.9716316E-01
        3   -1    0    0  501    0  0.00000000000E+00  0.00000000000E+00  0.14799051171E+04  0.14799051205E+04  0.10100000352E+00 0. -1.
       -3   -1    0    0    0  501  0.00000000000E+00  0.00000000000E+00 -0.82902385735E+02  0.82902447259E+02  0.10100000352E+00 0.  1.
    10030    2    1    2    0    0  0.00000000000E+00  0.00000000000E+00  0.13970027314E+04  0.15628075678E+04  0.70053612508E+03 0.  0.
        4    1    3    3  502    0 -0.13456389514E+03 -0.28976264273E+03  0.10188183999E+04  0.10677370350E+04  0.12699999809E+01 0. -1.
       -4    1    3    3    0  502  0.13456389514E+03  0.28976264273E+03  0.37818433141E+03  0.49507053277E+03  0.12699999809E+01 0.  1.
</event>
<event>
 5   0  0.1222679E-03  0.7005449E+03  0.7818609E-02  0.9716301E-01
        2   -1    0    0  501    0  0.00000000000E+00  0.00000000000E+00  0.68564822999E+03  0.68564822999E+03  0.25500000920E-02 0. -1.
       -2   -1    0    0    0  501  0.00000000000E+00  0.00000000000E+00 -0.17894129798E+03  0.17894129800E+03  0.25500000920E-02 0.  1.
    10030    2    1    2    0    0  0.00000000000E+00  0.00000000000E+00  0.50670693201E+03  0.86458952799E+03  0.70054488576E+03 0.  0.
        2    1    3    3  502    0  0.14936934105E+03  0.10616392625E+03  0.62176592924E+03  0.64820895555E+03  0.25500000920E-02 0. -1.
       -2    1    3    3    0  502 -0.14936934105E+03 -0.10616392625E+03 -0.11505899723E+03  0.21638057244E+03  0.25500000920E-02 0.  1.
</event>
<event>
 5   0  0.7459843E-04  0.6994528E+03  0.7818609E-02  0.9718168E-01
        1   -1    0    0  501    0  0.00000000000E+00  0.00000000000E+00  0.99354678547E+03  0.99354678548E+03  0.50400001928E-02 0.  1.
       -1   -1    0    0    0  501  0.00000000000E+00  0.00000000000E+00 -0.12310296473E+03  0.12310296483E+03  0.50400001928E-02 0. -1.
    10030    2    1    2    0    0  0.00000000000E+00  0.00000000000E+00  0.87044382074E+03  0.11166497503E+04  0.69945280027E+03 0.  0.
        2    1    3    3  502    0  0.21604422621E+03  0.21907473714E+03  0.70063679572E+03  0.76521942451E+03  0.25500000920E-02 0.  1.
       -2    1    3    3    0  502 -0.21604422621E+03 -0.21907473714E+03  0.16980702503E+03  0.35143032580E+03  0.25500000920E-02 0. -1.
</event>
<event>
 5   0  0.7459843E-04  0.7001408E+03  0.7818609E-02  0.9716991E-01
       -1   -1    0    0    0  501  0.00000000000E+00  0.00000000000E+00  0.53623402727E+02  0.53623402963E+02  0.50400001928E-02 0.  1.
        1   -1    0    0  501    0  0.00000000000E+00  0.00000000000E+00 -0.22853693452E+04  0.22853693453E+04  0.50400001928E-02 0. -1.
    10030    2    1    2    0    0  0.00000000000E+00  0.00000000000E+00 -0.22317459425E+04  0.23389927482E+04  0.70014078888E+03 0.  0.
        2    1    3    3  502    0  0.18623193499E+02  0.28852725872E+03 -0.45651358314E+03  0.54036973820E+03  0.25500000920E-02 0.  1.
       -2    1    3    3    0  502 -0.18623193499E+02 -0.28852725872E+03 -0.17752323594E+04  0.17986230100E+04  0.25500000920E-02 0. -1.
</event>
<event>
 5   0  0.7572415E-04  0.7047237E+03  0.7818609E-02  0.9709188E-01
        1   -1    0    0  501    0  0.00000000000E+00  0.00000000000E+00  0.68336562838E+03  0.68336562840E+03  0.50400001928E-02 0. -1.
       -1   -1    0    0    0  501  0.00000000000E+00  0.00000000000E+00 -0.18168732808E+03  0.18168732815E+03  0.50400001928E-02 0.  1.
    10030    2    1    2    0    0  0.00000000000E+00  0.00000000000E+00  0.50167830030E+03  0.86505295654E+03  0.70472370517E+03 0.  0.
        4    1    3    3  502    0  0.15208293770E+03  0.22535775616E+03 -0.24302885308E+02  0.27296076886E+03  0.12699999809E+01 0.  1.
       -4    1    3    3    0  502 -0.15208293770E+03 -0.22535775616E+03  0.52598118561E+03  0.59209218768E+03  0.12699999809E+01 0. -1.
</event>
<event>
 5   0  0.7570633E-04  0.6998546E+03  0.7818609E-02  0.9717481E-01
        1   -1    0    0  501    0  0.00000000000E+00  0.00000000000E+00  0.34550852683E+03  0.34550852687E+03  0.50400001928E-02 0.  1.
       -1   -1    0    0    0  501  0.00000000000E+00  0.00000000000E+00 -0.35440259971E+03  0.35440259974E+03  0.50400001928E-02 0. -1.
    10030    2    1    2    0    0  0.00000000000E+00  0.00000000000E+00 -0.88940728742E+01  0.69991112661E+03  0.69985461392E+03 0.  0.
        5    1    3    3  502    0  0.11223691391E+02  0.31501801106E+03 -0.15633000679E+03  0.35188560579E+03  0.46999998093E+01 0. -1.
       -5    1    3    3    0  502 -0.11223691391E+02 -0.31501801106E+03  0.14743593391E+03  0.34802552082E+03  0.46999998093E+01 0.  1.
</event>
<event>
 5   0  0.7570633E-04  0.7001217E+03  0.7818609E-02  0.9717024E-01
       -1   -1    0    0    0  501  0.00000000000E+00  0.00000000000E+00  0.13001549421E+03  0.13001549431E+03  0.50400001928E-02 0. -1.
        1   -1    0    0  501    0  0.00000000000E+00  0.00000000000E+00 -0.94252296178E+03  0.94252296179E+03  0.50400001928E-02 0.  1.
    10030    2    1    2    0    0  0.00000000000E+00  0.00000000000E+00 -0.81250746757E+03  0.10725384561E+04  0.70012167155E+03 0.  0.
        5    1    3    3  502    0 -0.70575203013E+02 -0.12976546096E+03  0.79879491771E+02  0.16799630157E+03  0.46999998093E+01 0. -1.
       -5    1    3    3    0  502  0.70575203013E+02  0.12976546096E+03 -0.89238695934E+03  0.90454215454E+03  0.46999998093E+01 0.  1.
</event>
<event>
 5   0  0.1224048E-03  0.6990046E+03  0.7818609E-02  0.9718936E-01
       -2   -1    0    0    0  501  0.00000000000E+00  0.00000000000E+00  0.10301010531E+04  0.10301010531E+04  0.25500000920E-02 0. -1.
        2   -1    0    0  501    0  0.00000000000E+00  0.00000000000E+00 -0.11858240849E+03  0.11858240851E+03  0.25500000920E-02 0.  1.
    10030    2    1    2    0    0  0.00000000000E+00  0.00000000000E+00  0.91151864460E+03  0.11486834616E+04  0.69900461766E+03 0.  0.
        3    1    3    3  502    0  0.69867749303E+02  0.33572258263E+03  0.34478154582E+03  0.48627716316E+03  0.10100000352E+00 0.  1.
       -3    1    3    3    0  502 -0.69867749303E+02 -0.33572258263E+03  0.56673709878E+03  0.66240629844E+03  0.10100000352E+00 0. -1.
</event>
<event>
 5   0  0.1224048E-03  0.7004425E+03  0.7818609E-02  0.9716476E-01
        2   -1    0    0  501    0  0.00000000000E+00  0.00000000000E+00  0.85032541605E+02  0.85032541644E+02  0.25500000920E-02 0.  1.
       -2   -1    0    0    0  501  0.00000000000E+00  0.00000000000E+00 -0.14424469147E+04  0.14424469147E+04  0.25500000920E-02 0. -1.
    10030    2    1    2    0    0  0.00000000000E+00  0.00000000000E+00 -0.13574143731E+04  0.15274794564E+04  0.70044250962E+03 0.  0.
        3    1    3    3  502    0  0.24903738130E+03 -0.18435715417E+02 -0.12141894126E+04  0.12396029335E+04  0.10100000352E+00 0. -1.
       -3    1    3    3    0  502 -0.24903738130E+03  0.18435715417E+02 -0.14322496048E+03  0.28787652283E+03  0.10100000352E+00 0.  1.
</event>
<event>
 5   0  0.7570633E-04  0.7002656E+03  0.7818609E-02  0.9716778E-01
       -1   -1    0    0    0  501  0.00000000000E+00  0.00000000000E+00  0.22043522814E+03  0.22043522820E+03  0.50400001928E-02 0.  1.
        1   -1    0    0  501    0  0.00000000000E+00  0.00000000000E+00 -0.55614056874E+03  0.55614056876E+03  0.50400001928E-02 0. -1.
    10030    2    1    2    0    0  0.00000000000E+00  0.00000000000E+00 -0.33570534060E+03  0.77657579696E+03  0.70026558727E+03 0.  0.
        5    1    3    3  502    0  0.32891339841E+03 -0.35901891276E+01 -0.34896212998E+02  0.33081225610E+03  0.46999998093E+01 0.  1.
       -5    1    3    3    0  502 -0.32891339841E+03  0.35901891276E+01 -0.30080912760E+03  0.44576354086E+03  0.46999998093E+01 0. -1.
</event>
<event>
 5   0  0.1265562E-03  0.6999422E+03  0.7818609E-02  0.9717331E-01
       -2   -1    0    0    0  501  0.00000000000E+00  0.00000000000E+00  0.17085505814E+03  0.17085505816E+03  0.25500000920E-02 0.  1.
        2   -1    0    0  501    0  0.00000000000E+00  0.00000000000E+00 -0.71686349144E+03  0.71686349145E+03  0.25500000920E-02 0. -1.
    10030    2    1    2    0    0  0.00000000000E+00  0.00000000000E+00 -0.54600843330E+03  0.88771854960E+03  0.69994215052E+03 0.  0.
        1    1    3    3  502    0  0.10173521621E+03  0.14813358540E+03  0.10787129219E+03  0.20959443944E+03  0.50400001928E-02 0.  1.
       -1    1    3    3    0  502 -0.10173521621E+03 -0.14813358540E+03 -0.65387972549E+03  0.67812411016E+03  0.50400001928E-02 0. -1.
</event>
<event>
 5   0  0.7459843E-04  0.6984990E+03  0.7818609E-02  0.9719803E-01
        1   -1    0    0  501    0  0.00000000000E+00  0.00000000000E+00  0.19892440374E+03  0.19892440380E+03  0.50400001928E-02 0. -1.
       -1   -1    0    0    0  501  0.00000000000E+00  0.00000000000E+00 -0.61317372101E+03  0.61317372103E+03  0.50400001928E-02 0.  1.
    10030    2    1    2    0    0  0.00000000000E+00  0.00000000000E+00 -0.41424931727E+03  0.81209812483E+03  0.69849901038E+03 0.  0.
        2    1    3    3  502    0  0.97196518260E+02  0.25988425666E+03 -0.45372413536E+03  0.53183886755E+03  0.25500000920E-02 0.  1.
       -2    1    3    3    0  502 -0.97196518260E+02 -0.25988425666E+03  0.39474818092E+02  0.28025925728E+03  0.25500000920E-02 0. -1.
</event>
<event>
 5   0  0.1224048E-03  0.6997392E+03  0.7818609E-02  0.9717678E-01
        2   -1    0    0  501    0  0.00000000000E+00  0.00000000000E+00  0.67049948489E+03  0.67049948490E+03  0.25500000920E-02 0.  1.
       -2   -1    0    0    0  501  0.00000000000E+00  0.00000000000E+00 -0.18256350199E+03  0.18256350201E+03  0.25500000920E-02 0. -1.
    10030    2    1    2    0    0  0.00000000000E+00  0.00000000000E+00  0.48793598290E+03  0.85306298690E+03  0.69973919156E+03 0.  0.
        3    1    3    3  502    0 -0.12055512136E+03 -0.27105365593E+03  0.47009702470E+03  0.55587304712E+03  0.10100000352E+00 0.  1.
       -3    1    3    3    0  502  0.12055512136E+03  0.27105365593E+03  0.17838958202E+02  0.29718993978E+03  0.10100000352E+00 0. -1.
</event>
<event>
 5   0  0.1243087E-03  0.6999814E+03  0.7818609E-02  0.9717264E-01
        2   -1    0    0  501    0  0.00000000000E+00  0.00000000000E+00  0.18827162836E+03  0.18827162837E+03  0.25500000920E-02 0. -1.
       -2   -1    0    0    0  501  0.00000000000E+00  0.00000000000E+00 -0.65062103600E+03  0.65062103600E+03  0.25500000920E-02 0.  1.
    10030    2    1    2    0    0  0.00000000000E+00  0.00000000000E+00 -0.46234940764E+03  0.83889266438E+03  0.69998137661E+03 0.  0.
        4    1    3    3  502    0 -0.21101550082E+02  0.14212204427E+03  0.15129407503E+03  0.20865152988E+03  0.12699999809E+01 0. -1.
       -4    1    3    3    0  502  0.21101550082E+02 -0.14212204427E+03 -0.61364348267E+03  0.63024113449E+03  0.12699999809E+01 0.  1.
</event>
<event>
 5   0  0.1282546E-03  0.7003007E+03  0.7818609E-02  0.9716718E-01
        2   -1    0    0  501    0  0.00000000000E+00  0.00000000000E+00  0.56010259303E+03  0.56010259304E+03  0.25500000920E-02 0. -1.
       -2   -1    0    0    0  501  0.00000000000E+00  0.00000000000E+00 -0.21889786791E+03  0.21889786792E+03  0.25500000920E-02 0.  1.
    10030    2    1    2    0    0  0.00000000000E+00  0.00000000000E+00  0.34120472512E+03  0.77900046096E+03  0.70030068809E+03 0.  0.
        5    1    3    3  502    0  0.10827145635E+03 -0.49291859818E+02  0.53689606157E+03  0.54993805709E+03  0.46999998093E+01 0. -1.
       -5    1    3    3    0  502 -0.10827145635E+03  0.49291859818E+02 -0.19569133645E+03  0.22906240387E+03  0.46999998093E+01 0.  1.
</event>
<event>
 5   0  0.7013526E-04  0.7015285E+03  0.7818609E-02  0.9714622E-01
        1   -1    0    0  501    0  0.00000000000E+00  0.00000000000E+00  0.62943859936E+03  0.62943859938E+03  0.50400001928E-02 0. -1.
       -1   -1    0    0    0  501  0.00000000000E+00  0.00000000000E+00 -0.19546873651E+03  0.19546873658E+03  0.50400001928E-02 0.  1.
    10030    2    1    2    0    0  0.00000000000E+00  0.00000000000E+00  0.43396986285E+03  0.82490733596E+03  0.70152852477E+03 0.  0.
        1    1    3    3  502    0 -0.11537741548E+03  0.13043864688E+03 -0.14104692276E+03  0.22409913665E+03  0.50400001928E-02 0.  1.
       -1    1    3    3    0  502  0.11537741548E+03 -0.13043864688E+03  0.57501678561E+03  0.60080819931E+03  0.50400001928E-02 0. -1.
</event>
<event>
 5   0  0.4936000E-04  0.6999205E+03  0.7818609E-02  0.9717368E-01
        3   -1    0    0  501    0  0.00000000000E+00  0.00000000000E+00  0.44794254149E+03  0.44794255288E+03  0.10100000352E+00 0.  1.
       -3   -1    0    0    0  501  0.00000000000E+00  0.00000000000E+00 -0.27341045823E+03  0.27341047688E+03  0.10100000352E+00 0. -1.
    10030    2    1    2    0    0  0.00000000000E+00  0.00000000000E+00  0.17453208326E+03  0.72135302976E+03  0.69992052796E+03 0.  0.
        3    1    3    3  502    0  0.21930118748E+03 -0.21374295838E+03 -0.87311335377E+02  0.31843734482E+03  0.10100000352E+00 0. -1.
       -3    1    3    3    0  502 -0.21930118748E+03  0.21374295838E+03  0.26184341864E+03  0.40291568494E+03  0.10100000352E+00 0.  1.
</event>
<event>
 5   0  0.7013526E-04  0.7002640E+03  0.7818609E-02  0.9716781E-01
        1   -1    0    0  501    0  0.00000000000E+00  0.00000000000E+00  0.13354640302E+03  0.13354640312E+03  0.50400001928E-02 0. -1.
       -1   -1    0    0    0  501  0.00000000000E+00  0.00000000000E+00 -0.91797624258E+03  0.91797624260E+03  0.50400001928E-02 0.  1.
    10030    2    1    2    0    0  0.00000000000E+00  0.00000000000E+00 -0.78442983956E+03  0.10515226457E+04  0.70026402254E+03 0.  0.
        1    1    3    3  502    0 -0.32786451674E+03 -0.71686921494E+02 -0.24236767987E+03  0.41397614463E+03  0.50400001928E-02 0. -1.
       -1    1    3    3    0  502  0.32786451674E+03  0.71686921494E+02 -0.54206215969E+03  0.63754650108E+03  0.50400001928E-02 0.  1.
</event>
<event>
 5   0  0.7572415E-04  0.7002235E+03  0.7818609E-02  0.9716850E-01
       -1   -1    0    0    0  501  0.00000000000E+00  0.00000000000E+00  0.70872378290E+03  0.70872378292E+03  0.50400001928E-02 0.  1.
        1   -1    0    0  501    0  0.00000000000E+00  0.00000000000E+00 -0.17295629486E+03  0.17295629493E+03  0.50400001928E-02 0. -1.
    10030    2    1    2    0    0  0.00000000000E+00  0.00000000000E+00  0.53576748805E+03  0.88168007785E+03  0.70022350605E+03 0.  0.
        4    1    3    3  502    0 -0.12326777163E+03 -0.64650070440E+02 -0.13661623877E+03  0.19503893131E+03  0.12699999809E+01 0. -1.
       -4    1    3    3    0  502  0.12326777163E+03  0.64650070440E+02  0.67238372682E+03  0.68664114654E+03  0.12699999809E+01 0.  1.
</event>
<event>
 5   0  0.7570633E-04  0.6998741E+03  0.7818609E-02  0.9717447E-01
        1   -1    0    0  501    0  0.00000000000E+00  0.00000000000E+00  0.23649877222E+03  0.23649877228E+03  0.50400001928E-02 0.  1.
       -1   -1    0    0    0  501  0.00000000000E+00  0.00000000000E+00 -0.51778680946E+03  0.51778680948E+03  0.50400001928E-02 0. -1.
    10030    2    1    2    0    0  0.00000000000E+00  0.00000000000E+00 -0.28128803723E+03  0.75428558176E+03  0.69987411651E+03 0.  0.
        5    1    3    3  502    0  0.30239597297E+03  0.33617632983E+02  0.45591955814E+02  0.30769170633E+03  0.46999998093E+01 0.  1.
       -5    1    3    3    0  502 -0.30239597297E+03 -0.33617632983E+02 -0.32687999305E+03  0.44659387542E+03  0.46999998093E+01 0. -1.
</event>
<event>
 5   0  0.1224048E-03  0.7001276E+03  0.7818609E-02  0.9717014E-01
        2   -1    0    0  501    0  0.00000000000E+00  0.00000000000E+00  0.45865262340E+03  0.45865262341E+03  0.25500000920E-02 0. -1.
       -2   -1    0    0    0  501  0.00000000000E+00  0.00000000000E+00 -0.26718401809E+03  0.26718401811E+03  0.25500000920E-02 0.  1.
    10030    2    1    2    0    0  0.00000000000E+00  0.00000000000E+00  0.19146860531E+03  0.72583664151E+03  0.70012756220E+03 0.  0.
        3    1    3    3  502    0 -0.15463304177E+03 -0.63286602109E+02 -0.22317831504E+03  0.27879229207E+03  0.10100000352E+00 0.  1.
       -3    1    3    3    0  502  0.15463304177E+03  0.63286602109E+02  0.41464692035E+03  0.44704434944E+03  0.10100000352E+00 0. -1.
</event>
<event>
 5   0  0.7459843E-04  0.6997106E+03  0.7818609E-02  0.9717727E-01
        1   -1    0    0  501    0  0.00000000000E+00  0.00000000000E+00  0.48879700427E+03  0.48879700430E+03  0.50400001928E-02 0.  1.
       -1   -1    0    0    0  501  0.00000000000E+00  0.00000000000E+00 -0.25040812584E+03  0.25040812589E+03  0.50400001928E-02 0. -1.
    10030    2    1    2    0    0  0.00000000000E+00  0.00000000000E+00  0.23838887843E+03  0.73920513018E+03  0.69971063100E+03 0.  0.
        2    1    3    3  502    0  0.25018782865E+03 -0.74001489214E+02  0.36543559670E+03  0.44901374740E+03  0.25500000920E-02 0.  1.
       -2    1    3    3    0  502 -0.25018782865E+03  0.74001489214E+02 -0.12704671827E+03  0.29019138278E+03  0.25500000920E-02 0. -1.
</event>
<event>
 5   0  0.7572415E-04  0.6999382E+03  0.7818609E-02  0.9717338E-01
       -1   -1    0    0    0  501  0.00000000000E+00  0.00000000000E+00  0.29661458562E+03  0.29661458566E+03  0.50400001928E-02 0.  1.
        1   -1    0    0  501    0  0.00000000000E+00  0.00000000000E+00 -0.41292097983E+03  0.41292097986E+03  0.50400001928E-02 0. -1.
    10030    2    1    2    0    0  0.00000000000E+00  0.00000000000E+00 -0.11630639421E+03  0.70953556552E+03  0.69993824113E+03 0.  0.
        4    1    3    3  502    0  0.10638448342E+03 -0.32981716706E+03 -0.10760477531E+03  0.36287383837E+03  0.12699999809E+01 0. -1.
       -4    1    3    3    0  502 -0.10638448342E+03  0.32981716706E+03 -0.87016188949E+01  0.34666172715E+03  0.12699999809E+01 0.  1.
</event>
<event>
 5   0  0.7574241E-04  0.6999346E+03  0.7818609E-02  0.9717344E-01
       -1   -1    0    0    0  501  0.00000000000E+00  0.00000000000E+00  0.20784560037E+03  0.20784560043E+03  0.50400001928E-02 0.  1.
        1   -1    0    0  501    0  0.00000000000E+00  0.00000000000E+00 -0.58926965686E+03  0.58926965688E+03  0.50400001928E-02 0. -1.
    10030    2    1    2    0    0  0.00000000000E+00  0.00000000000E+00 -0.38142405648E+03  0.79711525731E+03  0.69993458450E+03 0.  0.
        3    1    3    3  502    0  0.59144066146E+02 -0.37296152848E+02  0.19980979071E+03  0.21169077978E+03  0.10100000352E+00 0.  1.
       -3    1    3    3    0  502 -0.59144066146E+02  0.37296152848E+02 -0.58123384719E+03  0.58542447754E+03  0.10100000352E+00 0. -1.
</event>
<event>
 5   0  0.7572415E-04  0.7040578E+03  0.7818609E-02  0.9710318E-01
        1   -1    0    0  501    0  0.00000000000E+00  0.00000000000E+00  0.21452409564E+04  0.21452409564E+04  0.50400001928E-02 0.  1.
       -1   -1    0    0    0  501  0.00000000000E+00  0.00000000000E+00 -0.57767090734E+02  0.57767090954E+02  0.50400001928E-02 0. -1.
    10030    2    1    2    0    0  0.00000000000E+00  0.00000000000E+00  0.20874738657E+04  0.22030080474E+04  0.70405775111E+03 0.  0.
        4    1    3    3  502    0  0.42835604803E+02 -0.25271824721E+03  0.28873371267E+03  0.38609606479E+03  0.12699999809E+01 0. -1.
       -4    1    3    3    0  502 -0.42835604803E+02  0.25271824721E+03  0.17987401530E+04  0.18169119826E+04  0.12699999809E+01 0.  1.
</event>
<event>
 5   0  0.1222679E-03  0.7000406E+03  0.7818609E-02  0.9717163E-01
       -2   -1    0    0    0  501  0.00000000000E+00  0.00000000000E+00  0.34404942139E+03  0.34404942140E+03  0.25500000920E-02 0.  1.
        2   -1    0    0  501    0  0.00000000000E+00  0.00000000000E+00 -0.35609480447E+03  0.35609480448E+03  0.25500000920E-02 0. -1.
    10030    2    1    2    0    0  0.00000000000E+00  0.00000000000E+00 -0.12045383083E+02  0.70014422588E+03  0.70004060295E+03 0.  0.
        2    1    3    3  502    0  0.28691826218E+03  0.19045553580E+03  0.56586983360E+02  0.34899496699E+03  0.25500000920E-02 0. -1.
       -2    1    3    3    0  502 -0.28691826218E+03 -0.19045553580E+03 -0.68632366442E+02  0.35114925889E+03  0.25500000920E-02 0.  1.
</event>
<event>
 5   0  0.1282546E-03  0.7001296E+03  0.7818609E-02  0.9717011E-01
        2   -1    0    0  501    0  0.00000000000E+00  0.00000000000E+00  0.18972997281E+03  0.18972997282E+03  0.25500000920E-02 0.  1.
       -2   -1    0    0    0  501  0.00000000000E+00  0.00000000000E+00 -0.64589352543E+03  0.64589352543E+03  0.25500000920E-02 0. -1.
    10030    2    1    2    0    0  0.00000000000E+00  0.00000000000E+00 -0.45616355262E+03  0.83562349826E+03  0.70012959093E+03 0.  0.
        5    1    3    3  502    0 -0.20446149199E+03  0.26780827305E+03 -0.11486961146E+03  0.35600967747E+03  0.46999998093E+01 0. -1.
       -5    1    3    3    0  502  0.20446149199E+03 -0.26780827305E+03 -0.34129394116E+03  0.47961382078E+03  0.46999998093E+01 0.  1.
</event>
<event>
 5   0  0.1224048E-03  0.7003803E+03  0.7818609E-02  0.9716582E-01
       -2   -1    0    0    0  501  0.00000000000E+00  0.00000000000E+00  0.16182474338E+03  0.16182474340E+03  0.25500000920E-02 0.  1.
        2   -1    0    0  501    0  0.00000000000E+00  0.00000000000E+00 -0.75781455035E+03  0.75781455036E+03  0.25500000920E-02 0. -1.
    10030    2    1    2    0    0  0.00000000000E+00  0.00000000000E+00 -0.59598980698E+03  0.91963929376E+03  0.70038031140E+03 0.  0.
        3    1    3    3  502    0  0.33710716705E+03  0.34726465632E+02 -0.41385658484E+03  0.53490602213E+03  0.10100000352E+00 0. -1.
       -3    1    3    3    0  502 -0.33710716705E+03 -0.34726465632E+02 -0.18213322214E+03  0.38473327163E+03  0.10100000352E+00 0.  1.
</event>
<event>
 5   0  0.1282546E-03  0.7007789E+03  0.7818609E-02  0.9715901E-01
       -2   -1    0    0    0  501  0.00000000000E+00  0.00000000000E+00  0.41400700476E+03  0.41400700476E+03  0.25500000920E-02 0.  1.
        2   -1    0    0  501    0  0.00000000000E+00  0.00000000000E+00 -0.29654759482E+03  0.29654759483E+03  0.25500000920E-02 0. -1.
    10030    2    1    2    0    0  0.00000000000E+00  0.00000000000E+00  0.11745940994E+03  0.71055459960E+03  0.70077894234E+03 0.  0.
        5    1    3    3  502    0 -0.77055213222E+01 -0.24730879953E+03  0.31024170995E+03  0.39685391012E+03  0.46999998093E+01 0.  1.
       -5    1    3    3    0  502  0.77055213222E+01  0.24730879953E+03 -0.19278230002E+03  0.31370068948E+03  0.46999998093E+01 0. -1.
</event>
<event>
 5   0  0.7572415E-04  0.6997052E+03  0.7818609E-02  0.9717736E-01
        1   -1    0    0  501    0  0.00000000000E+00  0.00000000000E+00  0.63518813561E+02  0.63518813761E+02  0.50400001928E-02 0.  1.
       -1   -1    0    0    0  501  0.00000000000E+00  0.00000000000E+00 -0.19269385936E+04  0.19269385936E+04  0.50400001928E-02 0. -1.
    10030    2    1    2    0    0  0.00000000000E+00  0.00000000000E+00 -0.18634197800E+04  0.19904574074E+04  0.69970523359E+03 0.  0.
        4    1    3    3  502    0  0.28805544219E+03 -0.21099738442E+02 -0.14933082559E+04  0.15209839897E+04  0.12699999809E+01 0. -1.
       -4    1    3    3    0  502 -0.28805544219E+03  0.21099738442E+02 -0.37011152411E+03  0.46947341769E+03  0.12699999809E+01 0.  1.
</event>
<event>
 5   0  0.7574241E-04  0.6996061E+03  0.7818609E-02  0.9717906E-01
        1   -1    0    0  501    0  0.00000000000E+00  0.00000000000E+00  0.76950498431E+02  0.76950498596E+02  0.50400001928E-02 0. -1.
       -1   -1    0    0    0  501  0.00000000000E+00  0.00000000000E+00 -0.15901413179E+04  0.15901413179E+04  0.50400001928E-02 0.  1.
    10030    2    1    2    0    0  0.00000000000E+00  0.00000000000E+00 -0.15131908195E+04  0.16670918165E+04  0.69960608097E+03 0.  0.
        3    1    3    3  502    0 -0.14775575003E+03  0.17889498747E+03 -0.13280781132E+03  0.26734454017E+03  0.10100000352E+00 0. -1.
       -3    1    3    3    0  502  0.14775575003E+03 -0.17889498747E+03 -0.13803830082E+04  0.13997472764E+04  0.10100000352E+00 0.  1.
</event>
<event>
 5   0  0.7574241E-04  0.7008936E+03  0.7818609E-02  0.9715705E-01
        1   -1    0    0  501    0  0.00000000000E+00  0.00000000000E+00  0.19453482285E+04  0.19453482285E+04  0.50400001928E-02 0. -1.
       -1   -1    0    0    0  501  0.00000000000E+00  0.00000000000E+00 -0.63131598178E+02  0.63131598379E+02  0.50400001928E-02 0.  1.
    10030    2    1    2    0    0  0.00000000000E+00  0.00000000000E+00  0.18822166303E+04  0.20084798269E+04  0.70089355222E+03 0.  0.
        3    1    3    3  502    0 -0.30475906379E+03 -0.13155115928E+03  0.61907391404E+03  0.70245022294E+03  0.10100000352E+00 0.  1.
       -3    1    3    3    0  502  0.30475906379E+03  0.13155115928E+03  0.12631427163E+04  0.13060296039E+04  0.10100000352E+00 0. -1.
</event>
<event>
 5   0  0.7570633E-04  0.7003698E+03  0.7818609E-02  0.9716600E-01
        1   -1    0    0  501    0  0.00000000000E+00  0.00000000000E+00  0.13194694695E+03  0.13194694705E+03  0.50400001928E-02 0.  1.
       -1   -1    0    0    0  501  0.00000000000E+00  0.00000000000E+00 -0.92938473878E+03  0.92938473879E+03  0.50400001928E-02 0. -1.
    10030    2    1    2    0    0  0.00000000000E+00  0.00000000000E+00 -0.79743779183E+03  0.10613316858E+04  0.70036984196E+03 0.  0.
        5    1    3    3  502    0 -0.14290289595E+03  0.25769923419E+03 -0.68535256759E+03  0.74602973458E+03  0.46999998093E+01 0. -1.
       -5    1    3    3    0  502  0.14290289595E+03 -0.25769923419E+03 -0.11208522423E+03  0.31530195126E+03  0.46999998093E+01 0.  1.
</event>
<event>
 5   0  0.1222679E-03  0.7001066E+03  0.7818609E-02  0.9717050E-01
       -2   -1    0    0    0  501  0.00000000000E+00  0.00000000000E+00  0.89821654414E+03  0.89821654414E+03  0.25500000920E-02 0. -1.
        2   -1    0    0  501    0  0.00000000000E+00  0.00000000000E+00 -0.13642292021E+03  0.13642292023E+03  0.25500000920E-02 0.  1.
    10030    2    1    2    0    0  0.00000000000E+00  0.00000000000E+00  0.76179362393E+03  0.10346394644E+04  0.70010663172E+03 0.  0.
        2    1    3    3  502    0 -0.22184994339E+03 -0.16253608566E+03  0.60845003199E+02  0.28166911606E+03  0.25500000920E-02 0.  1.
       -2    1    3    3    0  502  0.22184994339E+03  0.16253608566E+03  0.70094862073E+03  0.75297034831E+03  0.25500000920E-02 0. -1.
</event>
<event>
 5   0  0.1224048E-03  0.7021066E+03  0.7818609E-02  0.9713636E-01
       -2   -1    0    0    0  501  0.00000000000E+00  0.00000000000E+00  0.19347446395E+03  0.19347446397E+03  0.25500000920E-02 0.  1.
        2   -1    0    0  501    0  0.00000000000E+00  0.00000000000E+00 -0.63697511048E+03  0.63697511049E+03  0.25500000920E-02 0. -1.
    10030    2    1    2    0    0  0.00000000000E+00  0.00000000000E+00 -0.44350064653E+03  0.83044957446E+03  0.70210659607E+03 0.  0.
        3    1    3    3  502    0 -0.34547705672E+03  0.62143890736E+02 -0.21618388580E+03  0.41225203766E+03  0.10100000352E+00 0.  1.
       -3    1    3    3    0  502  0.34547705672E+03 -0.62143890736E+02 -0.22731676073E+03  0.41819753680E+03  0.10100000352E+00 0. -1.
</event>
<event>
 5   0  0.1224048E-03  0.7000460E+03  0.7818609E-02  0.9717154E-01
       -2   -1    0    0    0  501  0.00000000000E+00  0.00000000000E+00  0.65213996343E+03  0.65213996344E+03  0.25500000920E-02 0. -1.
        2   -1    0    0  501    0  0.00000000000E+00  0.00000000000E+00 -0.18786780770E+03  0.18786780771E+03  0.25500000920E-02 0.  1.
    10030    2    1    2    0    0  0.00000000000E+00  0.00000000000E+00  0.46427215574E+03  0.84000777115E+03  0.70004601349E+03 0.  0.
        3    1    3    3  502    0 -0.10082076592E+03 -0.32162517188E+03  0.11888054595E+03  0.35740757188E+03  0.10100000352E+00 0.  1.
       -3    1    3    3    0  502  0.10082076592E+03  0.32162517188E+03  0.34539160978E+03  0.48260019927E+03  0.10100000352E+00 0. -1.
</event>
<event>
 5   0  0.7459843E-04  0.6999845E+03  0.7818609E-02  0.9717259E-01
        1   -1    0    0  501    0  0.00000000000E+00  0.00000000000E+00  0.41322715368E+03  0.41322715371E+03  0.50400001928E-02 0.  1.
       -1   -1    0    0    0  501  0.00000000000E+00  0.00000000000E+00 -0.29643402769E+03  0.29643402773E+03  0.50400001928E-02 0. -1.
    10030    2    1    2    0    0  0.00000000000E+00  0.00000000000E+00  0.11679312599E+03  0.70966118144E+03  0.69998454137E+03 0.  0.
        2    1    3    3  502    0  0.22812712479E+03  0.26434856152E+03  0.82653085102E+02  0.35882262962E+03  0.25500000920E-02 0.  1.
       -2    1    3    3    0  502 -0.22812712479E+03 -0.26434856152E+03  0.34140040886E+02  0.35083855182E+03  0.25500000920E-02 0. -1.
</event>
<event>
 5   0  0.1243087E-03  0.6996510E+03  0.7818609E-02  0.9717829E-01
        2   -1    0    0  501    0  0.00000000000E+00  0.00000000000E+00  0.24371441971E+03  0.24371441972E+03  0.25500000920E-02 0.  1.
       -2   -1    0    0    0  501  0.00000000000E+00  0.00000000000E+00 -0.50213633013E+03  0.50213633014E+03  0.25500000920E-02 0. -1.
    10030    2    1    2    0    0  0.00000000000E+00  0.00000000000E+00 -0.25842191042E+03  0.74585074986E+03  0.69965095389E+03 0.  0.
        4    1    3    3  502    0 -0.22147828728E+03  0.27078277692E+03 -0.12861990380E+03  0.37272058780E+03  0.12699999809E+01 0. -1.
       -4    1    3    3    0  502  0.22147828728E+03 -0.27078277692E+03 -0.12980200662E+03  0.37313016206E+03  0.12699999809E+01 0.  1.
</event>
<event>
 5   0  0.1224048E-03  0.6999360E+03  0.7818609E-02  0.9717342E-01
        2   -1    0    0  501    0  0.00000000000E+00  0.00000000000E+00  0.19565691482E+04  0.19565691482E+04  0.25500000920E-02 0.  1.
       -2   -1    0    0    0  501  0.00000000000E+00  0.00000000000E+00 -0.62598137223E+02  0.62598137275E+02  0.25500000920E-02 0. -1.
    10030    2    1    2    0    0  0.00000000000E+00  0.00000000000E+00  0.18939710110E+04  0.20191672855E+04  0.69993595158E+03 0.  0.
        3    1    3    3  502    0 -0.13666743585E+03  0.14654571033E+03  0.17746933580E+04  0.17859703688E+04  0.10100000352E+00 0.  1.
       -3    1    3    3    0  502  0.13666743585E+03 -0.14654571033E+03  0.11927765301E+03  0.23319691667E+03  0.10100000352E+00 0. -1.
</event>
<event>
 5   0  0.1224048E-03  0.6998685E+03  0.7818609E-02  0.9717457E-01
        2   -1    0    0  501    0  0.00000000000E+00  0.00000000000E+00  0.61004683154E+02  0.61004683208E+02  0.25500000920E-02 0. -1.
       -2   -1    0    0    0  501  0.00000000000E+00  0.00000000000E+00 -0.20072882548E+04  0.20072882548E+04  0.25500000920E-02 0.  1.
    10030    2    1    2    0    0  0.00000000000E+00  0.00000000000E+00 -0.19462835716E+04  0.20682929380E+04  0.69986851347E+03 0.  0.
        3    1    3    3  502    0 -0.12619435935E+03  0.47906250495E+02 -0.19027960577E+02  0.13631617165E+03  0.10100000352E+00 0. -1.
       -3    1    3    3    0  502  0.12619435935E+03 -0.47906250495E+02 -0.19272556110E+04  0.19319767663E+04  0.10100000352E+00 0.  1.
</event>
<event>
 5   0  0.4936000E-04  0.7003633E+03  0.7818609E-02  0.9716611E-01
        3   -1    0    0  501    0  0.00000000000E+00  0.00000000000E+00  0.69030363893E+03  0.69030364632E+03  0.10100000352E+00 0.  1.
       -3   -1    0    0    0  501  0.00000000000E+00  0.00000000000E+00 -0.17764238708E+03  0.17764241579E+03  0.10100000352E+00 0. -1.
    10030    2    1    2    0    0  0.00000000000E+00  0.00000000000E+00  0.51266125185E+03  0.86794606211E+03  0.70036333969E+03 0.  0.
        1    1    3    3  502    0 -0.16837656705E+03 -0.30704483880E+03  0.25635839013E+03  0.43398943027E+03  0.50400001928E-02 0. -1.
       -1    1    3    3    0  502  0.16837656705E+03  0.30704483880E+03  0.25630286171E+03  0.43395663184E+03  0.50400001928E-02 0.  1.
</event>
<event>
 5   0  0.1224048E-03  0.6997802E+03  0.7818609E-02  0.9717608E-01
        2   -1    0    0  501    0  0.00000000000E+00  0.00000000000E+00  0.69071813273E+03  0.69071813273E+03  0.25500000920E-02 0. -1.
       -2   -1    0    0    0  501  0.00000000000E+00  0.00000000000E+00 -0.17724030698E+03  0.17724030700E+03  0.25500000920E-02 0.  1.
    10030    2    1    2    0    0  0.00000000000E+00  0.00000000000E+00  0.51347782575E+03  0.86795843973E+03  0.69978023377E+03 0.  0.
        3    1    3    3  502    0  0.31871396561E+03  0.60364138266E+02  0.94068020838E+02  0.33774431721E+03  0.10100000352E+00 0.  1.
       -3    1    3    3    0  502 -0.31871396561E+03 -0.60364138266E+02  0.41940980491E+03  0.53021412252E+03  0.10100000352E+00 0. -1.
</event>
<event>
 5   0  0.1282546E-03  0.7000538E+03  0.7818609E-02  0.9717140E-01
       -2   -1    0    0    0  501  0.00000000000E+00  0.00000000000E+00  0.27691655531E+03  0.27691655532E+03  0.25500000920E-02 0.  1.
        2   -1    0    0  501    0  0.00000000000E+00  0.00000000000E+00 -0.44243954058E+03  0.44243954059E+03  0.25500000920E-02 0. -1.
    10030    2    1    2    0    0  0.00000000000E+00  0.00000000000E+00 -0.16552298527E+03  0.71935609591E+03  0.70005380798E+03 0.  0.
        5    1    3    3  502    0 -0.14113019936E+03 -0.21098164406E+03 -0.33037398358E+03  0.41665338871E+03  0.46999998093E+01 0. -1.
       -5    1    3    3    0  502  0.14113019936E+03  0.21098164406E+03  0.16485099831E+03  0.30270270720E+03  0.46999998093E+01 0.  1.
</event>
<event>
 5   0  0.7574241E-04  0.7004011E+03  0.7818609E-02  0.9716547E-01
       -1   -1    0    0    0  501  0.00000000000E+00  0.00000000000E+00  0.51568452524E+03  0.51568452526E+03  0.50400001928E-02 0.  1.
        1   -1    0    0  501    0  0.00000000000E+00  0.00000000000E+00 -0.23782062659E+03  0.23782062664E+03  0.50400001928E-02 0. -1.
    10030    2    1    2    0    0  0.00000000000E+00  0.00000000000E+00  0.27786389865E+03  0.75350515190E+03  0.70040107637E+03 0.  0.
        3    1    3    3  502    0 -0.13393582286E+03  0.27226138726E+03 -0.49183759095E+02  0.30738269307E+03  0.10100000352E+00 0. -1.
       -3    1    3    3    0  502  0.13393582286E+03 -0.27226138726E+03  0.32704765774E+03  0.44612245883E+03  0.10100000352E+00 0.  1.
</event>
<event>
 5   0  0.4936000E-04  0.6998264E+03  0.7818609E-02  0.9717529E-01
        3   -1    0    0  501    0  0.00000000000E+00  0.00000000000E+00  0.18392996949E+03  0.18392999722E+03  0.10100000352E+00 0. -1.
       -3   -1    0    0    0  501  0.00000000000E+00  0.00000000000E+00 -0.66568392629E+03  0.66568393395E+03  0.10100000352E+00 0.  1.
    10030    2    1    2    0    0  0.00000000000E+00  0.00000000000E+00 -0.48175395680E+03  0.84961393117E+03  0.69982637643E+03 0.  0.
        4    1    3    3  502    0  0.78752867157E+02 -0.23069587359E+02 -0.65383355848E+03  0.65896445658E+03  0.12699999809E+01 0.  1.
       -4    1    3    3    0  502 -0.78752867157E+02  0.23069587359E+02  0.17207960168E+03  0.19064947459E+03  0.12699999809E+01 0. -1.
</event>
<event>
 5   0  0.7459843E-04  0.7001937E+03  0.7818609E-02  0.9716901E-01
       -1   -1    0    0    0  501  0.00000000000E+00  0.00000000000E+00  0.11065918265E+03  0.11065918277E+03  0.50400001928E-02 0.  1.
        1   -1    0    0  501    0  0.00000000000E+00  0.00000000000E+00 -0.11076152324E+04  0.11076152324E+04  0.50400001928E-02 0. -1.
    10030    2    1    2    0    0  0.00000000000E+00  0.00000000000E+00 -0.99695604970E+03  0.12182744151E+04  0.70019367716E+03 0.  0.
        2    1    3    3  502    0 -0.13643730971E+03 -0.19133400919E+03 -0.94999724745E+03  0.97863098905E+03  0.25500000920E-02 0. -1.
       -2    1    3    3    0  502  0.13643730971E+03  0.19133400919E+03 -0.46958802250E+02  0.23964342609E+03  0.25500000920E-02 0.  1.
</event>
<event>
 5   0  0.7572415E-04  0.7002295E+03  0.7818609E-02  0.9716840E-01
       -1   -1    0    0    0  501  0.00000000000E+00  0.00000000000E+00  0.23009945493E+03  0.23009945498E+03  0.50400001928E-02 0.  1.
        1   -1    0    0  501    0  0.00000000000E+00  0.00000000000E+00 -0.53272763850E+03  0.53272763852E+03  0.50400001928E-02 0. -1.
    10030    2    1    2    0    0  0.00000000000E+00  0.00000000000E+00 -0.30262818357E+03  0.76282709351E+03  0.70022950316E+03 0.  0.
        4    1    3    3  502    0 -0.33961957910E+03  0.11682962019E+02 -0.24311323309E+03  0.41783203218E+03  0.12699999809E+01 0.  1.
       -4    1    3    3    0  502  0.33961957910E+03 -0.11682962019E+02 -0.59514950488E+02  0.34499506133E+03  0.12699999809E+01 0. -1.
</event>
<event>
 5   0  0.1224048E-03  0.7000720E+03  0.7818609E-02  0.9717109E-01
        2   -1    0    0  501    0  0.00000000000E+00  0.00000000000E+00  0.20871420555E+04  0.20871420555E+04  0.25500000920E-02 0.  1.
       -2   -1    0    0    0  501  0.00000000000E+00  0.00000000000E+00 -0.58704775165E+02  0.58704775221E+02  0.25500000920E-02 0. -1.
    10030    2    1    2    0    0  0.00000000000E+00  0.00000000000E+00  0.20284372803E+04  0.21458468307E+04  0.70007201106E+03 0.  0.
        3    1    3    3  502    0  0.26837279784E+03  0.24850849218E+02  0.32962129588E+03  0.42578366834E+03  0.10100000352E+00 0. -1.
       -3    1    3    3    0  502 -0.26837279784E+03 -0.24850849218E+02  0.16988159845E+04  0.17200631624E+04  0.10100000352E+00 0.  1.
</event>
<event>
 5   0  0.1224048E-03  0.7019204E+03  0.7818609E-02  0.9713954E-01
        2   -1    0    0  501    0  0.00000000000E+00  0.00000000000E+00  0.16672431564E+03  0.16672431566E+03  0.25500000920E-02 0. -1.
       -2   -1    0    0    0  501  0.00000000000E+00  0.00000000000E+00 -0.73878292002E+03  0.73878292002E+03  0.25500000920E-02 0.  1.
    10030    2    1    2    0    0  0.00000000000E+00  0.00000000000E+00 -0.57205860437E+03  0.90550723569E+03  0.70192044210E+03 0.  0.
        3    1    3    3  502    0 -0.15604757121E+03  0.27484735845E+03 -0.89192516652E+02  0.32840102033E+03  0.10100000352E+00 0. -1.
       -3    1    3    3    0  502  0.15604757121E+03 -0.27484735845E+03 -0.48286608772E+03  0.57710621535E+03  0.10100000352E+00 0.  1.
</event>
<event>
 5   0  0.1265562E-03  0.7004372E+03  0.7818609E-02  0.9716485E-01
       -2   -1    0    0    0  501  0.00000000000E+00  0.00000000000E+00  0.99627489539E+03  0.99627489539E+03  0.25500000920E-02 0. -1.
        2   -1    0    0  501    0  0.00000000000E+00  0.00000000000E+00 -0.12311166274E+03  0.12311166277E+03  0.25500000920E-02 0.  1.
    10030    2    1    2    0    0  0.00000000000E+00  0.00000000000E+00  0.87316323265E+03  0.11193865582E+04  0.70043717473E+03 0.  0.
        1    1    3    3  502    0  0.89855681663E+01  0.34896359153E+03  0.39147226776E+03  0.52450630607E+03  0.50400001928E-02 0.  1.
       -1    1    3    3    0  502 -0.89855681663E+01 -0.34896359153E+03  0.48169096489E+03  0.59488025209E+03  0.50400001928E-02 0. -1.
</event>
<event>
 5   0  0.7013526E-04  0.6995088E+03  0.7818609E-02  0.9718073E-01
        1   -1    0    0  501    0  0.00000000000E+00  0.00000000000E+00  0.10566649927E+04  0.10566649927E+04  0.50400001928E-02 0.  1.
       -1   -1    0    0    0  501  0.00000000000E+00  0.00000000000E+00 -0.11576814997E+03  0.11576815008E+03  0.50400001928E-02 0. -1.
    10030    2    1    2    0    0  0.00000000000E+00  0.00000000000E+00  0.94089684271E+03  0.11724331428E+04  0.69950883172E+03 0.  0.
        1    1    3    3  502    0 -0.18583076992E+03  0.29003450639E+03  0.57205625382E+03  0.66775852484E+03  0.50400001928E-02 0.  1.
       -1    1    3    3    0  502  0.18583076992E+03 -0.29003450639E+03  0.36884058889E+03  0.50467461793E+03  0.50400001928E-02 0. -1.
</event>
<event>
 5   0  0.1222679E-03  0.6987833E+03  0.7818609E-02  0.9719315E-01
        2   -1    0    0  501    0  0.00000000000E+00  0.00000000000E+00  0.50268062417E+03  0.50268062418E+03  0.25500000920E-02 0. -1.
       -2   -1    0    0    0  501  0.00000000000E+00  0.00000000000E+00 -0.24284705793E+03  0.24284705794E+03  0.25500000920E-02 0.  1.
    10030    2    1    2    0    0  0.00000000000E+00  0.00000000000E+00  0.25983356625E+03  0.74552768212E+03  0.69878325871E+03 0.  0.
        2    1    3    3  502    0  0.91254730667E+01 -0.49095961015E+02  0.49885364652E+03  0.50134683433E+03  0.25500000920E-02 0. -1.
       -2    1    3    3    0  502 -0.91254730667E+01  0.49095961015E+02 -0.23902008027E+03  0.24418084779E+03  0.25500000920E-02 0.  1.
</event>
<event>
 5   0  0.1224048E-03  0.6999275E+03  0.7818609E-02  0.9717356E-01
        2   -1    0    0  501    0  0.00000000000E+00  0.00000000000E+00  0.54201715520E+03  0.54201715521E+03  0.25500000920E-02 0.  1.
       -2   -1    0    0    0  501  0.00000000000E+00  0.00000000000E+00 -0.22596077307E+03  0.22596077309E+03  0.25500000920E-02 0. -1.
    10030    2    1    2    0    0  0.00000000000E+00  0.00000000000E+00  0.31605638213E+03  0.76797792830E+03  0.69992746886E+03 0.  0.
        3    1    3    3  502    0 -0.32307036111E+03  0.11456780996E+03  0.23541456146E+03  0.41583682768E+03  0.10100000352E+00 0.  1.
       -3    1    3    3    0  502  0.32307036111E+03 -0.11456780996E+03  0.80641820670E+02  0.35214110062E+03  0.10100000352E+00 0. -1.
</event>
<event>
 5   0  0.7013526E-04  0.7007172E+03  0.7818609E-02  0.9716006E-01
       -1   -1    0    0    0  501  0.00000000000E+00  0.00000000000E+00  0.18336353566E+03  0.18336353573E+03  0.50400001928E-02 0. -1.
        1   -1    0    0  501    0  0.00000000000E+00  0.00000000000E+00 -0.66944151851E+03  0.66944151853E+03  0.50400001928E-02 0.  1.
    10030    2    1    2    0    0  0.00000000000E+00  0.00000000000E+00 -0.48607798285E+03  0.85280505426E+03  0.70071724338E+03 0.  0.
        1    1    3    3  502    0 -0.97547033988E+02 -0.10852118945E+03 -0.63069990690E+03  0.64735974928E+03  0.50400001928E-02 0.  1.
       -1    1    3    3    0  502  0.97547033988E+02  0.10852118945E+03  0.14462192405E+03  0.20544530499E+03  0.50400001928E-02 0. -1.
</event>
<event>
 5   0  0.1243087E-03  0.7004706E+03  0.7818609E-02  0.9716428E-01
       -2   -1    0    0    0  501  0.00000000000E+00  0.00000000000E+00  0.14572719233E+03  0.14572719235E+03  0.25500000920E-02 0.  1.
        2   -1    0    0  501    0  0.00000000000E+00  0.00000000000E+00 -0.84174249107E+03  0.84174249108E+03  0.25500000920E-02 0. -1.
    10030    2    1    2    0    0  0.00000000000E+00  0.00000000000E+00 -0.69601529875E+03  0.98746968343E+03  0.70047061294E+03 0.  0.
        4    1    3    3  502    0  0.22755128564E+03 -0.26592606284E+03 -0.32979554756E+03  0.48089809169E+03  0.12699999809E+01 0. -1.
       -4    1    3    3    0  502 -0.22755128564E+03  0.26592606284E+03 -0.36621975119E+03  0.50657159174E+03  0.12699999809E+01 0.  1.
</event>
<event>
 5   0  0.7570633E-04  0.7001413E+03  0.7818609E-02  0.9716991E-01
        1   -1    0    0  501    0  0.00000000000E+00  0.00000000000E+00  0.12736608083E+04  0.12736608083E+04  0.50400001928E-02 0. -1.
       -1   -1    0    0    0  501  0.00000000000E+00  0.00000000000E+00 -0.96218281784E+02  0.96218281916E+02  0.50400001928E-02 0.  1.
    10030    2    1    2    0    0  0.00000000000E+00  0.00000000000E+00  0.11774425265E+04  0.13698790902E+04  0.70014128473E+03 0.  0.
        5    1    3    3  502    0 -0.80734079998E+02 -0.12477543998E+03  0.12088058003E+04  0.12179164400E+04  0.46999998093E+01 0. -1.
       -5    1    3    3    0  502  0.80734079998E+02  0.12477543998E+03 -0.31363273823E+02  0.15196265014E+03  0.46999998093E+01 0.  1.
</event>
<event>
 5   0  0.1282546E-03  0.6997212E+03  0.7818609E-02  0.9717709E-01
        2   -1    0    0  501    0  0.00000000000E+00  0.00000000000E+00  0.20792534423E+03  0.20792534425E+03  0.25500000920E-02 0.  1.
       -2   -1    0    0    0  501  0.00000000000E+00  0.00000000000E+00 -0.58868448863E+03  0.58868448863E+03  0.25500000920E-02 0. -1.
    10030    2    1    2    0    0  0.00000000000E+00  0.00000000000E+00 -0.38075914439E+03  0.79660983288E+03  0.69972115860E+03 0.  0.
        5    1    3    3  502    0 -0.10400598646E+03  0.56498828385E+02 -0.56516020554E+03  0.57744048243E+03  0.46999998093E+01 0. -1.
       -5    1    3    3    0  502  0.10400598646E+03 -0.56498828385E+02  0.18440106114E+03  0.21916935045E+03  0.46999998093E+01 0.  1.
</event>
<event>
 5   0  0.1243087E-03  0.7001515E+03  0.7818609E-02  0.9716973E-01
        2   -1    0    0  501    0  0.00000000000E+00  0.00000000000E+00  0.51572014590E+03  0.51572014590E+03  0.25500000920E-02 0. -1.
       -2   -1    0    0    0  501  0.00000000000E+00  0.00000000000E+00 -0.23763473269E+03  0.23763473270E+03  0.25500000920E-02 0.  1.
    10030    2    1    2    0    0  0.00000000000E+00  0.00000000000E+00  0.27808541321E+03  0.75335487860E+03  0.70015146653E+03 0.  0.
        4    1    3    3  502    0  0.29355191383E+03  0.18779198625E+03  0.17493704062E+03  0.38992709228E+03  0.12699999809E+01 0. -1.
       -4    1    3    3    0  502 -0.29355191383E+03 -0.18779198625E+03  0.10314837258E+03  0.36342778633E+03  0.12699999809E+01 0.  1.
</event>
<event>
 5   0  0.1224048E-03  0.6999790E+03  0.7818609E-02  0.9717268E-01
        2   -1    0    0  501    0  0.00000000000E+00  0.00000000000E+00  0.93461103630E+03  0.93461103630E+03  0.25500000920E-02 0. -1.
       -2   -1    0    0    0  501  0.00000000000E+00  0.00000000000E+00 -0.13106268962E+03  0.13106268965E+03  0.25500000920E-02 0.  1.
    10030    2    1    2    0    0  0.00000000000E+00  0.00000000000E+00  0.80354834668E+03  0.10656737260E+04  0.69997896021E+03 0.  0.
        3    1    3    3  502    0  0.98001400882E+01 -0.14068472916E+03 -0.85891564223E+02  0.16512300497E+03  0.10100000352E+00 0.  1.
       -3    1    3    3    0  502 -0.98001400882E+01  0.14068472916E+03  0.88943991090E+03  0.90055072099E+03  0.10100000352E+00 0. -1.
</event>
<event>
 5   0  0.1224048E-03  0.6996085E+03  0.7818609E-02  0.9717902E-01
        2   -1    0    0  501    0  0.00000000000E+00  0.00000000000E+00  0.71119980509E+03  0.71119980510E+03  0.25500000920E-02 0. -1.
       -2   -1    0    0    0  501  0.00000000000E+00  0.00000000000E+00 -0.17205151921E+03  0.17205151923E+03  0.25500000920E-02 0.  1.
    10030    2    1    2    0    0  0.00000000000E+00  0.00000000000E+00  0.53914828588E+03  0.88325132433E+03  0.69960848176E+03 0.  0.
        3    1    3    3  502    0  0.10249462642E+03  0.15041155157E+03  0.64670748627E+03  0.67183284103E+03  0.10100000352E+00 0. -1.
       -3    1    3    3    0  502 -0.10249462642E+03 -0.15041155157E+03 -0.10755920039E+03  0.21141848330E+03  0.10100000352E+00 0.  1.
</event>
<event>
 5   0  0.1243087E-03  0.7001856E+03  0.7818609E-02  0.9716915E-01
        2   -1    0    0  501    0  0.00000000000E+00  0.00000000000E+00  0.31281371318E+03  0.31281371319E+03  0.25500000920E-02 0. -1.
       -2   -1    0    0    0  501  0.00000000000E+00  0.00000000000E+00 -0.39181451455E+03  0.39181451456E+03  0.25500000920E-02 0.  1.
    10030    2    1    2    0    0  0.00000000000E+00  0.00000000000E+00 -0.79000801369E+02  0.70462822775E+03  0.70018555593E+03 0.  0.
        4    1    3    3  502    0 -0.59563036799E+02 -0.22454660498E+03 -0.30306752800E+03  0.38186446888E+03  0.12699999809E+01 0.  1.
       -4    1    3    3    0  502  0.59563036799E+02  0.22454660498E+03  0.22406672663E+03  0.32276375888E+03  0.12699999809E+01 0. -1.
</event>
<event>
 5   0  0.1224048E-03  0.7000380E+03  0.7818609E-02  0.9717167E-01
       -2   -1    0    0    0  501  0.00000000000E+00  0.00000000000E+00  0.20170827263E+03  0.20170827265E+03  0.25500000920E-02 0. -1.
        2   -1    0    0  501    0  0.00000000000E+00  0.00000000000E+00 -0.60737870666E+03  0.60737870666E+03  0.25500000920E-02 0.  1.
    10030    2    1    2    0    0  0.00000000000E+00  0.00000000000E+00 -0.40567043402E+03  0.80908697931E+03  0.70003802686E+03 0.  0.
        3    1    3    3  502    0  0.25287289414E+03  0.26403589621E+02  0.75203809921E+02  0.26513670693E+03  0.10100000352E+00 0. -1.
       -3    1    3    3    0  502 -0.25287289414E+03 -0.26403589621E+02 -0.48087424395E+03  0.54395027238E+03  0.10100000352E+00 0.  1.
</event>
<event>
 5   0  0.4936000E-04  0.6995591E+03  0.7818609E-02  0.9717986E-01
       -3   -1    0    0    0  501  0.00000000000E+00  0.00000000000E+00  0.32736531978E+03  0.32736533536E+03  0.10100000352E+00 0.  1.
        3   -1    0    0  501    0  0.00000000000E+00  0.00000000000E+00 -0.37372846962E+03  0.37372848327E+03  0.10100000352E+00 0. -1.
    10030    2    1    2    0    0  0.00000000000E+00  0.00000000000E+00 -0.46363149844E+02  0.70109381863E+03  0.69955914750E+03 0.  0.
        4    1    3    3  502    0  0.65021470282E+01 -0.31609461437E+03 -0.17312950441E+03  0.36046292645E+03  0.12699999809E+01 0. -1.
       -4    1    3    3    0  502 -0.65021470282E+01  0.31609461437E+03  0.12676635457E+03  0.34063089217E+03  0.12699999809E+01 0.  1.
</event>
<event>
 5   0  0.7570633E-04  0.7003138E+03  0.7818609E-02  0.9716696E-01
       -1   -1    0    0    0  501  0.00000000000E+00  0.00000000000E+00  0.11904938687E+03  0.11904938698E+03  0.50400001928E-02 0. -1.
        1   -1    0    0  501    0  0.00000000000E+00  0.00000000000E+00 -0.10299073914E+04  0.10299073914E+04  0.50400001928E-02 0.  1.
    10030    2    1    2    0    0  0.00000000000E+00  0.00000000000E+00 -0.91085800449E+03  0.11489567784E+04  0.70031376839E+03 0.  0.
        5    1    3    3  502    0  0.23076264249E+03  0.25972810133E+03 -0.52652098606E+03  0.63083795268E+03  0.46999998093E+01 0.  1.
       -5    1    3    3    0  502 -0.23076264249E+03 -0.25972810133E+03 -0.38433701844E+03  0.51811882568E+03  0.46999998093E+01 0. -1.
</event>
<event>
 5   0  0.1265562E-03  0.7000296E+03  0.7818609E-02  0.9717182E-01
       -2   -1    0    0    0  501  0.00000000000E+00  0.00000000000E+00  0.19422509402E+03  0.19422509404E+03  0.25500000920E-02 0.  1.
        2   -1    0    0  501    0  0.00000000000E+00  0.00000000000E+00 -0.63076480265E+03  0.63076480266E+03  0.25500000920E-02 0. -1.
    10030    2    1    2    0    0  0.00000000000E+00  0.00000000000E+00 -0.43653970863E+03  0.82498989670E+03  0.70002957969E+03 0.  0.
        1    1    3    3  502    0  0.10922970065E+03  0.30815800066E+03 -0.70990059311E+02  0.33456250450E+03  0.50400001928E-02 0.  1.
       -1    1    3    3    0  502 -0.10922970065E+03 -0.30815800066E+03 -0.36554964932E+03  0.49042739220E+03  0.50400001928E-02 0. -1.
</event>
<event>
 5   0  0.7013526E-04  0.7000147E+03  0.7818609E-02  0.9717207E-01
       -1   -1    0    0    0  501  0.00000000000E+00  0.00000000000E+00  0.27506049219E+03  0.27506049224E+03  0.50400001928E-02 0. -1.
        1   -1    0    0  501    0  0.00000000000E+00  0.00000000000E+00 -0.44537527049E+03  0.44537527052E+03  0.50400001928E-02 0.  1.
    10030    2    1    2    0    0  0.00000000000E+00  0.00000000000E+00 -0.17031477830E+03  0.72043576276E+03  0.70001468881E+03 0.  0.
        1    1    3    3  502    0  0.71753128342E+02 -0.32780448297E+03  0.17248365972E+02  0.33600862584E+03  0.50400001928E-02 0. -1.
       -1    1    3    3    0  502 -0.71753128342E+02  0.32780448297E+03 -0.18756314427E+03  0.38442713692E+03  0.50400001928E-02 0.  1.
</event>
<event>
 5   0  0.1243087E-03  0.6995628E+03  0.7818609E-02  0.9717980E-01
       -2   -1    0    0    0  501  0.00000000000E+00  0.00000000000E+00  0.57441389321E+02  0.57441389377E+02  0.25500000920E-02 0.  1.
        2   -1    0    0  501    0  0.00000000000E+00  0.00000000000E+00 -0.21299452953E+04  0.21299452953E+04  0.25500000920E-02 0. -1.
    10030    2    1    2    0    0  0.00000000000E+00  0.00000000000E+00 -0.20725039060E+04  0.21873866847E+04  0.69956276918E+03 0.  0.
        4    1    3    3  502    0 -0.11025648683E+03  0.31986331014E+03 -0.75875255709E+03  0.83076837076E+03  0.12699999809E+01 0.  1.
       -4    1    3    3    0  502  0.11025648683E+03 -0.31986331014E+03 -0.13137513489E+04  0.13566183140E+04  0.12699999809E+01 0. -1.
</event>
<event>
 5   0  0.1243087E-03  0.6993177E+03  0.7818609E-02  0.9718400E-01
       -2   -1    0    0    0  501  0.00000000000E+00  0.00000000000E+00  0.35438470400E+03  0.35438470401E+03  0.25500000920E-02 0. -1.
        2   -1    0    0  501    0  0.00000000000E+00  0.00000000000E+00 -0.34499602996E+03  0.34499602997E+03  0.25500000920E-02 0.  1.
    10030    2    1    2    0    0  0.00000000000E+00  0.00000000000E+00  0.93886740486E+01  0.69938073398E+03  0.69931771310E+03 0.  0.
        4    1    3    3  502    0 -0.55171375829E+02 -0.24659435082E+03  0.24639161873E+03  0.35293497595E+03  0.12699999809E+01 0. -1.
       -4    1    3    3    0  502  0.55171375829E+02  0.24659435082E+03 -0.23700294468E+03  0.34644575803E+03  0.12699999809E+01 0.  1.
</event>
<event>
 5   0  0.7570633E-04  0.7000079E+03  0.7818609E-02  0.9717219E-01
       -1   -1    0    0    0  501  0.00000000000E+00  0.00000000000E+00  0.13042151739E+03  0.13042151749E+03  0.50400001928E-02 0.  1.
        1   -1    0    0  501    0  0.00000000000E+00  0.00000000000E+00 -0.93928341681E+03  0.93928341682E+03  0.50400001928E-02 0. -1.
    10030    2    1    2    0    0  0.00000000000E+00  0.00000000000E+00 -0.80886189942E+03  0.10697049343E+04  0.70000791007E+03 0.  0.
        5    1    3    3  502    0  0.84074179339E+02 -0.30454222965E+03 -0.17436581666E+03  0.36088774610E+03  0.46999998093E+01 0.  1.
       -5    1    3    3    0  502 -0.84074179339E+02  0.30454222965E+03 -0.63449608276E+03  0.70881718821E+03  0.46999998093E+01 0. -1.
</event>
<event>
 5   0  0.1243087E-03  0.6999350E+03  0.7818609E-02  0.9717343E-01
       -2   -1    0    0    0  501  0.00000000000E+00  0.00000000000E+00  0.33431443702E+03  0.33431443702E+03  0.25500000920E-02 0.  1.
        2   -1    0    0  501    0  0.00000000000E+00  0.00000000000E+00 -0.36635340894E+03  0.36635340894E+03  0.25500000920E-02 0. -1.
    10030    2    1    2    0    0  0.00000000000E+00  0.00000000000E+00 -0.32038971921E+02  0.70066784597E+03  0.69993495030E+03 0.  0.
        4    1    3    3  502    0  0.31671560164E+03  0.20387683029E+02  0.13161779126E+03  0.34358301154E+03  0.12699999809E+01 0.  1.
       -4    1    3    3    0  502 -0.31671560164E+03 -0.20387683029E+02 -0.16365676318E+03  0.35708483443E+03  0.12699999809E+01 0. -1.
</event>
<event>
 5   0  0.1265562E-03  0.6997769E+03  0.7818609E-02  0.9717614E-01
        2   -1    0    0  501    0  0.00000000000E+00  0.00000000000E+00  0.72105559732E+03  0.72105559732E+03  0.25500000920E-02 0.  1.
       -2   -1    0    0    0  501  0.00000000000E+00  0.00000000000E+00 -0.16978153035E+03  0.16978153037E+03  0.25500000920E-02 0. -1.
    10030    2    1    2    0    0  0.00000000000E+00  0.00000000000E+00  0.55127406697E+03  0.89083712769E+03  0.69977688670E+03 0.  0.
        1    1    3    3  502    0  0.27238213807E+02  0.31882036698E+03  0.45582175167E+03  0.55692173240E+03  0.50400001928E-02 0.  1.
       -1    1    3    3    0  502 -0.27238213807E+02 -0.31882036698E+03  0.95452315291E+02  0.33391539529E+03  0.50400001928E-02 0. -1.
</event>
<event>
 5   0  0.7572415E-04  0.6997799E+03  0.7818609E-02  0.9717609E-01
        1   -1    0    0  501    0  0.00000000000E+00  0.00000000000E+00  0.10045087267E+04  0.10045087268E+04  0.50400001928E-02 0.  1.
       -1   -1    0    0    0  501  0.00000000000E+00  0.00000000000E+00 -0.12187346719E+03  0.12187346729E+03  0.50400001928E-02 0. -1.
    10030    2    1    2    0    0  0.00000000000E+00  0.00000000000E+00  0.88263525955E+03  0.11263821940E+04  0.69977985514E+03 0.  0.
        4    1    3    3  502    0 -0.30115162750E+03  0.17184148409E+03  0.51680795068E+03  0.62234545807E+03  0.12699999809E+01 0.  1.
       -4    1    3    3    0  502  0.30115162750E+03 -0.17184148409E+03  0.36582730887E+03  0.50403673598E+03  0.12699999809E+01 0. -1.
</event>
<event>
 5   0  0.4936000E-04  0.6997371E+03  0.7818609E-02  0.9717682E-01
        3   -1    0    0  501    0  0.00000000000E+00  0.00000000000E+00  0.17987715798E+03  0.17987718634E+03  0.10100000352E+00 0. -1.
       -3   -1    0    0    0  501  0.00000000000E+00  0.00000000000E+00 -0.68050875355E+03  0.68050876105E+03  0.10100000352E+00 0.  1.
    10030    2    1    2    0    0  0.00000000000E+00  0.00000000000E+00 -0.50063159557E+03  0.86038594739E+03  0.69973708204E+03 0.  0.
        2    1    3    3  502    0 -0.19424908179E+03 -0.16960216889E+03 -0.54105573830E+03  0.59936542561E+03  0.25500000920E-02 0.  1.
       -2    1    3    3    0  502  0.19424908179E+03  0.16960216889E+03  0.40424142731E+02  0.26102052178E+03  0.25500000920E-02 0. -1.
</event>
<event>
 5   0  0.7574241E-04  0.7003213E+03  0.7818609E-02  0.9716683E-01
        1   -1    0    0  501    0  0.00000000000E+00  0.00000000000E+00  0.11723700663E+04  0.11723700663E+04  0.50400001928E-02 0.  1.
       -1   -1    0    0    0  501  0.00000000000E+00  0.00000000000E+00 -0.10458513800E+03  0.10458513812E+03  0.50400001928E-02 0. -1.
    10030    2    1    2    0    0  0.00000000000E+00  0.00000000000E+00  0.10677849283E+04  0.12769552044E+04  0.70032131270E+03 0.  0.
        3    1    3    3  502    0  0.25648885004E+03 -0.23173299283E+03  0.43194968383E+03  0.55323344956E+03  0.10100000352E+00 0. -1.
       -3    1    3    3    0  502 -0.25648885004E+03  0.23173299283E+03  0.63583524442E+03  0.72372175483E+03  0.10100000352E+00 0.  1.
</event>
<event>
 5   0  0.1243087E-03  0.7001337E+03  0.7818609E-02  0.9717004E-01
        2   -1    0    0  501    0  0.00000000000E+00  0.00000000000E+00  0.65256399950E+03  0.65256399951E+03  0.25500000920E-02 0.  1.
       -2   -1    0    0    0  501  0.00000000000E+00  0.00000000000E+00 -0.18779276943E+03  0.18779276945E+03  0.25500000920E-02 0. -1.
    10030    2    1    2    0    0  0.00000000000E+00  0.00000000000E+00  0.46477123007E+03  0.84035676895E+03  0.70013370353E+03 0.  0.
        4    1    3    3  502    0  0.26414364918E+02 -0.18691515043E+03  0.58623470411E+03  0.61587964192E+03  0.12699999809E+01 0.  1.
       -4    1    3    3    0  502 -0.26414364918E+02  0.18691515043E+03 -0.12146347404E+03  0.22447712703E+03  0.12699999809E+01 0. -1.
</event>
<event>
 5   0  0.1265562E-03  0.7007166E+03  0.7818609E-02  0.9716008E-01
        2   -1    0    0  501    0  0.00000000000E+00  0.00000000000E+00  0.14635943454E+04  0.14635943454E+04  0.25500000920E-02 0. -1.
       -2   -1    0    0    0  501  0.00000000000E+00  0.00000000000E+00 -0.83869500114E+02  0.83869500153E+02  0.25500000920E-02 0.  1.
    10030    2    1    2    0    0  0.00000000000E+00  0.00000000000E+00  0.13797248453E+04  0.15474638456E+04  0.70071656510E+03 0.  0.
        1    1    3    3  502    0  0.11724266679E+03 -0.72303884524E+02  0.14012874955E+04  0.14080413132E+04  0.50400001928E-02 0. -1.
       -1    1    3    3    0  502 -0.11724266679E+03  0.72303884524E+02 -0.21562650163E+02  0.13942253240E+03  0.50400001928E-02 0.  1.
</event>
<event>
 5   0  0.1222679E-03  0.6998569E+03  0.7818609E-02  0.9717477E-01
       -2   -1    0    0    0  501  0.00000000000E+00  0.00000000000E+00  0.10930229373E+03  0.10930229376E+03  0.25500000920E-02 0.  1.
        2   -1    0    0  501    0  0.00000000000E+00  0.00000000000E+00 -0.11202868471E+04  0.11202868471E+04  0.25500000920E-02 0. -1.
    10030    2    1    2    0    0  0.00000000000E+00  0.00000000000E+00 -0.10109845534E+04  0.12295891409E+04  0.69985690552E+03 0.  0.
        2    1    3    3  502    0  0.14686433488E+03  0.68218820729E+01 -0.10633902779E+04  0.10735057308E+04  0.25500000920E-02 0. -1.
       -2    1    3    3    0  502 -0.14686433488E+03 -0.68218820729E+01  0.52405724506E+02  0.15608341008E+03  0.25500000920E-02 0.  1.
</event>
<event>
 5   0  0.1282546E-03  0.7008793E+03  0.7818609E-02  0.9715730E-01
       -2   -1    0    0    0  501  0.00000000000E+00  0.00000000000E+00  0.10654425669E+03  0.10654425672E+03  0.25500000920E-02 0. -1.
        2   -1    0    0  501    0  0.00000000000E+00  0.00000000000E+00 -0.11526471530E+04  0.11526471530E+04  0.25500000920E-02 0.  1.
    10030    2    1    2    0    0  0.00000000000E+00  0.00000000000E+00 -0.10461028963E+04  0.12591914098E+04  0.70087925970E+03 0.  0.
        5    1    3    3  502    0 -0.26212275242E+03 -0.53977632333E+02 -0.11667319616E+03  0.29198740868E+03  0.46999998093E+01 0. -1.
       -5    1    3    3    0  502  0.26212275242E+03  0.53977632333E+02 -0.92942970018E+03  0.96720400108E+03  0.46999998093E+01 0.  1.
</event>
<event>
 5   0  0.1222679E-03  0.7007778E+03  0.7818609E-02  0.9715903E-01
       -2   -1    0    0    0  501  0.00000000000E+00  0.00000000000E+00  0.98502066697E+02  0.98502066730E+02  0.25500000920E-02 0.  1.
        2   -1    0    0  501    0  0.00000000000E+00  0.00000000000E+00 -0.12463937933E+04  0.12463937933E+04  0.25500000920E-02 0. -1.
    10030    2    1    2    0    0  0.00000000000E+00  0.00000000000E+00 -0.11478917266E+04  0.13448958600E+04  0.70077775244E+03 0.  0.
        2    1    3    3  502    0  0.96315386786E+02 -0.26183968430E+03 -0.98076751710E+03  0.10196772022E+04  0.25500000920E-02 0. -1.
       -2    1    3    3    0  502 -0.96315386786E+02  0.26183968430E+03 -0.16712420946E+03  0.32521865783E+03  0.25500000920E-02 0.  1.
</event>
<event>
 5   0  0.7574241E-04  0.6997833E+03  0.7818609E-02  0.9717603E-01
       -1   -1    0    0    0  501  0.00000000000E+00  0.00000000000E+00  0.11796260393E+03  0.11796260404E+03  0.50400001928E-02 0.  1.
        1   -1    0    0  501    0  0.00000000000E+00  0.00000000000E+00 -0.10378218004E+04  0.10378218004E+04  0.50400001928E-02 0. -1.
    10030    2    1    2    0    0  0.00000000000E+00  0.00000000000E+00 -0.91985919642E+03  0.11557844044E+04  0.69978328662E+03 0.  0.
        3    1    3    3  502    0 -0.12345598365E+03 -0.22779698263E+02  0.79484020293E+02  0.14858672294E+03  0.10100000352E+00 0.  1.
       -3    1    3    3    0  502  0.12345598365E+03  0.22779698263E+02 -0.99934321672E+03  0.10071976815E+04  0.10100000352E+00 0. -1.
</event>
<event>
 5   0  0.1265562E-03  0.6999534E+03  0.7818609E-02  0.9717312E-01
       -2   -1    0    0    0  501  0.00000000000E+00  0.00000000000E+00  0.30934781632E+03  0.30934781633E+03  0.25500000920E-02 0. -1.
        2   -1    0    0  501    0  0.00000000000E+00  0.00000000000E+00 -0.39594167441E+03  0.39594167442E+03  0.25500000920E-02 0.  1.
    10030    2    1    2    0    0  0.00000000000E+00  0.00000000000E+00 -0.86593858086E+02  0.70528949075E+03  0.69995340524E+03 0.  0.
        1    1    3    3  502    0 -0.14473167284E+03 -0.29435020419E+03 -0.16626990395E+03  0.36774309078E+03  0.50400001928E-02 0. -1.
       -1    1    3    3    0  502  0.14473167284E+03  0.29435020419E+03  0.79676045863E+02  0.33754639998E+03  0.50400001928E-02 0.  1.
</event>
<event>
 5   0  0.7459843E-04  0.7000433E+03  0.7818609E-02  0.9717158E-01
        1   -1    0    0  501    0  0.00000000000E+00  0.00000000000E+00  0.79930557063E+03  0.79930557065E+03  0.50400001928E-02 0.  1.
       -1   -1    0    0    0  501  0.00000000000E+00  0.00000000000E+00 -0.15327697803E+03  0.15327697811E+03  0.50400001928E-02 0. -1.
    10030    2    1    2    0    0  0.00000000000E+00  0.00000000000E+00  0.64602859260E+03  0.95258254876E+03  0.70004326276E+03 0.  0.
        2    1    3    3  502    0 -0.17681884113E+03  0.39438634765E+02  0.73054605227E+03  0.75267379586E+03  0.25500000920E-02 0.  1.
       -2    1    3    3    0  502  0.17681884113E+03 -0.39438634765E+02 -0.84517459665E+02  0.19990875289E+03  0.25500000920E-02 0. -1.
</event>
<event>
 5   0  0.7572415E-04  0.7001091E+03  0.7818609E-02  0.9717046E-01
        1   -1    0    0  501    0  0.00000000000E+00  0.00000000000E+00  0.16152739545E+04  0.16152739546E+04  0.50400001928E-02 0. -1.
       -1   -1    0    0    0  501  0.00000000000E+00  0.00000000000E+00 -0.75862163500E+02  0.75862163667E+02  0.50400001928E-02 0.  1.
    10030    2    1    2    0    0  0.00000000000E+00  0.00000000000E+00  0.15394117910E+04  0.16911361182E+04  0.70010906860E+03 0.  0.
        4    1    3    3  502    0  0.95051053188E+02 -0.11340663260E+03  0.34040073098E+01  0.14801678012E+03  0.12699999809E+01 0.  1.
       -4    1    3    3    0  502 -0.95051053188E+02  0.11340663260E+03  0.15360077837E+04  0.15431193381E+04  0.12699999809E+01 0. -1.
</event>
<event>
 5   0  0.1224048E-03  0.7002623E+03  0.7818609E-02  0.9716784E-01
       -2   -1    0    0    0  501  0.00000000000E+00  0.00000000000E+00  0.57230796023E+02  0.57230796080E+02  0.25500000920E-02 0.  1.
        2   -1    0    0  501    0  0.00000000000E+00  0.00000000000E+00 -0.21420606100E+04  0.21420606100E+04  0.25500000920E-02 0. -1.
    10030    2    1    2    0    0  0.00000000000E+00  0.00000000000E+00 -0.20848298139E+04  0.21992914060E+04  0.70026233342E+03 0.  0.
        3    1    3    3  502    0  0.15989189920E+03  0.28764261210E+03 -0.14178282783E+04  0.14555207758E+04  0.10100000352E+00 0. -1.
       -3    1    3    3    0  502 -0.15989189920E+03 -0.28764261210E+03 -0.66700153561E+03  0.74377063025E+03  0.10100000352E+00 0.  1.
</event>
<event>
 5   0  0.1282546E-03  0.7008238E+03  0.7818609E-02  0.9715824E-01
       -2   -1    0    0    0  501  0.00000000000E+00  0.00000000000E+00  0.23514242652E+03  0.23514242654E+03  0.25500000920E-02 0. -1.
        2   -1    0    0  501    0  0.00000000000E+00  0.00000000000E+00 -0.52218773901E+03  0.52218773902E+03  0.25500000920E-02 0.  1.
    10030    2    1    2    0    0  0.00000000000E+00  0.00000000000E+00 -0.28704531249E+03  0.75733016555E+03  0.70082377830E+03 0.  0.
        5    1    3    3  502    0 -0.14835965347E+03  0.14949886085E+03 -0.44611003947E+03  0.49335256510E+03  0.46999998093E+01 0.  1.
       -5    1    3    3    0  502  0.14835965347E+03 -0.14949886085E+03  0.15906472698E+03  0.26397760046E+03  0.46999998093E+01 0. -1.
</event>
<event>
 5   0  0.4936000E-04  0.6997804E+03  0.7818609E-02  0.9717608E-01
        3   -1    0    0  501    0  0.00000000000E+00  0.00000000000E+00  0.12001407694E+04  0.12001407737E+04  0.10100000352E+00 0. -1.
       -3   -1    0    0    0  501  0.00000000000E+00  0.00000000000E+00 -0.10200730671E+03  0.10200735671E+03  0.10100000352E+00 0.  1.
    10030    2    1    2    0    0  0.00000000000E+00  0.00000000000E+00  0.10981334627E+04  0.13021481304E+04  0.69978043093E+03 0.  0.
        1    1    3    3  502    0 -0.18318940783E+03 -0.28479110578E+03  0.71297343280E+03  0.78930060748E+03  0.50400001928E-02 0. -1.
       -1    1    3    3    0  502  0.18318940783E+03  0.28479110578E+03  0.38516002991E+03  0.51284752289E+03  0.50400001928E-02 0.  1.
</event>
<event>
 5   0  0.7570633E-04  0.7001455E+03  0.7818609E-02  0.9716983E-01
       -1   -1    0    0    0  501  0.00000000000E+00  0.00000000000E+00  0.87020436928E+03  0.87020436929E+03  0.50400001928E-02 0. -1.
        1   -1    0    0  501    0  0.00000000000E+00  0.00000000000E+00 -0.14083004223E+03  0.14083004232E+03  0.50400001928E-02 0.  1.
    10030    2    1    2    0    0  0.00000000000E+00  0.00000000000E+00  0.72937432704E+03  0.10110344116E+04  0.70014546526E+03 0.  0.
        5    1    3    3  502    0 -0.16028634304E+03 -0.30641739357E+03  0.44305844905E+03  0.56205534435E+03  0.46999998093E+01 0.  1.
       -5    1    3    3    0  502  0.16028634304E+03  0.30641739357E+03  0.28631587800E+03  0.44897906726E+03  0.46999998093E+01 0. -1.
</event>
<event>
 5   0  0.1282546E-03  0.6999175E+03  0.7818609E-02  0.9717373E-01
       -2   -1    0    0    0  501  0.00000000000E+00  0.00000000000E+00  0.41520945892E+03  0.41520945893E+03  0.25500000920E-02 0.  1.
        2   -1    0    0  501    0  0.00000000000E+00  0.00000000000E+00 -0.29496228701E+03  0.29496228703E+03  0.25500000920E-02 0. -1.
    10030    2    1    2    0    0  0.00000000000E+00  0.00000000000E+00  0.12024717191E+03  0.71017174595E+03  0.69991751400E+03 0.  0.
        5    1    3    3  502    0 -0.30786222406E+03  0.94052460944E+02  0.19933434444E+03  0.37865721343E+03  0.46999998093E+01 0.  1.
       -5    1    3    3    0  502  0.30786222406E+03 -0.94052460944E+02 -0.79087172539E+02  0.33151453252E+03  0.46999998093E+01 0. -1.
</event>
<event>
 5   0  0.1265562E-03  0.7000760E+03  0.7818609E-02  0.9717102E-01
        2   -1    0    0  501    0  0.00000000000E+00  0.00000000000E+00  0.42147688521E+03  0.42147688522E+03  0.25500000920E-02 0. -1.
       -2   -1    0    0    0  501  0.00000000000E+00  0.00000000000E+00 -0.29070779455E+03  0.29070779456E+03  0.25500000920E-02 0.  1.
    10030    2    1    2    0    0  0.00000000000E+00  0.00000000000E+00  0.13076909066E+03  0.71218467978E+03  0.70007604090E+03 0.  0.
        1    1    3    3  502    0 -0.39344327975E+02  0.34636952190E+03  0.33105721772E+02  0.35016540475E+03  0.50400001928E-02 0.  1.
       -1    1    3    3    0  502  0.39344327975E+02 -0.34636952190E+03  0.97663368884E+02  0.36201927503E+03  0.50400001928E-02 0. -1.
</event>
<event>
 5   0  0.7572415E-04  0.6999552E+03  0.7818609E-02  0.9717309E-01
       -1   -1    0    0    0  501  0.00000000000E+00  0.00000000000E+00  0.11874922383E+03  0.11874922393E+03  0.50400001928E-02 0.  1.
        1   -1    0    0  501    0  0.00000000000E+00  0.00000000000E+00 -0.10314535798E+04  0.10314535799E+04  0.50400001928E-02 0. -1.
    10030    2    1    2    0    0  0.00000000000E+00  0.00000000000E+00 -0.91270435601E+03  0.11502028038E+04  0.69995517596E+03 0.  0.
        4    1    3    3  502    0 -0.18407249526E+01  0.19055859357E+03 -0.93871519954E+03  0.95786418901E+03  0.12699999809E+01 0. -1.
       -4    1    3    3    0  502  0.18407249526E+01 -0.19055859357E+03  0.26010843527E+02  0.19233861477E+03  0.12699999809E+01 0.  1.
</event>
<event>
 5   0  0.4936000E-04  0.6998664E+03  0.7818609E-02  0.9717461E-01
       -3   -1    0    0    0  501  0.00000000000E+00  0.00000000000E+00  0.12362136022E+03  0.12362140148E+03  0.10100000352E+00 0.  1.
        3   -1    0    0  501    0  0.00000000000E+00  0.00000000000E+00 -0.99055063417E+03  0.99055063932E+03  0.10100000352E+00 0. -1.
    10030    2    1    2    0    0  0.00000000000E+00  0.00000000000E+00 -0.86692927396E+03  0.11141720408E+04  0.69986639472E+03 0.  0.
        3    1    3    3  502    0 -0.22158682179E+03  0.12065521988E+02 -0.86420267996E+03  0.89224020233E+03  0.10100000352E+00 0. -1.
       -3    1    3    3    0  502  0.22158682179E+03 -0.12065521988E+02 -0.27265940021E+01  0.22193183847E+03  0.10100000352E+00 0.  1.
</event>
<event>
 5   0  0.7570633E-04  0.7000742E+03  0.7818609E-02  0.9717105E-01
       -1   -1    0    0    0  501  0.00000000000E+00  0.00000000000E+00  0.85895152378E+02  0.85895152526E+02  0.50400001928E-02 0.  1.
        1   -1    0    0  501    0  0.00000000000E+00  0.00000000000E+00 -0.14264595797E+04  0.14264595797E+04  0.50400001928E-02 0. -1.
    10030    2    1    2    0    0  0.00000000000E+00  0.00000000000E+00 -0.13405644273E+04  0.15123547322E+04  0.70007417629E+03 0.  0.
        5    1    3    3  502    0  0.93920746939E+02  0.20587861820E+03 -0.93456633535E+02  0.24487414009E+03  0.46999998093E+01 0.  1.
       -5    1    3    3    0  502 -0.93920746939E+02 -0.20587861820E+03 -0.12471077938E+04  0.12674805921E+04  0.46999998093E+01 0. -1.
</event>
<event>
 5   0  0.1282546E-03  0.7006166E+03  0.7818609E-02  0.9716178E-01
       -2   -1    0    0    0  501  0.00000000000E+00  0.00000000000E+00  0.11037455921E+03  0.11037455924E+03  0.25500000920E-02 0.  1.
        2   -1    0    0  501    0  0.00000000000E+00  0.00000000000E+00 -0.11118132760E+04  0.11118132760E+04  0.25500000920E-02 0. -1.
    10030    2    1    2    0    0  0.00000000000E+00  0.00000000000E+00 -0.10014387168E+04  0.12221878352E+04  0.70061658639E+03 0.  0.
        5    1    3    3  502    0 -0.28574712232E+03  0.17326354512E+03 -0.31757631330E+03  0.46102980245E+03  0.46999998093E+01 0.  1.
       -5    1    3    3    0  502  0.28574712232E+03 -0.17326354512E+03 -0.68386240348E+03  0.76115803279E+03  0.46999998093E+01 0. -1.
</event>
<event>
 5   0  0.1222679E-03  0.6995645E+03  0.7818609E-02  0.9717977E-01
       -2   -1    0    0    0  501  0.00000000000E+00  0.00000000000E+00  0.27577784633E+03  0.27577784634E+03  0.25500000920E-02 0.  1.
        2   -1    0    0  501    0  0.00000000000E+00  0.00000000000E+00 -0.44364554336E+03  0.44364554337E+03  0.25500000920E-02 0. -1.
    10030    2    1    2    0    0  0.00000000000E+00  0.00000000000E+00 -0.16786769703E+03  0.71942338971E+03  0.69956447162E+03 0.  0.
        2    1    3    3  502    0 -0.26657888645E+02 -0.33873396535E+03 -0.16933504238E+03  0.37963890593E+03  0.25500000920E-02 0. -1.
       -2    1    3    3    0  502  0.26657888645E+02  0.33873396535E+03  0.14673453496E+01  0.33978448378E+03  0.25500000920E-02 0.  1.
</event>
<event>
 5   0  0.1224048E-03  0.7007085E+03  0.7818609E-02  0.9716021E-01
        2   -1    0    0  501    0  0.00000000000E+00  0.00000000000E+00  0.25781092900E+03  0.25781092901E+03  0.25500000920E-02 0.  1.
       -2   -1    0    0    0  501  0.00000000000E+00  0.00000000000E+00 -0.47611676227E+03  0.47611676228E+03  0.25500000920E-02 0. -1.
    10030    2    1    2    0    0  0.00000000000E+00  0.00000000000E+00 -0.21830583327E+03  0.73392769129E+03  0.70070851230E+03 0.  0.
        3    1    3    3  502    0 -0.11136318484E+03 -0.20051882281E+03  0.16823927584E+03  0.28445390026E+03  0.10100000352E+00 0.  1.
       -3    1    3    3    0  502  0.11136318484E+03  0.20051882281E+03 -0.38654510912E+03  0.44947379103E+03  0.10100000352E+00 0. -1.
</event>
<event>
 5   0  0.7013526E-04  0.7007834E+03  0.7818609E-02  0.9715893E-01
        1   -1    0    0  501    0  0.00000000000E+00  0.00000000000E+00  0.49493262723E+02  0.49493262979E+02  0.50400001928E-02 0.  1.
       -1   -1    0    0    0  501  0.00000000000E+00  0.00000000000E+00 -0.24806273728E+04  0.24806273728E+04  0.50400001928E-02 0. -1.
    10030    2    1    2    0    0  0.00000000000E+00  0.00000000000E+00 -0.24311341101E+04  0.25301206358E+04  0.70078339766E+03 0.  0.
        1    1    3    3  502    0  0.13568479966E+03  0.23531439792E+03 -0.41643956193E+03  0.49719728428E+03  0.50400001928E-02 0.  1.
       -1    1    3    3    0  502 -0.13568479966E+03 -0.23531439792E+03 -0.20146945482E+04  0.20329233515E+04  0.50400001928E-02 0. -1.
</event>
<event>
 5   0  0.1224048E-03  0.6998284E+03  0.7818609E-02  0.9717526E-01
       -2   -1    0    0    0  501  0.00000000000E+00  0.00000000000E+00  0.68624235718E+03  0.68624235718E+03  0.25500000920E-02 0. -1.
        2   -1    0    0  501    0  0.00000000000E+00  0.00000000000E+00 -0.17842083598E+03  0.17842083600E+03  0.25500000920E-02 0.  1.
    10030    2    1    2    0    0  0.00000000000E+00  0.00000000000E+00  0.50782152120E+03  0.86466319318E+03  0.69982836486E+03 0.  0.
        3    1    3    3  502    0 -0.20394312343E+03 -0.73328187540E+02 -0.85513519994E+02  0.23298582143E+03  0.10100000352E+00 0.  1.
       -3    1    3    3    0  502  0.20394312343E+03  0.73328187540E+02  0.59333504119E+03  0.63167737176E+03  0.10100000352E+00 0. -1.
</event>
<event>
 5   0  0.1282546E-03  0.7009300E+03  0.7818609E-02  0.9715643E-01
        2   -1    0    0  501    0  0.00000000000E+00  0.00000000000E+00  0.88241299211E+03  0.88241299211E+03  0.25500000920E-02 0. -1.
       -2   -1    0    0    0  501  0.00000000000E+00  0.00000000000E+00 -0.13919301172E+03  0.13919301174E+03  0.25500000920E-02 0.  1.
    10030    2    1    2    0    0  0.00000000000E+00  0.00000000000E+00  0.74321998039E+03  0.10216060039E+04  0.70093001638E+03 0.  0.
        5    1    3    3  502    0  0.15414182990E+03 -0.31211361893E+03  0.43043629956E+03  0.55359923485E+03  0.46999998093E+01 0. -1.
       -5    1    3    3    0  502 -0.15414182990E+03  0.31211361893E+03  0.31278368082E+03  0.46800676901E+03  0.46999998093E+01 0.  1.
</event>
<event>
 5   0  0.7013526E-04  0.6999140E+03  0.7818609E-02  0.9717379E-01
        1   -1    0    0  501    0  0.00000000000E+00  0.00000000000E+00  0.11002818986E+04  0.11002818986E+04  0.50400001928E-02 0.  1.
       -1   -1    0    0    0  501  0.00000000000E+00  0.00000000000E+00 -0.11130775258E+03  0.11130775270E+03  0.50400001928E-02 0. -1.
    10030    2    1    2    0    0  0.00000000000E+00  0.00000000000E+00  0.98897414606E+03  0.12115896513E+04  0.69991401021E+03 0.  0.
        1    1    3    3  502    0 -0.24979255138E+02  0.26480062014E+03  0.88818916710E+03  0.92715873948E+03  0.50400001928E-02 0.  1.
       -1    1    3    3    0  502  0.24979255138E+02 -0.26480062014E+03  0.10078497895E+03  0.28443091186E+03  0.50400001928E-02 0. -1.
</event>
<event>
 5   0  0.7459843E-04  0.6999386E+03  0.7818609E-02  0.9717337E-01
       -1   -1    0    0    0  501  0.00000000000E+00  0.00000000000E+00  0.20714891242E+03  0.20714891248E+03  0.50400001928E-02 0.  1.
        1   -1    0    0  501    0  0.00000000000E+00  0.00000000000E+00 -0.59125826789E+03  0.59125826791E+03  0.50400001928E-02 0. -1.
    10030    2    1    2    0    0  0.00000000000E+00  0.00000000000E+00 -0.38410935547E+03  0.79840718039E+03  0.69993858926E+03 0.  0.
        2    1    3    3  502    0 -0.39914480644E+02  0.17440819109E+03 -0.53514612268E+03  0.56426301980E+03  0.25500000920E-02 0. -1.
       -2    1    3    3    0  502  0.39914480644E+02 -0.17440819109E+03  0.15103676721E+03  0.23414416059E+03  0.25500000920E-02 0.  1.
</event>
<event>
 5   0  0.1243087E-03  0.7000020E+03  0.7818609E-02  0.9717229E-01
        2   -1    0    0  501    0  0.00000000000E+00  0.00000000000E+00  0.91581770491E+03  0.91581770492E+03  0.25500000920E-02 0.  1.
       -2   -1    0    0    0  501  0.00000000000E+00  0.00000000000E+00 -0.13376102056E+03  0.13376102059E+03  0.25500000920E-02 0. -1.
    10030    2    1    2    0    0  0.00000000000E+00  0.00000000000E+00  0.78205668435E+03  0.10495787255E+04  0.70000203107E+03 0.  0.
        4    1    3    3  502    0  0.10029922351E+03 -0.92266028436E+02  0.87439659773E+03  0.88495422325E+03  0.12699999809E+01 0.  1.
       -4    1    3    3    0  502 -0.10029922351E+03  0.92266028436E+02 -0.92339913375E+02  0.16462450225E+03  0.12699999809E+01 0. -1.
</event>
<event>
 5   0  0.1243087E-03  0.6998016E+03  0.7818609E-02  0.9717572E-01
       -2   -1    0    0    0  501  0.00000000000E+00  0.00000000000E+00  0.11692866517E+03  0.11692866520E+03  0.25500000920E-02 0.  1.
        2   -1    0    0  501    0  0.00000000000E+00  0.00000000000E+00 -0.10470535093E+04  0.10470535093E+04  0.25500000920E-02 0. -1.
    10030    2    1    2    0    0  0.00000000000E+00  0.00000000000E+00 -0.93012484409E+03  0.11639821745E+04  0.69980159823E+03 0.  0.
        4    1    3    3  502    0 -0.22956148677E+03  0.56056976200E+02 -0.35852555905E+02  0.23901439173E+03  0.12699999809E+01 0.  1.
       -4    1    3    3    0  502  0.22956148677E+03 -0.56056976200E+02 -0.89427228818E+03  0.92496778274E+03  0.12699999809E+01 0. -1.
</event>
<event>
 5   0  0.1222679E-03  0.7002069E+03  0.7818609E-02  0.9716878E-01
       -2   -1    0    0    0  501  0.00000000000E+00  0.00000000000E+00  0.11226859432E+03  0.11226859434E+03  0.25500000920E-02 0.  1.
        2   -1    0    0  501    0  0.00000000000E+00  0.00000000000E+00 -0.10917784758E+04  0.10917784758E+04  0.25500000920E-02 0. -1.
    10030    2    1    2    0    0  0.00000000000E+00  0.00000000000E+00 -0.97950988145E+03  0.12040470701E+04  0.70020692598E+03 0.  0.
        2    1    3    3  502    0 -0.53324615880E+02  0.79430981552E+02  0.89355232085E+02  0.13090894926E+03  0.25500000920E-02 0.  1.
       -2    1    3    3    0  502  0.53324615880E+02 -0.79430981552E+02 -0.10688651135E+04  0.10731381209E+04  0.25500000920E-02 0. -1.
</event>
<event>
 5   0  0.1265562E-03  0.6999375E+03  0.7818609E-02  0.9717339E-01
       -2   -1    0    0    0  501  0.00000000000E+00  0.00000000000E+00  0.11209784786E+03  0.11209784789E+03  0.25500000920E-02 0.  1.
        2   -1    0    0  501    0  0.00000000000E+00  0.00000000000E+00 -0.10926001843E+04  0.10926001843E+04  0.25500000920E-02 0. -1.
    10030    2    1    2    0    0  0.00000000000E+00  0.00000000000E+00 -0.98050233642E+03  0.12046980322E+04  0.69993750934E+03 0.  0.
        1    1    3    3  502    0 -0.61452014242E+02  0.17380880800E+03  0.21750786780E+02  0.18563121651E+03  0.50400001928E-02 0.  1.
       -1    1    3    3    0  502  0.61452014242E+02 -0.17380880800E+03 -0.10022531232E+04  0.10190668157E+04  0.50400001928E-02 0. -1.
</event>
<event>
 5   0  0.1243087E-03  0.6991247E+03  0.7818609E-02  0.9718730E-01
       -2   -1    0    0    0  501  0.00000000000E+00  0.00000000000E+00  0.20708555987E+03  0.20708555988E+03  0.25500000920E-02 0.  1.
        2   -1    0    0  501    0  0.00000000000E+00  0.00000000000E+00 -0.59006449470E+03  0.59006449471E+03  0.25500000920E-02 0. -1.
    10030    2    1    2    0    0  0.00000000000E+00  0.00000000000E+00 -0.38297893484E+03  0.79715005459E+03  0.69912469918E+03 0.  0.
        4    1    3    3  502    0 -0.54479634702E+02 -0.17430439298E+03  0.14836659150E+03  0.23529621838E+03  0.12699999809E+01 0.  1.
       -4    1    3    3    0  502  0.54479634702E+02  0.17430439298E+03 -0.53134552634E+03  0.56185383621E+03  0.12699999809E+01 0. -1.
</event>
<event>
 5   0  0.1224048E-03  0.7005653E+03  0.7818609E-02  0.9716266E-01
        2   -1    0    0  501    0  0.00000000000E+00  0.00000000000E+00  0.36450469724E+03  0.36450469725E+03  0.25500000920E-02 0. -1.
       -2   -1    0    0    0  501  0.00000000000E+00  0.00000000000E+00 -0.33661554053E+03  0.33661554054E+03  0.25500000920E-02 0.  1.
    10030    2    1    2    0    0  0.00000000000E+00  0.00000000000E+00  0.27889156706E+02  0.70112023779E+03  0.70056533084E+03 0.  0.
        3    1    3    3  502    0 -0.31612187244E+03 -0.43339777513E+02 -0.13069173068E+03  0.34480677664E+03  0.10100000352E+00 0.  1.
       -3    1    3    3    0  502  0.31612187244E+03  0.43339777513E+02  0.15858088739E+03  0.35631346115E+03  0.10100000352E+00 0. -1.
</event>
<event>
 5   0  0.4936000E-04  0.7003783E+03  0.7818609E-02  0.9716585E-01
       -3   -1    0    0    0  501  0.00000000000E+00  0.00000000000E+00  0.58501456870E+03  0.58501457742E+03  0.10100000352E+00 0. -1.
        3   -1    0    0  501    0  0.00000000000E+00  0.00000000000E+00 -0.20962287136E+03  0.20962289569E+03  0.10100000352E+00 0.  1.
    10030    2    1    2    0    0  0.00000000000E+00  0.00000000000E+00  0.37539169734E+03  0.79463747311E+03  0.70037831722E+03 0.  0.
        3    1    3    3  502    0 -0.29754752128E+03 -0.18227460818E+03  0.22123571715E+03  0.41316317956E+03  0.10100000352E+00 0.  1.
       -3    1    3    3    0  502  0.29754752128E+03  0.18227460818E+03  0.15415598019E+03  0.38147429354E+03  0.10100000352E+00 0. -1.
</event>
<event>
 5   0  0.7013526E-04  0.6978708E+03  0.7818609E-02  0.9720880E-01
        1   -1    0    0  501    0  0.00000000000E+00  0.00000000000E+00  0.27839517879E+03  0.27839517884E+03  0.50400001928E-02 0.  1.
       -1   -1    0    0    0  501  0.00000000000E+00  0.00000000000E+00 -0.43734924034E+03  0.43734924037E+03  0.50400001928E-02 0. -1.
    10030    2    1    2    0    0  0.00000000000E+00  0.00000000000E+00 -0.15895406154E+03  0.71574441921E+03  0.69787081895E+03 0.  0.
        1    1    3    3  502    0 -0.58805219709E+02  0.30748588929E+03  0.78581312818E+02  0.32277027237E+03  0.50400001928E-02 0.  1.
       -1    1    3    3    0  502  0.58805219709E+02 -0.30748588929E+03 -0.23753537436E+03  0.39297414683E+03  0.50400001928E-02 0. -1.
</event>
<event>
 5   0  0.7013526E-04  0.7001953E+03  0.7818609E-02  0.9716898E-01
        1   -1    0    0  501    0  0.00000000000E+00  0.00000000000E+00  0.73165918338E+03  0.73165918340E+03  0.50400001928E-02 0.  1.
       -1   -1    0    0    0  501  0.00000000000E+00  0.00000000000E+00 -0.16752110156E+03  0.16752110164E+03  0.50400001928E-02 0. -1.
    10030    2    1    2    0    0  0.00000000000E+00  0.00000000000E+00  0.56413808182E+03  0.89918028504E+03  0.70019526537E+03 0.  0.
        1    1    3    3  502    0 -0.21860201318E+03 -0.12506700349E+03  0.59436572554E+03  0.64552243280E+03  0.50400001928E-02 0.  1.
       -1    1    3    3    0  502  0.21860201318E+03  0.12506700349E+03 -0.30227643723E+02  0.25365785224E+03  0.50400001928E-02 0. -1.
</event>
<event>
 5   0  0.7572415E-04  0.7001802E+03  0.7818609E-02  0.9716924E-01
        1   -1    0    0  501    0  0.00000000000E+00  0.00000000000E+00  0.10673227182E+04  0.10673227182E+04  0.50400001928E-02 0.  1.
       -1   -1    0    0    0  501  0.00000000000E+00  0.00000000000E+00 -0.11483224805E+03  0.11483224816E+03  0.50400001928E-02 0. -1.
    10030    2    1    2    0    0  0.00000000000E+00  0.00000000000E+00  0.95249047012E+03  0.11821549663E+04  0.70018016881E+03 0.  0.
        4    1    3    3  502    0  0.21531583905E+03  0.22975538949E+03  0.73458614304E+03  0.79922891839E+03  0.12699999809E+01 0.  1.
       -4    1    3    3    0  502 -0.21531583905E+03 -0.22975538949E+03  0.21790432707E+03  0.38292604795E+03  0.12699999809E+01 0. -1.
</event>
<event>
 5   0  0.7013526E-04  0.7000003E+03  0.7818609E-02  0.9717232E-01
       -1   -1    0    0    0  501  0.00000000000E+00  0.00000000000E+00  0.43401411500E+03  0.43401411503E+03  0.50400001928E-02 0.  1.
        1   -1    0    0  501    0  0.00000000000E+00  0.00000000000E+00 -0.28224915257E+03  0.28224915262E+03  0.50400001928E-02 0. -1.
    10030    2    1    2    0    0  0.00000000000E+00  0.00000000000E+00  0.15176496243E+03  0.71626326765E+03  0.70000033198E+03 0.  0.
        1    1    3    3  502    0 -0.27849687384E+03 -0.34406821479E+02  0.28992109968E+03  0.40348306305E+03  0.50400001928E-02 0.  1.
       -1    1    3    3    0  502  0.27849687384E+03  0.34406821479E+02 -0.13815613725E+03  0.31278020460E+03  0.50400001928E-02 0. -1.
</event>
<event>
 5   0  0.1265562E-03  0.7001307E+03  0.7818609E-02  0.9717009E-01
       -2   -1    0    0    0  501  0.00000000000E+00  0.00000000000E+00  0.45397315381E+03  0.45397315381E+03  0.25500000920E-02 0. -1.
        2   -1    0    0  501    0  0.00000000000E+00  0.00000000000E+00 -0.26994049888E+03  0.26994049889E+03  0.25500000920E-02 0.  1.
    10030    2    1    2    0    0  0.00000000000E+00  0.00000000000E+00  0.18403265493E+03  0.72391365270E+03  0.70013067244E+03 0.  0.
        1    1    3    3  502    0 -0.16133092395E+03  0.41758613452E+01  0.41321426504E+03  0.44361146705E+03  0.50400001928E-02 0. -1.
       -1    1    3    3    0  502  0.16133092395E+03 -0.41758613452E+01 -0.22918161012E+03  0.28030218565E+03  0.50400001928E-02 0.  1.
</event>
<event>
 5   0  0.1243087E-03  0.6997987E+03  0.7818609E-02  0.9717577E-01
        2   -1    0    0  501    0  0.00000000000E+00  0.00000000000E+00  0.14194962156E+04  0.14194962156E+04  0.25500000920E-02 0.  1.
       -2   -1    0    0    0  501  0.00000000000E+00  0.00000000000E+00 -0.86248595595E+02  0.86248595632E+02  0.25500000920E-02 0. -1.
    10030    2    1    2    0    0  0.00000000000E+00  0.00000000000E+00  0.13332476200E+04  0.15057448113E+04  0.69979869985E+03 0.  0.
        4    1    3    3  502    0  0.31100011472E+03  0.13855237573E+03  0.84023287872E+03  0.90659292716E+03  0.12699999809E+01 0. -1.
       -4    1    3    3    0  502 -0.31100011472E+03 -0.13855237573E+03  0.49301474130E+03  0.59915188410E+03  0.12699999809E+01 0.  1.
</event>
<event>
 5   0  0.1222679E-03  0.7006711E+03  0.7818609E-02  0.9716085E-01
        2   -1    0    0  501    0  0.00000000000E+00  0.00000000000E+00  0.12917701039E+04  0.12917701039E+04  0.25500000920E-02 0.  1.
       -2   -1    0    0    0  501  0.00000000000E+00  0.00000000000E+00 -0.95013039025E+02  0.95013039059E+02  0.25500000920E-02 0. -1.
    10030    2    1    2    0    0  0.00000000000E+00  0.00000000000E+00  0.11967570649E+04  0.13867831430E+04  0.70067111634E+03 0.  0.
        2    1    3    3  502    0 -0.19674771230E+02 -0.43074117586E+02  0.12854064663E+04  0.12862784535E+04  0.25500000920E-02 0.  1.
       -2    1    3    3    0  502  0.19674771230E+02  0.43074117586E+02 -0.88649401433E+02  0.10050468949E+03  0.25500000920E-02 0. -1.
</event>
<event>
 5   0  0.7570633E-04  0.7007441E+03  0.7818609E-02  0.9715961E-01
       -1   -1    0    0    0  501  0.00000000000E+00  0.00000000000E+00  0.94495524442E+02  0.94495524577E+02  0.50400001928E-02 0.  1.
        1   -1    0    0  501    0  0.00000000000E+00  0.00000000000E+00 -0.12991152201E+04  0.12991152201E+04  0.50400001928E-02 0. -1.
    10030    2    1    2    0    0  0.00000000000E+00  0.00000000000E+00 -0.12046196956E+04  0.13936107447E+04  0.70074410203E+03 0.  0.
        5    1    3    3  502    0 -0.81414317841E+02 -0.34011490436E+03 -0.56097213600E+03  0.66107357131E+03  0.46999998093E+01 0.  1.
       -5    1    3    3    0  502  0.81414317841E+02  0.34011490436E+03 -0.64364755963E+03  0.73253717334E+03  0.46999998093E+01 0. -1.
</event>
<event>
 5   0  0.7574241E-04  0.6998348E+03  0.7818609E-02  0.9717515E-01
        1   -1    0    0  501    0  0.00000000000E+00  0.00000000000E+00  0.57105972310E+03  0.57105972312E+03  0.50400001928E-02 0.  1.
       -1   -1    0    0    0  501  0.00000000000E+00  0.00000000000E+00 -0.21441220263E+03  0.21441220269E+03  0.50400001928E-02 0. -1.
    10030    2    1    2    0    0  0.00000000000E+00  0.00000000000E+00  0.35664752047E+03  0.78547192582E+03  0.69983476078E+03 0.  0.
        3    1    3    3  502    0  0.10262176931E+02  0.28182556498E+03 -0.54174921474E+02  0.28716875469E+03  0.10100000352E+00 0. -1.
       -3    1    3    3    0  502 -0.10262176931E+02 -0.28182556498E+03  0.41082244194E+03  0.49830317113E+03  0.10100000352E+00 0.  1.
</event>
<event>
 5   0  0.1265562E-03  0.6999228E+03  0.7818609E-02  0.9717364E-01
       -2   -1    0    0    0  501  0.00000000000E+00  0.00000000000E+00  0.26388391647E+03  0.26388391649E+03  0.25500000920E-02 0. -1.
        2   -1    0    0  501    0  0.00000000000E+00  0.00000000000E+00 -0.46411692326E+03  0.46411692327E+03  0.25500000920E-02 0.  1.
    10030    2    1    2    0    0  0.00000000000E+00  0.00000000000E+00 -0.20023300679E+03  0.72800083975E+03  0.69992282837E+03 0.  0.
        1    1    3    3  502    0 -0.16937006423E+02 -0.25823106665E+03  0.14492482940E+03  0.29660302118E+03  0.50400001928E-02 0. -1.
       -1    1    3    3    0  502  0.16937006423E+02  0.25823106665E+03 -0.34515783619E+03  0.43139781858E+03  0.50400001928E-02 0.  1.
</event>
<event>
 5   0  0.7572415E-04  0.6972085E+03  0.7818609E-02  0.9722018E-01
        1   -1    0    0  501    0  0.00000000000E+00  0.00000000000E+00  0.64833714917E+03  0.64833714919E+03  0.50400001928E-02 0. -1.
       -1   -1    0    0    0  501  0.00000000000E+00  0.00000000000E+00 -0.18744095060E+03  0.18744095067E+03  0.50400001928E-02 0.  1.
    10030    2    1    2    0    0  0.00000000000E+00  0.00000000000E+00  0.46089619858E+03  0.83577809986E+03  0.69720852429E+03 0.  0.
        4    1    3    3  502    0  0.18021853757E+03 -0.25125417338E+03  0.37468338887E+02  0.31146889129E+03  0.12699999809E+01 0.  1.
       -4    1    3    3    0  502 -0.18021853757E+03  0.25125417338E+03  0.42342785969E+03  0.52430920856E+03  0.12699999809E+01 0. -1.
</event>
<event>
 5   0  0.7013526E-04  0.7011289E+03  0.7818609E-02  0.9715304E-01
        1   -1    0    0  501    0  0.00000000000E+00  0.00000000000E+00  0.38409768357E+03  0.38409768360E+03  0.50400001928E-02 0. -1.
       -1   -1    0    0    0  501  0.00000000000E+00  0.00000000000E+00 -0.31995878092E+03  0.31995878096E+03  0.50400001928E-02 0.  1.
    10030    2    1    2    0    0  0.00000000000E+00  0.00000000000E+00  0.64138902651E+02  0.70405646456E+03  0.70112888006E+03 0.  0.
        1    1    3    3  502    0 -0.12474257982E+03  0.19021253590E+03 -0.23579125433E+03  0.32762636597E+03  0.50400001928E-02 0.  1.
       -1    1    3    3    0  502  0.12474257982E+03 -0.19021253590E+03  0.29993015698E+03  0.37643009859E+03  0.50400001928E-02 0. -1.
</event>
<event>
 5   0  0.7013526E-04  0.6982901E+03  0.7818609E-02  0.9720161E-01
        1   -1    0    0  501    0  0.00000000000E+00  0.00000000000E+00  0.12301676503E+04  0.12301676503E+04  0.50400001928E-02 0. -1.
       -1   -1    0    0    0  501  0.00000000000E+00  0.00000000000E+00 -0.99094015761E+02  0.99094015889E+02  0.50400001928E-02 0.  1.
    10030    2    1    2    0    0  0.00000000000E+00  0.00000000000E+00  0.11310736345E+04  0.13292616662E+04  0.69829006185E+03 0.  0.
        1    1    3    3  502    0  0.24551735505E+03  0.21012160837E+03  0.31391355707E+03  0.45052367671E+03  0.50400001928E-02 0.  1.
       -1    1    3    3    0  502 -0.24551735505E+03 -0.21012160837E+03  0.81716007748E+03  0.87873798950E+03  0.50400001928E-02 0. -1.
</event>
<event>
 5   0  0.4936000E-04  0.7007271E+03  0.7818609E-02  0.9715990E-01
       -3   -1    0    0    0  501  0.00000000000E+00  0.00000000000E+00  0.21208039201E+03  0.21208041606E+03  0.10100000352E+00 0. -1.
        3   -1    0    0  501    0  0.00000000000E+00  0.00000000000E+00 -0.57881160865E+03  0.57881161746E+03  0.10100000352E+00 0.  1.
    10030    2    1    2    0    0  0.00000000000E+00  0.00000000000E+00 -0.36673121664E+03  0.79089203352E+03  0.70072706771E+03 0.  0.
        4    1    3    3  502    0 -0.30855763714E+03 -0.16473898880E+03 -0.20611455545E+03  0.40599454766E+03  0.12699999809E+01 0.  1.
       -4    1    3    3    0  502  0.30855763714E+03  0.16473898880E+03 -0.16061666119E+03  0.38489748586E+03  0.12699999809E+01 0. -1.
</event>
<event>
 5   0  0.7570633E-04  0.6999003E+03  0.7818609E-02  0.9717403E-01
        1   -1    0    0  501    0  0.00000000000E+00  0.00000000000E+00  0.21704885201E+03  0.21704885207E+03  0.50400001928E-02 0. -1.
       -1   -1    0    0    0  501  0.00000000000E+00  0.00000000000E+00 -0.56422834621E+03  0.56422834623E+03  0.50400001928E-02 0.  1.
    10030    2    1    2    0    0  0.00000000000E+00  0.00000000000E+00 -0.34717949420E+03  0.78127719830E+03  0.69990032104E+03 0.  0.
        5    1    3    3  502    0  0.26342021933E+03  0.23000451596E+03 -0.15988481835E+03  0.38454848128E+03  0.46999998093E+01 0. -1.
       -5    1    3    3    0  502 -0.26342021933E+03 -0.23000451596E+03 -0.18729467584E+03  0.39672871702E+03  0.46999998093E+01 0.  1.
</event>
<event>
 5   0  0.7574241E-04  0.6996134E+03  0.7818609E-02  0.9717894E-01
        1   -1    0    0  501    0  0.00000000000E+00  0.00000000000E+00  0.71640189634E+03  0.71640189635E+03  0.50400001928E-02 0. -1.
       -1   -1    0    0    0  501  0.00000000000E+00  0.00000000000E+00 -0.17080456667E+03  0.17080456675E+03  0.50400001928E-02 0.  1.
    10030    2    1    2    0    0  0.00000000000E+00  0.00000000000E+00  0.54559732966E+03  0.88720646310E+03  0.69961336610E+03 0.  0.
        3    1    3    3  502    0 -0.98325139711E+02 -0.86721163164E+02  0.68406727932E+03  0.69651736955E+03  0.10100000352E+00 0. -1.
       -3    1    3    3    0  502  0.98325139711E+02  0.86721163164E+02 -0.13846994966E+03  0.19068909355E+03  0.10100000352E+00 0.  1.
</event>
<event>
 5   0  0.1243087E-03  0.6998249E+03  0.7818609E-02  0.9717532E-01
        2   -1    0    0  501    0  0.00000000000E+00  0.00000000000E+00  0.18100482870E+04  0.18100482870E+04  0.25500000920E-02 0. -1.
       -2   -1    0    0    0  501  0.00000000000E+00  0.00000000000E+00 -0.67643902912E+02  0.67643902960E+02  0.25500000920E-02 0.  1.
    10030    2    1    2    0    0  0.00000000000E+00  0.00000000000E+00  0.17424043841E+04  0.18776921900E+04  0.69982492279E+03 0.  0.
        4    1    3    3  502    0 -0.19886530901E+03 -0.14416498838E+03  0.15398575723E+04  0.15593248253E+04  0.12699999809E+01 0. -1.
       -4    1    3    3    0  502  0.19886530901E+03  0.14416498838E+03  0.20254681180E+03  0.31836736465E+03  0.12699999809E+01 0.  1.
</event>
<event>
 5   0  0.1265562E-03  0.6999390E+03  0.7818609E-02  0.9717337E-01
       -2   -1    0    0    0  501  0.00000000000E+00  0.00000000000E+00  0.76303344800E+02  0.76303344842E+02  0.25500000920E-02 0.  1.
        2   -1    0    0  501    0  0.00000000000E+00  0.00000000000E+00 -0.16051543643E+04  0.16051543643E+04  0.25500000920E-02 0. -1.
    10030    2    1    2    0    0  0.00000000000E+00  0.00000000000E+00 -0.15288510195E+04  0.16814577091E+04  0.69993898863E+03 0.  0.
        1    1    3    3  502    0  0.57549365061E+02 -0.33824621249E+03 -0.93010036681E+03  0.99136729927E+03  0.50400001928E-02 0. -1.
       -1    1    3    3    0  502 -0.57549365061E+02  0.33824621249E+03 -0.59875065265E+03  0.69009040984E+03  0.50400001928E-02 0.  1.
</event>
<event>
 5   0  0.7572415E-04  0.7004941E+03  0.7818609E-02  0.9716388E-01
       -1   -1    0    0    0  501  0.00000000000E+00  0.00000000000E+00  0.85850789770E+02  0.85850789918E+02  0.50400001928E-02 0.  1.
        1   -1    0    0  501    0  0.00000000000E+00  0.00000000000E+00 -0.14289094955E+04  0.14289094955E+04  0.50400001928E-02 0. -1.
    10030    2    1    2    0    0  0.00000000000E+00  0.00000000000E+00 -0.13430587057E+04  0.15147602854E+04  0.70049413649E+03 0.  0.
        4    1    3    3  502    0  0.20514896204E+03  0.11509006921E+03 -0.12326736998E+04  0.12549174808E+04  0.12699999809E+01 0. -1.
       -4    1    3    3    0  502 -0.20514896204E+03 -0.11509006921E+03 -0.11038500593E+03  0.25984280458E+03  0.12699999809E+01 0.  1.
</event>
<event>
 5   0  0.1282546E-03  0.7001143E+03  0.7818609E-02  0.9717037E-01
        2   -1    0    0  501    0  0.00000000000E+00  0.00000000000E+00  0.39419735133E+03  0.39419735134E+03  0.25500000920E-02 0. -1.
       -2   -1    0    0    0  501  0.00000000000E+00  0.00000000000E+00 -0.31085951251E+03  0.31085951252E+03  0.25500000920E-02 0.  1.
    10030    2    1    2    0    0  0.00000000000E+00  0.00000000000E+00  0.83337838820E+02  0.70505686386E+03  0.70011426631E+03 0.  0.
        5    1    3    3  502    0  0.77004571860E+02 -0.34112848171E+03  0.26746708617E+02  0.35076462413E+03  0.46999998093E+01 0. -1.
       -5    1    3    3    0  502 -0.77004571860E+02  0.34112848171E+03  0.56591130203E+02  0.35429223973E+03  0.46999998093E+01 0.  1.
</event>
<event>
 5   0  0.7572415E-04  0.6998433E+03  0.7818609E-02  0.9717500E-01
        1   -1    0    0  501    0  0.00000000000E+00  0.00000000000E+00  0.49939579947E+03  0.49939579949E+03  0.50400001928E-02 0. -1.
       -1   -1    0    0    0  501  0.00000000000E+00  0.00000000000E+00 -0.24518660165E+03  0.24518660170E+03  0.50400001928E-02 0.  1.
    10030    2    1    2    0    0  0.00000000000E+00  0.00000000000E+00  0.25420919782E+03  0.74458240120E+03  0.69984329383E+03 0.  0.
        4    1    3    3  502    0 -0.21909163281E+03  0.27132697418E+03  0.15764645933E+03  0.38271855132E+03  0.12699999809E+01 0. -1.
       -4    1    3    3    0  502  0.21909163281E+03 -0.27132697418E+03  0.96562738484E+02  0.36186384988E+03  0.12699999809E+01 0.  1.
</event>
<event>
 5   0  0.7013526E-04  0.7008065E+03  0.7818609E-02  0.9715854E-01
       -1   -1    0    0    0  501  0.00000000000E+00  0.00000000000E+00  0.19848804517E+03  0.19848804523E+03  0.50400001928E-02 0. -1.
        1   -1    0    0  501    0  0.00000000000E+00  0.00000000000E+00 -0.61858852507E+03  0.61858852509E+03  0.50400001928E-02 0.  1.
    10030    2    1    2    0    0  0.00000000000E+00  0.00000000000E+00 -0.42010047990E+03  0.81707657032E+03  0.70080647012E+03 0.  0.
        1    1    3    3  502    0  0.17375301608E+03  0.58722081606E+02  0.13805518802E+03  0.22955964025E+03  0.50400001928E-02 0. -1.
       -1    1    3    3    0  502 -0.17375301608E+03 -0.58722081606E+02 -0.55815566792E+03  0.58751693007E+03  0.50400001928E-02 0.  1.
</event>
<event>
 5   0  0.7013526E-04  0.7000735E+03  0.7818609E-02  0.9717106E-01
        1   -1    0    0  501    0  0.00000000000E+00  0.00000000000E+00  0.33141146528E+03  0.33141146531E+03  0.50400001928E-02 0.  1.
       -1   -1    0    0    0  501  0.00000000000E+00  0.00000000000E+00 -0.36970879226E+03  0.36970879229E+03  0.50400001928E-02 0. -1.
    10030    2    1    2    0    0  0.00000000000E+00  0.00000000000E+00 -0.38297326982E+02  0.70112025761E+03  0.70007351783E+03 0.  0.
        1    1    3    3  502    0  0.35188132207E+02  0.26762820413E+03 -0.24233310093E+03  0.36275114352E+03  0.50400001928E-02 0. -1.
       -1    1    3    3    0  502 -0.35188132207E+02 -0.26762820413E+03  0.20403577395E+03  0.33836911409E+03  0.50400001928E-02 0.  1.
</event>
<event>
 5   0  0.7574241E-04  0.6996021E+03  0.7818609E-02  0.9717913E-01
        1   -1    0    0  501    0  0.00000000000E+00  0.00000000000E+00  0.54203216152E+03  0.54203216154E+03  0.50400001928E-02 0. -1.
       -1   -1    0    0    0  501  0.00000000000E+00  0.00000000000E+00 -0.22574448253E+03  0.22574448259E+03  0.50400001928E-02 0.  1.
    10030    2    1    2    0    0  0.00000000000E+00  0.00000000000E+00  0.31628767899E+03  0.76777664413E+03  0.69960208647E+03 0.  0.
        3    1    3    3  502    0 -0.18159251680E+03 -0.11891334748E+03 -0.14289413071E+03  0.25987491060E+03  0.10100000352E+00 0.  1.
       -3    1    3    3    0  502  0.18159251680E+03  0.11891334748E+03  0.45918180970E+03  0.50790173353E+03  0.10100000352E+00 0. -1.
</event>
<event>
 5   0  0.1282546E-03  0.6999376E+03  0.7818609E-02  0.9717339E-01
       -2   -1    0    0    0  501  0.00000000000E+00  0.00000000000E+00  0.30587029907E+03  0.30587029908E+03  0.25500000920E-02 0.  1.
        2   -1    0    0  501    0  0.00000000000E+00  0.00000000000E+00 -0.40042517389E+03  0.40042517389E+03  0.25500000920E-02 0. -1.
    10030    2    1    2    0    0  0.00000000000E+00  0.00000000000E+00 -0.94554874820E+02  0.70629547297E+03  0.69993761921E+03 0.  0.
        5    1    3    3  502    0 -0.69356989472E+02  0.34023910832E+03 -0.91065554303E+02  0.35900984388E+03  0.46999998093E+01 0. -1.
       -5    1    3    3    0  502  0.69356989472E+02 -0.34023910832E+03 -0.34893205169E+01  0.34728562910E+03  0.46999998093E+01 0.  1.
</event>
<event>
 5   0  0.1265562E-03  0.7000303E+03  0.7818609E-02  0.9717180E-01
        2   -1    0    0  501    0  0.00000000000E+00  0.00000000000E+00  0.52579490744E+03  0.52579490745E+03  0.25500000920E-02 0. -1.
       -2   -1    0    0    0  501  0.00000000000E+00  0.00000000000E+00 -0.23300071821E+03  0.23300071823E+03  0.25500000920E-02 0.  1.
    10030    2    1    2    0    0  0.00000000000E+00  0.00000000000E+00  0.29279418923E+03  0.75879562567E+03  0.70003025956E+03 0.  0.
        1    1    3    3  502    0 -0.10680414029E+03  0.24534082258E+03 -0.98179729356E+02  0.28502368830E+03  0.50400001928E-02 0.  1.
       -1    1    3    3    0  502  0.10680414029E+03 -0.24534082258E+03  0.39097391859E+03  0.47377193738E+03  0.50400001928E-02 0. -1.
</event>
<event>
 5   0  0.7572415E-04  0.6999528E+03  0.7818609E-02  0.9717313E-01
       -1   -1    0    0    0  501  0.00000000000E+00  0.00000000000E+00  0.37717167224E+03  0.37717167227E+03  0.50400001928E-02 0.  1.
        1   -1    0    0  501    0  0.00000000000E+00  0.00000000000E+00 -0.32474203274E+03  0.32474203278E+03  0.50400001928E-02 0. -1.
    10030    2    1    2    0    0  0.00000000000E+00  0.00000000000E+00  0.52429639491E+02  0.70191370505E+03  0.69995284287E+03 0.  0.
        4    1    3    3  502    0  0.32811412772E+03 -0.83929113889E+02  0.11466000453E+03  0.35756329021E+03  0.12699999809E+01 0. -1.
       -4    1    3    3    0  502 -0.32811412772E+03  0.83929113889E+02 -0.62230365038E+02  0.34435041484E+03  0.12699999809E+01 0.  1.
</event>
<event>
 5   0  0.7574241E-04  0.6999433E+03  0.7818609E-02  0.9717329E-01
        1   -1    0    0  501    0  0.00000000000E+00  0.00000000000E+00  0.38663934469E+03  0.38663934472E+03  0.50400001928E-02 0. -1.
       -1   -1    0    0    0  501  0.00000000000E+00  0.00000000000E+00 -0.31678142432E+03  0.31678142436E+03  0.50400001928E-02 0.  1.
    10030    2    1    2    0    0  0.00000000000E+00  0.00000000000E+00  0.69857920361E+02  0.70342076908E+03  0.69994331866E+03 0.  0.
        3    1    3    3  502    0  0.20595485543E+03 -0.84857450679E+02 -0.23634165215E+03  0.32477003580E+03  0.10100000352E+00 0.  1.
       -3    1    3    3    0  502 -0.20595485543E+03  0.84857450679E+02  0.30619957251E+03  0.37865073328E+03  0.10100000352E+00 0. -1.
</event>
<event>
 5   0  0.1282546E-03  0.6993327E+03  0.7818609E-02  0.9718374E-01
       -2   -1    0    0    0  501  0.00000000000E+00  0.00000000000E+00  0.60986178185E+03  0.60986178186E+03  0.25500000920E-02 0.  1.
        2   -1    0    0  501    0  0.00000000000E+00  0.00000000000E+00 -0.20048240252E+03  0.20048240254E+03  0.25500000920E-02 0. -1.
    10030    2    1    2    0    0  0.00000000000E+00  0.00000000000E+00  0.40937937933E+03  0.81034418440E+03  0.69933269691E+03 0.  0.
        5    1    3    3  502    0  0.19969883588E+03  0.25700207571E+03  0.35269462827E+03  0.47994299951E+03  0.46999998093E+01 0.  1.
       -5    1    3    3    0  502 -0.19969883588E+03 -0.25700207571E+03  0.56684751058E+02  0.33040118489E+03  0.46999998093E+01 0. -1.
</event>
<event>
 5   0  0.7574241E-04  0.7017271E+03  0.7818609E-02  0.9714283E-01
        1   -1    0    0  501    0  0.00000000000E+00  0.00000000000E+00  0.21017608281E+03  0.21017608287E+03  0.50400001928E-02 0. -1.
       -1   -1    0    0    0  501  0.00000000000E+00  0.00000000000E+00 -0.58572434143E+03  0.58572434145E+03  0.50400001928E-02 0.  1.
    10030    2    1    2    0    0  0.00000000000E+00  0.00000000000E+00 -0.37554825862E+03  0.79590042432E+03  0.70172714845E+03 0.  0.
        3    1    3    3  502    0 -0.19728159387E+03 -0.63044534820E+02  0.13344864703E+03  0.24638017827E+03  0.10100000352E+00 0. -1.
       -3    1    3    3    0  502  0.19728159387E+03  0.63044534820E+02 -0.50899690565E+03  0.54952024605E+03  0.10100000352E+00 0.  1.
</event>
<event>
 5   0  0.7013526E-04  0.7000180E+03  0.7818609E-02  0.9717201E-01
        1   -1    0    0  501    0  0.00000000000E+00  0.00000000000E+00  0.53993940127E+03  0.53993940129E+03  0.50400001928E-02 0. -1.
       -1   -1    0    0    0  501  0.00000000000E+00  0.00000000000E+00 -0.22688900987E+03  0.22688900992E+03  0.50400001928E-02 0.  1.
    10030    2    1    2    0    0  0.00000000000E+00  0.00000000000E+00  0.31305039140E+03  0.76682841121E+03  0.70001804597E+03 0.  0.
        1    1    3    3  502    0 -0.19853995015E+03  0.85022547952E+02  0.45823788577E+03  0.50658553616E+03  0.50400001928E-02 0. -1.
       -1    1    3    3    0  502  0.19853995015E+03 -0.85022547952E+02 -0.14518749437E+03  0.26024287505E+03  0.50400001928E-02 0.  1.
</event>
<event>
 5   0  0.1243087E-03  0.7000091E+03  0.7818609E-02  0.9717217E-01
        2   -1    0    0  501    0  0.00000000000E+00  0.00000000000E+00  0.88470222332E+03  0.88470222332E+03  0.25500000920E-02 0.  1.
       -2   -1    0    0    0  501  0.00000000000E+00  0.00000000000E+00 -0.13846826851E+03  0.13846826853E+03  0.25500000920E-02 0. -1.
    10030    2    1    2    0    0  0.00000000000E+00  0.00000000000E+00  0.74623395481E+03  0.10231704919E+04  0.70000910001E+03 0.  0.
        4    1    3    3  502    0 -0.53277802143E+02 -0.13132090512E+03 -0.94652829397E+02  0.17042439771E+03  0.12699999809E+01 0. -1.
       -4    1    3    3    0  502  0.53277802143E+02  0.13132090512E+03  0.84088678420E+03  0.85274609414E+03  0.12699999809E+01 0.  1.
</event>
<event>
 5   0  0.1222679E-03  0.7013975E+03  0.7818609E-02  0.9714845E-01
       -2   -1    0    0    0  501  0.00000000000E+00  0.00000000000E+00  0.59980884727E+03  0.59980884727E+03  0.25500000920E-02 0. -1.
        2   -1    0    0  501    0  0.00000000000E+00  0.00000000000E+00 -0.20504800581E+03  0.20504800583E+03  0.25500000920E-02 0.  1.
    10030    2    1    2    0    0  0.00000000000E+00  0.00000000000E+00  0.39476084146E+03  0.80485685310E+03  0.70139748505E+03 0.  0.
        2    1    3    3  502    0  0.18597922790E+03  0.28824982652E+02  0.53695349422E+03  0.56897997135E+03  0.25500000920E-02 0. -1.
       -2    1    3    3    0  502 -0.18597922790E+03 -0.28824982652E+02 -0.14219265277E+03  0.23587688175E+03  0.25500000920E-02 0.  1.
</event>
<event>
 5   0  0.7459843E-04  0.6998720E+03  0.7818609E-02  0.9717451E-01
       -1   -1    0    0    0  501  0.00000000000E+00  0.00000000000E+00  0.14433820896E+03  0.14433820905E+03  0.50400001928E-02 0.  1.
        1   -1    0    0  501    0  0.00000000000E+00  0.00000000000E+00 -0.84839071336E+03  0.84839071338E+03  0.50400001928E-02 0. -1.
    10030    2    1    2    0    0  0.00000000000E+00  0.00000000000E+00 -0.70405250440E+03  0.99272892242E+03  0.69987197719E+03 0.  0.
        2    1    3    3  502    0 -0.12575419635E+03 -0.11491595268E+03  0.81552308595E+02  0.18886654845E+03  0.25500000920E-02 0.  1.
       -2    1    3    3    0  502  0.12575419635E+03  0.11491595268E+03 -0.78560481300E+03  0.80386237397E+03  0.25500000920E-02 0. -1.
</event>
<event>
 5   0  0.1222679E-03  0.6994642E+03  0.7818609E-02  0.9718149E-01
        2   -1    0    0  501    0  0.00000000000E+00  0.00000000000E+00  0.27158789976E+03  0.27158789977E+03  0.25500000920E-02 0. -1.
       -2   -1    0    0    0  501  0.00000000000E+00  0.00000000000E+00 -0.45036076614E+03  0.45036076615E+03  0.25500000920E-02 0.  1.
    10030    2    1    2    0    0  0.00000000000E+00  0.00000000000E+00 -0.17877286639E+03  0.72194866592E+03  0.69946417955E+03 0.  0.
        2    1    3    3  502    0  0.59807774389E+02  0.20961889263E+03  0.19289254046E+03  0.29107487387E+03  0.25500000920E-02 0. -1.
       -2    1    3    3    0  502 -0.59807774389E+02 -0.20961889263E+03 -0.37166540684E+03  0.43087379205E+03  0.25500000920E-02 0.  1.
</event>
<event>
 5   0  0.7459843E-04  0.6999006E+03  0.7818609E-02  0.9717402E-01
       -1   -1    0    0    0  501  0.00000000000E+00  0.00000000000E+00  0.44555704230E+03  0.44555704233E+03  0.50400001928E-02 0. -1.
        1   -1    0    0  501    0  0.00000000000E+00  0.00000000000E+00 -0.27485869319E+03  0.27485869324E+03  0.50400001928E-02 0.  1.
    10030    2    1    2    0    0  0.00000000000E+00  0.00000000000E+00  0.17069834911E+03  0.72041573557E+03  0.69990063985E+03 0.  0.
        2    1    3    3  502    0 -0.17162651447E+03  0.19030270669E+03 -0.15995205926E+03  0.30208515672E+03  0.25500000920E-02 0.  1.
       -2    1    3    3    0  502  0.17162651447E+03 -0.19030270669E+03  0.33065040836E+03  0.41833057885E+03  0.25500000920E-02 0. -1.
</event>
<event>
 5   0  0.7570633E-04  0.6992865E+03  0.7818609E-02  0.9718453E-01
        1   -1    0    0  501    0  0.00000000000E+00  0.00000000000E+00  0.87951180487E+03  0.87951180489E+03  0.50400001928E-02 0. -1.
       -1   -1    0    0    0  501  0.00000000000E+00  0.00000000000E+00 -0.13899800602E+03  0.13899800611E+03  0.50400001928E-02 0.  1.
    10030    2    1    2    0    0  0.00000000000E+00  0.00000000000E+00  0.74051379885E+03  0.10185098110E+04  0.69928645691E+03 0.  0.
        5    1    3    3  502    0 -0.18900157989E+02  0.11631435343E+03  0.84966859941E+03  0.85781411950E+03  0.46999998093E+01 0. -1.
       -5    1    3    3    0  502  0.18900157989E+02 -0.11631435343E+03 -0.10915480056E+03  0.16069569150E+03  0.46999998093E+01 0.  1.
</event>
<event>
 5   0  0.7013526E-04  0.6997163E+03  0.7818609E-02  0.9717718E-01
       -1   -1    0    0    0  501  0.00000000000E+00  0.00000000000E+00  0.49482312313E+03  0.49482312316E+03  0.50400001928E-02 0.  1.
        1   -1    0    0  501    0  0.00000000000E+00  0.00000000000E+00 -0.24736254763E+03  0.24736254769E+03  0.50400001928E-02 0. -1.
    10030    2    1    2    0    0  0.00000000000E+00  0.00000000000E+00  0.24746057550E+03  0.74218567084E+03  0.69971625219E+03 0.  0.
        1    1    3    3  502    0 -0.88354635716E+02 -0.65267964775E+02 -0.22859660710E+03  0.25361951360E+03  0.50400001928E-02 0. -1.
       -1    1    3    3    0  502  0.88354635716E+02  0.65267964775E+02  0.47605718259E+03  0.48856615724E+03  0.50400001928E-02 0.  1.
</event>
<event>
 5   0  0.1222679E-03  0.6998199E+03  0.7818609E-02  0.9717540E-01
       -2   -1    0    0    0  501  0.00000000000E+00  0.00000000000E+00  0.45583758840E+02  0.45583758911E+02  0.25500000920E-02 0. -1.
        2   -1    0    0  501    0  0.00000000000E+00  0.00000000000E+00 -0.26859781611E+04  0.26859781611E+04  0.25500000920E-02 0.  1.
    10030    2    1    2    0    0  0.00000000000E+00  0.00000000000E+00 -0.26403944023E+04  0.27315619200E+04  0.69981992211E+03 0.  0.
        2    1    3    3  502    0  0.20410990850E+03 -0.94585087443E+02 -0.27408796049E+03  0.35458624283E+03  0.25500000920E-02 0. -1.
       -2    1    3    3    0  502 -0.20410990850E+03  0.94585087443E+02 -0.23663064418E+04  0.23769756772E+04  0.25500000920E-02 0.  1.
</event>
<event>
 5   0  0.1243087E-03  0.6997445E+03  0.7818609E-02  0.9717669E-01
       -2   -1    0    0    0  501  0.00000000000E+00  0.00000000000E+00  0.12691891112E+03  0.12691891114E+03  0.25500000920E-02 0.  1.
        2   -1    0    0  501    0  0.00000000000E+00  0.00000000000E+00 -0.96447885310E+03  0.96447885310E+03  0.25500000920E-02 0. -1.
    10030    2    1    2    0    0  0.00000000000E+00  0.00000000000E+00 -0.83755994198E+03  0.10913977642E+04  0.69974454152E+03 0.  0.
        4    1    3    3  502    0 -0.13937510592E+03 -0.19056205899E+03 -0.82150415267E+03  0.85475727796E+03  0.12699999809E+01 0. -1.
       -4    1    3    3    0  502  0.13937510592E+03  0.19056205899E+03 -0.16055789314E+02  0.23664048628E+03  0.12699999809E+01 0.  1.
</event>
<event>
 5   0  0.1265562E-03  0.7001076E+03  0.7818609E-02  0.9717048E-01
       -2   -1    0    0    0  501  0.00000000000E+00  0.00000000000E+00  0.71495526611E+02  0.71495526656E+02  0.25500000920E-02 0. -1.
        2   -1    0    0  501    0  0.00000000000E+00  0.00000000000E+00 -0.17139207637E+04  0.17139207637E+04  0.25500000920E-02 0.  1.
    10030    2    1    2    0    0  0.00000000000E+00  0.00000000000E+00 -0.16424252371E+04  0.17854162903E+04  0.70010761347E+03 0.  0.
        1    1    3    3  502    0  0.11613584108E+03  0.17700900166E+03 -0.15321565530E+04  0.15467137496E+04  0.50400001928E-02 0.  1.
       -1    1    3    3    0  502 -0.11613584108E+03 -0.17700900166E+03 -0.11026868409E+03  0.23870254077E+03  0.50400001928E-02 0. -1.
</event>
<event>
 5   0  0.1265562E-03  0.7016920E+03  0.7818609E-02  0.9714343E-01
       -2   -1    0    0    0  501  0.00000000000E+00  0.00000000000E+00  0.71759258575E+02  0.71759258621E+02  0.25500000920E-02 0. -1.
        2   -1    0    0  501    0  0.00000000000E+00  0.00000000000E+00 -0.17153592245E+04  0.17153592245E+04  0.25500000920E-02 0.  1.
    10030    2    1    2    0    0  0.00000000000E+00  0.00000000000E+00 -0.16435999660E+04  0.17871184832E+04  0.70169197284E+03 0.  0.
        1    1    3    3  502    0 -0.34830707911E+02 -0.34797492982E+03 -0.89352846920E+03  0.95952741248E+03  0.50400001928E-02 0.  1.
       -1    1    3    3    0  502  0.34830707911E+02  0.34797492982E+03 -0.75007149677E+03  0.82759107069E+03  0.50400001928E-02 0. -1.
</event>
<event>
 5   0  0.7459843E-04  0.6992396E+03  0.7818609E-02  0.9718533E-01
        1   -1    0    0  501    0  0.00000000000E+00  0.00000000000E+00  0.39716065917E+03  0.39716065920E+03  0.50400001928E-02 0.  1.
       -1   -1    0    0    0  501  0.00000000000E+00  0.00000000000E+00 -0.30776965881E+03  0.30776965885E+03  0.50400001928E-02 0. -1.
    10030    2    1    2    0    0  0.00000000000E+00  0.00000000000E+00  0.89391000364E+02  0.70493031805E+03  0.69923958866E+03 0.  0.
        2    1    3    3  502    0 -0.32022523685E+03 -0.94377458547E+01  0.18583750210E+03  0.37036313336E+03  0.25500000920E-02 0.  1.
       -2    1    3    3    0  502  0.32022523685E+03  0.94377458547E+01 -0.96446501735E+02  0.33456718468E+03  0.25500000920E-02 0. -1.
</event>
<event>
 5   0  0.4936000E-04  0.7003410E+03  0.7818609E-02  0.9716649E-01
        4   -1    0    0  501    0  0.00000000000E+00  0.00000000000E+00  0.11326461394E+04  0.11326468514E+04  0.12699999809E+01 0.  1.
       -4   -1    0    0    0  501  0.00000000000E+00  0.00000000000E+00 -0.10825474238E+03  0.10826219168E+03  0.12699999809E+01 0. -1.
    10030    2    1    2    0    0  0.00000000000E+00  0.00000000000E+00  0.10243913970E+04  0.12409090431E+04  0.70034100188E+03 0.  0.
        4    1    3    3  502    0  0.19376554489E+03 -0.50549503212E+02  0.10211786529E+04  0.10406285565E+04  0.12699999809E+01 0.  1.
       -4    1    3    3    0  502 -0.19376554489E+03  0.50549503212E+02  0.32127441104E+01  0.20028048653E+03  0.12699999809E+01 0. -1.
</event>
<event>
 5   0  0.1265562E-03  0.7004845E+03  0.7818609E-02  0.9716404E-01
        2   -1    0    0  501    0  0.00000000000E+00  0.00000000000E+00  0.83429369555E+03  0.83429369556E+03  0.25500000920E-02 0. -1.
       -2   -1    0    0    0  501  0.00000000000E+00  0.00000000000E+00 -0.14703410223E+03  0.14703410226E+03  0.25500000920E-02 0.  1.
    10030    2    1    2    0    0  0.00000000000E+00  0.00000000000E+00  0.68725959332E+03  0.98132779781E+03  0.70048447388E+03 0.  0.
        1    1    3    3  502    0 -0.26762877873E+02  0.91289343057E+02 -0.12858791292E+03  0.15995264038E+03  0.50400001928E-02 0.  1.
       -1    1    3    3    0  502  0.26762877873E+02 -0.91289343057E+02  0.81584750624E+03  0.82137515744E+03  0.50400001928E-02 0. -1.
</event>
<event>
 5   0  0.1282546E-03  0.7001828E+03  0.7818609E-02  0.9716920E-01
       -2   -1    0    0    0  501  0.00000000000E+00  0.00000000000E+00  0.11182228393E+03  0.11182228396E+03  0.25500000920E-02 0. -1.
        2   -1    0    0  501    0  0.00000000000E+00  0.00000000000E+00 -0.10960605635E+04  0.10960605635E+04  0.25500000920E-02 0.  1.
    10030    2    1    2    0    0  0.00000000000E+00  0.00000000000E+00 -0.98423827960E+03  0.12078828475E+04  0.70018282058E+03 0.  0.
        5    1    3    3  502    0 -0.16852472450E+03 -0.30619035757E+03 -0.45810420563E+03  0.57622449709E+03  0.46999998093E+01 0. -1.
       -5    1    3    3    0  502  0.16852472450E+03  0.30619035757E+03 -0.52613407398E+03  0.63165835040E+03  0.46999998093E+01 0.  1.
</event>
<event>
 5   0  0.1243087E-03  0.7005662E+03  0.7818609E-02  0.9716264E-01
       -2   -1    0    0    0  501  0.00000000000E+00  0.00000000000E+00  0.15421602401E+03  0.15421602404E+03  0.25500000920E-02 0.  1.
        2   -1    0    0  501    0  0.00000000000E+00  0.00000000000E+00 -0.79562590486E+03  0.79562590486E+03  0.25500000920E-02 0. -1.
    10030    2    1    2    0    0  0.00000000000E+00  0.00000000000E+00 -0.64140988084E+03  0.94984192890E+03  0.70056623859E+03 0.  0.
        4    1    3    3  502    0  0.25059087000E+03  0.20004953230E+03 -0.12953403143E+03  0.34582694762E+03  0.12699999809E+01 0.  1.
       -4    1    3    3    0  502 -0.25059087000E+03 -0.20004953230E+03 -0.51187584941E+03  0.60401498128E+03  0.12699999809E+01 0. -1.
</event>
<event>
 5   0  0.7013526E-04  0.6999343E+03  0.7818609E-02  0.9717345E-01
       -1   -1    0    0    0  501  0.00000000000E+00  0.00000000000E+00  0.11179320460E+03  0.11179320472E+03  0.50400001928E-02 0.  1.
        1   -1    0    0  501    0  0.00000000000E+00  0.00000000000E+00 -0.10955675199E+04  0.10955675199E+04  0.50400001928E-02 0. -1.
    10030    2    1    2    0    0  0.00000000000E+00  0.00000000000E+00 -0.98377431525E+03  0.12073607246E+04  0.69993429400E+03 0.  0.
        1    1    3    3  502    0  0.13056946175E+03  0.15454792917E+03 -0.98446468900E+03  0.10050393876E+04  0.50400001928E-02 0. -1.
       -1    1    3    3    0  502 -0.13056946175E+03 -0.15454792917E+03  0.69037374427E+00  0.20232133697E+03  0.50400001928E-02 0.  1.
</event>
<event>
 5   0  0.1224048E-03  0.7002759E+03  0.7818609E-02  0.9716760E-01
        2   -1    0    0  501    0  0.00000000000E+00  0.00000000000E+00  0.44057669370E+03  0.44057669371E+03  0.25500000920E-02 0. -1.
       -2   -1    0    0    0  501  0.00000000000E+00  0.00000000000E+00 -0.27826390704E+03  0.27826390705E+03  0.25500000920E-02 0.  1.
    10030    2    1    2    0    0  0.00000000000E+00  0.00000000000E+00  0.16231278667E+03  0.71884060076E+03  0.70027592318E+03 0.  0.
        3    1    3    3  502    0 -0.89190825189E+02  0.92922745226E+02  0.41537494829E+03  0.43488618941E+03  0.10100000352E+00 0. -1.
       -3    1    3    3    0  502  0.89190825189E+02 -0.92922745226E+02 -0.25306216162E+03  0.28395441135E+03  0.10100000352E+00 0.  1.
</event>
<event>
 5   0  0.1265562E-03  0.7001263E+03  0.7818609E-02  0.9717016E-01
       -2   -1    0    0    0  501  0.00000000000E+00  0.00000000000E+00  0.13193878518E+03  0.13193878521E+03  0.25500000920E-02 0. -1.
        2   -1    0    0  501    0  0.00000000000E+00  0.00000000000E+00 -0.92879587632E+03  0.92879587632E+03  0.25500000920E-02 0.  1.
    10030    2    1    2    0    0  0.00000000000E+00  0.00000000000E+00 -0.79685709114E+03  0.10607346615E+04  0.70012627323E+03 0.  0.
        1    1    3    3  502    0 -0.77867054723E+02 -0.20395568068E+03 -0.81302158591E+03  0.84182260428E+03  0.50400001928E-02 0.  1.
       -1    1    3    3    0  502  0.77867054723E+02  0.20395568068E+03  0.16164494776E+02  0.21891205725E+03  0.50400001928E-02 0. -1.
</event>
<event>
 5   0  0.7572415E-04  0.6997895E+03  0.7818609E-02  0.9717592E-01
        1   -1    0    0  501    0  0.00000000000E+00  0.00000000000E+00  0.15722309531E+03  0.15722309540E+03  0.50400001928E-02 0.  1.
       -1   -1    0    0    0  501  0.00000000000E+00  0.00000000000E+00 -0.77867916051E+03  0.77867916053E+03  0.50400001928E-02 0. -1.
    10030    2    1    2    0    0  0.00000000000E+00  0.00000000000E+00 -0.62145606520E+03  0.93590225592E+03  0.69978953384E+03 0.  0.
        4    1    3    3  502    0 -0.89514437079E+02 -0.71148816412E+02 -0.75298220771E+03  0.76161591800E+03  0.12699999809E+01 0. -1.
       -4    1    3    3    0  502  0.89514437079E+02  0.71148816412E+02  0.13152614251E+03  0.17428633792E+03  0.12699999809E+01 0.  1.
</event>
<event>
 5   0  0.1224048E-03  0.6996316E+03  0.7818609E-02  0.9717862E-01
        2   -1    0    0  501    0  0.00000000000E+00  0.00000000000E+00  0.11093041117E+04  0.11093041117E+04  0.25500000920E-02 0.  1.
       -2   -1    0    0    0  501  0.00000000000E+00  0.00000000000E+00 -0.11031337169E+03  0.11031337172E+03  0.25500000920E-02 0. -1.
    10030    2    1    2    0    0  0.00000000000E+00  0.00000000000E+00  0.99899073996E+03  0.12196174834E+04  0.69963155105E+03 0.  0.
        3    1    3    3  502    0 -0.32602418198E+03 -0.26926472799E+02  0.28348790366E+03  0.43287666130E+03  0.10100000352E+00 0.  1.
       -3    1    3    3    0  502  0.32602418198E+03  0.26926472799E+02  0.71550283630E+03  0.78674082208E+03  0.10100000352E+00 0. -1.
</event>
<event>
 5   0  0.1265562E-03  0.7005599E+03  0.7818609E-02  0.9716275E-01
        2   -1    0    0  501    0  0.00000000000E+00  0.00000000000E+00  0.46805097583E+03  0.46805097584E+03  0.25500000920E-02 0.  1.
       -2   -1    0    0    0  501  0.00000000000E+00  0.00000000000E+00 -0.26214248459E+03  0.26214248460E+03  0.25500000920E-02 0. -1.
    10030    2    1    2    0    0  0.00000000000E+00  0.00000000000E+00  0.20590849124E+03  0.73019346044E+03  0.70055990672E+03 0.  0.
        1    1    3    3  502    0  0.19378031398E+03  0.26722977945E+03  0.22510129183E+03  0.39954118276E+03  0.50400001928E-02 0.  1.
       -1    1    3    3    0  502 -0.19378031398E+03 -0.26722977945E+03 -0.19192800590E+02  0.33065227768E+03  0.50400001928E-02 0. -1.
</event>
<event>
 5   0  0.7459843E-04  0.6999370E+03  0.7818609E-02  0.9717340E-01
       -1   -1    0    0    0  501  0.00000000000E+00  0.00000000000E+00  0.64583340078E+03  0.64583340080E+03  0.50400001928E-02 0.  1.
        1   -1    0    0  501    0  0.00000000000E+00  0.00000000000E+00 -0.18964328199E+03  0.18964328205E+03  0.50400001928E-02 0. -1.
    10030    2    1    2    0    0  0.00000000000E+00  0.00000000000E+00  0.45619011879E+03  0.83547668285E+03  0.69993704224E+03 0.  0.
        2    1    3    3  502    0 -0.25384891032E+03 -0.10952994283E+03  0.48422002813E+03  0.55758865959E+03  0.25500000920E-02 0.  1.
       -2    1    3    3    0  502  0.25384891032E+03  0.10952994283E+03 -0.28029909339E+02  0.27788802326E+03  0.25500000920E-02 0. -1.
</event>
<event>
 5   0  0.1282546E-03  0.6998591E+03  0.7818609E-02  0.9717473E-01
       -2   -1    0    0    0  501  0.00000000000E+00  0.00000000000E+00  0.43391081757E+03  0.43391081758E+03  0.25500000920E-02 0. -1.
        2   -1    0    0  501    0  0.00000000000E+00  0.00000000000E+00 -0.28220240291E+03  0.28220240293E+03  0.25500000920E-02 0.  1.
    10030    2    1    2    0    0  0.00000000000E+00  0.00000000000E+00  0.15170841466E+03  0.71611322051E+03  0.69985905832E+03 0.  0.
        5    1    3    3  502    0  0.12660784694E+03 -0.18325563794E+03 -0.20025808026E+03  0.29956228810E+03  0.46999998093E+01 0.  1.
       -5    1    3    3    0  502 -0.12660784694E+03  0.18325563794E+03  0.35196649492E+03  0.41655093241E+03  0.46999998093E+01 0. -1.
</event>
<event>
 5   0  0.7013526E-04  0.6993655E+03  0.7818609E-02  0.9718318E-01
        1   -1    0    0  501    0  0.00000000000E+00  0.00000000000E+00  0.19970345441E+03  0.19970345448E+03  0.50400001928E-02 0. -1.
       -1   -1    0    0    0  501  0.00000000000E+00  0.00000000000E+00 -0.61229796477E+03  0.61229796479E+03  0.50400001928E-02 0.  1.
    10030    2    1    2    0    0  0.00000000000E+00  0.00000000000E+00 -0.41259451036E+03  0.81200141927E+03  0.69936548021E+03 0.  0.
        1    1    3    3  502    0  0.83728851117E+01 -0.26816011033E+03 -0.46668962315E+03  0.53831139163E+03  0.50400001928E-02 0.  1.
       -1    1    3    3    0  502 -0.83728851117E+01  0.26816011033E+03  0.54095112793E+02  0.27369002764E+03  0.50400001928E-02 0. -1.
</event>
<event>
 5   0  0.1265562E-03  0.7002306E+03  0.7818609E-02  0.9716838E-01
        2   -1    0    0  501    0  0.00000000000E+00  0.00000000000E+00  0.20962691429E+03  0.20962691430E+03  0.25500000920E-02 0.  1.
       -2   -1    0    0    0  501  0.00000000000E+00  0.00000000000E+00 -0.58475654351E+03  0.58475654352E+03  0.25500000920E-02 0. -1.
    10030    2    1    2    0    0  0.00000000000E+00  0.00000000000E+00 -0.37512962922E+03  0.79438345782E+03  0.70023056156E+03 0.  0.
        1    1    3    3  502    0 -0.10902735575E+03 -0.19719474381E+03 -0.49156614259E+03  0.54074948345E+03  0.50400001928E-02 0. -1.
       -1    1    3    3    0  502  0.10902735575E+03  0.19719474381E+03  0.11643651336E+03  0.25363397437E+03  0.50400001928E-02 0.  1.
</event>
<event>
 5   0  0.1222679E-03  0.6999600E+03  0.7818609E-02  0.9717301E-01
       -2   -1    0    0    0  501  0.00000000000E+00  0.00000000000E+00  0.11019555648E+03  0.11019555651E+03  0.25500000920E-02 0. -1.
        2   -1    0    0  501    0  0.00000000000E+00  0.00000000000E+00 -0.11115329936E+04  0.11115329936E+04  0.25500000920E-02 0.  1.
    10030    2    1    2    0    0  0.00000000000E+00  0.00000000000E+00 -0.10013374371E+04  0.12217285501E+04  0.69995998970E+03 0.  0.
        2    1    3    3  502    0  0.33974825831E+03  0.82612337828E+02 -0.52727255357E+03  0.63266896806E+03  0.25500000920E-02 0.  1.
       -2    1    3    3    0  502 -0.33974825831E+03 -0.82612337828E+02 -0.47406488351E+03  0.58905958202E+03  0.25500000920E-02 0. -1.
</event>
<event>
 5   0  0.7570633E-04  0.6999555E+03  0.7818609E-02  0.9717308E-01
       -1   -1    0    0    0  501  0.00000000000E+00  0.00000000000E+00  0.29775075424E+03  0.29775075429E+03  0.50400001928E-02 0. -1.
        1   -1    0    0  501    0  0.00000000000E+00  0.00000000000E+00 -0.41136565053E+03  0.41136565056E+03  0.50400001928E-02 0.  1.
    10030    2    1    2    0    0  0.00000000000E+00  0.00000000000E+00 -0.11361489629E+03  0.70911640485E+03  0.69995552070E+03 0.  0.
        5    1    3    3  502    0  0.97144331505E+02  0.30919127905E+01 -0.39738545335E+03  0.40912573813E+03  0.46999998093E+01 0.  1.
       -5    1    3    3    0  502 -0.97144331505E+02 -0.30919127905E+01  0.28377055706E+03  0.29999066672E+03  0.46999998093E+01 0. -1.
</event>
<event>
 5   0  0.7574241E-04  0.6997100E+03  0.7818609E-02  0.9717728E-01
        1   -1    0    0  501    0  0.00000000000E+00  0.00000000000E+00  0.30196168841E+03  0.30196168845E+03  0.50400001928E-02 0. -1.
       -1   -1    0    0    0  501  0.00000000000E+00  0.00000000000E+00 -0.40534453081E+03  0.40534453084E+03  0.50400001928E-02 0.  1.
    10030    2    1    2    0    0  0.00000000000E+00  0.00000000000E+00 -0.10338284240E+03  0.70730621929E+03  0.69970999403E+03 0.  0.
        3    1    3    3  502    0 -0.29982431417E+03  0.41769191046E+02  0.12559565899E+03  0.32774008673E+03  0.10100000352E+00 0. -1.
       -3    1    3    3    0  502  0.29982431417E+03 -0.41769191046E+02 -0.22897850139E+03  0.37956613256E+03  0.10100000352E+00 0.  1.
</event>
<event>
 5   0  0.1224048E-03  0.6986026E+03  0.7818609E-02  0.9719625E-01
        2   -1    0    0  501    0  0.00000000000E+00  0.00000000000E+00  0.72679345988E+03  0.72679345989E+03  0.25500000920E-02 0.  1.
       -2   -1    0    0    0  501  0.00000000000E+00  0.00000000000E+00 -0.16787632077E+03  0.16787632079E+03  0.25500000920E-02 0. -1.
    10030    2    1    2    0    0  0.00000000000E+00  0.00000000000E+00  0.55891713911E+03  0.89466978068E+03  0.69860263961E+03 0.  0.
        3    1    3    3  502    0 -0.53840110116E+02  0.31873027370E+03  0.10992921133E+03  0.34142669277E+03  0.10100000352E+00 0. -1.
       -3    1    3    3    0  502  0.53840110116E+02 -0.31873027370E+03  0.44898792778E+03  0.55324308791E+03  0.10100000352E+00 0.  1.
</event>
<event>
 5   0  0.1282546E-03  0.7010663E+03  0.7818609E-02  0.9715410E-01
       -2   -1    0    0    0  501  0.00000000000E+00  0.00000000000E+00  0.11048643522E+03  0.11048643525E+03  0.25500000920E-02 0. -1.
        2   -1    0    0  501    0  0.00000000000E+00  0.00000000000E+00 -0.11121138373E+04  0.11121138373E+04  0.25500000920E-02 0.  1.
    10030    2    1    2    0    0  0.00000000000E+00  0.00000000000E+00 -0.10016274020E+04  0.12226002725E+04  0.70106631201E+03 0.  0.
        5    1    3    3  502    0 -0.26253046551E+03 -0.16174982978E+03 -0.79140541587E+03  0.84937028146E+03  0.46999998093E+01 0.  1.
       -5    1    3    3    0  502  0.26253046551E+03  0.16174982978E+03 -0.21022198616E+03  0.37322999105E+03  0.46999998093E+01 0. -1.
</event>
<event>
 5   0  0.7570633E-04  0.6994406E+03  0.7818609E-02  0.9718189E-01
        1   -1    0    0  501    0  0.00000000000E+00  0.00000000000E+00  0.91000440246E+03  0.91000440248E+03  0.50400001928E-02 0. -1.
       -1   -1    0    0    0  501  0.00000000000E+00  0.00000000000E+00 -0.13439966151E+03  0.13439966160E+03  0.50400001928E-02 0.  1.
    10030    2    1    2    0    0  0.00000000000E+00  0.00000000000E+00  0.77560474095E+03  0.10444040641E+04  0.69944058709E+03 0.  0.
        5    1    3    3  502    0  0.14103591047E+03  0.16555622347E+03 -0.21078525749E+02  0.21855522282E+03  0.46999998093E+01 0.  1.
       -5    1    3    3    0  502 -0.14103591047E+03 -0.16555622347E+03  0.79668326670E+03  0.82584884126E+03  0.46999998093E+01 0. -1.
</event>
<event>
 5   0  0.1265562E-03  0.7001025E+03  0.7818609E-02  0.9717057E-01
       -2   -1    0    0    0  501  0.00000000000E+00  0.00000000000E+00  0.63180880765E+03  0.63180880765E+03  0.25500000920E-02 0.  1.
        2   -1    0    0  501    0  0.00000000000E+00  0.00000000000E+00 -0.19394454846E+03  0.19394454847E+03  0.25500000920E-02 0. -1.
    10030    2    1    2    0    0  0.00000000000E+00  0.00000000000E+00  0.43786425919E+03  0.82575335613E+03  0.70010248941E+03 0.  0.
        1    1    3    3  502    0 -0.55020251998E+02 -0.26223953898E+03  0.48461281120E+03  0.55375660785E+03  0.50400001928E-02 0.  1.
       -1    1    3    3    0  502  0.55020251998E+02  0.26223953898E+03 -0.46748552005E+02  0.27199674828E+03  0.50400001928E-02 0. -1.
</event>
<event>
 5   0  0.7572415E-04  0.6999027E+03  0.7818609E-02  0.9717399E-01
        1   -1    0    0  501    0  0.00000000000E+00  0.00000000000E+00  0.33320441308E+03  0.33320441312E+03  0.50400001928E-02 0.  1.
       -1   -1    0    0    0  501  0.00000000000E+00  0.00000000000E+00 -0.36753994965E+03  0.36753994968E+03  0.50400001928E-02 0. -1.
    10030    2    1    2    0    0  0.00000000000E+00  0.00000000000E+00 -0.34335536570E+02  0.70074436280E+03  0.69990265961E+03 0.  0.
        4    1    3    3  502    0  0.24597075097E+03 -0.20923348942E+03  0.11784267394E+03  0.34375685030E+03  0.12699999809E+01 0.  1.
       -4    1    3    3    0  502 -0.24597075097E+03  0.20923348942E+03 -0.15217821051E+03  0.35698751250E+03  0.12699999809E+01 0. -1.
</event>
<event>
 5   0  0.1224048E-03  0.7009546E+03  0.7818609E-02  0.9715601E-01
       -2   -1    0    0    0  501  0.00000000000E+00  0.00000000000E+00  0.97415813976E+02  0.97415814010E+02  0.25500000920E-02 0.  1.
        2   -1    0    0  501    0  0.00000000000E+00  0.00000000000E+00 -0.12609281300E+04  0.12609281300E+04  0.25500000920E-02 0. -1.
    10030    2    1    2    0    0  0.00000000000E+00  0.00000000000E+00 -0.11635123161E+04  0.13583439440E+04  0.70095460674E+03 0.  0.
        3    1    3    3  502    0 -0.32266567275E+03 -0.18822338826E+02 -0.84438229338E+03  0.90412879856E+03  0.10100000352E+00 0. -1.
       -3    1    3    3    0  502  0.32266567275E+03  0.18822338826E+02 -0.31913002268E+03  0.45421514549E+03  0.10100000352E+00 0.  1.
</event>
<event>
 5   0  0.4936000E-04  0.7001986E+03  0.7818609E-02  0.9716893E-01
        3   -1    0    0  501    0  0.00000000000E+00  0.00000000000E+00  0.24246906089E+03  0.24246908192E+03  0.10100000352E+00 0.  1.
       -3   -1    0    0    0  501  0.00000000000E+00  0.00000000000E+00 -0.50550575795E+03  0.50550576804E+03  0.10100000352E+00 0. -1.
    10030    2    1    2    0    0  0.00000000000E+00  0.00000000000E+00 -0.26303669707E+03  0.74797484997E+03  0.70019859481E+03 0.  0.
        5    1    3    3  502    0 -0.32380377858E+03 -0.85091591975E+02 -0.22276437200E+02  0.33557085050E+03  0.46999998093E+01 0.  1.
       -5    1    3    3    0  502  0.32380377858E+03  0.85091591975E+02 -0.24076025987E+03  0.41240399947E+03  0.46999998093E+01 0. -1.
</event>
<event>
 5   0  0.1243087E-03  0.6998632E+03  0.7818609E-02  0.9717466E-01
        2   -1    0    0  501    0  0.00000000000E+00  0.00000000000E+00  0.31237130535E+03  0.31237130536E+03  0.25500000920E-02 0.  1.
       -2   -1    0    0    0  501  0.00000000000E+00  0.00000000000E+00 -0.39200828714E+03  0.39200828715E+03  0.25500000920E-02 0. -1.
    10030    2    1    2    0    0  0.00000000000E+00  0.00000000000E+00 -0.79636981795E+02  0.70437959251E+03  0.69986324484E+03 0.  0.
        4    1    3    3  502    0  0.10036001665E+03 -0.16514921092E+03  0.25379019816E+03  0.31899447079E+03  0.12699999809E+01 0.  1.
       -4    1    3    3    0  502 -0.10036001665E+03  0.16514921092E+03 -0.33342717996E+03  0.38538512172E+03  0.12699999809E+01 0. -1.
</event>
<event>
 5   0  0.1222679E-03  0.6998328E+03  0.7818609E-02  0.9717518E-01
        2   -1    0    0  501    0  0.00000000000E+00  0.00000000000E+00  0.60801558723E+03  0.60801558724E+03  0.25500000920E-02 0.  1.
       -2   -1    0    0    0  501  0.00000000000E+00  0.00000000000E+00 -0.20137883317E+03  0.20137883319E+03  0.25500000920E-02 0. -1.
    10030    2    1    2    0    0  0.00000000000E+00  0.00000000000E+00  0.40663675406E+03  0.80939442043E+03  0.69983275006E+03 0.  0.
        2    1    3    3  502    0 -0.23373881609E+03  0.11971398761E+03 -0.64133838150E+02  0.27033020952E+03  0.25500000920E-02 0. -1.
       -2    1    3    3    0  502  0.23373881609E+03 -0.11971398761E+03  0.47077059221E+03  0.53906421090E+03  0.25500000920E-02 0.  1.
</event>
<event>
 5   0  0.1222679E-03  0.6999694E+03  0.7818609E-02  0.9717284E-01
       -2   -1    0    0    0  501  0.00000000000E+00  0.00000000000E+00  0.15815793972E+03  0.15815793974E+03  0.25500000920E-02 0.  1.
        2   -1    0    0  501    0  0.00000000000E+00  0.00000000000E+00 -0.77447454637E+03  0.77447454637E+03  0.25500000920E-02 0. -1.
    10030    2    1    2    0    0  0.00000000000E+00  0.00000000000E+00 -0.61631660665E+03  0.93263248611E+03  0.69996942399E+03 0.  0.
        2    1    3    3  502    0  0.13084721275E+03  0.23741839137E+03 -0.13218686160E+02  0.27140968905E+03  0.25500000920E-02 0.  1.
       -2    1    3    3    0  502 -0.13084721275E+03 -0.23741839137E+03 -0.60309792049E+03  0.66122279706E+03  0.25500000920E-02 0. -1.
</event>
<event>
 5   0  0.1265562E-03  0.7001813E+03  0.7818609E-02  0.9716922E-01
        2   -1    0    0  501    0  0.00000000000E+00  0.00000000000E+00  0.11195648225E+04  0.11195648226E+04  0.25500000920E-02 0.  1.
       -2   -1    0    0    0  501  0.00000000000E+00  0.00000000000E+00 -0.10947418656E+03  0.10947418659E+03  0.25500000920E-02 0. -1.
    10030    2    1    2    0    0  0.00000000000E+00  0.00000000000E+00  0.10100906360E+04  0.12290390091E+04  0.70018125731E+03 0.  0.
        1    1    3    3  502    0 -0.75528212875E+02  0.79531357341E+01 -0.94840486595E+02  0.12150095156E+03  0.50400001928E-02 0. -1.
       -1    1    3    3    0  502  0.75528212875E+02 -0.79531357341E+01  0.11049311226E+04  0.11075380576E+04  0.50400001928E-02 0.  1.
</event>
<event>
 5   0  0.7570633E-04  0.6998268E+03  0.7818609E-02  0.9717528E-01
        1   -1    0    0  501    0  0.00000000000E+00  0.00000000000E+00  0.57023920081E+03  0.57023920083E+03  0.50400001928E-02 0.  1.
       -1   -1    0    0    0  501  0.00000000000E+00  0.00000000000E+00 -0.21471582333E+03  0.21471582339E+03  0.50400001928E-02 0. -1.
    10030    2    1    2    0    0  0.00000000000E+00  0.00000000000E+00  0.35552337748E+03  0.78495502422E+03  0.69982677722E+03 0.  0.
        5    1    3    3  502    0  0.98423521544E+02 -0.19006693255E+03 -0.13268127122E+03  0.25187107450E+03  0.46999998093E+01 0. -1.
       -5    1    3    3    0  502 -0.98423521544E+02  0.19006693255E+03  0.48820464869E+03  0.53308394972E+03  0.46999998093E+01 0.  1.
</event>
<event>
 5   0  0.7013526E-04  0.6998984E+03  0.7818609E-02  0.9717406E-01
        1   -1    0    0  501    0  0.00000000000E+00  0.00000000000E+00  0.74378985518E+03  0.74378985520E+03  0.50400001928E-02 0. -1.
       -1   -1    0    0    0  501  0.00000000000E+00  0.00000000000E+00 -0.16464924296E+03  0.16464924304E+03  0.50400001928E-02 0.  1.
    10030    2    1    2    0    0  0.00000000000E+00  0.00000000000E+00  0.57914061222E+03  0.90843909823E+03  0.69989838296E+03 0.  0.
        1    1    3    3  502    0  0.31499638165E+03 -0.14694759916E+03  0.23687703713E+03  0.42062697024E+03  0.50400001928E-02 0.  1.
       -1    1    3    3    0  502 -0.31499638165E+03  0.14694759916E+03  0.34226357509E+03  0.48781212799E+03  0.50400001928E-02 0. -1.
</event>
<event>
 5   0  0.1265562E-03  0.7001020E+03  0.7818609E-02  0.9717058E-01
       -2   -1    0    0    0  501  0.00000000000E+00  0.00000000000E+00  0.14543663033E+03  0.14543663035E+03  0.25500000920E-02 0. -1.
        2   -1    0    0  501    0  0.00000000000E+00  0.00000000000E+00 -0.84253665218E+03  0.84253665219E+03  0.25500000920E-02 0.  1.
    10030    2    1    2    0    0  0.00000000000E+00  0.00000000000E+00 -0.69710002185E+03  0.98797328254E+03  0.70010196867E+03 0.  0.
        1    1    3    3  502    0  0.93273329777E+02 -0.19564671994E+03 -0.73645425065E+03  0.76768640499E+03  0.50400001928E-02 0.  1.
       -1    1    3    3    0  502 -0.93273329777E+02  0.19564671994E+03  0.39354228798E+02  0.22028687755E+03  0.50400001928E-02 0. -1.
</event>
<event>
 5   0  0.7459843E-04  0.6998661E+03  0.7818609E-02  0.9717461E-01
       -1   -1    0    0    0  501  0.00000000000E+00  0.00000000000E+00  0.21074307009E+03  0.21074307015E+03  0.50400001928E-02 0. -1.
        1   -1    0    0  501    0  0.00000000000E+00  0.00000000000E+00 -0.58105413241E+03  0.58105413243E+03  0.50400001928E-02 0.  1.
    10030    2    1    2    0    0  0.00000000000E+00  0.00000000000E+00 -0.37031106232E+03  0.79179720258E+03  0.69986607800E+03 0.  0.
        2    1    3    3  502    0 -0.22929817030E+03 -0.22586829716E+03 -0.29788713219E+02  0.32323599120E+03  0.25500000920E-02 0. -1.
       -2    1    3    3    0  502  0.22929817030E+03  0.22586829716E+03 -0.34052234910E+03  0.46856121138E+03  0.25500000920E-02 0.  1.
</event>
<event>
 5   0  0.7574241E-04  0.7006408E+03  0.7818609E-02  0.9716137E-01
        1   -1    0    0  501    0  0.00000000000E+00  0.00000000000E+00  0.99848026232E+02  0.99848026360E+02  0.50400001928E-02 0.  1.
       -1   -1    0    0    0  501  0.00000000000E+00  0.00000000000E+00 -0.12291119147E+04  0.12291119147E+04  0.50400001928E-02 0. -1.
    10030    2    1    2    0    0  0.00000000000E+00  0.00000000000E+00 -0.11292638884E+04  0.13289599410E+04  0.70064084606E+03 0.  0.
        3    1    3    3  502    0 -0.33057134779E+03 -0.87319294366E+02 -0.41990005578E+03  0.54149620700E+03  0.10100000352E+00 0. -1.
       -3    1    3    3    0  502  0.33057134779E+03  0.87319294366E+02 -0.70936383267E+03  0.78746373405E+03  0.10100000352E+00 0.  1.
</event>
<event>
 5   0  0.7572415E-04  0.6997638E+03  0.7818609E-02  0.9717636E-01
       -1   -1    0    0    0  501  0.00000000000E+00  0.00000000000E+00  0.12387807330E+03  0.12387807340E+03  0.50400001928E-02 0. -1.
        1   -1    0    0  501    0  0.00000000000E+00  0.00000000000E+00 -0.98820837414E+03  0.98820837416E+03  0.50400001928E-02 0.  1.
    10030    2    1    2    0    0  0.00000000000E+00  0.00000000000E+00 -0.86433030084E+03  0.11120864476E+04  0.69976381580E+03 0.  0.
        4    1    3    3  502    0  0.29961127941E+03  0.16995625743E+03 -0.52966274385E+03  0.63181981871E+03  0.12699999809E+01 0.  1.
       -4    1    3    3    0  502 -0.29961127941E+03 -0.16995625743E+03 -0.33466755699E+03  0.48026662885E+03  0.12699999809E+01 0. -1.
</event>
<event>
 5   0  0.1265562E-03  0.7000460E+03  0.7818609E-02  0.9717154E-01
       -2   -1    0    0    0  501  0.00000000000E+00  0.00000000000E+00  0.13487826639E+03  0.13487826641E+03  0.25500000920E-02 0.  1.
        2   -1    0    0  501    0  0.00000000000E+00  0.00000000000E+00 -0.90834577125E+03  0.90834577125E+03  0.25500000920E-02 0. -1.
    10030    2    1    2    0    0  0.00000000000E+00  0.00000000000E+00 -0.77346750486E+03  0.10432240377E+04  0.70004600684E+03 0.  0.
        1    1    3    3  502    0  0.19871783119E+02  0.20800747202E+03  0.31735122009E+02  0.21135069002E+03  0.50400001928E-02 0.  1.
       -1    1    3    3    0  502 -0.19871783119E+02 -0.20800747202E+03 -0.80520262686E+03  0.83187334764E+03  0.50400001928E-02 0. -1.
</event>
<event>
 5   0  0.7459843E-04  0.7003392E+03  0.7818609E-02  0.9716652E-01
       -1   -1    0    0    0  501  0.00000000000E+00  0.00000000000E+00  0.71094130433E+03  0.71094130435E+03  0.50400001928E-02 0.  1.
        1   -1    0    0  501    0  0.00000000000E+00  0.00000000000E+00 -0.17247380424E+03  0.17247380431E+03  0.50400001928E-02 0. -1.
    10030    2    1    2    0    0  0.00000000000E+00  0.00000000000E+00  0.53846750010E+03  0.88341510866E+03  0.70033920749E+03 0.  0.
        2    1    3    3  502    0 -0.54442147346E+02  0.21524917653E+03 -0.72332772700E+02  0.23351270933E+03  0.25500000920E-02 0. -1.
       -2    1    3    3    0  502  0.54442147346E+02 -0.21524917653E+03  0.61080027280E+03  0.64990239933E+03  0.25500000920E-02 0.  1.
</event>
<event>
 5   0  0.7574241E-04  0.6999774E+03  0.7818609E-02  0.9717271E-01
        1   -1    0    0  501    0  0.00000000000E+00  0.00000000000E+00  0.51996352185E+03  0.51996352187E+03  0.50400001928E-02 0. -1.
       -1   -1    0    0    0  501  0.00000000000E+00  0.00000000000E+00 -0.23557824486E+03  0.23557824491E+03  0.50400001928E-02 0.  1.
    10030    2    1    2    0    0  0.00000000000E+00  0.00000000000E+00  0.28438527699E+03  0.75554176679E+03  0.69997741077E+03 0.  0.
        3    1    3    3  502    0  0.11685183332E+03  0.21189457337E+03  0.41512523765E+03  0.48050248107E+03  0.10100000352E+00 0. -1.
       -3    1    3    3    0  502 -0.11685183332E+03 -0.21189457337E+03 -0.13073996066E+03  0.27503928572E+03  0.10100000352E+00 0.  1.
</event>
<event>
 5   0  0.7570633E-04  0.6996064E+03  0.7818609E-02  0.9717906E-01
        1   -1    0    0  501    0  0.00000000000E+00  0.00000000000E+00  0.70433705692E+03  0.70433705693E+03  0.50400001928E-02 0.  1.
       -1   -1    0    0    0  501  0.00000000000E+00  0.00000000000E+00 -0.17372686655E+03  0.17372686662E+03  0.50400001928E-02 0. -1.
    10030    2    1    2    0    0  0.00000000000E+00  0.00000000000E+00  0.53061019037E+03  0.87806392355E+03  0.69960637484E+03 0.  0.
        5    1    3    3  502    0  0.53409404964E+02  0.25274208101E+03  0.56127335342E+03  0.61788428634E+03  0.46999998093E+01 0.  1.
       -5    1    3    3    0  502 -0.53409404964E+02 -0.25274208101E+03 -0.30663163052E+02  0.26017963721E+03  0.46999998093E+01 0. -1.
</event>
<event>
 5   0  0.1265562E-03  0.7025461E+03  0.7818609E-02  0.9712888E-01
        2   -1    0    0  501    0  0.00000000000E+00  0.00000000000E+00  0.19883168426E+04  0.19883168426E+04  0.25500000920E-02 0.  1.
       -2   -1    0    0    0  501  0.00000000000E+00  0.00000000000E+00 -0.62058904907E+02  0.62058904960E+02  0.25500000920E-02 0. -1.
    10030    2    1    2    0    0  0.00000000000E+00  0.00000000000E+00  0.19262579377E+04  0.20503757475E+04  0.70254612920E+03 0.  0.
        1    1    3    3  502    0  0.52439482083E+02  0.28762470272E+03  0.15314105121E+04  0.15590689611E+04  0.50400001928E-02 0.  1.
       -1    1    3    3    0  502 -0.52439482083E+02 -0.28762470272E+03  0.39484742560E+03  0.49130678646E+03  0.50400001928E-02 0. -1.
</event>
<event>
 5   0  0.4936000E-04  0.6999028E+03  0.7818609E-02  0.9717398E-01
       -3   -1    0    0    0  501  0.00000000000E+00  0.00000000000E+00  0.33292944806E+03  0.33292946338E+03  0.10100000352E+00 0. -1.
        3   -1    0    0  501    0  0.00000000000E+00  0.00000000000E+00 -0.36784361437E+03  0.36784362823E+03  0.10100000352E+00 0.  1.
    10030    2    1    2    0    0  0.00000000000E+00  0.00000000000E+00 -0.34914166302E+02  0.70077309161E+03  0.69990279820E+03 0.  0.
        2    1    3    3  502    0 -0.89303933545E+02 -0.87755809104E+02  0.30973620432E+03  0.33408500543E+03  0.25500000920E-02 0. -1.
       -2    1    3    3    0  502  0.89303933545E+02  0.87755809104E+02 -0.34465037062E+03  0.36668808619E+03  0.25500000920E-02 0.  1.
</event>
<event>
 5   0  0.7570633E-04  0.7000258E+03  0.7818609E-02  0.9717188E-01
        1   -1    0    0  501    0  0.00000000000E+00  0.00000000000E+00  0.14854567630E+04  0.14854567630E+04  0.50400001928E-02 0. -1.
       -1   -1    0    0    0  501  0.00000000000E+00  0.00000000000E+00 -0.82472306813E+02  0.82472306967E+02  0.50400001928E-02 0.  1.
    10030    2    1    2    0    0  0.00000000000E+00  0.00000000000E+00  0.14029844562E+04  0.15679290700E+04  0.70002584536E+03 0.  0.
        5    1    3    3  502    0  0.19906422989E+03 -0.94277935238E+02  0.92311448746E+02  0.23886898137E+03  0.46999998093E+01 0.  1.
       -5    1    3    3    0  502 -0.19906422989E+03  0.94277935238E+02  0.13106730074E+04  0.13290600886E+04  0.46999998093E+01 0. -1.
</event>
<event>
 5   0  0.4936000E-04  0.7001177E+03  0.7818609E-02  0.9717031E-01
       -3   -1    0    0    0  501  0.00000000000E+00  0.00000000000E+00  0.48997774071E+03  0.48997775112E+03  0.10100000352E+00 0. -1.
        3   -1    0    0  501    0  0.00000000000E+00  0.00000000000E+00 -0.25009540506E+03  0.25009542546E+03  0.10100000352E+00 0.  1.
    10030    2    1    2    0    0  0.00000000000E+00  0.00000000000E+00  0.23988233564E+03  0.74007317658E+03  0.70011768420E+03 0.  0.
        3    1    3    3  502    0 -0.15067237704E+03  0.16557935274E+03 -0.16453137765E+03  0.27782957310E+03  0.10100000352E+00 0.  1.
       -3    1    3    3    0  502  0.15067237704E+03 -0.16557935274E+03  0.40441371329E+03  0.46224360348E+03  0.10100000352E+00 0. -1.
</event>
<event>
 5   0  0.1222679E-03  0.7000543E+03  0.7818609E-02  0.9717139E-01
        2   -1    0    0  501    0  0.00000000000E+00  0.00000000000E+00  0.72225890155E+03  0.72225890156E+03  0.25500000920E-02 0. -1.
       -2   -1    0    0    0  501  0.00000000000E+00  0.00000000000E+00 -0.16963308624E+03  0.16963308626E+03  0.25500000920E-02 0.  1.
    10030    2    1    2    0    0  0.00000000000E+00  0.00000000000E+00  0.55262581531E+03  0.89189198782E+03  0.70005430231E+03 0.  0.
        2    1    3    3  502    0  0.17836511200E+03  0.29666692321E+03  0.21019037093E+03  0.40497576291E+03  0.25500000920E-02 0. -1.
       -2    1    3    3    0  502 -0.17836511200E+03 -0.29666692321E+03  0.34243544438E+03  0.48691622491E+03  0.25500000920E-02 0.  1.
</event>
<event>
 5   0  0.7459843E-04  0.7001144E+03  0.7818609E-02  0.9717037E-01
        1   -1    0    0  501    0  0.00000000000E+00  0.00000000000E+00  0.13174358773E+04  0.13174358773E+04  0.50400001928E-02 0.  1.
       -1   -1    0    0    0  501  0.00000000000E+00  0.00000000000E+00 -0.93014035479E+02  0.93014035616E+02  0.50400001928E-02 0. -1.
    10030    2    1    2    0    0  0.00000000000E+00  0.00000000000E+00  0.12244218419E+04  0.14104499130E+04  0.70011435506E+03 0.  0.
        2    1    3    3  502    0 -0.11448967635E+03  0.22212055720E+03  0.11834801342E+03  0.27649896963E+03  0.25500000920E-02 0. -1.
       -2    1    3    3    0  502  0.11448967635E+03 -0.22212055720E+03  0.11060738284E+04  0.11339509433E+04  0.25500000920E-02 0.  1.
</event>
<event>
 5   0  0.1282546E-03  0.6998747E+03  0.7818609E-02  0.9717446E-01
       -2   -1    0    0    0  501  0.00000000000E+00  0.00000000000E+00  0.96920543711E+02  0.96920543744E+02  0.25500000920E-02 0. -1.
        2   -1    0    0  501    0  0.00000000000E+00  0.00000000000E+00 -0.12634696171E+04  0.12634696171E+04  0.25500000920E-02 0.  1.
    10030    2    1    2    0    0  0.00000000000E+00  0.00000000000E+00 -0.11665490733E+04  0.13603901608E+04  0.69987473814E+03 0.  0.
        5    1    3    3  502    0 -0.13495896179E+03 -0.24109179163E+03 -0.16595415335E+03  0.32233840040E+03  0.46999998093E+01 0. -1.
       -5    1    3    3    0  502  0.13495896179E+03  0.24109179163E+03 -0.10005949200E+04  0.10380517604E+04  0.46999998093E+01 0.  1.
</event>
<event>
 5   0  0.1243087E-03  0.7000010E+03  0.7818609E-02  0.9717230E-01
       -2   -1    0    0    0  501  0.00000000000E+00  0.00000000000E+00  0.14812684740E+03  0.14812684743E+03  0.25500000920E-02 0. -1.
        2   -1    0    0  501    0  0.00000000000E+00  0.00000000000E+00 -0.82699633999E+03  0.82699633999E+03  0.25500000920E-02 0.  1.
    10030    2    1    2    0    0  0.00000000000E+00  0.00000000000E+00 -0.67886949258E+03  0.97512318742E+03  0.70000103048E+03 0.  0.
        4    1    3    3  502    0  0.12315421944E+02 -0.34969241146E+03 -0.32843989877E+03  0.47990710794E+03  0.12699999809E+01 0.  1.
       -4    1    3    3    0  502 -0.12315421944E+02  0.34969241146E+03 -0.35042959381E+03  0.49521607947E+03  0.12699999809E+01 0. -1.
</event>
<event>
 5   0  0.1243087E-03  0.7014486E+03  0.7818609E-02  0.9714758E-01
        2   -1    0    0  501    0  0.00000000000E+00  0.00000000000E+00  0.32029428167E+03  0.32029428168E+03  0.25500000920E-02 0.  1.
       -2   -1    0    0    0  501  0.00000000000E+00  0.00000000000E+00 -0.38404532891E+03  0.38404532892E+03  0.25500000920E-02 0. -1.
    10030    2    1    2    0    0  0.00000000000E+00  0.00000000000E+00 -0.63751047248E+02  0.70433961060E+03  0.70144856620E+03 0.  0.
        4    1    3    3  502    0  0.30499137876E+03 -0.17124946876E+03 -0.57667733213E+02  0.35450430466E+03  0.12699999809E+01 0. -1.
       -4    1    3    3    0  502 -0.30499137876E+03  0.17124946876E+03 -0.60833140350E+01  0.34983530594E+03  0.12699999809E+01 0.  1.
</event>
<event>
 5   0  0.7570633E-04  0.6999575E+03  0.7818609E-02  0.9717305E-01
       -1   -1    0    0    0  501  0.00000000000E+00  0.00000000000E+00  0.12337933446E+03  0.12337933456E+03  0.50400001928E-02 0.  1.
        1   -1    0    0  501    0  0.00000000000E+00  0.00000000000E+00 -0.99275232680E+03  0.99275232681E+03  0.50400001928E-02 0. -1.
    10030    2    1    2    0    0  0.00000000000E+00  0.00000000000E+00 -0.86937299234E+03  0.11161316614E+04  0.69995748850E+03 0.  0.
        5    1    3    3  502    0 -0.60106052171E+02  0.12181239532E+03 -0.94894982770E+03  0.95863385223E+03  0.46999998093E+01 0. -1.
       -5    1    3    3    0  502  0.60106052171E+02 -0.12181239532E+03  0.79576835355E+02  0.15749780914E+03  0.46999998093E+01 0.  1.
</event>
<event>
 5   0  0.7570633E-04  0.6999923E+03  0.7818609E-02  0.9717245E-01
        1   -1    0    0  501    0  0.00000000000E+00  0.00000000000E+00  0.13231141616E+03  0.13231141626E+03  0.50400001928E-02 0. -1.
       -1   -1    0    0    0  501  0.00000000000E+00  0.00000000000E+00 -0.92582566680E+03  0.92582566681E+03  0.50400001928E-02 0.  1.
    10030    2    1    2    0    0  0.00000000000E+00  0.00000000000E+00 -0.79351425063E+03  0.10581370831E+04  0.69999230040E+03 0.  0.
        5    1    3    3  502    0  0.31134430735E+03  0.11295507394E+03 -0.56765340022E+03  0.65722644441E+03  0.46999998093E+01 0.  1.
       -5    1    3    3    0  502 -0.31134430735E+03 -0.11295507394E+03 -0.22586085041E+03  0.40091063867E+03  0.46999998093E+01 0. -1.
</event>
<event>
 5   0  0.7570633E-04  0.6998536E+03  0.7818609E-02  0.9717483E-01
        1   -1    0    0  501    0  0.00000000000E+00  0.00000000000E+00  0.84010825467E+03  0.84010825469E+03  0.50400001928E-02 0.  1.
       -1   -1    0    0    0  501  0.00000000000E+00  0.00000000000E+00 -0.14575355805E+03  0.14575355814E+03  0.50400001928E-02 0. -1.
    10030    2    1    2    0    0  0.00000000000E+00  0.00000000000E+00  0.69435469662E+03  0.98586181282E+03  0.69985360560E+03 0.  0.
        5    1    3    3  502    0  0.47500666477E+02 -0.34428748425E+03  0.40416303804E+03  0.53306663414E+03  0.46999998093E+01 0.  1.
       -5    1    3    3    0  502 -0.47500666477E+02  0.34428748425E+03  0.29019165858E+03  0.45279517868E+03  0.46999998093E+01 0. -1.
</event>
<event>
 5   0  0.1243087E-03  0.6998974E+03  0.7818609E-02  0.9717408E-01
       -2   -1    0    0    0  501  0.00000000000E+00  0.00000000000E+00  0.24889987776E+03  0.24889987777E+03  0.25500000920E-02 0. -1.
        2   -1    0    0  501    0  0.00000000000E+00  0.00000000000E+00 -0.49202150140E+03  0.49202150141E+03  0.25500000920E-02 0.  1.
    10030    2    1    2    0    0  0.00000000000E+00  0.00000000000E+00 -0.24312162364E+03  0.74092137918E+03  0.69989739694E+03 0.  0.
        4    1    3    3  502    0  0.84903228623E+02 -0.33691123951E+03 -0.77342439843E+02  0.35595113069E+03  0.12699999809E+01 0. -1.
       -4    1    3    3    0  502 -0.84903228623E+02  0.33691123951E+03 -0.16577918380E+03  0.38497024849E+03  0.12699999809E+01 0.  1.
</event>
<event>
 5   0  0.1282546E-03  0.6999657E+03  0.7818609E-02  0.9717291E-01
       -2   -1    0    0    0  501  0.00000000000E+00  0.00000000000E+00  0.24995884948E+03  0.24995884950E+03  0.25500000920E-02 0.  1.
        2   -1    0    0  501    0  0.00000000000E+00  0.00000000000E+00 -0.49003263397E+03  0.49003263397E+03  0.25500000920E-02 0. -1.
    10030    2    1    2    0    0  0.00000000000E+00  0.00000000000E+00 -0.24007378448E+03  0.73999148347E+03  0.69996569460E+03 0.  0.
        5    1    3    3  502    0 -0.28835595840E+03 -0.11948203930E+03  0.47254637465E+02  0.31572172434E+03  0.46999998093E+01 0.  1.
       -5    1    3    3    0  502  0.28835595840E+03  0.11948203930E+03 -0.28732842195E+03  0.42426975913E+03  0.46999998093E+01 0. -1.
</event>
<event>
 5   0  0.7574241E-04  0.7000213E+03  0.7818609E-02  0.9717196E-01
       -1   -1    0    0    0  501  0.00000000000E+00  0.00000000000E+00  0.24843692412E+03  0.24843692417E+03  0.50400001928E-02 0.  1.
        1   -1    0    0  501    0  0.00000000000E+00  0.00000000000E+00 -0.49311284764E+03  0.49311284766E+03  0.50400001928E-02 0. -1.
    10030    2    1    2    0    0  0.00000000000E+00  0.00000000000E+00 -0.24467592352E+03  0.74154977183E+03  0.70002125436E+03 0.  0.
        3    1    3    3  502    0 -0.32389927283E+03  0.37514164904E+02 -0.25712376564E+03  0.41524774842E+03  0.10100000352E+00 0. -1.
       -3    1    3    3    0  502  0.32389927283E+03 -0.37514164904E+02  0.12447842121E+02  0.32630202341E+03  0.10100000352E+00 0.  1.
</event>
<event>
 5   0  0.1243087E-03  0.6997850E+03  0.7818609E-02  0.9717600E-01
        2   -1    0    0  501    0  0.00000000000E+00  0.00000000000E+00  0.10480703027E+04  0.10480703027E+04  0.25500000920E-02 0. -1.
       -2   -1    0    0    0  501  0.00000000000E+00  0.00000000000E+00 -0.11680968064E+03  0.11680968066E+03  0.25500000920E-02 0.  1.
    10030    2    1    2    0    0  0.00000000000E+00  0.00000000000E+00  0.93126062204E+03  0.11648799833E+04  0.69978498800E+03 0.  0.
        4    1    3    3  502    0  0.26339914101E+03 -0.60907448151E+02  0.95894826417E+02  0.28685580935E+03  0.12699999809E+01 0.  1.
       -4    1    3    3    0  502 -0.26339914101E+03  0.60907448151E+02  0.83536579563E+03  0.87802417400E+03  0.12699999809E+01 0. -1.
</event>
<event>
 5   0  0.1265562E-03  0.7000749E+03  0.7818609E-02  0.9717104E-01
        2   -1    0    0  501    0  0.00000000000E+00  0.00000000000E+00  0.59539967815E+03  0.59539967815E+03  0.25500000920E-02 0. -1.
       -2   -1    0    0    0  501  0.00000000000E+00  0.00000000000E+00 -0.20578817427E+03  0.20578817429E+03  0.25500000920E-02 0.  1.
    10030    2    1    2    0    0  0.00000000000E+00  0.00000000000E+00  0.38961150387E+03  0.80118785244E+03  0.70007488953E+03 0.  0.
        1    1    3    3  502    0 -0.80259354983E+02 -0.14419474297E+03  0.54808593129E+03  0.57239136617E+03  0.50400001928E-02 0. -1.
       -1    1    3    3    0  502  0.80259354983E+02  0.14419474297E+03 -0.15847442741E+03  0.22879648628E+03  0.50400001928E-02 0.  1.
</event>
<event>
 5   0  0.4936000E-04  0.7002168E+03  0.7818609E-02  0.9716862E-01
        3   -1    0    0  501    0  0.00000000000E+00  0.00000000000E+00  0.12360858094E+03  0.12360862220E+03  0.10100000352E+00 0. -1.
       -3   -1    0    0    0  501  0.00000000000E+00  0.00000000000E+00 -0.99164528722E+03  0.99164529236E+03  0.10100000352E+00 0.  1.
    10030    2    1    2    0    0  0.00000000000E+00  0.00000000000E+00 -0.86803670628E+03  0.11152539146E+04  0.70021680251E+03 0.  0.
        3    1    3    3  502    0  0.19329414022E+02 -0.29376897032E+03 -0.73580557112E+03  0.79251730760E+03  0.10100000352E+00 0.  1.
       -3    1    3    3    0  502 -0.19329414022E+02  0.29376897032E+03 -0.13223113516E+03  0.32273660696E+03  0.10100000352E+00 0. -1.
</event>
<event>
 5   0  0.7013526E-04  0.7000978E+03  0.7818609E-02  0.9717065E-01
       -1   -1    0    0    0  501  0.00000000000E+00  0.00000000000E+00  0.16912604172E+03  0.16912604179E+03  0.50400001928E-02 0. -1.
        1   -1    0    0  501    0  0.00000000000E+00  0.00000000000E+00 -0.72451437072E+03  0.72451437073E+03  0.50400001928E-02 0.  1.
    10030    2    1    2    0    0  0.00000000000E+00  0.00000000000E+00 -0.55538832900E+03  0.89364041253E+03  0.70009784381E+03 0.  0.
        1    1    3    3  502    0 -0.14342321810E+03 -0.30612679446E+03 -0.16175185975E+03  0.37476325584E+03  0.50400001928E-02 0. -1.
       -1    1    3    3    0  502  0.14342321810E+03  0.30612679446E+03 -0.39363646925E+03  0.51887715668E+03  0.50400001928E-02 0.  1.
</event>
<event>
 5   0  0.1224048E-03  0.6998840E+03  0.7818609E-02  0.9717431E-01
        2   -1    0    0  501    0  0.00000000000E+00  0.00000000000E+00  0.63382382322E+03  0.63382382322E+03  0.25500000920E-02 0.  1.
       -2   -1    0    0    0  501  0.00000000000E+00  0.00000000000E+00 -0.19320730785E+03  0.19320730787E+03  0.25500000920E-02 0. -1.
    10030    2    1    2    0    0  0.00000000000E+00  0.00000000000E+00  0.44061651537E+03  0.82703113109E+03  0.69988397480E+03 0.  0.
        3    1    3    3  502    0  0.37126788781E+02 -0.11994959974E+03 -0.16567097018E+03  0.20787781384E+03  0.10100000352E+00 0. -1.
       -3    1    3    3    0  502 -0.37126788781E+02  0.11994959974E+03  0.60628748555E+03  0.61915331725E+03  0.10100000352E+00 0.  1.
</event>
<event>
 5   0  0.7574241E-04  0.6998837E+03  0.7818609E-02  0.9717431E-01
        1   -1    0    0  501    0  0.00000000000E+00  0.00000000000E+00  0.45972200047E+03  0.45972200050E+03  0.50400001928E-02 0. -1.
       -1   -1    0    0    0  501  0.00000000000E+00  0.00000000000E+00 -0.26637688728E+03  0.26637688733E+03  0.50400001928E-02 0.  1.
    10030    2    1    2    0    0  0.00000000000E+00  0.00000000000E+00  0.19334511318E+03  0.72609888783E+03  0.69988374900E+03 0.  0.
        3    1    3    3  502    0 -0.24918209791E+03  0.15569838631E+03 -0.10051404214E+03  0.31054273182E+03  0.10100000352E+00 0.  1.
       -3    1    3    3    0  502  0.24918209791E+03 -0.15569838631E+03  0.29385915533E+03  0.41555615600E+03  0.10100000352E+00 0. -1.
</event>
<event>
 5   0  0.7570633E-04  0.7000754E+03  0.7818609E-02  0.9717103E-01
       -1   -1    0    0    0  501  0.00000000000E+00  0.00000000000E+00  0.49408223000E+03  0.49408223002E+03  0.50400001928E-02 0. -1.
        1   -1    0    0  501    0  0.00000000000E+00  0.00000000000E+00 -0.24798787951E+03  0.24798787957E+03  0.50400001928E-02 0.  1.
    10030    2    1    2    0    0  0.00000000000E+00  0.00000000000E+00  0.24609435048E+03  0.74207010959E+03  0.70007543751E+03 0.  0.
        5    1    3    3  502    0  0.36525643979E-01 -0.31892891780E+03  0.27587883580E+03  0.42171895616E+03  0.46999998093E+01 0. -1.
       -5    1    3    3    0  502 -0.36525643979E-01  0.31892891780E+03 -0.29784485320E+02  0.32035115343E+03  0.46999998093E+01 0.  1.
</event>
<event>
 5   0  0.4936000E-04  0.6998593E+03  0.7818609E-02  0.9717473E-01
        3   -1    0    0  501    0  0.00000000000E+00  0.00000000000E+00  0.34030402264E+03  0.34030403763E+03  0.10100000352E+00 0.  1.
       -3   -1    0    0    0  501  0.00000000000E+00  0.00000000000E+00 -0.35982746270E+03  0.35982747688E+03  0.10100000352E+00 0. -1.
    10030    2    1    2    0    0  0.00000000000E+00  0.00000000000E+00 -0.19523440067E+02  0.70013151450E+03  0.69985925220E+03 0.  0.
        1    1    3    3  502    0  0.10155345898E+03  0.16475890532E+03 -0.30140925075E+03  0.35819846228E+03  0.50400001928E-02 0. -1.
       -1    1    3    3    0  502 -0.10155345898E+03 -0.16475890532E+03  0.28188581068E+03  0.34193305223E+03  0.50400001928E-02 0.  1.
</event>
<event>
 5   0  0.7013526E-04  0.6998285E+03  0.7818609E-02  0.9717526E-01
        1   -1    0    0  501    0  0.00000000000E+00  0.00000000000E+00  0.40137634661E+03  0.40137634665E+03  0.50400001928E-02 0.  1.
       -1   -1    0    0    0  501  0.00000000000E+00  0.00000000000E+00 -0.30505029116E+03  0.30505029121E+03  0.50400001928E-02 0. -1.
    10030    2    1    2    0    0  0.00000000000E+00  0.00000000000E+00  0.96326055450E+02  0.70642663785E+03  0.69982846878E+03 0.  0.
        1    1    3    3  502    0  0.16755911536E+03 -0.22895240357E+03  0.25489805504E+03  0.38140303975E+03  0.50400001928E-02 0.  1.
       -1    1    3    3    0  502 -0.16755911536E+03  0.22895240357E+03 -0.15857199959E+03  0.32502359810E+03  0.50400001928E-02 0. -1.
</event>
<event>
 5   0  0.7013526E-04  0.7007620E+03  0.7818609E-02  0.9715930E-01
        1   -1    0    0  501    0  0.00000000000E+00  0.00000000000E+00  0.12008514637E+03  0.12008514647E+03  0.50400001928E-02 0. -1.
       -1   -1    0    0    0  501  0.00000000000E+00  0.00000000000E+00 -0.10223317342E+04  0.10223317342E+04  0.50400001928E-02 0.  1.
    10030    2    1    2    0    0  0.00000000000E+00  0.00000000000E+00 -0.90224658781E+03  0.11424168807E+04  0.70076203094E+03 0.  0.
        1    1    3    3  502    0  0.31255068522E+03  0.66468317788E+02 -0.21679294479E+03  0.38614135888E+03  0.50400001928E-02 0. -1.
       -1    1    3    3    0  502 -0.31255068522E+03 -0.66468317788E+02 -0.68545364302E+03  0.75627552178E+03  0.50400001928E-02 0.  1.
</event>
<event>
 5   0  0.4936000E-04  0.7002893E+03  0.7818609E-02  0.9716738E-01
        3   -1    0    0  501    0  0.00000000000E+00  0.00000000000E+00  0.13438848817E+03  0.13438852612E+03  0.10100000352E+00 0.  1.
       -3   -1    0    0    0  501  0.00000000000E+00  0.00000000000E+00 -0.91228991625E+03  0.91228992184E+03  0.10100000352E+00 0. -1.
    10030    2    1    2    0    0  0.00000000000E+00  0.00000000000E+00 -0.77790142807E+03  0.10466784480E+04  0.70028932708E+03 0.  0.
        3    1    3    3  502    0 -0.56439631395E+02 -0.16557933767E+03  0.64393521117E+02  0.18640945474E+03  0.10100000352E+00 0.  1.
       -3    1    3    3    0  502  0.56439631395E+02  0.16557933767E+03 -0.84229494919E+03  0.86026899322E+03  0.10100000352E+00 0. -1.
</event>
<event>
 5   0  0.1224048E-03  0.6999665E+03  0.7818609E-02  0.9717289E-01
        2   -1    0    0  501    0  0.00000000000E+00  0.00000000000E+00  0.11199886357E+04  0.11199886358E+04  0.25500000920E-02 0. -1.
       -2   -1    0    0    0  501  0.00000000000E+00  0.00000000000E+00 -0.10936564571E+03  0.10936564574E+03  0.25500000920E-02 0.  1.
    10030    2    1    2    0    0  0.00000000000E+00  0.00000000000E+00  0.10106229900E+04  0.12293542815E+04  0.69996651450E+03 0.  0.
        3    1    3    3  502    0  0.68435882592E+02  0.45606120379E+02 -0.92154464932E+02  0.12351454914E+03  0.10100000352E+00 0.  1.
       -3    1    3    3    0  502 -0.68435882592E+02 -0.45606120379E+02  0.11027774550E+04  0.11058397323E+04  0.10100000352E+00 0. -1.
</event>
<event>
 5   0  0.4936000E-04  0.6992799E+03  0.7818609E-02  0.9718465E-01
        3   -1    0    0  501    0  0.00000000000E+00  0.00000000000E+00  0.18734408491E+03  0.18734411214E+03  0.10100000352E+00 0.  1.
       -3   -1    0    0    0  501  0.00000000000E+00  0.00000000000E+00 -0.65253230457E+03  0.65253231239E+03  0.10100000352E+00 0. -1.
    10030    2    1    2    0    0  0.00000000000E+00  0.00000000000E+00 -0.46518821966E+03  0.83987642453E+03  0.69927986441E+03 0.  0.
        5    1    3    3  502    0 -0.30389300767E+03 -0.62305418545E+02 -0.42623324308E+03  0.52719047107E+03  0.46999998093E+01 0. -1.
       -5    1    3    3    0  502  0.30389300767E+03  0.62305418545E+02 -0.38954976578E+02  0.31268595345E+03  0.46999998093E+01 0.  1.
</event>
<event>
 5   0  0.7013526E-04  0.7003160E+03  0.7818609E-02  0.9716692E-01
       -1   -1    0    0    0  501  0.00000000000E+00  0.00000000000E+00  0.81865839747E+02  0.81865839902E+02  0.50400001928E-02 0. -1.
        1   -1    0    0  501    0  0.00000000000E+00  0.00000000000E+00 -0.14977017455E+04  0.14977017455E+04  0.50400001928E-02 0.  1.
    10030    2    1    2    0    0  0.00000000000E+00  0.00000000000E+00 -0.14158359057E+04  0.15795675854E+04  0.70031596073E+03 0.  0.
        1    1    3    3  502    0  0.14293056142E+03  0.23181320520E+03 -0.12043555342E+04  0.12347626332E+04  0.50400001928E-02 0.  1.
       -1    1    3    3    0  502 -0.14293056142E+03 -0.23181320520E+03 -0.21148037148E+03  0.34480495216E+03  0.50400001928E-02 0. -1.
</event>
<event>
 5   0  0.7459843E-04  0.7000607E+03  0.7818609E-02  0.9717128E-01
       -1   -1    0    0    0  501  0.00000000000E+00  0.00000000000E+00  0.87385848133E+02  0.87385848278E+02  0.50400001928E-02 0. -1.
        1   -1    0    0  501    0  0.00000000000E+00  0.00000000000E+00 -0.14020717676E+04  0.14020717677E+04  0.50400001928E-02 0.  1.
    10030    2    1    2    0    0  0.00000000000E+00  0.00000000000E+00 -0.13146859195E+04  0.14894576159E+04  0.70006065644E+03 0.  0.
        2    1    3    3  502    0  0.26187742193E+03 -0.13484504649E+01 -0.16320700797E+03  0.30857435067E+03  0.25500000920E-02 0. -1.
       -2    1    3    3    0  502 -0.26187742193E+03  0.13484504649E+01 -0.11514789115E+04  0.11808832653E+04  0.25500000920E-02 0.  1.
</event>
<event>
 5   0  0.7574241E-04  0.6999187E+03  0.7818609E-02  0.9717371E-01
       -1   -1    0    0    0  501  0.00000000000E+00  0.00000000000E+00  0.11387913459E+03  0.11387913470E+03  0.50400001928E-02 0.  1.
        1   -1    0    0  501    0  0.00000000000E+00  0.00000000000E+00 -0.10754521383E+04  0.10754521384E+04  0.50400001928E-02 0. -1.
    10030    2    1    2    0    0  0.00000000000E+00  0.00000000000E+00 -0.96157300376E+03  0.11893312731E+04  0.69991873495E+03 0.  0.
        3    1    3    3  502    0 -0.67098023849E+02  0.33129036046E+03 -0.32676260633E+03  0.47013748929E+03  0.10100000352E+00 0.  1.
       -3    1    3    3    0  502  0.67098023849E+02 -0.33129036046E+03 -0.63481039743E+03  0.71919378378E+03  0.10100000352E+00 0. -1.
</event>
<event>
 5   0  0.1243087E-03  0.6999888E+03  0.7818609E-02  0.9717251E-01
       -2   -1    0    0    0  501  0.00000000000E+00  0.00000000000E+00  0.78543108322E+03  0.78543108322E+03  0.25500000920E-02 0. -1.
        2   -1    0    0  501    0  0.00000000000E+00  0.00000000000E+00 -0.15596032100E+03  0.15596032102E+03  0.25500000920E-02 0.  1.
    10030    2    1    2    0    0  0.00000000000E+00  0.00000000000E+00  0.62947076222E+03  0.94139140425E+03  0.69998881099E+03 0.  0.
        4    1    3    3  502    0 -0.25422215963E+03  0.23234355833E+03  0.39852860076E+03  0.52672487512E+03  0.12699999809E+01 0.  1.
       -4    1    3    3    0  502  0.25422215963E+03 -0.23234355833E+03  0.23094216146E+03  0.41466652913E+03  0.12699999809E+01 0. -1.
</event>
<event>
 5   0  0.1224048E-03  0.6995726E+03  0.7818609E-02  0.9717963E-01
       -2   -1    0    0    0  501  0.00000000000E+00  0.00000000000E+00  0.32553874833E+03  0.32553874834E+03  0.25500000920E-02 0.  1.
        2   -1    0    0  501    0  0.00000000000E+00  0.00000000000E+00 -0.37583990687E+03  0.37583990688E+03  0.25500000920E-02 0. -1.
    10030    2    1    2    0    0  0.00000000000E+00  0.00000000000E+00 -0.50301158539E+02  0.70137865522E+03  0.69957259198E+03 0.  0.
        3    1    3    3  502    0 -0.15880898413E+03 -0.26564672361E+03  0.13824860305E+03  0.33897073864E+03  0.10100000352E+00 0.  1.
       -3    1    3    3    0  502  0.15880898413E+03  0.26564672361E+03 -0.18854976159E+03  0.36240791658E+03  0.10100000352E+00 0. -1.
</event>
<event>
 5   0  0.7572415E-04  0.7002391E+03  0.7818609E-02  0.9716823E-01
       -1   -1    0    0    0  501  0.00000000000E+00  0.00000000000E+00  0.12651231746E+03  0.12651231756E+03  0.50400001928E-02 0. -1.
        1   -1    0    0  501    0  0.00000000000E+00  0.00000000000E+00 -0.96894671227E+03  0.96894671228E+03  0.50400001928E-02 0.  1.
    10030    2    1    2    0    0  0.00000000000E+00  0.00000000000E+00 -0.84243439481E+03  0.10954590298E+04  0.70023908524E+03 0.  0.
        4    1    3    3  502    0 -0.10516613672E+03  0.25407388604E+03 -0.76025936528E+03  0.80846111302E+03  0.12699999809E+01 0.  1.
       -4    1    3    3    0  502  0.10516613672E+03 -0.25407388604E+03 -0.82175029528E+02  0.28699791682E+03  0.12699999809E+01 0. -1.
</event>
<event>
 5   0  0.7459843E-04  0.6999332E+03  0.7818609E-02  0.9717346E-01
       -1   -1    0    0    0  501  0.00000000000E+00  0.00000000000E+00  0.34670446142E+03  0.34670446145E+03  0.50400001928E-02 0. -1.
        1   -1    0    0  501    0  0.00000000000E+00  0.00000000000E+00 -0.35325939688E+03  0.35325939691E+03  0.50400001928E-02 0.  1.
    10030    2    1    2    0    0  0.00000000000E+00  0.00000000000E+00 -0.65549354591E+01  0.69996385837E+03  0.69993316527E+03 0.  0.
        2    1    3    3  502    0 -0.28047581827E+03 -0.67163835499E+01 -0.21248705856E+03  0.35194110943E+03  0.25500000920E-02 0.  1.
       -2    1    3    3    0  502  0.28047581827E+03  0.67163835499E+01  0.20593212310E+03  0.34802274894E+03  0.25500000920E-02 0. -1.
</event>
<event>
 5   0  0.7572415E-04  0.7004831E+03  0.7818609E-02  0.9716406E-01
       -1   -1    0    0    0  501  0.00000000000E+00  0.00000000000E+00  0.23584928640E+03  0.23584928646E+03  0.50400001928E-02 0. -1.
        1   -1    0    0  501    0  0.00000000000E+00  0.00000000000E+00 -0.52011659161E+03  0.52011659163E+03  0.50400001928E-02 0.  1.
    10030    2    1    2    0    0  0.00000000000E+00  0.00000000000E+00 -0.28426730521E+03  0.75596587809E+03  0.70048305334E+03 0.  0.
        4    1    3    3  502    0  0.13521060249E+03 -0.15242709318E+03 -0.44956848572E+03  0.49358825149E+03  0.12699999809E+01 0.  1.
       -4    1    3    3    0  502 -0.13521060249E+03  0.15242709318E+03  0.16530118051E+03  0.26237762660E+03  0.12699999809E+01 0. -1.
</event>
<event>
 5   0  0.7013526E-04  0.7000138E+03  0.7818609E-02  0.9717209E-01
       -1   -1    0    0    0  501  0.00000000000E+00  0.00000000000E+00  0.60161404615E+02  0.60161404827E+02  0.50400001928E-02 0. -1.
        1   -1    0    0  501    0  0.00000000000E+00  0.00000000000E+00 -0.20362695238E+04  0.20362695238E+04  0.50400001928E-02 0.  1.
    10030    2    1    2    0    0  0.00000000000E+00  0.00000000000E+00 -0.19761081192E+04  0.20964309286E+04  0.70001381402E+03 0.  0.
        1    1    3    3  502    0  0.20345262483E+03 -0.18014688805E+03 -0.16486796197E+04  0.16709250014E+04  0.50400001928E-02 0.  1.
       -1    1    3    3    0  502 -0.20345262483E+03  0.18014688805E+03 -0.32742849951E+03  0.42550592727E+03  0.50400001928E-02 0. -1.
</event>
<event>
 5   0  0.7570633E-04  0.7011269E+03  0.7818609E-02  0.9715307E-01
       -1   -1    0    0    0  501  0.00000000000E+00  0.00000000000E+00  0.18688644324E+03  0.18688644331E+03  0.50400001928E-02 0.  1.
        1   -1    0    0  501    0  0.00000000000E+00  0.00000000000E+00 -0.65759043510E+03  0.65759043512E+03  0.50400001928E-02 0. -1.
    10030    2    1    2    0    0  0.00000000000E+00  0.00000000000E+00 -0.47070399186E+03  0.84447687843E+03  0.70112691451E+03 0.  0.
        5    1    3    3  502    0  0.33556240715E+03 -0.34206375757E+02 -0.35025261671E+03  0.48628303564E+03  0.46999998093E+01 0. -1.
       -5    1    3    3    0  502 -0.33556240715E+03  0.34206375757E+02 -0.12045137515E+03  0.35819384279E+03  0.46999998093E+01 0.  1.
</event>
<event>
 5   0  0.7572415E-04  0.6999019E+03  0.7818609E-02  0.9717400E-01
        1   -1    0    0  501    0  0.00000000000E+00  0.00000000000E+00  0.24393116670E+04  0.24393116670E+04  0.50400001928E-02 0.  1.
       -1   -1    0    0    0  501  0.00000000000E+00  0.00000000000E+00 -0.50205011134E+02  0.50205011387E+02  0.50400001928E-02 0. -1.
    10030    2    1    2    0    0  0.00000000000E+00  0.00000000000E+00  0.23891066559E+04  0.24895166784E+04  0.69990190662E+03 0.  0.
        4    1    3    3  502    0 -0.28890189497E+03  0.18680765818E+03  0.14223829227E+04  0.14633988513E+04  0.12699999809E+01 0.  1.
       -4    1    3    3    0  502  0.28890189497E+03 -0.18680765818E+03  0.96672373315E+03  0.10261178272E+04  0.12699999809E+01 0. -1.
</event>
<event>
 5   0  0.1243087E-03  0.6965864E+03  0.7818609E-02  0.9723088E-01
       -2   -1    0    0    0  501  0.00000000000E+00  0.00000000000E+00  0.19783174876E+03  0.19783174878E+03  0.25500000920E-02 0. -1.
        2   -1    0    0  501    0  0.00000000000E+00  0.00000000000E+00 -0.61318848617E+03  0.61318848618E+03  0.25500000920E-02 0.  1.
    10030    2    1    2    0    0  0.00000000000E+00  0.00000000000E+00 -0.41535673741E+03  0.81102023496E+03  0.69658639249E+03 0.  0.
        4    1    3    3  502    0  0.25573707564E+03 -0.12721578438E+03  0.24364404757E+02  0.28667149278E+03  0.12699999809E+01 0. -1.
       -4    1    3    3    0  502 -0.25573707564E+03  0.12721578438E+03 -0.43972114217E+03  0.52434874218E+03  0.12699999809E+01 0.  1.
</event>
<event>
 5   0  0.4936000E-04  0.7006760E+03  0.7818609E-02  0.9716077E-01
       -3   -1    0    0    0  501  0.00000000000E+00  0.00000000000E+00  0.42611817880E+03  0.42611819076E+03  0.10100000352E+00 0. -1.
        3   -1    0    0  501    0  0.00000000000E+00  0.00000000000E+00 -0.28803439273E+03  0.28803441044E+03  0.10100000352E+00 0.  1.
    10030    2    1    2    0    0  0.00000000000E+00  0.00000000000E+00  0.13808378606E+03  0.71415260120E+03  0.70067596351E+03 0.  0.
        4    1    3    3  502    0  0.23715668032E+03  0.59669863539E+02  0.32472802408E+03  0.40651406637E+03  0.12699999809E+01 0. -1.
       -4    1    3    3    0  502 -0.23715668032E+03 -0.59669863539E+02 -0.18664423801E+03  0.30763853484E+03  0.12699999809E+01 0.  1.
</event>
<event>
 5   0  0.1243087E-03  0.6996448E+03  0.7818609E-02  0.9717840E-01
       -2   -1    0    0    0  501  0.00000000000E+00  0.00000000000E+00  0.38191858102E+03  0.38191858103E+03  0.25500000920E-02 0. -1.
        2   -1    0    0  501    0  0.00000000000E+00  0.00000000000E+00 -0.32042353689E+03  0.32042353690E+03  0.25500000920E-02 0.  1.
    10030    2    1    2    0    0  0.00000000000E+00  0.00000000000E+00  0.61495044127E+02  0.70234211793E+03  0.69964477427E+03 0.  0.
        4    1    3    3  502    0  0.37282000576E+02  0.11790863959E+03  0.35924250142E+03  0.37993312910E+03  0.12699999809E+01 0. -1.
       -4    1    3    3    0  502 -0.37282000576E+02 -0.11790863959E+03 -0.29774745729E+03  0.32240898884E+03  0.12699999809E+01 0.  1.
</event>
<event>
 5   0  0.7013526E-04  0.7000624E+03  0.7818609E-02  0.9717126E-01
        1   -1    0    0  501    0  0.00000000000E+00  0.00000000000E+00  0.96229209339E+03  0.96229209341E+03  0.50400001928E-02 0.  1.
       -1   -1    0    0    0  501  0.00000000000E+00  0.00000000000E+00 -0.12732291188E+03  0.12732291198E+03  0.50400001928E-02 0. -1.
    10030    2    1    2    0    0  0.00000000000E+00  0.00000000000E+00  0.83496918152E+03  0.10896150054E+04  0.70006237285E+03 0.  0.
        1    1    3    3  502    0 -0.10422955694E+03  0.13752772217E+03  0.89148598338E+03  0.90803355307E+03  0.50400001928E-02 0.  1.
       -1    1    3    3    0  502  0.10422955694E+03 -0.13752772217E+03 -0.56516801866E+02  0.18158145231E+03  0.50400001928E-02 0. -1.
</event>
<event>
 5   0  0.7572415E-04  0.6998456E+03  0.7818609E-02  0.9717496E-01
       -1   -1    0    0    0  501  0.00000000000E+00  0.00000000000E+00  0.24601592771E+03  0.24601592776E+03  0.50400001928E-02 0. -1.
        1   -1    0    0  501    0  0.00000000000E+00  0.00000000000E+00 -0.49771553542E+03  0.49771553545E+03  0.50400001928E-02 0.  1.
    10030    2    1    2    0    0  0.00000000000E+00  0.00000000000E+00 -0.25169960771E+03  0.74373146321E+03  0.69984555214E+03 0.  0.
        4    1    3    3  502    0 -0.60630837987E+02 -0.25801203037E+03 -0.36864551112E+03  0.45403461553E+03  0.12699999809E+01 0.  1.
       -4    1    3    3    0  502  0.60630837987E+02  0.25801203037E+03  0.11694590341E+03  0.28969684768E+03  0.12699999809E+01 0. -1.
</event>
<event>
 5   0  0.1243087E-03  0.6996201E+03  0.7818609E-02  0.9717882E-01
       -2   -1    0    0    0  501  0.00000000000E+00  0.00000000000E+00  0.15720673301E+03  0.15720673303E+03  0.25500000920E-02 0.  1.
        2   -1    0    0  501    0  0.00000000000E+00  0.00000000000E+00 -0.77838312692E+03  0.77838312692E+03  0.25500000920E-02 0. -1.
    10030    2    1    2    0    0  0.00000000000E+00  0.00000000000E+00 -0.62117639391E+03  0.93558985995E+03  0.69962009240E+03 0.  0.
        4    1    3    3  502    0  0.18353263271E+03  0.92442476645E+02 -0.68914933159E+03  0.71913715861E+03  0.12699999809E+01 0. -1.
       -4    1    3    3    0  502 -0.18353263271E+03 -0.92442476645E+02  0.67972937682E+02  0.21645270134E+03  0.12699999809E+01 0.  1.
</event>
<event>
 5   0  0.1243087E-03  0.7000463E+03  0.7818609E-02  0.9717153E-01
        2   -1    0    0  501    0  0.00000000000E+00  0.00000000000E+00  0.23090416263E+04  0.23090416263E+04  0.25500000920E-02 0.  1.
       -2   -1    0    0    0  501  0.00000000000E+00  0.00000000000E+00 -0.53059337675E+02  0.53059337736E+02  0.25500000920E-02 0. -1.
    10030    2    1    2    0    0  0.00000000000E+00  0.00000000000E+00  0.22559822886E+04  0.23621009641E+04  0.70004633969E+03 0.  0.
        4    1    3    3  502    0 -0.26694846003E+03  0.19506987524E+03  0.15156707407E+04  0.15513133609E+04  0.12699999809E+01 0.  1.
       -4    1    3    3    0  502  0.26694846003E+03 -0.19506987524E+03  0.74031154793E+03  0.81078760316E+03  0.12699999809E+01 0. -1.
</event>
<event>
 5   0  0.1282546E-03  0.6996916E+03  0.7818609E-02  0.9717760E-01
       -2   -1    0    0    0  501  0.00000000000E+00  0.00000000000E+00  0.18658085766E+03  0.18658085767E+03  0.25500000920E-02 0.  1.
        2   -1    0    0  501    0  0.00000000000E+00  0.00000000000E+00 -0.65597344921E+03  0.65597344921E+03  0.25500000920E-02 0. -1.
    10030    2    1    2    0    0  0.00000000000E+00  0.00000000000E+00 -0.46939259155E+03  0.84255430689E+03  0.69969161425E+03 0.  0.
        5    1    3    3  502    0 -0.70135513017E+02 -0.20392919378E+03 -0.56636828466E+03  0.60605381785E+03  0.46999998093E+01 0. -1.
       -5    1    3    3    0  502  0.70135513017E+02  0.20392919378E+03  0.96975693110E+02  0.23650048904E+03  0.46999998093E+01 0.  1.
</event>
<event>
 5   0  0.1265562E-03  0.6999257E+03  0.7818609E-02  0.9717359E-01
        2   -1    0    0  501    0  0.00000000000E+00  0.00000000000E+00  0.56226458502E+03  0.56226458503E+03  0.25500000920E-02 0.  1.
       -2   -1    0    0    0  501  0.00000000000E+00  0.00000000000E+00 -0.21782271361E+03  0.21782271362E+03  0.25500000920E-02 0. -1.
    10030    2    1    2    0    0  0.00000000000E+00  0.00000000000E+00  0.34444187141E+03  0.78008729865E+03  0.69992570372E+03 0.  0.
        1    1    3    3  502    0  0.18492199668E+03 -0.25653142555E+03  0.51550490274E+01  0.31627692250E+03  0.50400001928E-02 0.  1.
       -1    1    3    3    0  502 -0.18492199668E+03  0.25653142555E+03  0.33928682239E+03  0.46381037615E+03  0.50400001928E-02 0. -1.
</event>
<event>
 5   0  0.7570633E-04  0.7001801E+03  0.7818609E-02  0.9716924E-01
       -1   -1    0    0    0  501  0.00000000000E+00  0.00000000000E+00  0.99550675571E+02  0.99550675698E+02  0.50400001928E-02 0.  1.
        1   -1    0    0  501    0  0.00000000000E+00  0.00000000000E+00 -0.12311622131E+04  0.12311622131E+04  0.50400001928E-02 0. -1.
    10030    2    1    2    0    0  0.00000000000E+00  0.00000000000E+00 -0.11316115375E+04  0.13307128888E+04  0.70018006295E+03 0.  0.
        5    1    3    3  502    0 -0.27479642088E+03 -0.21195257361E+03 -0.65298133585E+03  0.73948879732E+03  0.46999998093E+01 0.  1.
       -5    1    3    3    0  502  0.27479642088E+03  0.21195257361E+03 -0.47863020164E+03  0.59122409145E+03  0.46999998093E+01 0. -1.
</event>
<event>
 5   0  0.1282546E-03  0.6998699E+03  0.7818609E-02  0.9717455E-01
        2   -1    0    0  501    0  0.00000000000E+00  0.00000000000E+00  0.11545819319E+04  0.11545819319E+04  0.25500000920E-02 0.  1.
       -2   -1    0    0    0  501  0.00000000000E+00  0.00000000000E+00 -0.10605958843E+03  0.10605958846E+03  0.25500000920E-02 0. -1.
    10030    2    1    2    0    0  0.00000000000E+00  0.00000000000E+00  0.10485223434E+04  0.12606415203E+04  0.69986994370E+03 0.  0.
        5    1    3    3  502    0 -0.40712487072E+01 -0.24947054685E+03  0.82384255510E+02  0.26279532790E+03  0.46999998093E+01 0. -1.
       -5    1    3    3    0  502  0.40712487072E+01  0.24947054685E+03  0.96613808794E+03  0.99784619244E+03  0.46999998093E+01 0.  1.
</event>
<event>
 5   0  0.4936000E-04  0.7003964E+03  0.7818609E-02  0.9716555E-01
       -4   -1    0    0    0  501  0.00000000000E+00  0.00000000000E+00  0.25487422068E+03  0.25487738477E+03  0.12699999809E+01 0.  1.
        4   -1    0    0  501    0  0.00000000000E+00  0.00000000000E+00 -0.48116670096E+03  0.48116837699E+03  0.12699999809E+01 0. -1.
    10030    2    1    2    0    0  0.00000000000E+00  0.00000000000E+00 -0.22629248028E+03  0.73604576176E+03  0.70039637119E+03 0.  0.
        3    1    3    3  502    0 -0.19138429025E+03  0.15142790641E+03 -0.37708802780E+03  0.44917006613E+03  0.10100000352E+00 0. -1.
       -3    1    3    3    0  502  0.19138429025E+03 -0.15142790641E+03  0.15079554751E+03  0.28687569564E+03  0.10100000352E+00 0.  1.
</event>
<event>
 5   0  0.1282546E-03  0.7002667E+03  0.7818609E-02  0.9716776E-01
        2   -1    0    0  501    0  0.00000000000E+00  0.00000000000E+00  0.90649684821E+03  0.90649684821E+03  0.25500000920E-02 0.  1.
       -2   -1    0    0    0  501  0.00000000000E+00  0.00000000000E+00 -0.13523860815E+03  0.13523860817E+03  0.25500000920E-02 0. -1.
    10030    2    1    2    0    0  0.00000000000E+00  0.00000000000E+00  0.77125824006E+03  0.10417354564E+04  0.70026672648E+03 0.  0.
        5    1    3    3  502    0  0.30375487914E+03  0.21618084892E+02  0.12866593590E+03  0.33062271739E+03  0.46999998093E+01 0. -1.
       -5    1    3    3    0  502 -0.30375487914E+03 -0.21618084892E+02  0.64259230416E+03  0.71111273899E+03  0.46999998093E+01 0.  1.
</event>
<event>
 5   0  0.7574241E-04  0.7020087E+03  0.7818609E-02  0.9713803E-01
        1   -1    0    0  501    0  0.00000000000E+00  0.00000000000E+00  0.95041239413E+03  0.95041239414E+03  0.50400001928E-02 0. -1.
       -1   -1    0    0    0  501  0.00000000000E+00  0.00000000000E+00 -0.12963221312E+03  0.12963221322E+03  0.50400001928E-02 0.  1.
    10030    2    1    2    0    0  0.00000000000E+00  0.00000000000E+00  0.82078018101E+03  0.10800446074E+04  0.70200872384E+03 0.  0.
        3    1    3    3  502    0 -0.34895475467E+03 -0.37828735195E+02  0.40746374237E+03  0.53779842465E+03  0.10100000352E+00 0.  1.
       -3    1    3    3    0  502  0.34895475467E+03  0.37828735195E+02  0.41331643864E+03  0.54224618270E+03  0.10100000352E+00 0. -1.
</event>
<event>
 5   0  0.7459843E-04  0.7019872E+03  0.7818609E-02  0.9713840E-01
        1   -1    0    0  501    0  0.00000000000E+00  0.00000000000E+00  0.82349289402E+03  0.82349289404E+03  0.50400001928E-02 0.  1.
       -1   -1    0    0    0  501  0.00000000000E+00  0.00000000000E+00 -0.14960240216E+03  0.14960240224E+03  0.50400001928E-02 0. -1.
    10030    2    1    2    0    0  0.00000000000E+00  0.00000000000E+00  0.67389049186E+03  0.97309529628E+03  0.70198722254E+03 0.  0.
        2    1    3    3  502    0  0.19948826412E+03  0.91208889633E+02 -0.42888680450E+02  0.22350406705E+03  0.25500000920E-02 0. -1.
       -2    1    3    3    0  502 -0.19948826412E+03 -0.91208889633E+02  0.71677917231E+03  0.74959122923E+03  0.25500000920E-02 0.  1.
</event>
<event>
 5   0  0.7574241E-04  0.6994072E+03  0.7818609E-02  0.9718247E-01
        1   -1    0    0  501    0  0.00000000000E+00  0.00000000000E+00  0.48975601583E+03  0.48975601586E+03  0.50400001928E-02 0. -1.
       -1   -1    0    0    0  501  0.00000000000E+00  0.00000000000E+00 -0.24970106326E+03  0.24970106332E+03  0.50400001928E-02 0.  1.
    10030    2    1    2    0    0  0.00000000000E+00  0.00000000000E+00  0.24005495257E+03  0.73945707918E+03  0.69940717160E+03 0.  0.
        3    1    3    3  502    0  0.88740844626E+02  0.21924717251E+03  0.39235897737E+03  0.45813735657E+03  0.10100000352E+00 0. -1.
       -3    1    3    3    0  502 -0.88740844626E+02 -0.21924717251E+03 -0.15230402480E+03  0.28131972261E+03  0.10100000352E+00 0.  1.
</event>
<event>
 5   0  0.7574241E-04  0.6999679E+03  0.7818609E-02  0.9717287E-01
       -1   -1    0    0    0  501  0.00000000000E+00  0.00000000000E+00  0.45363940731E+03  0.45363940734E+03  0.50400001928E-02 0. -1.
        1   -1    0    0  501    0  0.00000000000E+00  0.00000000000E+00 -0.27001350528E+03  0.27001350533E+03  0.50400001928E-02 0.  1.
    10030    2    1    2    0    0  0.00000000000E+00  0.00000000000E+00  0.18362590203E+03  0.72365291266E+03  0.69996790363E+03 0.  0.
        3    1    3    3  502    0  0.31261467380E+03  0.13102487992E+03  0.18190107644E+03  0.38468619061E+03  0.10100000352E+00 0.  1.
       -3    1    3    3    0  502 -0.31261467380E+03 -0.13102487992E+03  0.17248255882E+01  0.33896672205E+03  0.10100000352E+00 0. -1.
</event>
<event>
 5   0  0.1222679E-03  0.6990377E+03  0.7818609E-02  0.9718879E-01
        2   -1    0    0  501    0  0.00000000000E+00  0.00000000000E+00  0.11209798480E+04  0.11209798480E+04  0.25500000920E-02 0.  1.
       -2   -1    0    0    0  501  0.00000000000E+00  0.00000000000E+00 -0.10897915543E+03  0.10897915546E+03  0.25500000920E-02 0. -1.
    10030    2    1    2    0    0  0.00000000000E+00  0.00000000000E+00  0.10120006926E+04  0.12299590035E+04  0.69903773033E+03 0.  0.
        2    1    3    3  502    0 -0.24335046117E+03 -0.19942689786E+03  0.23815738595E+03  0.39460039918E+03  0.25500000920E-02 0. -1.
       -2    1    3    3    0  502  0.24335046117E+03  0.19942689786E+03  0.77384330664E+03  0.83535860430E+03  0.25500000920E-02 0.  1.
</event>
<event>
 5   0  0.7574241E-04  0.6990768E+03  0.7818609E-02  0.9718812E-01
        1   -1    0    0  501    0  0.00000000000E+00  0.00000000000E+00  0.56591464640E+03  0.56591464642E+03  0.50400001928E-02 0. -1.
       -1   -1    0    0    0  501  0.00000000000E+00  0.00000000000E+00 -0.21589317112E+03  0.21589317118E+03  0.50400001928E-02 0.  1.
    10030    2    1    2    0    0  0.00000000000E+00  0.00000000000E+00  0.35002147528E+03  0.78180781760E+03  0.69907684164E+03 0.  0.
        3    1    3    3  502    0  0.16608567731E+00  0.28431232748E+03  0.40240478011E+03  0.49271000030E+03  0.10100000352E+00 0. -1.
       -3    1    3    3    0  502 -0.16608567731E+00 -0.28431232748E+03 -0.52383304836E+02  0.28909781730E+03  0.10100000352E+00 0.  1.
</event>
<event>
 5   0  0.7459843E-04  0.7005584E+03  0.7818609E-02  0.9716278E-01
       -1   -1    0    0    0  501  0.00000000000E+00  0.00000000000E+00  0.13754002530E+03  0.13754002539E+03  0.50400001928E-02 0. -1.
        1   -1    0    0  501    0  0.00000000000E+00  0.00000000000E+00 -0.89207143880E+03  0.89207143882E+03  0.50400001928E-02 0.  1.
    10030    2    1    2    0    0  0.00000000000E+00  0.00000000000E+00 -0.75453141350E+03  0.10296114642E+04  0.70055842959E+03 0.  0.
        2    1    3    3  502    0  0.27347861728E+03  0.13455888088E+03 -0.12356072798E+03  0.32888280594E+03  0.25500000920E-02 0. -1.
       -2    1    3    3    0  502 -0.27347861728E+03 -0.13455888088E+03 -0.63097068552E+03  0.70072865827E+03  0.25500000920E-02 0.  1.
</event>
<event>
 5   0  0.7013526E-04  0.6998366E+03  0.7818609E-02  0.9717512E-01
        1   -1    0    0  501    0  0.00000000000E+00  0.00000000000E+00  0.13805515935E+03  0.13805515945E+03  0.50400001928E-02 0.  1.
       -1   -1    0    0    0  501  0.00000000000E+00  0.00000000000E+00 -0.88691233070E+03  0.88691233071E+03  0.50400001928E-02 0. -1.
    10030    2    1    2    0    0  0.00000000000E+00  0.00000000000E+00 -0.74885717134E+03  0.10249674902E+04  0.69983661865E+03 0.  0.
        1    1    3    3  502    0 -0.79958769443E+02  0.21053106345E+03  0.17811527128E+02  0.22590702515E+03  0.50400001928E-02 0.  1.
       -1    1    3    3    0  502  0.79958769443E+02 -0.21053106345E+03 -0.76666869847E+03  0.79906046500E+03  0.50400001928E-02 0. -1.
</event>
<event>
 5   0  0.1265562E-03  0.7005025E+03  0.7818609E-02  0.9716373E-01
        2   -1    0    0  501    0  0.00000000000E+00  0.00000000000E+00  0.21890268249E+03  0.21890268250E+03  0.25500000920E-02 0.  1.
       -2   -1    0    0    0  501  0.00000000000E+00  0.00000000000E+00 -0.56041313605E+03  0.56041313605E+03  0.25500000920E-02 0. -1.
    10030    2    1    2    0    0  0.00000000000E+00  0.00000000000E+00 -0.34151045356E+03  0.77931581855E+03  0.70050250189E+03 0.  0.
        1    1    3    3  502    0  0.13584335128E+03  0.13037091751E+03 -0.49932427247E+03  0.53364287808E+03  0.50400001928E-02 0.  1.
       -1    1    3    3    0  502 -0.13584335128E+03 -0.13037091751E+03  0.15781381890E+03  0.24567294048E+03  0.50400001928E-02 0. -1.
</event>
<event>
 5   0  0.1222679E-03  0.6997459E+03  0.7818609E-02  0.9717667E-01
        2   -1    0    0  501    0  0.00000000000E+00  0.00000000000E+00  0.80238789488E+03  0.80238789489E+03  0.25500000920E-02 0. -1.
       -2   -1    0    0    0  501  0.00000000000E+00  0.00000000000E+00 -0.15255847924E+03  0.15255847926E+03  0.25500000920E-02 0.  1.
    10030    2    1    2    0    0  0.00000000000E+00  0.00000000000E+00  0.64982941564E+03  0.95494637415E+03  0.69974588821E+03 0.  0.
        2    1    3    3  502    0 -0.11445006592E+03 -0.29682478237E+03  0.52365293011E+03  0.61271213488E+03  0.25500000920E-02 0. -1.
       -2    1    3    3    0  502  0.11445006592E+03  0.29682478237E+03  0.12617648554E+03  0.34223423927E+03  0.25500000920E-02 0.  1.
</event>
<event>
 5   0  0.7574241E-04  0.6997238E+03  0.7818609E-02  0.9717705E-01
       -1   -1    0    0    0  501  0.00000000000E+00  0.00000000000E+00  0.86934804477E+02  0.86934804623E+02  0.50400001928E-02 0. -1.
        1   -1    0    0  501    0  0.00000000000E+00  0.00000000000E+00 -0.14079903226E+04  0.14079903226E+04  0.50400001928E-02 0.  1.
    10030    2    1    2    0    0  0.00000000000E+00  0.00000000000E+00 -0.13210555181E+04  0.14949251272E+04  0.69972384128E+03 0.  0.
        3    1    3    3  502    0  0.39155911120E+02  0.28076714374E+03 -0.22247742592E+03  0.36036036079E+03  0.10100000352E+00 0. -1.
       -3    1    3    3    0  502 -0.39155911120E+02 -0.28076714374E+03 -0.10985780922E+04  0.11345647664E+04  0.10100000352E+00 0.  1.
</event>
<event>
 5   0  0.1265562E-03  0.7002218E+03  0.7818609E-02  0.9716853E-01
        2   -1    0    0  501    0  0.00000000000E+00  0.00000000000E+00  0.17803329233E+04  0.17803329233E+04  0.25500000920E-02 0. -1.
       -2   -1    0    0    0  501  0.00000000000E+00  0.00000000000E+00 -0.68850963982E+02  0.68850964030E+02  0.25500000920E-02 0.  1.
    10030    2    1    2    0    0  0.00000000000E+00  0.00000000000E+00  0.17114819593E+04  0.18491838873E+04  0.70022178779E+03 0.  0.
        1    1    3    3  502    0 -0.92400851535E+02 -0.19867617281E+03  0.15768804543E+04  0.15920308119E+04  0.50400001928E-02 0. -1.
       -1    1    3    3    0  502  0.92400851535E+02  0.19867617281E+03  0.13460150504E+03  0.25715307541E+03  0.50400001928E-02 0.  1.
</event>
<event>
 5   0  0.7013526E-04  0.6999100E+03  0.7818609E-02  0.9717386E-01
        1   -1    0    0  501    0  0.00000000000E+00  0.00000000000E+00  0.80000088108E+03  0.80000088110E+03  0.50400001928E-02 0. -1.
       -1   -1    0    0    0  501  0.00000000000E+00  0.00000000000E+00 -0.15308546726E+03  0.15308546734E+03  0.50400001928E-02 0.  1.
    10030    2    1    2    0    0  0.00000000000E+00  0.00000000000E+00  0.64691541382E+03  0.95308634844E+03  0.69991001917E+03 0.  0.
        1    1    3    3  502    0 -0.13517534684E+03 -0.24836807909E+03  0.42699352968E+02  0.28597606871E+03  0.50400001928E-02 0.  1.
       -1    1    3    3    0  502  0.13517534684E+03  0.24836807909E+03  0.60421606085E+03  0.66711027973E+03  0.50400001928E-02 0. -1.
</event>
<event>
 5   0  0.7574241E-04  0.7001455E+03  0.7818609E-02  0.9716983E-01
       -1   -1    0    0    0  501  0.00000000000E+00  0.00000000000E+00  0.10971711707E+03  0.10971711718E+03  0.50400001928E-02 0. -1.
        1   -1    0    0  501    0  0.00000000000E+00  0.00000000000E+00 -0.11169717266E+04  0.11169717266E+04  0.50400001928E-02 0.  1.
    10030    2    1    2    0    0  0.00000000000E+00  0.00000000000E+00 -0.10072546096E+04  0.12266888438E+04  0.70014546422E+03 0.  0.
        3    1    3    3  502    0 -0.61018346998E+02 -0.34067040536E+03 -0.41139324188E+03  0.53760949901E+03  0.10100000352E+00 0.  1.
       -3    1    3    3    0  502  0.61018346998E+02  0.34067040536E+03 -0.59586136767E+03  0.68907934481E+03  0.10100000352E+00 0. -1.
</event>
<event>
 5   0  0.1243087E-03  0.7002967E+03  0.7818609E-02  0.9716725E-01
       -2   -1    0    0    0  501  0.00000000000E+00  0.00000000000E+00  0.18208102527E+03  0.18208102528E+03  0.25500000920E-02 0. -1.
        2   -1    0    0  501    0  0.00000000000E+00  0.00000000000E+00 -0.67334791621E+03  0.67334791621E+03  0.25500000920E-02 0.  1.
    10030    2    1    2    0    0  0.00000000000E+00  0.00000000000E+00 -0.49126689094E+03  0.85542894150E+03  0.70029673412E+03 0.  0.
        4    1    3    3  502    0 -0.63156476922E+02 -0.65228392757E+02 -0.65871575798E+03  0.66494476952E+03  0.12699999809E+01 0.  1.
       -4    1    3    3    0  502  0.63156476922E+02  0.65228392757E+02  0.16744886704E+03  0.19048417197E+03  0.12699999809E+01 0. -1.
</event>
<event>
 5   0  0.4936000E-04  0.6998596E+03  0.7818609E-02  0.9717472E-01
        4   -1    0    0  501    0  0.00000000000E+00  0.00000000000E+00  0.13614875677E+03  0.13615467994E+03  0.12699999809E+01 0. -1.
       -4   -1    0    0    0  501  0.00000000000E+00  0.00000000000E+00 -0.89936428010E+03  0.89936517679E+03  0.12699999809E+01 0.  1.
    10030    2    1    2    0    0  0.00000000000E+00  0.00000000000E+00 -0.76321552334E+03  0.10355198567E+04  0.69985958493E+03 0.  0.
        2    1    3    3  502    0  0.21924056566E+03  0.52825704257E+01 -0.78507387901E+03  0.81512902457E+03  0.25500000920E-02 0.  1.
       -2    1    3    3    0  502 -0.21924056566E+03 -0.52825704257E+01  0.21858355676E+02  0.22039083216E+03  0.25500000920E-02 0. -1.
</event>
<event>
 5   0  0.4936000E-04  0.7022889E+03  0.7818609E-02  0.9713326E-01
        3   -1    0    0  501    0  0.00000000000E+00  0.00000000000E+00  0.14156977091E+03  0.14156980694E+03  0.10100000352E+00 0.  1.
       -3   -1    0    0    0  501  0.00000000000E+00  0.00000000000E+00 -0.87096563698E+03  0.87096564284E+03  0.10100000352E+00 0. -1.
    10030    2    1    2    0    0  0.00000000000E+00  0.00000000000E+00 -0.72939586607E+03  0.10125354498E+04  0.70228890609E+03 0.  0.
        2    1    3    3  502    0 -0.30886077184E+03  0.73685050767E+02 -0.14853913685E+03  0.35055432998E+03  0.25500000920E-02 0.  1.
       -2    1    3    3    0  502  0.30886077184E+03 -0.73685050767E+02 -0.58085672922E+03  0.66198111980E+03  0.25500000920E-02 0. -1.
</event>
<event>
 5   0  0.1265562E-03  0.7000534E+03  0.7818609E-02  0.9717141E-01
       -2   -1    0    0    0  501  0.00000000000E+00  0.00000000000E+00  0.33946960095E+03  0.33946960096E+03  0.25500000920E-02 0. -1.
        2   -1    0    0  501    0  0.00000000000E+00  0.00000000000E+00 -0.36091211049E+03  0.36091211049E+03  0.25500000920E-02 0.  1.
    10030    2    1    2    0    0  0.00000000000E+00  0.00000000000E+00 -0.21442509538E+02  0.70038171145E+03  0.70005339834E+03 0.  0.
        1    1    3    3  502    0  0.45181141317E+02  0.33695385033E+03 -0.94063727863E+02  0.35274242403E+03  0.50400001928E-02 0.  1.
       -1    1    3    3    0  502 -0.45181141317E+02 -0.33695385033E+03  0.72621218325E+02  0.34763928742E+03  0.50400001928E-02 0. -1.
</event>
<event>
 5   0  0.1282546E-03  0.6980946E+03  0.7818609E-02  0.9720496E-01
       -2   -1    0    0    0  501  0.00000000000E+00  0.00000000000E+00  0.13630790310E+03  0.13630790312E+03  0.25500000920E-02 0.  1.
        2   -1    0    0  501    0  0.00000000000E+00  0.00000000000E+00 -0.89381474598E+03  0.89381474599E+03  0.25500000920E-02 0. -1.
    10030    2    1    2    0    0  0.00000000000E+00  0.00000000000E+00 -0.75750684289E+03  0.10301226491E+04  0.69809458900E+03 0.  0.
        5    1    3    3  502    0  0.29228760500E+03 -0.17175543232E+03 -0.50114945505E+03  0.60506597893E+03  0.46999998093E+01 0.  1.
       -5    1    3    3    0  502 -0.29228760500E+03  0.17175543232E+03 -0.25635738784E+03  0.42505667018E+03  0.46999998093E+01 0. -1.
</event>
<event>
 5   0  0.1243087E-03  0.7003287E+03  0.7818609E-02  0.9716670E-01
       -2   -1    0    0    0  501  0.00000000000E+00  0.00000000000E+00  0.15511051203E+03  0.15511051205E+03  0.25500000920E-02 0.  1.
        2   -1    0    0  501    0  0.00000000000E+00  0.00000000000E+00 -0.79050145191E+03  0.79050145192E+03  0.25500000920E-02 0. -1.
    10030    2    1    2    0    0  0.00000000000E+00  0.00000000000E+00 -0.63539093988E+03  0.94561196397E+03  0.70032873703E+03 0.  0.
        4    1    3    3  502    0 -0.19687016092E+03 -0.28944283872E+03 -0.32965519318E+03  0.48084215335E+03  0.12699999809E+01 0. -1.
       -4    1    3    3    0  502  0.19687016092E+03  0.28944283872E+03 -0.30573574671E+03  0.46476981062E+03  0.12699999809E+01 0.  1.
</event>
<event>
 5   0  0.7574241E-04  0.6998983E+03  0.7818609E-02  0.9717406E-01
       -1   -1    0    0    0  501  0.00000000000E+00  0.00000000000E+00  0.92113868096E+02  0.92113868234E+02  0.50400001928E-02 0. -1.
        1   -1    0    0  501    0  0.00000000000E+00  0.00000000000E+00 -0.13294894613E+04  0.13294894613E+04  0.50400001928E-02 0.  1.
    10030    2    1    2    0    0  0.00000000000E+00  0.00000000000E+00 -0.12373755932E+04  0.14216033296E+04  0.69989832684E+03 0.  0.
        3    1    3    3  502    0  0.85597602386E+02  0.22210835120E+03 -0.11397313625E+04  0.11643224029E+04  0.10100000352E+00 0.  1.
       -3    1    3    3    0  502 -0.85597602386E+02 -0.22210835120E+03 -0.97644230775E+02  0.25728092664E+03  0.10100000352E+00 0. -1.
</event>
<event>
 5   0  0.7574241E-04  0.6999083E+03  0.7818609E-02  0.9717389E-01
       -1   -1    0    0    0  501  0.00000000000E+00  0.00000000000E+00  0.16879512954E+03  0.16879512962E+03  0.50400001928E-02 0.  1.
        1   -1    0    0  501    0  0.00000000000E+00  0.00000000000E+00 -0.72554175033E+03  0.72554175034E+03  0.50400001928E-02 0. -1.
    10030    2    1    2    0    0  0.00000000000E+00  0.00000000000E+00 -0.55674662078E+03  0.89433687996E+03  0.69990831908E+03 0.  0.
        3    1    3    3  502    0  0.31582909336E+03  0.98926659445E+02 -0.13305631934E+03  0.35670505250E+03  0.10100000352E+00 0.  1.
       -3    1    3    3    0  502 -0.31582909336E+03 -0.98926659445E+02 -0.42369030144E+03  0.53763182746E+03  0.10100000352E+00 0. -1.
</event>
<event>
 5   0  0.1224048E-03  0.6997417E+03  0.7818609E-02  0.9717674E-01
        2   -1    0    0  501    0  0.00000000000E+00  0.00000000000E+00  0.76206477028E+03  0.76206477029E+03  0.25500000920E-02 0. -1.
       -2   -1    0    0    0  501  0.00000000000E+00  0.00000000000E+00 -0.16062889205E+03  0.16062889207E+03  0.25500000920E-02 0.  1.
    10030    2    1    2    0    0  0.00000000000E+00  0.00000000000E+00  0.60143587823E+03  0.92269366236E+03  0.69974172302E+03 0.  0.
        3    1    3    3  502    0 -0.13088109589E+03  0.20158178325E+03 -0.34545093054E+02  0.24281361217E+03  0.10100000352E+00 0.  1.
       -3    1    3    3    0  502  0.13088109589E+03 -0.20158178325E+03  0.63598097129E+03  0.67988005019E+03  0.10100000352E+00 0. -1.
</event>
<event>
 5   0  0.1243087E-03  0.6998749E+03  0.7818609E-02  0.9717446E-01
       -2   -1    0    0    0  501  0.00000000000E+00  0.00000000000E+00  0.38282555022E+03  0.38282555023E+03  0.25500000920E-02 0. -1.
        2   -1    0    0  501    0  0.00000000000E+00  0.00000000000E+00 -0.31987476044E+03  0.31987476045E+03  0.25500000920E-02 0.  1.
    10030    2    1    2    0    0  0.00000000000E+00  0.00000000000E+00  0.62950789789E+02  0.70270031068E+03  0.69987493504E+03 0.  0.
        4    1    3    3  502    0 -0.24664379120E+03 -0.24767377410E+03  0.48250931608E+02  0.35285297705E+03  0.12699999809E+01 0.  1.
       -4    1    3    3    0  502  0.24664379120E+03  0.24767377410E+03  0.14699858182E+02  0.34984733363E+03  0.12699999809E+01 0. -1.
</event>
<event>
 5   0  0.7459843E-04  0.7003165E+03  0.7818609E-02  0.9716691E-01
        1   -1    0    0  501    0  0.00000000000E+00  0.00000000000E+00  0.76477685425E+03  0.76477685427E+03  0.50400001928E-02 0. -1.
       -1   -1    0    0    0  501  0.00000000000E+00  0.00000000000E+00 -0.16032233760E+03  0.16032233768E+03  0.50400001928E-02 0.  1.
    10030    2    1    2    0    0  0.00000000000E+00  0.00000000000E+00  0.60445451665E+03  0.92509919195E+03  0.70031653717E+03 0.  0.
        2    1    3    3  502    0 -0.23168978046E+03 -0.23981698560E+03  0.44338279493E+03  0.55477981560E+03  0.25500000920E-02 0. -1.
       -2    1    3    3    0  502  0.23168978046E+03  0.23981698560E+03  0.16107172172E+03  0.37031937635E+03  0.25500000920E-02 0.  1.
</event>
<event>
 5   0  0.7013526E-04  0.6984228E+03  0.7818609E-02  0.9719933E-01
       -1   -1    0    0    0  501  0.00000000000E+00  0.00000000000E+00  0.95256069287E+02  0.95256069420E+02  0.50400001928E-02 0. -1.
        1   -1    0    0  501    0  0.00000000000E+00  0.00000000000E+00 -0.12802188889E+04  0.12802188889E+04  0.50400001928E-02 0.  1.
    10030    2    1    2    0    0  0.00000000000E+00  0.00000000000E+00 -0.11849628196E+04  0.13754749583E+04  0.69842284981E+03 0.  0.
        1    1    3    3  502    0  0.94395347652E+02 -0.59764368502E+02  0.59108848871E+02  0.12639666705E+03  0.50400001928E-02 0. -1.
       -1    1    3    3    0  502 -0.94395347652E+02  0.59764368502E+02 -0.12440716685E+04  0.12490782913E+04  0.50400001928E-02 0.  1.
</event>
<event>
 5   0  0.7459843E-04  0.6998671E+03  0.7818609E-02  0.9717459E-01
       -1   -1    0    0    0  501  0.00000000000E+00  0.00000000000E+00  0.49710280112E+03  0.49710280115E+03  0.50400001928E-02 0.  1.
        1   -1    0    0  501    0  0.00000000000E+00  0.00000000000E+00 -0.24633436979E+03  0.24633436984E+03  0.50400001928E-02 0. -1.
    10030    2    1    2    0    0  0.00000000000E+00  0.00000000000E+00  0.25076843133E+03  0.74343717098E+03  0.69986714528E+03 0.  0.
        2    1    3    3  502    0  0.23674975370E+03  0.39743441026E+02 -0.14507075294E+03  0.28049155129E+03  0.25500000920E-02 0. -1.
       -2    1    3    3    0  502 -0.23674975370E+03 -0.39743441026E+02  0.39583918427E+03  0.46294561969E+03  0.25500000920E-02 0.  1.
</event>
<event>
 5   0  0.4936000E-04  0.7001552E+03  0.7818609E-02  0.9716967E-01
        3   -1    0    0  501    0  0.00000000000E+00  0.00000000000E+00  0.33771556864E+03  0.33771558374E+03  0.10100000352E+00 0. -1.
       -3   -1    0    0    0  501  0.00000000000E+00  0.00000000000E+00 -0.36289212014E+03  0.36289213420E+03  0.10100000352E+00 0.  1.
    10030    2    1    2    0    0  0.00000000000E+00  0.00000000000E+00 -0.25176551503E+02  0.70060771794E+03  0.70015520829E+03 0.  0.
        4    1    3    3  502    0  0.21697740730E+03 -0.15826543824E+03 -0.23728979525E+03  0.35837857644E+03  0.12699999809E+01 0.  1.
       -4    1    3    3    0  502 -0.21697740730E+03  0.15826543824E+03  0.21211324375E+03  0.34222914150E+03  0.12699999809E+01 0. -1.
</event>
<event>
 5   0  0.1243087E-03  0.6998856E+03  0.7818609E-02  0.9717428E-01
        2   -1    0    0  501    0  0.00000000000E+00  0.00000000000E+00  0.99985359295E+03  0.99985359295E+03  0.25500000920E-02 0. -1.
       -2   -1    0    0    0  501  0.00000000000E+00  0.00000000000E+00 -0.12247789596E+03  0.12247789599E+03  0.25500000920E-02 0.  1.
    10030    2    1    2    0    0  0.00000000000E+00  0.00000000000E+00  0.87737569699E+03  0.11223314889E+04  0.69988560308E+03 0.  0.
        4    1    3    3  502    0 -0.22958371803E+03 -0.45361804769E+02  0.85590550483E+03  0.88732306575E+03  0.12699999809E+01 0. -1.
       -4    1    3    3    0  502  0.22958371803E+03  0.45361804769E+02  0.21470192154E+02  0.23500842318E+03  0.12699999809E+01 0.  1.
</event>
<event>
 5   0  0.1243087E-03  0.6991070E+03  0.7818609E-02  0.9718760E-01
        2   -1    0    0  501    0  0.00000000000E+00  0.00000000000E+00  0.14664272467E+04  0.14664272467E+04  0.25500000920E-02 0.  1.
       -2   -1    0    0    0  501  0.00000000000E+00  0.00000000000E+00 -0.83323373042E+02  0.83323373081E+02  0.25500000920E-02 0. -1.
    10030    2    1    2    0    0  0.00000000000E+00  0.00000000000E+00  0.13831038736E+04  0.15497506198E+04  0.69910704344E+03 0.  0.
        4    1    3    3  502    0  0.13861357669E+03 -0.93763959414E+02  0.13718495982E+04  0.13820196586E+04  0.12699999809E+01 0.  1.
       -4    1    3    3    0  502 -0.13861357669E+03  0.93763959414E+02  0.11254275450E+02  0.16773096119E+03  0.12699999809E+01 0. -1.
</event>
<event>
 5   0  0.1282546E-03  0.6997208E+03  0.7818609E-02  0.9717710E-01
        2   -1    0    0  501    0  0.00000000000E+00  0.00000000000E+00  0.32195465593E+03  0.32195465594E+03  0.25500000920E-02 0.  1.
       -2   -1    0    0    0  501  0.00000000000E+00  0.00000000000E+00 -0.38018488414E+03  0.38018488415E+03  0.25500000920E-02 0. -1.
    10030    2    1    2    0    0  0.00000000000E+00  0.00000000000E+00 -0.58230228209E+02  0.70213954009E+03  0.69972078308E+03 0.  0.
        5    1    3    3  502    0  0.73586199280E+02 -0.15173764522E+03 -0.33667249812E+03  0.37657629067E+03  0.46999998093E+01 0. -1.
       -5    1    3    3    0  502 -0.73586199280E+02  0.15173764522E+03  0.27844226991E+03  0.32556324942E+03  0.46999998093E+01 0.  1.
</event>
<event>
 5   0  0.4936000E-04  0.7004522E+03  0.7818609E-02  0.9716459E-01
        3   -1    0    0  501    0  0.00000000000E+00  0.00000000000E+00  0.53803592839E+03  0.53803593787E+03  0.10100000352E+00 0. -1.
       -3   -1    0    0    0  501  0.00000000000E+00  0.00000000000E+00 -0.22797421196E+03  0.22797423433E+03  0.10100000352E+00 0.  1.
    10030    2    1    2    0    0  0.00000000000E+00  0.00000000000E+00  0.31006171643E+03  0.76601017220E+03  0.70045222244E+03 0.  0.
        1    1    3    3  502    0  0.25006826783E+03 -0.11035091956E+03  0.39449259444E+03  0.47993319443E+03  0.50400001928E-02 0. -1.
       -1    1    3    3    0  502 -0.25006826783E+03  0.11035091956E+03 -0.84430878012E+02  0.28607697777E+03  0.50400001928E-02 0.  1.
</event>
<event>
 5   0  0.7574241E-04  0.7000261E+03  0.7818609E-02  0.9717188E-01
       -1   -1    0    0    0  501  0.00000000000E+00  0.00000000000E+00  0.13157206455E+03  0.13157206465E+03  0.50400001928E-02 0. -1.
        1   -1    0    0  501    0  0.00000000000E+00  0.00000000000E+00 -0.93111805818E+03  0.93111805819E+03  0.50400001928E-02 0.  1.
    10030    2    1    2    0    0  0.00000000000E+00  0.00000000000E+00 -0.79954599363E+03  0.10626901228E+04  0.70002607185E+03 0.  0.
        3    1    3    3  502    0 -0.99416505245E+02 -0.27211076632E+03 -0.10159175463E+03  0.30699968318E+03  0.10100000352E+00 0. -1.
       -3    1    3    3    0  502  0.99416505245E+02  0.27211076632E+03 -0.69795423900E+03  0.75569043966E+03  0.10100000352E+00 0.  1.
</event>
<event>
 5   0  0.7459843E-04  0.6997722E+03  0.7818609E-02  0.9717622E-01
       -1   -1    0    0    0  501  0.00000000000E+00  0.00000000000E+00  0.11718316926E+03  0.11718316937E+03  0.50400001928E-02 0. -1.
        1   -1    0    0  501    0  0.00000000000E+00  0.00000000000E+00 -0.10446917383E+04  0.10446917383E+04  0.50400001928E-02 0.  1.
    10030    2    1    2    0    0  0.00000000000E+00  0.00000000000E+00 -0.92750856906E+03  0.11618749077E+04  0.69977221683E+03 0.  0.
        2    1    3    3  502    0  0.12650955808E+03 -0.32576180532E+03 -0.49226549045E+03  0.60369755275E+03  0.25500000920E-02 0.  1.
       -2    1    3    3    0  502 -0.12650955808E+03  0.32576180532E+03 -0.43524307861E+03  0.55817735495E+03  0.25500000920E-02 0. -1.
</event>
<event>
 5   0  0.1265562E-03  0.6998591E+03  0.7818609E-02  0.9717473E-01
       -2   -1    0    0    0  501  0.00000000000E+00  0.00000000000E+00  0.32032478727E+03  0.32032478728E+03  0.25500000920E-02 0.  1.
        2   -1    0    0  501    0  0.00000000000E+00  0.00000000000E+00 -0.38227041352E+03  0.38227041353E+03  0.25500000920E-02 0. -1.
    10030    2    1    2    0    0  0.00000000000E+00  0.00000000000E+00 -0.61945626245E+02  0.70259520081E+03  0.69985909696E+03 0.  0.
        1    1    3    3  502    0  0.24871596211E+03 -0.22986298259E+03 -0.11937426095E+03  0.35909168018E+03  0.50400001928E-02 0. -1.
       -1    1    3    3    0  502 -0.24871596211E+03  0.22986298259E+03  0.57428634704E+02  0.34350352063E+03  0.50400001928E-02 0.  1.
</event>
<event>
 5   0  0.7459843E-04  0.7001659E+03  0.7818609E-02  0.9716949E-01
       -1   -1    0    0    0  501  0.00000000000E+00  0.00000000000E+00  0.24553216478E+03  0.24553216483E+03  0.50400001928E-02 0.  1.
        1   -1    0    0  501    0  0.00000000000E+00  0.00000000000E+00 -0.49915274894E+03  0.49915274896E+03  0.50400001928E-02 0. -1.
    10030    2    1    2    0    0  0.00000000000E+00  0.00000000000E+00 -0.25362058416E+03  0.74468491379E+03  0.70016585187E+03 0.  0.
        2    1    3    3  502    0  0.23312909041E+03  0.24472675628E+02 -0.40336241895E+03  0.46652901912E+03  0.25500000920E-02 0. -1.
       -2    1    3    3    0  502 -0.23312909041E+03 -0.24472675628E+02  0.14974183480E+03  0.27815589468E+03  0.25500000920E-02 0.  1.
</event>
<event>
 5   0  0.1243087E-03  0.7001380E+03  0.7818609E-02  0.9716996E-01
       -2   -1    0    0    0  501  0.00000000000E+00  0.00000000000E+00  0.82952575200E+03  0.82952575200E+03  0.25500000920E-02 0. -1.
        2   -1    0    0  501    0  0.00000000000E+00  0.00000000000E+00 -0.14773295640E+03  0.14773295642E+03  0.25500000920E-02 0.  1.
    10030    2    1    2    0    0  0.00000000000E+00  0.00000000000E+00  0.68179279560E+03  0.97725870842E+03  0.70013796287E+03 0.  0.
        4    1    3    3  502    0  0.62615554525E+02  0.89203802132E+02 -0.12344588733E+03  0.16467703538E+03  0.12699999809E+01 0.  1.
       -4    1    3    3    0  502 -0.62615554525E+02 -0.89203802132E+02  0.80523868293E+03  0.81258167304E+03  0.12699999809E+01 0. -1.
</event>
<event>
 5   0  0.4936000E-04  0.6997989E+03  0.7818609E-02  0.9717576E-01
        3   -1    0    0  501    0  0.00000000000E+00  0.00000000000E+00  0.32865715248E+03  0.32865716800E+03  0.10100000352E+00 0.  1.
       -3   -1    0    0    0  501  0.00000000000E+00  0.00000000000E+00 -0.37251469390E+03  0.37251470760E+03  0.10100000352E+00 0. -1.
    10030    2    1    2    0    0  0.00000000000E+00  0.00000000000E+00 -0.43857541422E+02  0.70117187560E+03  0.69979891054E+03 0.  0.
        2    1    3    3  502    0  0.31936850543E+03  0.70770613344E+02  0.10251194507E+03  0.34280230580E+03  0.25500000920E-02 0.  1.
       -2    1    3    3    0  502 -0.31936850543E+03 -0.70770613344E+02 -0.14636948649E+03  0.35836956980E+03  0.25500000920E-02 0. -1.
</event>
<event>
 5   0  0.1222679E-03  0.7002723E+03  0.7818609E-02  0.9716767E-01
       -2   -1    0    0    0  501  0.00000000000E+00  0.00000000000E+00  0.65888099383E+02  0.65888099432E+02  0.25500000920E-02 0.  1.
        2   -1    0    0  501    0  0.00000000000E+00  0.00000000000E+00 -0.18606594191E+04  0.18606594191E+04  0.25500000920E-02 0. -1.
    10030    2    1    2    0    0  0.00000000000E+00  0.00000000000E+00 -0.17947713198E+04  0.19265475186E+04  0.70027226926E+03 0.  0.
        2    1    3    3  502    0  0.19671429165E+03 -0.28235216807E+03 -0.71960037200E+03  0.79764901726E+03  0.25500000920E-02 0.  1.
       -2    1    3    3    0  502 -0.19671429165E+03  0.28235216807E+03 -0.10751709478E+04  0.11288985013E+04  0.25500000920E-02 0. -1.
</event>
<event>
 5   0  0.7572415E-04  0.6999540E+03  0.7818609E-02  0.9717311E-01
       -1   -1    0    0    0  501  0.00000000000E+00  0.00000000000E+00  0.49474863575E+03  0.49474863577E+03  0.50400001928E-02 0.  1.
        1   -1    0    0  501    0  0.00000000000E+00  0.00000000000E+00 -0.24756792655E+03  0.24756792661E+03  0.50400001928E-02 0. -1.
    10030    2    1    2    0    0  0.00000000000E+00  0.00000000000E+00  0.24718070919E+03  0.74231656238E+03  0.69995398119E+03 0.  0.
        4    1    3    3  502    0  0.25593792532E+03  0.52963773437E+02 -0.12324689436E+03  0.28896503730E+03  0.12699999809E+01 0. -1.
       -4    1    3    3    0  502 -0.25593792532E+03 -0.52963773437E+02  0.37042760356E+03  0.45335152508E+03  0.12699999809E+01 0.  1.
</event>
<event>
 5   0  0.1243087E-03  0.6993500E+03  0.7818609E-02  0.9718344E-01
        2   -1    0    0  501    0  0.00000000000E+00  0.00000000000E+00  0.97361454859E+03  0.97361454859E+03  0.25500000920E-02 0.  1.
       -2   -1    0    0    0  501  0.00000000000E+00  0.00000000000E+00 -0.12558627127E+03  0.12558627130E+03  0.25500000920E-02 0. -1.
    10030    2    1    2    0    0  0.00000000000E+00  0.00000000000E+00  0.84802827732E+03  0.10992008199E+04  0.69935004348E+03 0.  0.
        4    1    3    3  502    0 -0.20656261249E+03 -0.22661407400E+03  0.68818422766E+03  0.75340639466E+03  0.12699999809E+01 0.  1.
       -4    1    3    3    0  502  0.20656261249E+03  0.22661407400E+03  0.15984404966E+03  0.34579442523E+03  0.12699999809E+01 0. -1.
</event>
<event>
 5   0  0.7574241E-04  0.6988354E+03  0.7818609E-02  0.9719226E-01
        1   -1    0    0  501    0  0.00000000000E+00  0.00000000000E+00  0.13016490857E+04  0.13016490857E+04  0.50400001928E-02 0.  1.
       -1   -1    0    0    0  501  0.00000000000E+00  0.00000000000E+00 -0.93798504034E+02  0.93798504169E+02  0.50400001928E-02 0. -1.
    10030    2    1    2    0    0  0.00000000000E+00  0.00000000000E+00  0.12078505816E+04  0.13954475898E+04  0.69883542301E+03 0.  0.
        3    1    3    3  502    0  0.29674922682E+03 -0.15607786193E+02  0.23687428444E+03  0.38001729360E+03  0.10100000352E+00 0. -1.
       -3    1    3    3    0  502 -0.29674922682E+03  0.15607786193E+02  0.97097629719E+03  0.10154302962E+04  0.10100000352E+00 0.  1.
</event>
<event>
 5   0  0.1282546E-03  0.6998712E+03  0.7818609E-02  0.9717452E-01
       -2   -1    0    0    0  501  0.00000000000E+00  0.00000000000E+00  0.94187826998E+02  0.94187827033E+02  0.25500000920E-02 0.  1.
        2   -1    0    0  501    0  0.00000000000E+00  0.00000000000E+00 -0.13001141753E+04  0.13001141753E+04  0.25500000920E-02 0. -1.
    10030    2    1    2    0    0  0.00000000000E+00  0.00000000000E+00 -0.12059263483E+04  0.13943020023E+04  0.69987121399E+03 0.  0.
        5    1    3    3  502    0 -0.19383962660E+01  0.34893322726E+03 -0.65471064312E+03  0.74190718467E+03  0.46999998093E+01 0.  1.
       -5    1    3    3    0  502  0.19383962660E+01 -0.34893322726E+03 -0.55121570516E+03  0.65239481763E+03  0.46999998093E+01 0. -1.
</event>
<event>
 5   0  0.1282546E-03  0.7000077E+03  0.7818609E-02  0.9717219E-01
        2   -1    0    0  501    0  0.00000000000E+00  0.00000000000E+00  0.52981455156E+03  0.52981455157E+03  0.25500000920E-02 0. -1.
       -2   -1    0    0    0  501  0.00000000000E+00  0.00000000000E+00 -0.23121804778E+03  0.23121804780E+03  0.25500000920E-02 0.  1.
    10030    2    1    2    0    0  0.00000000000E+00  0.00000000000E+00  0.29859650378E+03  0.76103259936E+03  0.70000767512E+03 0.  0.
        5    1    3    3  502    0  0.12373797132E+02  0.34717521399E+03  0.19538299010E+03  0.39859797150E+03  0.46999998093E+01 0. -1.
       -5    1    3    3    0  502 -0.12373797132E+02 -0.34717521399E+03  0.10321351367E+03  0.36243462786E+03  0.46999998093E+01 0.  1.
</event>
<event>
 5   0  0.1265562E-03  0.7004609E+03  0.7818609E-02  0.9716444E-01
       -2   -1    0    0    0  501  0.00000000000E+00  0.00000000000E+00  0.98842043562E+02  0.98842043595E+02  0.25500000920E-02 0. -1.
        2   -1    0    0  501    0  0.00000000000E+00  0.00000000000E+00 -0.12409836029E+04  0.12409836029E+04  0.25500000920E-02 0.  1.
    10030    2    1    2    0    0  0.00000000000E+00  0.00000000000E+00 -0.11421415593E+04  0.13398256465E+04  0.70046086361E+03 0.  0.
        1    1    3    3  502    0  0.22307901406E+03  0.23561335651E+03 -0.82326345045E+03  0.88489581825E+03  0.50400001928E-02 0.  1.
       -1    1    3    3    0  502 -0.22307901406E+03 -0.23561335651E+03 -0.31887810889E+03  0.45492982825E+03  0.50400001928E-02 0. -1.
</event>
<event>
 5   0  0.7459843E-04  0.7000198E+03  0.7818609E-02  0.9717198E-01
       -1   -1    0    0    0  501  0.00000000000E+00  0.00000000000E+00  0.34782941195E+03  0.34782941199E+03  0.50400001928E-02 0.  1.
        1   -1    0    0  501    0  0.00000000000E+00  0.00000000000E+00 -0.35220405968E+03  0.35220405972E+03  0.50400001928E-02 0. -1.
    10030    2    1    2    0    0  0.00000000000E+00  0.00000000000E+00 -0.43746477334E+01  0.70003347170E+03  0.70001980255E+03 0.  0.
        2    1    3    3  502    0 -0.19790294714E+03 -0.14199435852E+03 -0.25354647735E+03  0.35158752896E+03  0.25500000920E-02 0. -1.
       -2    1    3    3    0  502  0.19790294714E+03  0.14199435852E+03  0.24917182961E+03  0.34844594275E+03  0.25500000920E-02 0.  1.
</event>
<event>
 5   0  0.7574241E-04  0.7026749E+03  0.7818609E-02  0.9712669E-01
       -1   -1    0    0    0  501  0.00000000000E+00  0.00000000000E+00  0.12849844140E+03  0.12849844150E+03  0.50400001928E-02 0. -1.
        1   -1    0    0  501    0  0.00000000000E+00  0.00000000000E+00 -0.96061870323E+03  0.96061870324E+03  0.50400001928E-02 0.  1.
    10030    2    1    2    0    0  0.00000000000E+00  0.00000000000E+00 -0.83212026182E+03  0.10891171447E+04  0.70267490693E+03 0.  0.
        3    1    3    3  502    0  0.12947549269E+03 -0.32330038148E+03 -0.48794474189E+03  0.59948070963E+03  0.10100000352E+00 0. -1.
       -3    1    3    3    0  502 -0.12947549269E+03  0.32330038148E+03 -0.34417551993E+03  0.48963643511E+03  0.10100000352E+00 0.  1.
</event>
<event>
 5   0  0.7013526E-04  0.6981887E+03  0.7818609E-02  0.9720335E-01
        1   -1    0    0  501    0  0.00000000000E+00  0.00000000000E+00  0.23928894403E+03  0.23928894409E+03  0.50400001928E-02 0.  1.
       -1   -1    0    0    0  501  0.00000000000E+00  0.00000000000E+00 -0.50928745335E+03  0.50928745337E+03  0.50400001928E-02 0. -1.
    10030    2    1    2    0    0  0.00000000000E+00  0.00000000000E+00 -0.26999850931E+03  0.74857639746E+03  0.69818867636E+03 0.  0.
        1    1    3    3  502    0  0.33687523385E+02  0.26780365392E+03 -0.37236601635E+03  0.45990226836E+03  0.50400001928E-02 0. -1.
       -1    1    3    3    0  502 -0.33687523385E+02 -0.26780365392E+03  0.10236750704E+03  0.28867412909E+03  0.50400001928E-02 0.  1.
</event>
<event>
 5   0  0.1243087E-03  0.7001340E+03  0.7818609E-02  0.9717003E-01
        2   -1    0    0  501    0  0.00000000000E+00  0.00000000000E+00  0.10713497900E+04  0.10713497900E+04  0.25500000920E-02 0. -1.
       -2   -1    0    0    0  501  0.00000000000E+00  0.00000000000E+00 -0.11438553638E+03  0.11438553641E+03  0.25500000920E-02 0.  1.
    10030    2    1    2    0    0  0.00000000000E+00  0.00000000000E+00  0.95696425362E+03  0.11857353264E+04  0.70013404546E+03 0.  0.
        4    1    3    3  502    0 -0.15834811640E+03 -0.22383162154E+02  0.10058645524E+04  0.10184990145E+04  0.12699999809E+01 0. -1.
       -4    1    3    3    0  502  0.15834811640E+03  0.22383162154E+02 -0.48900298735E+02  0.16723631194E+03  0.12699999809E+01 0.  1.
</event>
<event>
 5   0  0.7570633E-04  0.7003765E+03  0.7818609E-02  0.9716589E-01
       -1   -1    0    0    0  501  0.00000000000E+00  0.00000000000E+00  0.26540985940E+03  0.26540985945E+03  0.50400001928E-02 0.  1.
        1   -1    0    0  501    0  0.00000000000E+00  0.00000000000E+00 -0.46204690997E+03  0.46204690999E+03  0.50400001928E-02 0. -1.
    10030    2    1    2    0    0  0.00000000000E+00  0.00000000000E+00 -0.19663705056E+03  0.72745676944E+03  0.70037648572E+03 0.  0.
        5    1    3    3  502    0 -0.72464499722E+02  0.14557800938E+03 -0.42041474641E+03  0.45079342223E+03  0.46999998093E+01 0. -1.
       -5    1    3    3    0  502  0.72464499722E+02 -0.14557800938E+03  0.22377769584E+03  0.27666334721E+03  0.46999998093E+01 0.  1.
</event>
<event>
 5   0  0.7572415E-04  0.7001669E+03  0.7818609E-02  0.9716947E-01
       -1   -1    0    0    0  501  0.00000000000E+00  0.00000000000E+00  0.16249588860E+03  0.16249588868E+03  0.50400001928E-02 0.  1.
        1   -1    0    0  501    0  0.00000000000E+00  0.00000000000E+00 -0.75422481300E+03  0.75422481302E+03  0.50400001928E-02 0. -1.
    10030    2    1    2    0    0  0.00000000000E+00  0.00000000000E+00 -0.59172892440E+03  0.91672070170E+03  0.70016692649E+03 0.  0.
        4    1    3    3  502    0  0.20246926644E+03  0.80510528064E+02 -0.65462169977E+03  0.68993255590E+03  0.12699999809E+01 0. -1.
       -4    1    3    3    0  502 -0.20246926644E+03 -0.80510528064E+02  0.62892775366E+02  0.22678814580E+03  0.12699999809E+01 0.  1.
</event>
<event>
 5   0  0.7459843E-04  0.7001685E+03  0.7818609E-02  0.9716944E-01
       -1   -1    0    0    0  501  0.00000000000E+00  0.00000000000E+00  0.26025090008E+03  0.26025090013E+03  0.50400001928E-02 0.  1.
        1   -1    0    0  501    0  0.00000000000E+00  0.00000000000E+00 -0.47092629569E+03  0.47092629572E+03  0.50400001928E-02 0. -1.
    10030    2    1    2    0    0  0.00000000000E+00  0.00000000000E+00 -0.21067539561E+03  0.73117719584E+03  0.70016852929E+03 0.  0.
        2    1    3    3  502    0  0.20579052156E+03 -0.16518721435E+03 -0.34557473997E+03  0.43480852736E+03  0.25500000920E-02 0.  1.
       -2    1    3    3    0  502 -0.20579052156E+03  0.16518721435E+03  0.13489934436E+03  0.29636866849E+03  0.25500000920E-02 0. -1.
</event>
<event>
 5   0  0.1224048E-03  0.7041258E+03  0.7818609E-02  0.9710202E-01
        2   -1    0    0  501    0  0.00000000000E+00  0.00000000000E+00  0.19478076422E+03  0.19478076423E+03  0.25500000920E-02 0. -1.
       -2   -1    0    0    0  501  0.00000000000E+00  0.00000000000E+00 -0.63634774176E+03  0.63634774176E+03  0.25500000920E-02 0.  1.
    10030    2    1    2    0    0  0.00000000000E+00  0.00000000000E+00 -0.44156697754E+03  0.83112850599E+03  0.70412583948E+03 0.  0.
        3    1    3    3  502    0 -0.15172349139E+03  0.31671270010E+03 -0.19136085766E+03  0.39993241966E+03  0.10100000352E+00 0. -1.
       -3    1    3    3    0  502  0.15172349139E+03 -0.31671270010E+03 -0.25020611988E+03  0.43119608634E+03  0.10100000352E+00 0.  1.
</event>
<event>
 5   0  0.1243087E-03  0.6999042E+03  0.7818609E-02  0.9717396E-01
       -2   -1    0    0    0  501  0.00000000000E+00  0.00000000000E+00  0.53309703791E+03  0.53309703792E+03  0.25500000920E-02 0.  1.
        2   -1    0    0  501    0  0.00000000000E+00  0.00000000000E+00 -0.22972643677E+03  0.22972643678E+03  0.25500000920E-02 0. -1.
    10030    2    1    2    0    0  0.00000000000E+00  0.00000000000E+00  0.30337060115E+03  0.76282347470E+03  0.69990423053E+03 0.  0.
        4    1    3    3  502    0 -0.55547850737E+02 -0.20306142951E+03 -0.15298985037E+03  0.26024414516E+03  0.12699999809E+01 0. -1.
       -4    1    3    3    0  502  0.55547850737E+02  0.20306142951E+03  0.45636045151E+03  0.50257932954E+03  0.12699999809E+01 0.  1.
</event>
<event>
 5   0  0.1265562E-03  0.6997607E+03  0.7818609E-02  0.9717642E-01
        2   -1    0    0  501    0  0.00000000000E+00  0.00000000000E+00  0.91306402744E+03  0.91306402744E+03  0.25500000920E-02 0.  1.
       -2   -1    0    0    0  501  0.00000000000E+00  0.00000000000E+00 -0.13407193155E+03  0.13407193157E+03  0.25500000920E-02 0. -1.
    10030    2    1    2    0    0  0.00000000000E+00  0.00000000000E+00  0.77899209589E+03  0.10471359590E+04  0.69976069567E+03 0.  0.
        1    1    3    3  502    0 -0.74691426191E+02 -0.99911753414E+02 -0.99664176891E+02  0.15966876901E+03  0.50400001928E-02 0. -1.
       -1    1    3    3    0  502  0.74691426191E+02  0.99911753414E+02  0.87865627278E+03  0.88746719001E+03  0.50400001928E-02 0.  1.
</event>
<event>
 5   0  0.1224048E-03  0.7004419E+03  0.7818609E-02  0.9716477E-01
        2   -1    0    0  501    0  0.00000000000E+00  0.00000000000E+00  0.10427222830E+04  0.10427222830E+04  0.25500000920E-02 0.  1.
       -2   -1    0    0    0  501  0.00000000000E+00  0.00000000000E+00 -0.11762932711E+03  0.11762932714E+03  0.25500000920E-02 0. -1.
    10030    2    1    2    0    0  0.00000000000E+00  0.00000000000E+00  0.92509295584E+03  0.11603516101E+04  0.70044191916E+03 0.  0.
        3    1    3    3  502    0 -0.13618752363E+03 -0.22619482785E+03  0.81371761903E+02  0.27628339721E+03  0.10100000352E+00 0. -1.
       -3    1    3    3    0  502  0.13618752363E+03  0.22619482785E+03  0.84372119394E+03  0.88406821289E+03  0.10100000352E+00 0.  1.
</event>
<event>
 5   0  0.7570633E-04  0.7000784E+03  0.7818609E-02  0.9717098E-01
        1   -1    0    0  501    0  0.00000000000E+00  0.00000000000E+00  0.31128291211E+03  0.31128291215E+03  0.50400001928E-02 0. -1.
       -1   -1    0    0    0  501  0.00000000000E+00  0.00000000000E+00 -0.39362084279E+03  0.39362084282E+03  0.50400001928E-02 0.  1.
    10030    2    1    2    0    0  0.00000000000E+00  0.00000000000E+00 -0.82337930678E+02  0.70490375497E+03  0.70007840200E+03 0.  0.
        5    1    3    3  502    0  0.63917860054E+02 -0.21031085432E+03 -0.31542329979E+03  0.38448679604E+03  0.46999998093E+01 0.  1.
       -5    1    3    3    0  502 -0.63917860054E+02  0.21031085432E+03  0.23308536912E+03  0.32041695893E+03  0.46999998093E+01 0. -1.
</event>
<event>
 5   0  0.7572415E-04  0.7001069E+03  0.7818609E-02  0.9717049E-01
       -1   -1    0    0    0  501  0.00000000000E+00  0.00000000000E+00  0.62205637571E+03  0.62205637573E+03  0.50400001928E-02 0. -1.
        1   -1    0    0  501    0  0.00000000000E+00  0.00000000000E+00 -0.19698762477E+03  0.19698762483E+03  0.50400001928E-02 0.  1.
    10030    2    1    2    0    0  0.00000000000E+00  0.00000000000E+00  0.42506875095E+03  0.81904400057E+03  0.70010687172E+03 0.  0.
        4    1    3    3  502    0 -0.12652122409E+03  0.31310078725E+03  0.10470130203E+03  0.35355862126E+03  0.12699999809E+01 0.  1.
       -4    1    3    3    0  502  0.12652122409E+03 -0.31310078725E+03  0.32036744891E+03  0.46548537931E+03  0.12699999809E+01 0. -1.
</event>
<event>
 5   0  0.7574241E-04  0.7000989E+03  0.7818609E-02  0.9717063E-01
       -1   -1    0    0    0  501  0.00000000000E+00  0.00000000000E+00  0.13281848724E+03  0.13281848734E+03  0.50400001928E-02 0. -1.
        1   -1    0    0  501    0  0.00000000000E+00  0.00000000000E+00 -0.92257204742E+03  0.92257204743E+03  0.50400001928E-02 0.  1.
    10030    2    1    2    0    0  0.00000000000E+00  0.00000000000E+00 -0.78975356018E+03  0.10553905348E+04  0.70009891806E+03 0.  0.
        3    1    3    3  502    0 -0.32018483198E+03 -0.11042735419E+03 -0.52820285452E+03  0.62746377817E+03  0.10100000352E+00 0.  1.
       -3    1    3    3    0  502  0.32018483198E+03  0.11042735419E+03 -0.26155070566E+03  0.42792675660E+03  0.10100000352E+00 0. -1.
</event>
<event>
 5   0  0.7013526E-04  0.6995865E+03  0.7818609E-02  0.9717940E-01
        1   -1    0    0  501    0  0.00000000000E+00  0.00000000000E+00  0.35214175124E+03  0.35214175127E+03  0.50400001928E-02 0.  1.
       -1   -1    0    0    0  501  0.00000000000E+00  0.00000000000E+00 -0.34746042500E+03  0.34746042504E+03  0.50400001928E-02 0. -1.
    10030    2    1    2    0    0  0.00000000000E+00  0.00000000000E+00  0.46813262333E+01  0.69960217631E+03  0.69958651380E+03 0.  0.
        1    1    3    3  502    0 -0.25819192355E+03  0.22619615234E+03  0.69629269555E+02  0.35025134393E+03  0.50400001928E-02 0. -1.
       -1    1    3    3    0  502  0.25819192355E+03 -0.22619615234E+03 -0.64947943321E+02  0.34935083238E+03  0.50400001928E-02 0.  1.
</event>
<event>
 5   0  0.1243087E-03  0.6999411E+03  0.7818609E-02  0.9717333E-01
       -2   -1    0    0    0  501  0.00000000000E+00  0.00000000000E+00  0.14434870881E+03  0.14434870883E+03  0.25500000920E-02 0. -1.
        2   -1    0    0  501    0  0.00000000000E+00  0.00000000000E+00 -0.84849662167E+03  0.84849662168E+03  0.25500000920E-02 0.  1.
    10030    2    1    2    0    0  0.00000000000E+00  0.00000000000E+00 -0.70414791287E+03  0.99284533050E+03  0.69994111689E+03 0.  0.
        4    1    3    3  502    0 -0.13148694874E+03  0.25578387350E+02  0.10654325061E+03  0.17116117767E+03  0.12699999809E+01 0. -1.
       -4    1    3    3    0  502  0.13148694874E+03 -0.25578387350E+02 -0.81069116348E+03  0.82168415284E+03  0.12699999809E+01 0.  1.
</event>
<event>
 5   0  0.1265562E-03  0.7000314E+03  0.7818609E-02  0.9717179E-01
       -2   -1    0    0    0  501  0.00000000000E+00  0.00000000000E+00  0.84136226439E+02  0.84136226478E+02  0.25500000920E-02 0. -1.
        2   -1    0    0  501    0  0.00000000000E+00  0.00000000000E+00 -0.14561027299E+04  0.14561027299E+04  0.25500000920E-02 0.  1.
    10030    2    1    2    0    0  0.00000000000E+00  0.00000000000E+00 -0.13719665034E+04  0.15402389563E+04  0.70003139652E+03 0.  0.
        1    1    3    3  502    0  0.41622518970E+02  0.34547115484E+03 -0.76913484724E+03  0.84418668917E+03  0.50400001928E-02 0.  1.
       -1    1    3    3    0  502 -0.41622518970E+02 -0.34547115484E+03 -0.60283165617E+03  0.69605226716E+03  0.50400001928E-02 0. -1.
</event>
<event>
 5   0  0.1222679E-03  0.7045422E+03  0.7818609E-02  0.9709496E-01
        2   -1    0    0  501    0  0.00000000000E+00  0.00000000000E+00  0.56661902544E+03  0.56661902544E+03  0.25500000920E-02 0.  1.
       -2   -1    0    0    0  501  0.00000000000E+00  0.00000000000E+00 -0.21900947859E+03  0.21900947860E+03  0.25500000920E-02 0. -1.
    10030    2    1    2    0    0  0.00000000000E+00  0.00000000000E+00  0.34760954685E+03  0.78562850405E+03  0.70454222678E+03 0.  0.
        2    1    3    3  502    0 -0.14722036871E+03  0.28160169588E+03  0.34336305544E+03  0.46783708695E+03  0.25500000920E-02 0.  1.
       -2    1    3    3    0  502  0.14722036871E+03 -0.28160169588E+03  0.42464914137E+01  0.31779141709E+03  0.25500000920E-02 0. -1.
</event>
<event>
 5   0  0.7013526E-04  0.6999061E+03  0.7818609E-02  0.9717393E-01
       -1   -1    0    0    0  501  0.00000000000E+00  0.00000000000E+00  0.21366114896E+03  0.21366114902E+03  0.50400001928E-02 0. -1.
        1   -1    0    0  501    0  0.00000000000E+00  0.00000000000E+00 -0.57318389369E+03  0.57318389372E+03  0.50400001928E-02 0.  1.
    10030    2    1    2    0    0  0.00000000000E+00  0.00000000000E+00 -0.35952274473E+03  0.78684504274E+03  0.69990607748E+03 0.  0.
        1    1    3    3  502    0 -0.10205048094E+03  0.31623993107E+03 -0.56378385982E+02  0.33704675802E+03  0.50400001928E-02 0. -1.
       -1    1    3    3    0  502  0.10205048094E+03 -0.31623993107E+03 -0.30314435875E+03  0.44979828471E+03  0.50400001928E-02 0.  1.
</event>
<event>
 5   0  0.1224048E-03  0.6999326E+03  0.7818609E-02  0.9717348E-01
       -2   -1    0    0    0  501  0.00000000000E+00  0.00000000000E+00  0.96623532989E+03  0.96623532989E+03  0.25500000920E-02 0.  1.
        2   -1    0    0  501    0  0.00000000000E+00  0.00000000000E+00 -0.12675627777E+03  0.12675627780E+03  0.25500000920E-02 0. -1.
    10030    2    1    2    0    0  0.00000000000E+00  0.00000000000E+00  0.83947905211E+03  0.10929916077E+04  0.69993255070E+03 0.  0.
        3    1    3    3  502    0  0.21671431150E+03  0.22661622140E+03  0.17703573823E+03  0.36008563901E+03  0.10100000352E+00 0. -1.
       -3    1    3    3    0  502 -0.21671431150E+03 -0.22661622140E+03  0.66244331389E+03  0.73290596868E+03  0.10100000352E+00 0.  1.
</event>
<event>
 5   0  0.1282546E-03  0.7011148E+03  0.7818609E-02  0.9715328E-01
       -2   -1    0    0    0  501  0.00000000000E+00  0.00000000000E+00  0.15157076649E+03  0.15157076651E+03  0.25500000920E-02 0. -1.
        2   -1    0    0  501    0  0.00000000000E+00  0.00000000000E+00 -0.81077954004E+03  0.81077954005E+03  0.25500000920E-02 0.  1.
    10030    2    1    2    0    0  0.00000000000E+00  0.00000000000E+00 -0.65920877355E+03  0.96235030655E+03  0.70111475908E+03 0.  0.
        5    1    3    3  502    0  0.95939276007E+01  0.33118166510E+03 -0.17253280391E+03  0.37358131266E+03  0.46999998093E+01 0.  1.
       -5    1    3    3    0  502 -0.95939276007E+01 -0.33118166510E+03 -0.48667596964E+03  0.58876899389E+03  0.46999998093E+01 0. -1.
</event>
<event>
 5   0  0.1265562E-03  0.6998441E+03  0.7818609E-02  0.9717499E-01
       -2   -1    0    0    0  501  0.00000000000E+00  0.00000000000E+00  0.27946077628E+03  0.27946077629E+03  0.25500000920E-02 0. -1.
        2   -1    0    0  501    0  0.00000000000E+00  0.00000000000E+00 -0.43814890345E+03  0.43814890345E+03  0.25500000920E-02 0.  1.
    10030    2    1    2    0    0  0.00000000000E+00  0.00000000000E+00 -0.15868812717E+03  0.71760967975E+03  0.69984407603E+03 0.  0.
        1    1    3    3  502    0  0.43902694750E+02  0.23206570372E+03  0.18540293033E+03  0.30026019391E+03  0.50400001928E-02 0. -1.
       -1    1    3    3    0  502 -0.43902694750E+02 -0.23206570372E+03 -0.34409105750E+03  0.41734948583E+03  0.50400001928E-02 0.  1.
</event>
<event>
 5   0  0.7013526E-04  0.7004338E+03  0.7818609E-02  0.9716491E-01
       -1   -1    0    0    0  501  0.00000000000E+00  0.00000000000E+00  0.11621896332E+03  0.11621896343E+03  0.50400001928E-02 0.  1.
        1   -1    0    0  501    0  0.00000000000E+00  0.00000000000E+00 -0.10553517921E+04  0.10553517921E+04  0.50400001928E-02 0. -1.
    10030    2    1    2    0    0  0.00000000000E+00  0.00000000000E+00 -0.93913282873E+03  0.11715707555E+04  0.70043384066E+03 0.  0.
        1    1    3    3  502    0  0.12618204225E+03  0.10250907580E+03  0.49279384866E+02  0.16987782729E+03  0.50400001928E-02 0.  1.
       -1    1    3    3    0  502 -0.12618204225E+03 -0.10250907580E+03 -0.98841221360E+03  0.10016929282E+04  0.50400001928E-02 0. -1.
</event>
<event>
 5   0  0.7572415E-04  0.7000415E+03  0.7818609E-02  0.9717161E-01
        1   -1    0    0  501    0  0.00000000000E+00  0.00000000000E+00  0.41784608001E+03  0.41784608004E+03  0.50400001928E-02 0. -1.
       -1   -1    0    0    0  501  0.00000000000E+00  0.00000000000E+00 -0.29320487809E+03  0.29320487813E+03  0.50400001928E-02 0.  1.
    10030    2    1    2    0    0  0.00000000000E+00  0.00000000000E+00  0.12464120192E+03  0.71105095818E+03  0.70004145299E+03 0.  0.
        4    1    3    3  502    0  0.29775611074E+03  0.17081461404E+03  0.13178148830E+03  0.36770138348E+03  0.12699999809E+01 0. -1.
       -4    1    3    3    0  502 -0.29775611074E+03 -0.17081461404E+03 -0.71402863786E+01  0.34334957470E+03  0.12699999809E+01 0.  1.
</event>
<event>
 5   0  0.7574241E-04  0.6998347E+03  0.7818609E-02  0.9717515E-01
       -1   -1    0    0    0  501  0.00000000000E+00  0.00000000000E+00  0.48800741027E+03  0.48800741030E+03  0.50400001928E-02 0.  1.
        1   -1    0    0  501    0  0.00000000000E+00  0.00000000000E+00 -0.25090222675E+03  0.25090222680E+03  0.50400001928E-02 0. -1.
    10030    2    1    2    0    0  0.00000000000E+00  0.00000000000E+00  0.23710518352E+03  0.73890963710E+03  0.69983468316E+03 0.  0.
        3    1    3    3  502    0 -0.13257816573E+03  0.31835944434E+03  0.55977758349E+02  0.34937547919E+03  0.10100000352E+00 0.  1.
       -3    1    3    3    0  502  0.13257816573E+03 -0.31835944434E+03  0.18112742517E+03  0.38953415791E+03  0.10100000352E+00 0. -1.
</event>
<event>
 5   0  0.1243087E-03  0.6999690E+03  0.7818609E-02  0.9717285E-01
        2   -1    0    0  501    0  0.00000000000E+00  0.00000000000E+00  0.98930549533E+03  0.98930549533E+03  0.25500000920E-02 0. -1.
       -2   -1    0    0    0  501  0.00000000000E+00  0.00000000000E+00 -0.12381328856E+03  0.12381328858E+03  0.25500000920E-02 0.  1.
    10030    2    1    2    0    0  0.00000000000E+00  0.00000000000E+00  0.86549220677E+03  0.11131187839E+04  0.69996904726E+03 0.  0.
        4    1    3    3  502    0  0.19153461416E+02 -0.66518537997E+02  0.97830732821E+03  0.98075400194E+03  0.12699999809E+01 0. -1.
       -4    1    3    3    0  502 -0.19153461416E+02  0.66518537997E+02 -0.11281512144E+03  0.13236478198E+03  0.12699999809E+01 0.  1.
</event>
<event>
 5   0  0.1282546E-03  0.7002462E+03  0.7818609E-02  0.9716811E-01
       -2   -1    0    0    0  501  0.00000000000E+00  0.00000000000E+00  0.42853171608E+02  0.42853171684E+02  0.25500000920E-02 0. -1.
        2   -1    0    0  501    0  0.00000000000E+00  0.00000000000E+00 -0.28606095360E+04  0.28606095360E+04  0.25500000920E-02 0.  1.
    10030    2    1    2    0    0  0.00000000000E+00  0.00000000000E+00 -0.28177563644E+04  0.29034627077E+04  0.70024621802E+03 0.  0.
        5    1    3    3  502    0  0.53766116431E+02  0.25592944605E+03 -0.23739477626E+04  0.23883133685E+04  0.46999998093E+01 0.  1.
       -5    1    3    3    0  502 -0.53766116431E+02 -0.25592944605E+03 -0.44380860178E+03  0.51514933917E+03  0.46999998093E+01 0. -1.
</event>
<event>
 5   0  0.1222679E-03  0.7002461E+03  0.7818609E-02  0.9716811E-01
        2   -1    0    0  501    0  0.00000000000E+00  0.00000000000E+00  0.77341257317E+03  0.77341257317E+03  0.25500000920E-02 0.  1.
       -2   -1    0    0    0  501  0.00000000000E+00  0.00000000000E+00 -0.15850032451E+03  0.15850032453E+03  0.25500000920E-02 0. -1.
    10030    2    1    2    0    0  0.00000000000E+00  0.00000000000E+00  0.61491224866E+03  0.93191289770E+03  0.70024608200E+03 0.  0.
        2    1    3    3  502    0 -0.32946290930E+03 -0.11844639953E+03  0.31182679521E+03  0.46884038690E+03  0.25500000920E-02 0. -1.
       -2    1    3    3    0  502  0.32946290930E+03  0.11844639953E+03  0.30308545345E+03  0.46307251081E+03  0.25500000920E-02 0.  1.
</event>
<event>
 5   0  0.1224048E-03  0.6998472E+03  0.7818609E-02  0.9717494E-01
       -2   -1    0    0    0  501  0.00000000000E+00  0.00000000000E+00  0.36117902570E+03  0.36117902571E+03  0.25500000920E-02 0.  1.
        2   -1    0    0  501    0  0.00000000000E+00  0.00000000000E+00 -0.33901893137E+03  0.33901893138E+03  0.25500000920E-02 0. -1.
    10030    2    1    2    0    0  0.00000000000E+00  0.00000000000E+00  0.22160094326E+02  0.70019795709E+03  0.69984720427E+03 0.  0.
        3    1    3    3  502    0  0.22460781758E+03 -0.67634276242E+02  0.27087044392E+03  0.35832091013E+03  0.10100000352E+00 0.  1.
       -3    1    3    3    0  502 -0.22460781758E+03  0.67634276242E+02 -0.24871034960E+03  0.34187704696E+03  0.10100000352E+00 0. -1.
</event>
<event>
 5   0  0.1222679E-03  0.7001447E+03  0.7818609E-02  0.9716985E-01
        2   -1    0    0  501    0  0.00000000000E+00  0.00000000000E+00  0.10992298826E+04  0.10992298826E+04  0.25500000920E-02 0. -1.
       -2   -1    0    0    0  501  0.00000000000E+00  0.00000000000E+00 -0.11148772675E+03  0.11148772678E+03  0.25500000920E-02 0.  1.
    10030    2    1    2    0    0  0.00000000000E+00  0.00000000000E+00  0.98774215581E+03  0.12107176094E+04  0.70014467306E+03 0.  0.
        2    1    3    3  502    0  0.42889127009E+02  0.29991193966E+03  0.79717387490E+03  0.85280292893E+03  0.25500000920E-02 0. -1.
       -2    1    3    3    0  502 -0.42889127009E+02 -0.29991193966E+03  0.19056828092E+03  0.35791468042E+03  0.25500000920E-02 0.  1.
</event>
<event>
 5   0  0.1224048E-03  0.6996943E+03  0.7818609E-02  0.9717755E-01
        2   -1    0    0  501    0  0.00000000000E+00  0.00000000000E+00  0.42087962602E+03  0.42087962603E+03  0.25500000920E-02 0. -1.
       -2   -1    0    0    0  501  0.00000000000E+00  0.00000000000E+00 -0.29080289834E+03  0.29080289835E+03  0.25500000920E-02 0.  1.
    10030    2    1    2    0    0  0.00000000000E+00  0.00000000000E+00  0.13007672769E+03  0.71168252438E+03  0.69969426210E+03 0.  0.
        3    1    3    3  502    0 -0.40940772711E+02 -0.34722059409E+03  0.77690012010E+02  0.35815364859E+03  0.10100000352E+00 0. -1.
       -3    1    3    3    0  502  0.40940772711E+02  0.34722059409E+03  0.52386715676E+02  0.35352887578E+03  0.10100000352E+00 0.  1.
</event>
<event>
 5   0  0.1224048E-03  0.6995421E+03  0.7818609E-02  0.9718016E-01
        2   -1    0    0  501    0  0.00000000000E+00  0.00000000000E+00  0.16986474530E+03  0.16986474532E+03  0.25500000920E-02 0. -1.
       -2   -1    0    0    0  501  0.00000000000E+00  0.00000000000E+00 -0.72021885341E+03  0.72021885342E+03  0.25500000920E-02 0.  1.
    10030    2    1    2    0    0  0.00000000000E+00  0.00000000000E+00 -0.55035410811E+03  0.89008359873E+03  0.69954211340E+03 0.  0.
        3    1    3    3  502    0  0.64903508549E+02 -0.94186023061E+02  0.14539479242E+03  0.18499494108E+03  0.10100000352E+00 0. -1.
       -3    1    3    3    0  502 -0.64903508549E+02  0.94186023061E+02 -0.69574890053E+03  0.70508865765E+03  0.10100000352E+00 0.  1.
</event>
<event>
 5   0  0.1243087E-03  0.6994764E+03  0.7818609E-02  0.9718128E-01
        2   -1    0    0  501    0  0.00000000000E+00  0.00000000000E+00  0.18466373305E+04  0.18466373305E+04  0.25500000920E-02 0. -1.
       -2   -1    0    0    0  501  0.00000000000E+00  0.00000000000E+00 -0.66237590578E+02  0.66237590627E+02  0.25500000920E-02 0.  1.
    10030    2    1    2    0    0  0.00000000000E+00  0.00000000000E+00  0.17803997399E+04  0.19128749212E+04  0.69947639701E+03 0.  0.
        4    1    3    3  502    0 -0.15104366224E+03  0.22579306784E+03  0.14925752030E+04  0.15170955958E+04  0.12699999809E+01 0. -1.
       -4    1    3    3    0  502  0.15104366224E+03 -0.22579306784E+03  0.28782453699E+03  0.39577932536E+03  0.12699999809E+01 0.  1.
</event>
<event>
 5   0  0.7574241E-04  0.7000476E+03  0.7818609E-02  0.9717151E-01
        1   -1    0    0  501    0  0.00000000000E+00  0.00000000000E+00  0.28570761532E+03  0.28570761536E+03  0.50400001928E-02 0. -1.
       -1   -1    0    0    0  501  0.00000000000E+00  0.00000000000E+00 -0.42881829831E+03  0.42881829834E+03  0.50400001928E-02 0.  1.
    10030    2    1    2    0    0  0.00000000000E+00  0.00000000000E+00 -0.14311068299E+03  0.71452591370E+03  0.70004757965E+03 0.  0.
        3    1    3    3  502    0  0.11875957917E+03  0.28582615173E+03 -0.23838678339E+03  0.39067722656E+03  0.10100000352E+00 0.  1.
       -3    1    3    3    0  502 -0.11875957917E+03 -0.28582615173E+03  0.95276100401E+02  0.32384868714E+03  0.10100000352E+00 0. -1.
</event>
<event>
 5   0  0.7459843E-04  0.6991425E+03  0.7818609E-02  0.9718700E-01
        1   -1    0    0  501    0  0.00000000000E+00  0.00000000000E+00  0.16837112597E+03  0.16837112604E+03  0.50400001928E-02 0. -1.
       -1   -1    0    0    0  501  0.00000000000E+00  0.00000000000E+00 -0.72577792310E+03  0.72577792312E+03  0.50400001928E-02 0.  1.
    10030    2    1    2    0    0  0.00000000000E+00  0.00000000000E+00 -0.55740679713E+03  0.89414904916E+03  0.69914246375E+03 0.  0.
        2    1    3    3  502    0 -0.20294533841E+03 -0.28084817248E+03 -0.21957428863E+03  0.41021381571E+03  0.25500000920E-02 0.  1.
       -2    1    3    3    0  502  0.20294533841E+03  0.28084817248E+03 -0.33783250851E+03  0.48393523345E+03  0.25500000920E-02 0. -1.
</event>
<event>
 5   0  0.7459843E-04  0.7001748E+03  0.7818609E-02  0.9716933E-01
       -1   -1    0    0    0  501  0.00000000000E+00  0.00000000000E+00  0.13210051096E+03  0.13210051106E+03  0.50400001928E-02 0. -1.
        1   -1    0    0  501    0  0.00000000000E+00  0.00000000000E+00 -0.92778731518E+03  0.92778731520E+03  0.50400001928E-02 0.  1.
    10030    2    1    2    0    0  0.00000000000E+00  0.00000000000E+00 -0.79568680422E+03  0.10598878263E+04  0.70017477377E+03 0.  0.
        2    1    3    3  502    0  0.22707407123E+03  0.23810212000E+03 -0.57889877505E+03  0.66586713775E+03  0.25500000920E-02 0.  1.
       -2    1    3    3    0  502 -0.22707407123E+03 -0.23810212000E+03 -0.21678802918E+03  0.39402068851E+03  0.25500000920E-02 0. -1.
</event>
<event>
 5   0  0.7574241E-04  0.6998545E+03  0.7818609E-02  0.9717481E-01
        1   -1    0    0  501    0  0.00000000000E+00  0.00000000000E+00  0.67214037616E+03  0.67214037618E+03  0.50400001928E-02 0. -1.
       -1   -1    0    0    0  501  0.00000000000E+00  0.00000000000E+00 -0.18217781492E+03  0.18217781499E+03  0.50400001928E-02 0.  1.
    10030    2    1    2    0    0  0.00000000000E+00  0.00000000000E+00  0.48996256125E+03  0.85431819117E+03  0.69985445654E+03 0.  0.
        3    1    3    3  502    0  0.22265801636E+03 -0.16879222484E+03  0.50214732882E+03  0.57464715910E+03  0.10100000352E+00 0. -1.
       -3    1    3    3    0  502 -0.22265801636E+03  0.16879222484E+03 -0.12184767576E+02  0.27967103207E+03  0.10100000352E+00 0.  1.
</event>
<event>
 5   0  0.1265562E-03  0.6982466E+03  0.7818609E-02  0.9720235E-01
        2   -1    0    0  501    0  0.00000000000E+00  0.00000000000E+00  0.45875799524E+03  0.45875799525E+03  0.25500000920E-02 0.  1.
       -2   -1    0    0    0  501  0.00000000000E+00  0.00000000000E+00 -0.26568925151E+03  0.26568925153E+03  0.25500000920E-02 0. -1.
    10030    2    1    2    0    0  0.00000000000E+00  0.00000000000E+00  0.19306874373E+03  0.72444724678E+03  0.69824657075E+03 0.  0.
        1    1    3    3  502    0 -0.30296909334E+03 -0.70038689083E+02 -0.68139207184E+02  0.31833730706E+03  0.50400001928E-02 0. -1.
       -1    1    3    3    0  502  0.30296909334E+03  0.70038689083E+02  0.26120795091E+03  0.40610993971E+03  0.50400001928E-02 0.  1.
</event>
<event>
 5   0  0.7574241E-04  0.6997968E+03  0.7818609E-02  0.9717580E-01
       -1   -1    0    0    0  501  0.00000000000E+00  0.00000000000E+00  0.17954133415E+03  0.17954133422E+03  0.50400001928E-02 0. -1.
        1   -1    0    0  501    0  0.00000000000E+00  0.00000000000E+00 -0.68189803532E+03  0.68189803534E+03  0.50400001928E-02 0.  1.
    10030    2    1    2    0    0  0.00000000000E+00  0.00000000000E+00 -0.50235670117E+03  0.86143936956E+03  0.69979677923E+03 0.  0.
        3    1    3    3  502    0 -0.29963303773E+03  0.17290230514E+03 -0.31577526203E+03  0.46838999854E+03  0.10100000352E+00 0.  1.
       -3    1    3    3    0  502  0.29963303773E+03 -0.17290230514E+03 -0.18658143914E+03  0.39304937102E+03  0.10100000352E+00 0. -1.
</event>
<event>
 5   0  0.1224048E-03  0.6996366E+03  0.7818609E-02  0.9717854E-01
       -2   -1    0    0    0  501  0.00000000000E+00  0.00000000000E+00  0.15761849264E+03  0.15761849266E+03  0.25500000920E-02 0. -1.
        2   -1    0    0  501    0  0.00000000000E+00  0.00000000000E+00 -0.77638630401E+03  0.77638630401E+03  0.25500000920E-02 0.  1.
    10030    2    1    2    0    0  0.00000000000E+00  0.00000000000E+00 -0.61876781137E+03  0.93400479667E+03  0.69963658840E+03 0.  0.
        3    1    3    3  502    0 -0.12739803216E+03  0.62884805231E+01 -0.74423490902E+03  0.75508636168E+03  0.10100000352E+00 0.  1.
       -3    1    3    3    0  502  0.12739803216E+03 -0.62884805231E+01  0.12546709765E+03  0.17891843499E+03  0.10100000352E+00 0. -1.
</event>
<event>
 5   0  0.7013526E-04  0.7003952E+03  0.7818609E-02  0.9716557E-01
       -1   -1    0    0    0  501  0.00000000000E+00  0.00000000000E+00  0.19916190578E+03  0.19916190585E+03  0.50400001928E-02 0. -1.
        1   -1    0    0  501    0  0.00000000000E+00  0.00000000000E+00 -0.61577217124E+03  0.61577217126E+03  0.50400001928E-02 0.  1.
    10030    2    1    2    0    0  0.00000000000E+00  0.00000000000E+00 -0.41661026546E+03  0.81493407710E+03  0.70039520040E+03 0.  0.
        1    1    3    3  502    0  0.36054138650E+02  0.95410547910E+02 -0.59810709876E+03  0.60674144013E+03  0.50400001928E-02 0.  1.
       -1    1    3    3    0  502 -0.36054138650E+02 -0.95410547910E+02  0.18149683330E+03  0.20819263697E+03  0.50400001928E-02 0. -1.
</event>
<event>
 5   0  0.1243087E-03  0.6999554E+03  0.7818609E-02  0.9717309E-01
       -2   -1    0    0    0  501  0.00000000000E+00  0.00000000000E+00  0.11131780537E+03  0.11131780540E+03  0.25500000920E-02 0. -1.
        2   -1    0    0  501    0  0.00000000000E+00  0.00000000000E+00 -0.11003126008E+04  0.11003126008E+04  0.25500000920E-02 0.  1.
    10030    2    1    2    0    0  0.00000000000E+00  0.00000000000E+00 -0.98899479547E+03  0.12116304062E+04  0.69995538133E+03 0.  0.
        4    1    3    3  502    0  0.24957127587E+03 -0.12091909819E+03 -0.12495384658E+03  0.30417482920E+03  0.12699999809E+01 0. -1.
       -4    1    3    3    0  502 -0.24957127587E+03  0.12091909819E+03 -0.86404094888E+03  0.90745557703E+03  0.12699999809E+01 0.  1.
</event>
<event>
 5   0  0.1243087E-03  0.6999126E+03  0.7818609E-02  0.9717382E-01
       -2   -1    0    0    0  501  0.00000000000E+00  0.00000000000E+00  0.10265487388E+03  0.10265487391E+03  0.25500000920E-02 0. -1.
        2   -1    0    0  501    0  0.00000000000E+00  0.00000000000E+00 -0.11930208865E+04  0.11930208865E+04  0.25500000920E-02 0.  1.
    10030    2    1    2    0    0  0.00000000000E+00  0.00000000000E+00 -0.10903660126E+04  0.12956757604E+04  0.69991259071E+03 0.  0.
        4    1    3    3  502    0  0.29244996373E+03  0.19621564770E+02 -0.89912388579E+03  0.94569411650E+03  0.12699999809E+01 0.  1.
       -4    1    3    3    0  502 -0.29244996373E+03 -0.19621564770E+02 -0.19124212680E+03  0.34998164388E+03  0.12699999809E+01 0. -1.
</event>
<event>
 5   0  0.7570633E-04  0.6991937E+03  0.7818609E-02  0.9718612E-01
        1   -1    0    0  501    0  0.00000000000E+00  0.00000000000E+00  0.39563160301E+03  0.39563160304E+03  0.50400001928E-02 0.  1.
       -1   -1    0    0    0  501  0.00000000000E+00  0.00000000000E+00 -0.30891857593E+03  0.30891857597E+03  0.50400001928E-02 0. -1.
    10030    2    1    2    0    0  0.00000000000E+00  0.00000000000E+00  0.86713027082E+02  0.70455017902E+03  0.69919368253E+03 0.  0.
        5    1    3    3  502    0  0.27115919386E+03 -0.85166643473E+02 -0.16170978558E+03  0.32703640520E+03  0.46999998093E+01 0. -1.
       -5    1    3    3    0  502 -0.27115919386E+03  0.85166643473E+02  0.24842281266E+03  0.37751377382E+03  0.46999998093E+01 0.  1.
</event>
<event>
 5   0  0.7574241E-04  0.6996659E+03  0.7818609E-02  0.9717804E-01
       -1   -1    0    0    0  501  0.00000000000E+00  0.00000000000E+00  0.23771262564E+03  0.23771262569E+03  0.50400001928E-02 0. -1.
        1   -1    0    0  501    0  0.00000000000E+00  0.00000000000E+00 -0.51483626200E+03  0.51483626203E+03  0.50400001928E-02 0.  1.
    10030    2    1    2    0    0  0.00000000000E+00  0.00000000000E+00 -0.27712363636E+03  0.75254888771E+03  0.69966586209E+03 0.  0.
        3    1    3    3  502    0  0.14244222740E+03 -0.27674778853E+03 -0.31033196897E+03  0.43952823319E+03  0.10100000352E+00 0.  1.
       -3    1    3    3    0  502 -0.14244222740E+03  0.27674778853E+03  0.33208332608E+02  0.31302065452E+03  0.10100000352E+00 0. -1.
</event>
<event>
 5   0  0.7459843E-04  0.6998510E+03  0.7818609E-02  0.9717487E-01
        1   -1    0    0  501    0  0.00000000000E+00  0.00000000000E+00  0.64837827962E+03  0.64837827963E+03  0.50400001928E-02 0. -1.
       -1   -1    0    0    0  501  0.00000000000E+00  0.00000000000E+00 -0.18885249716E+03  0.18885249723E+03  0.50400001928E-02 0.  1.
    10030    2    1    2    0    0  0.00000000000E+00  0.00000000000E+00  0.45952578245E+03  0.83723077686E+03  0.69985100485E+03 0.  0.
        2    1    3    3  502    0 -0.27336302665E+02 -0.17998664630E+03  0.58726485543E+03  0.61483532488E+03  0.25500000920E-02 0. -1.
       -2    1    3    3    0  502  0.27336302665E+02  0.17998664630E+03 -0.12773907298E+03  0.22239545198E+03  0.25500000920E-02 0.  1.
</event>
<event>
 5   0  0.1243087E-03  0.7003279E+03  0.7818609E-02  0.9716672E-01
        2   -1    0    0  501    0  0.00000000000E+00  0.00000000000E+00  0.16061653432E+04  0.16061653432E+04  0.25500000920E-02 0. -1.
       -2   -1    0    0    0  501  0.00000000000E+00  0.00000000000E+00 -0.76340077126E+02  0.76340077169E+02  0.25500000920E-02 0.  1.
    10030    2    1    2    0    0  0.00000000000E+00  0.00000000000E+00  0.15298252660E+04  0.16825054203E+04  0.70032788381E+03 0.  0.
        4    1    3    3  502    0  0.19942488587E+03 -0.12512766545E+03  0.14219049856E+03  0.27503993991E+03  0.12699999809E+01 0.  1.
       -4    1    3    3    0  502 -0.19942488587E+03  0.12512766545E+03  0.13876347675E+04  0.14074654804E+04  0.12699999809E+01 0. -1.
</event>
<event>
 5   0  0.7574241E-04  0.6998396E+03  0.7818609E-02  0.9717507E-01
        1   -1    0    0  501    0  0.00000000000E+00  0.00000000000E+00  0.72790277519E+03  0.72790277520E+03  0.50400001928E-02 0.  1.
       -1   -1    0    0    0  501  0.00000000000E+00  0.00000000000E+00 -0.16821458711E+03  0.16821458719E+03  0.50400001928E-02 0. -1.
    10030    2    1    2    0    0  0.00000000000E+00  0.00000000000E+00  0.55968818807E+03  0.89611736240E+03  0.69983959542E+03 0.  0.
        3    1    3    3  502    0 -0.24251265294E+03  0.22680550092E+03  0.13846627321E+03  0.35975830929E+03  0.10100000352E+00 0.  1.
       -3    1    3    3    0  502  0.24251265294E+03 -0.22680550092E+03  0.42122191487E+03  0.53635905311E+03  0.10100000352E+00 0. -1.
</event>
<event>
 5   0  0.1222679E-03  0.7007728E+03  0.7818609E-02  0.9715911E-01
        2   -1    0    0  501    0  0.00000000000E+00  0.00000000000E+00  0.21762666948E+03  0.21762666950E+03  0.25500000920E-02 0.  1.
       -2   -1    0    0    0  501  0.00000000000E+00  0.00000000000E+00 -0.56413417152E+03  0.56413417153E+03  0.25500000920E-02 0. -1.
    10030    2    1    2    0    0  0.00000000000E+00  0.00000000000E+00 -0.34650750204E+03  0.78176084103E+03  0.70077283309E+03 0.  0.
        2    1    3    3  502    0 -0.24033370993E+03  0.10414842353E+03  0.86373236180E+02  0.27580341221E+03  0.25500000920E-02 0.  1.
       -2    1    3    3    0  502  0.24033370993E+03 -0.10414842353E+03 -0.43288073822E+03  0.50595742882E+03  0.25500000920E-02 0. -1.
</event>
<event>
 5   0  0.1243087E-03  0.7003464E+03  0.7818609E-02  0.9716640E-01
        2   -1    0    0  501    0  0.00000000000E+00  0.00000000000E+00  0.12625879282E+04  0.12625879282E+04  0.25500000920E-02 0.  1.
       -2   -1    0    0    0  501  0.00000000000E+00  0.00000000000E+00 -0.97118997673E+02  0.97118997706E+02  0.25500000920E-02 0. -1.
    10030    2    1    2    0    0  0.00000000000E+00  0.00000000000E+00  0.11654689305E+04  0.13597069259E+04  0.70034641167E+03 0.  0.
        4    1    3    3  502    0  0.31814330485E+03 -0.14630249355E+03  0.58218826991E+03  0.67938529316E+03  0.12699999809E+01 0. -1.
       -4    1    3    3    0  502 -0.31814330485E+03  0.14630249355E+03  0.58328066062E+03  0.68032163276E+03  0.12699999809E+01 0.  1.
</event>
<event>
 5   0  0.7570633E-04  0.6972406E+03  0.7818609E-02  0.9721963E-01
        1   -1    0    0  501    0  0.00000000000E+00  0.00000000000E+00  0.25073904768E+03  0.25073904773E+03  0.50400001928E-02 0.  1.
       -1   -1    0    0    0  501  0.00000000000E+00  0.00000000000E+00 -0.48471156281E+03  0.48471156284E+03  0.50400001928E-02 0. -1.
    10030    2    1    2    0    0  0.00000000000E+00  0.00000000000E+00 -0.23397251513E+03  0.73545061057E+03  0.69724060607E+03 0.  0.
        5    1    3    3  502    0  0.98629690677E+02 -0.11134528197E+03  0.21554982304E+03  0.26193396861E+03  0.46999998093E+01 0.  1.
       -5    1    3    3    0  502 -0.98629690677E+02  0.11134528197E+03 -0.44952233817E+03  0.47351664196E+03  0.46999998093E+01 0. -1.
</event>
<event>
 5   0  0.4936000E-04  0.6998865E+03  0.7818609E-02  0.9717426E-01
        4   -1    0    0  501    0  0.00000000000E+00  0.00000000000E+00  0.33641378907E+03  0.33641618626E+03  0.12699999809E+01 0.  1.
       -4   -1    0    0    0  501  0.00000000000E+00  0.00000000000E+00 -0.36401197145E+03  0.36401418689E+03  0.12699999809E+01 0. -1.
    10030    2    1    2    0    0  0.00000000000E+00  0.00000000000E+00 -0.27598182381E+02  0.70043037315E+03  0.69988645362E+03 0.  0.
        1    1    3    3  502    0  0.13282700624E+03  0.14958074527E+03 -0.30115086235E+03  0.36153734919E+03  0.50400001928E-02 0. -1.
       -1    1    3    3    0  502 -0.13282700624E+03 -0.14958074527E+03  0.27355267997E+03  0.33889302396E+03  0.50400001928E-02 0.  1.
</event>
<event>
 5   0  0.1222679E-03  0.7000225E+03  0.7818609E-02  0.9717194E-01
       -2   -1    0    0    0  501  0.00000000000E+00  0.00000000000E+00  0.18295754106E+03  0.18295754108E+03  0.25500000920E-02 0. -1.
        2   -1    0    0  501    0  0.00000000000E+00  0.00000000000E+00 -0.66959724129E+03  0.66959724129E+03  0.25500000920E-02 0.  1.
    10030    2    1    2    0    0  0.00000000000E+00  0.00000000000E+00 -0.48663970022E+03  0.85255478238E+03  0.70002247044E+03 0.  0.
        2    1    3    3  502    0  0.22500346678E+03 -0.11982531709E+03 -0.53542003082E+03  0.59300866443E+03  0.25500000920E-02 0.  1.
       -2    1    3    3    0  502 -0.22500346678E+03  0.11982531709E+03  0.48780330594E+02  0.25954611795E+03  0.25500000920E-02 0. -1.
</event>
<event>
 5   0  0.1224048E-03  0.7001836E+03  0.7818609E-02  0.9716918E-01
       -2   -1    0    0    0  501  0.00000000000E+00  0.00000000000E+00  0.19404933460E+03  0.19404933462E+03  0.25500000920E-02 0. -1.
        2   -1    0    0  501    0  0.00000000000E+00  0.00000000000E+00 -0.63161398105E+03  0.63161398105E+03  0.25500000920E-02 0.  1.
    10030    2    1    2    0    0  0.00000000000E+00  0.00000000000E+00 -0.43756464645E+03  0.82566331567E+03  0.70018361236E+03 0.  0.
        3    1    3    3  502    0 -0.12139038494E+03  0.96231583445E+02 -0.58900181687E+03  0.60903143899E+03  0.10100000352E+00 0.  1.
       -3    1    3    3    0  502  0.12139038494E+03 -0.96231583445E+02  0.15143717042E+03  0.21663187668E+03  0.10100000352E+00 0. -1.
</event>
<event>
 5   0  0.1282546E-03  0.6993965E+03  0.7818609E-02  0.9718265E-01
       -2   -1    0    0    0  501  0.00000000000E+00  0.00000000000E+00  0.17776327297E+03  0.17776327299E+03  0.25500000920E-02 0. -1.
        2   -1    0    0  501    0  0.00000000000E+00  0.00000000000E+00 -0.68793109064E+03  0.68793109065E+03  0.25500000920E-02 0.  1.
    10030    2    1    2    0    0  0.00000000000E+00  0.00000000000E+00 -0.51016781768E+03  0.86569436363E+03  0.69939654634E+03 0.  0.
        5    1    3    3  502    0 -0.25991126449E+03 -0.63528549523E+02  0.23558214242E+02  0.26863883091E+03  0.46999998093E+01 0. -1.
       -5    1    3    3    0  502  0.25991126449E+03  0.63528549523E+02 -0.53372603192E+03  0.59705553273E+03  0.46999998093E+01 0.  1.
</event>
<event>
 5   0  0.7459843E-04  0.6999109E+03  0.7818609E-02  0.9717385E-01
       -1   -1    0    0    0  501  0.00000000000E+00  0.00000000000E+00  0.23440191480E+03  0.23440191486E+03  0.50400001928E-02 0.  1.
        1   -1    0    0  501    0  0.00000000000E+00  0.00000000000E+00 -0.52247362854E+03  0.52247362856E+03  0.50400001928E-02 0. -1.
    10030    2    1    2    0    0  0.00000000000E+00  0.00000000000E+00 -0.28807171373E+03  0.75687554342E+03  0.69991090574E+03 0.  0.
        2    1    3    3  502    0  0.26405432887E+03  0.11718890010E+03  0.69551062873E+02  0.29714521240E+03  0.25500000920E-02 0.  1.
       -2    1    3    3    0  502 -0.26405432887E+03 -0.11718890010E+03 -0.35762277661E+03  0.45973033101E+03  0.25500000920E-02 0. -1.
</event>
<event>
 5   0  0.1222679E-03  0.6977982E+03  0.7818609E-02  0.9721005E-01
       -2   -1    0    0    0  501  0.00000000000E+00  0.00000000000E+00  0.67158441365E+02  0.67158441414E+02  0.25500000920E-02 0.  1.
        2   -1    0    0  501    0  0.00000000000E+00  0.00000000000E+00 -0.18125878717E+04  0.18125878717E+04  0.25500000920E-02 0. -1.
    10030    2    1    2    0    0  0.00000000000E+00  0.00000000000E+00 -0.17454294304E+04  0.18797463132E+04  0.69779818387E+03 0.  0.
        2    1    3    3  502    0 -0.16410358598E+03 -0.13121165796E+03 -0.12237878589E+03  0.24315232542E+03  0.25500000920E-02 0.  1.
       -2    1    3    3    0  502  0.16410358598E+03  0.13121165796E+03 -0.16230506445E+04  0.16365939877E+04  0.25500000920E-02 0. -1.
</event>
<event>
 5   0  0.4936000E-04  0.7002918E+03  0.7818609E-02  0.9716733E-01
        4   -1    0    0  501    0  0.00000000000E+00  0.00000000000E+00  0.19374178085E+03  0.19374594331E+03  0.12699999809E+01 0. -1.
       -4   -1    0    0    0  501  0.00000000000E+00  0.00000000000E+00 -0.63280055533E+03  0.63280182974E+03  0.12699999809E+01 0.  1.
    10030    2    1    2    0    0  0.00000000000E+00  0.00000000000E+00 -0.43905877448E+03  0.82654777305E+03  0.70029180610E+03 0.  0.
        5    1    3    3  502    0 -0.20700650825E+03  0.17237722522E+02 -0.55217711316E+03  0.58997498916E+03  0.46999998093E+01 0.  1.
       -5    1    3    3    0  502  0.20700650825E+03 -0.17237722522E+02  0.11311833868E+03  0.23657278389E+03  0.46999998093E+01 0. -1.
</event>
<event>
 5   0  0.1282546E-03  0.6997043E+03  0.7818609E-02  0.9717738E-01
       -2   -1    0    0    0  501  0.00000000000E+00  0.00000000000E+00  0.83028015755E+02  0.83028015795E+02  0.25500000920E-02 0.  1.
        2   -1    0    0  501    0  0.00000000000E+00  0.00000000000E+00 -0.14741592958E+04  0.14741592958E+04  0.25500000920E-02 0. -1.
    10030    2    1    2    0    0  0.00000000000E+00  0.00000000000E+00 -0.13911312800E+04  0.15571873116E+04  0.69970428402E+03 0.  0.
        5    1    3    3  502    0  0.20815606026E+03 -0.27462175249E+03 -0.82962052363E+03  0.89835313524E+03  0.46999998093E+01 0.  1.
       -5    1    3    3    0  502 -0.20815606026E+03  0.27462175249E+03 -0.56151075639E+03  0.65883417633E+03  0.46999998093E+01 0. -1.
</event>
<event>
 5   0  0.7572415E-04  0.6999237E+03  0.7818609E-02  0.9717363E-01
        1   -1    0    0  501    0  0.00000000000E+00  0.00000000000E+00  0.16036896657E+04  0.16036896657E+04  0.50400001928E-02 0. -1.
       -1   -1    0    0    0  501  0.00000000000E+00  0.00000000000E+00 -0.76369688243E+02  0.76369688409E+02  0.50400001928E-02 0.  1.
    10030    2    1    2    0    0  0.00000000000E+00  0.00000000000E+00  0.15273199775E+04  0.16800593541E+04  0.69992365285E+03 0.  0.
        4    1    3    3  502    0 -0.29194853362E+03  0.18583845519E+03  0.63889299886E+03  0.72660563898E+03  0.12699999809E+01 0.  1.
       -4    1    3    3    0  502  0.29194853362E+03 -0.18583845519E+03  0.88842697859E+03  0.95345371513E+03  0.12699999809E+01 0. -1.
</event>
<event>
 5   0  0.7459843E-04  0.6994238E+03  0.7818609E-02  0.9718218E-01
        1   -1    0    0  501    0  0.00000000000E+00  0.00000000000E+00  0.76263546668E+03  0.76263546669E+03  0.50400001928E-02 0. -1.
       -1   -1    0    0    0  501  0.00000000000E+00  0.00000000000E+00 -0.16036287512E+03  0.16036287520E+03  0.50400001928E-02 0.  1.
    10030    2    1    2    0    0  0.00000000000E+00  0.00000000000E+00  0.60227259155E+03  0.92299834190E+03  0.69942380901E+03 0.  0.
        2    1    3    3  502    0 -0.10844372061E+03 -0.62117596878E+01 -0.13753703731E+03  0.17525713434E+03  0.25500000920E-02 0.  1.
       -2    1    3    3    0  502  0.10844372061E+03  0.62117596878E+01  0.73980962887E+03  0.74774120755E+03  0.25500000920E-02 0. -1.
</event>
<event>
 5   0  0.7013526E-04  0.7011375E+03  0.7818609E-02  0.9715289E-01
        1   -1    0    0  501    0  0.00000000000E+00  0.00000000000E+00  0.16876677461E+03  0.16876677469E+03  0.50400001928E-02 0.  1.
       -1   -1    0    0    0  501  0.00000000000E+00  0.00000000000E+00 -0.72821476031E+03  0.72821476033E+03  0.50400001928E-02 0. -1.
    10030    2    1    2    0    0  0.00000000000E+00  0.00000000000E+00 -0.55944798570E+03  0.89698153501E+03  0.70113752250E+03 0.  0.
        1    1    3    3  502    0 -0.61648741761E+02 -0.11576121819E+03  0.13619820063E+03  0.18907981615E+03  0.50400001928E-02 0.  1.
       -1    1    3    3    0  502  0.61648741761E+02  0.11576121819E+03 -0.69564618632E+03  0.70790171886E+03  0.50400001928E-02 0. -1.
</event>
<event>
 5   0  0.1282546E-03  0.6997612E+03  0.7818609E-02  0.9717641E-01
        2   -1    0    0  501    0  0.00000000000E+00  0.00000000000E+00  0.57183678104E+03  0.57183678105E+03  0.25500000920E-02 0.  1.
       -2   -1    0    0    0  501  0.00000000000E+00  0.00000000000E+00 -0.21407581721E+03  0.21407581723E+03  0.25500000920E-02 0. -1.
    10030    2    1    2    0    0  0.00000000000E+00  0.00000000000E+00  0.35776096383E+03  0.78591259828E+03  0.69976117704E+03 0.  0.
        5    1    3    3  502    0  0.20163827786E+03 -0.62710075015E+02 -0.13439382400E+03  0.25034843425E+03  0.46999998093E+01 0. -1.
       -5    1    3    3    0  502 -0.20163827786E+03  0.62710075015E+02  0.49215478783E+03  0.53556416403E+03  0.46999998093E+01 0.  1.
</event>
<event>
 5   0  0.7570633E-04  0.7000040E+03  0.7818609E-02  0.9717225E-01
       -1   -1    0    0    0  501  0.00000000000E+00  0.00000000000E+00  0.14027584741E+03  0.14027584750E+03  0.50400001928E-02 0. -1.
        1   -1    0    0  501    0  0.00000000000E+00  0.00000000000E+00 -0.87328930362E+03  0.87328930364E+03  0.50400001928E-02 0.  1.
    10030    2    1    2    0    0  0.00000000000E+00  0.00000000000E+00 -0.73301345621E+03  0.10135651511E+04  0.70000399185E+03 0.  0.
        5    1    3    3  502    0 -0.30509918592E+03 -0.14513175454E+03 -0.23435025097E+03  0.41120660203E+03  0.46999998093E+01 0. -1.
       -5    1    3    3    0  502  0.30509918592E+03  0.14513175454E+03 -0.49866320525E+03  0.60235854911E+03  0.46999998093E+01 0.  1.
</event>
<event>
 5   0  0.7574241E-04  0.6998238E+03  0.7818609E-02  0.9717534E-01
        1   -1    0    0  501    0  0.00000000000E+00  0.00000000000E+00  0.41079309797E+03  0.41079309800E+03  0.50400001928E-02 0.  1.
       -1   -1    0    0    0  501  0.00000000000E+00  0.00000000000E+00 -0.29805350828E+03  0.29805350833E+03  0.50400001928E-02 0. -1.
    10030    2    1    2    0    0  0.00000000000E+00  0.00000000000E+00  0.11273958969E+03  0.70884660633E+03  0.69982376083E+03 0.  0.
        3    1    3    3  502    0 -0.27512230499E+03 -0.20400986802E+03 -0.16149419315E+02  0.34288937414E+03  0.10100000352E+00 0.  1.
       -3    1    3    3    0  502  0.27512230499E+03  0.20400986802E+03  0.12888900901E+03  0.36595723219E+03  0.10100000352E+00 0. -1.
</event>
<event>
 5   0  0.1265562E-03  0.6997411E+03  0.7818609E-02  0.9717675E-01
       -2   -1    0    0    0  501  0.00000000000E+00  0.00000000000E+00  0.18045995419E+03  0.18045995421E+03  0.25500000920E-02 0. -1.
        2   -1    0    0  501    0  0.00000000000E+00  0.00000000000E+00 -0.67831896657E+03  0.67831896657E+03  0.25500000920E-02 0.  1.
    10030    2    1    2    0    0  0.00000000000E+00  0.00000000000E+00 -0.49785901237E+03  0.85877892078E+03  0.69974112254E+03 0.  0.
        1    1    3    3  502    0 -0.30924833558E+02  0.24905149887E+03 -0.54811032399E+03  0.60283324536E+03  0.50400001928E-02 0.  1.
       -1    1    3    3    0  502  0.30924833558E+02 -0.24905149887E+03  0.50251311618E+02  0.25594567542E+03  0.50400001928E-02 0. -1.
</event>
<event>
 5   0  0.7013526E-04  0.6998492E+03  0.7818609E-02  0.9717490E-01
        1   -1    0    0  501    0  0.00000000000E+00  0.00000000000E+00  0.29409715395E+03  0.29409715400E+03  0.50400001928E-02 0.  1.
       -1   -1    0    0    0  501  0.00000000000E+00  0.00000000000E+00 -0.41634954525E+03  0.41634954528E+03  0.50400001928E-02 0. -1.
    10030    2    1    2    0    0  0.00000000000E+00  0.00000000000E+00 -0.12225239130E+03  0.71044669928E+03  0.69984917328E+03 0.  0.
        1    1    3    3  502    0 -0.32280175680E+03  0.12708983182E+03 -0.14668399995E+02  0.34722897565E+03  0.50400001928E-02 0.  1.
       -1    1    3    3    0  502  0.32280175680E+03 -0.12708983182E+03 -0.10758399130E+03  0.36321772363E+03  0.50400001928E-02 0. -1.
</event>
<event>
 5   0  0.1224048E-03  0.6999167E+03  0.7818609E-02  0.9717375E-01
        2   -1    0    0  501    0  0.00000000000E+00  0.00000000000E+00  0.12996780429E+04  0.12996780429E+04  0.25500000920E-02 0. -1.
       -2   -1    0    0    0  501  0.00000000000E+00  0.00000000000E+00 -0.94231673354E+02  0.94231673388E+02  0.25500000920E-02 0.  1.
    10030    2    1    2    0    0  0.00000000000E+00  0.00000000000E+00  0.12054463695E+04  0.13939097163E+04  0.69991667169E+03 0.  0.
        3    1    3    3  502    0 -0.62985602140E+02  0.32633649379E+03  0.38448735287E+03  0.50822556801E+03  0.10100000352E+00 0.  1.
       -3    1    3    3    0  502  0.62985602140E+02 -0.32633649379E+03  0.82095901666E+03  0.88568414826E+03  0.10100000352E+00 0. -1.
</event>
<event>
 5   0  0.7013526E-04  0.7002153E+03  0.7818609E-02  0.9716864E-01
       -1   -1    0    0    0  501  0.00000000000E+00  0.00000000000E+00  0.58043284043E+03  0.58043284046E+03  0.50400001928E-02 0. -1.
        1   -1    0    0  501    0  0.00000000000E+00  0.00000000000E+00 -0.21117923736E+03  0.21117923742E+03  0.50400001928E-02 0.  1.
    10030    2    1    2    0    0  0.00000000000E+00  0.00000000000E+00  0.36925360308E+03  0.79161207787E+03  0.70021529435E+03 0.  0.
        1    1    3    3  502    0 -0.15124418062E+03  0.30803316671E+03  0.26308348539E+03  0.43240276858E+03  0.50400001928E-02 0. -1.
       -1    1    3    3    0  502  0.15124418062E+03 -0.30803316671E+03  0.10617011769E+03  0.35920930929E+03  0.50400001928E-02 0.  1.
</event>
<event>
 5   0  0.7572415E-04  0.6980270E+03  0.7818609E-02  0.9720612E-01
       -1   -1    0    0    0  501  0.00000000000E+00  0.00000000000E+00  0.59435526529E+02  0.59435526743E+02  0.50400001928E-02 0. -1.
        1   -1    0    0  501    0  0.00000000000E+00  0.00000000000E+00 -0.20494545434E+04  0.20494545434E+04  0.50400001928E-02 0.  1.
    10030    2    1    2    0    0  0.00000000000E+00  0.00000000000E+00 -0.19900190169E+04  0.21088900702E+04  0.69802696257E+03 0.  0.
        4    1    3    3  502    0  0.26397726135E+03 -0.55344751601E+02 -0.32581354816E+03  0.42296940445E+03  0.12699999809E+01 0. -1.
       -4    1    3    3    0  502 -0.26397726135E+03  0.55344751601E+02 -0.16642054687E+04  0.16859206657E+04  0.12699999809E+01 0.  1.
</event>
<event>
 5   0  0.1265562E-03  0.6980955E+03  0.7818609E-02  0.9720495E-01
       -2   -1    0    0    0  501  0.00000000000E+00  0.00000000000E+00  0.80220846389E+03  0.80220846389E+03  0.25500000920E-02 0. -1.
        2   -1    0    0  501    0  0.00000000000E+00  0.00000000000E+00 -0.15187367516E+03  0.15187367518E+03  0.25500000920E-02 0.  1.
    10030    2    1    2    0    0  0.00000000000E+00  0.00000000000E+00  0.65033478873E+03  0.95408213908E+03  0.69809554552E+03 0.  0.
        1    1    3    3  502    0  0.68599092999E+02  0.29205348551E+03  0.56901110047E+03  0.64325322109E+03  0.50400001928E-02 0. -1.
       -1    1    3    3    0  502 -0.68599092999E+02 -0.29205348551E+03  0.81323688256E+02  0.31082891799E+03  0.50400001928E-02 0.  1.
</event>
<event>
 5   0  0.7013526E-04  0.6999471E+03  0.7818609E-02  0.9717323E-01
       -1   -1    0    0    0  501  0.00000000000E+00  0.00000000000E+00  0.53916197428E+02  0.53916197663E+02  0.50400001928E-02 0.  1.
        1   -1    0    0  501    0  0.00000000000E+00  0.00000000000E+00 -0.22717011480E+04  0.22717011480E+04  0.50400001928E-02 0. -1.
    10030    2    1    2    0    0  0.00000000000E+00  0.00000000000E+00 -0.22177849506E+04  0.23256173457E+04  0.69994710621E+03 0.  0.
        1    1    3    3  502    0  0.18146792416E+03  0.27277620978E+03 -0.15177703579E+04  0.15527280275E+04  0.50400001928E-02 0.  1.
       -1    1    3    3    0  502 -0.18146792416E+03 -0.27277620978E+03 -0.70001459267E+03  0.77288931814E+03  0.50400001928E-02 0. -1.
</event>
<event>
 5   0  0.7013526E-04  0.6987160E+03  0.7818609E-02  0.9719430E-01
        1   -1    0    0  501    0  0.00000000000E+00  0.00000000000E+00  0.28305274174E+03  0.28305274178E+03  0.50400001928E-02 0.  1.
       -1   -1    0    0    0  501  0.00000000000E+00  0.00000000000E+00 -0.43119536051E+03  0.43119536054E+03  0.50400001928E-02 0. -1.
    10030    2    1    2    0    0  0.00000000000E+00  0.00000000000E+00 -0.14814261877E+03  0.71424810232E+03  0.69871604831E+03 0.  0.
        1    1    3    3  502    0  0.29946996621E+03 -0.62245652801E+02 -0.24662607957E+03  0.39291373748E+03  0.50400001928E-02 0. -1.
       -1    1    3    3    0  502 -0.29946996621E+03  0.62245652801E+02  0.98483460799E+02  0.32133436484E+03  0.50400001928E-02 0.  1.
</event>
<event>
 5   0  0.1224048E-03  0.6998928E+03  0.7818609E-02  0.9717415E-01
       -2   -1    0    0    0  501  0.00000000000E+00  0.00000000000E+00  0.14241721515E+03  0.14241721518E+03  0.25500000920E-02 0.  1.
        2   -1    0    0  501    0  0.00000000000E+00  0.00000000000E+00 -0.85988551143E+03  0.85988551143E+03  0.25500000920E-02 0. -1.
    10030    2    1    2    0    0  0.00000000000E+00  0.00000000000E+00 -0.71746829627E+03  0.10023027266E+04  0.69989284866E+03 0.  0.
        3    1    3    3  502    0 -0.11717707372E+03  0.27847426911E+03 -0.10584278660E+03  0.32012667936E+03  0.10100000352E+00 0.  1.
       -3    1    3    3    0  502  0.11717707372E+03 -0.27847426911E+03 -0.61162550967E+03  0.68217604725E+03  0.10100000352E+00 0. -1.
</event>
<event>
 5   0  0.1282546E-03  0.6968474E+03  0.7818609E-02  0.9722639E-01
        2   -1    0    0  501    0  0.00000000000E+00  0.00000000000E+00  0.62560473223E+03  0.62560473224E+03  0.25500000920E-02 0.  1.
       -2   -1    0    0    0  501  0.00000000000E+00  0.00000000000E+00 -0.19405074796E+03  0.19405074798E+03  0.25500000920E-02 0. -1.
    10030    2    1    2    0    0  0.00000000000E+00  0.00000000000E+00  0.43155398427E+03  0.81965548021E+03  0.69684737561E+03 0.  0.
        5    1    3    3  502    0 -0.59002789681E+02  0.27702673885E+03 -0.22832804373E+02  0.28419811784E+03  0.46999998093E+01 0. -1.
       -5    1    3    3    0  502  0.59002789681E+02 -0.27702673885E+03  0.45438678865E+03  0.53545736238E+03  0.46999998093E+01 0.  1.
</event>
<event>
 5   0  0.4936000E-04  0.7011221E+03  0.7818609E-02  0.9715315E-01
        3   -1    0    0  501    0  0.00000000000E+00  0.00000000000E+00  0.31590710942E+03  0.31590712557E+03  0.10100000352E+00 0.  1.
       -3   -1    0    0    0  501  0.00000000000E+00  0.00000000000E+00 -0.38901641056E+03  0.38901642368E+03  0.10100000352E+00 0. -1.
    10030    2    1    2    0    0  0.00000000000E+00  0.00000000000E+00 -0.73109301142E+02  0.70492354924E+03  0.70112212942E+03 0.  0.
        5    1    3    3  502    0 -0.78537829877E+02  0.32406443416E+03 -0.14523802383E+03  0.36373358626E+03  0.46999998093E+01 0. -1.
       -5    1    3    3    0  502  0.78537829877E+02 -0.32406443416E+03  0.72128722689E+02  0.34118996299E+03  0.46999998093E+01 0.  1.
</event>
<event>
 5   0  0.1222679E-03  0.6975401E+03  0.7818609E-02  0.9721448E-01
       -2   -1    0    0    0  501  0.00000000000E+00  0.00000000000E+00  0.19063099264E+03  0.19063099266E+03  0.25500000920E-02 0. -1.
        2   -1    0    0  501    0  0.00000000000E+00  0.00000000000E+00 -0.63809424116E+03  0.63809424117E+03  0.25500000920E-02 0.  1.
    10030    2    1    2    0    0  0.00000000000E+00  0.00000000000E+00 -0.44746324852E+03  0.82872523383E+03  0.69754007369E+03 0.  0.
        2    1    3    3  502    0 -0.13708091701E+03  0.12637013328E+02 -0.60445081799E+03  0.61992875663E+03  0.25500000920E-02 0.  1.
       -2    1    3    3    0  502  0.13708091701E+03 -0.12637013328E+02  0.15698756947E+03  0.20879647720E+03  0.25500000920E-02 0. -1.
</event>
<event>
 5   0  0.1222679E-03  0.7002333E+03  0.7818609E-02  0.9716833E-01
       -2   -1    0    0    0  501  0.00000000000E+00  0.00000000000E+00  0.21223037357E+03  0.21223037358E+03  0.25500000920E-02 0. -1.
        2   -1    0    0  501    0  0.00000000000E+00  0.00000000000E+00 -0.57758772070E+03  0.57758772070E+03  0.25500000920E-02 0.  1.
    10030    2    1    2    0    0  0.00000000000E+00  0.00000000000E+00 -0.36535734713E+03  0.78981809428E+03  0.70023326896E+03 0.  0.
        2    1    3    3  502    0 -0.13070281831E+03 -0.30891508706E+03 -0.29586576945E+03  0.44726760588E+03  0.25500000920E-02 0.  1.
       -2    1    3    3    0  502  0.13070281831E+03  0.30891508706E+03 -0.69491577675E+02  0.34255048840E+03  0.25500000920E-02 0. -1.
</event>
<event>
 5   0  0.1224048E-03  0.6998219E+03  0.7818609E-02  0.9717537E-01
       -2   -1    0    0    0  501  0.00000000000E+00  0.00000000000E+00  0.49370977448E+03  0.49370977449E+03  0.25500000920E-02 0. -1.
        2   -1    0    0  501    0  0.00000000000E+00  0.00000000000E+00 -0.24799521034E+03  0.24799521036E+03  0.25500000920E-02 0.  1.
    10030    2    1    2    0    0  0.00000000000E+00  0.00000000000E+00  0.24571456414E+03  0.74170498484E+03  0.69982186127E+03 0.  0.
        3    1    3    3  502    0  0.18802604784E+03  0.21126009389E+03  0.34122982175E+03  0.44319569424E+03  0.10100000352E+00 0. -1.
       -3    1    3    3    0  502 -0.18802604784E+03 -0.21126009389E+03 -0.95515257618E+02  0.29850929060E+03  0.10100000352E+00 0.  1.
</event>
<event>
 5   0  0.7459843E-04  0.7001983E+03  0.7818609E-02  0.9716893E-01
       -1   -1    0    0    0  501  0.00000000000E+00  0.00000000000E+00  0.61827081660E+03  0.61827081662E+03  0.50400001928E-02 0. -1.
        1   -1    0    0  501    0  0.00000000000E+00  0.00000000000E+00 -0.19824551772E+03  0.19824551778E+03  0.50400001928E-02 0.  1.
    10030    2    1    2    0    0  0.00000000000E+00  0.00000000000E+00  0.42002529887E+03  0.81651633440E+03  0.70019830952E+03 0.  0.
        2    1    3    3  502    0 -0.34431875542E+02  0.15316546813E+03 -0.15489993697E+03  0.22054297803E+03  0.25500000920E-02 0.  1.
       -2    1    3    3    0  502  0.34431875542E+02 -0.15316546813E+03  0.57492523585E+03  0.59597335637E+03  0.25500000920E-02 0. -1.
</event>
<event>
 5   0  0.1265562E-03  0.7000715E+03  0.7818609E-02  0.9717110E-01
        2   -1    0    0  501    0  0.00000000000E+00  0.00000000000E+00  0.27117112676E+03  0.27117112677E+03  0.25500000920E-02 0. -1.
       -2   -1    0    0    0  501  0.00000000000E+00  0.00000000000E+00 -0.45183659659E+03  0.45183659660E+03  0.25500000920E-02 0.  1.
    10030    2    1    2    0    0  0.00000000000E+00  0.00000000000E+00 -0.18066546984E+03  0.72300772337E+03  0.70007153638E+03 0.  0.
        1    1    3    3  502    0 -0.22574159904E+03  0.15794211345E+03  0.13265805301E+03  0.30578283109E+03  0.50400001928E-02 0. -1.
       -1    1    3    3    0  502  0.22574159904E+03 -0.15794211345E+03 -0.31332352284E+03  0.41722489227E+03  0.50400001928E-02 0.  1.
</event>
<event>
 5   0  0.7013526E-04  0.7000338E+03  0.7818609E-02  0.9717174E-01
        1   -1    0    0  501    0  0.00000000000E+00  0.00000000000E+00  0.47030797620E+03  0.47030797623E+03  0.50400001928E-02 0. -1.
       -1   -1    0    0    0  501  0.00000000000E+00  0.00000000000E+00 -0.26049277115E+03  0.26049277120E+03  0.50400001928E-02 0.  1.
    10030    2    1    2    0    0  0.00000000000E+00  0.00000000000E+00  0.20981520505E+03  0.73080074743E+03  0.70003379359E+03 0.  0.
        1    1    3    3  502    0  0.21945605088E+03 -0.26476744030E+03  0.17295743150E+03  0.38493769476E+03  0.50400001928E-02 0.  1.
       -1    1    3    3    0  502 -0.21945605088E+03  0.26476744030E+03  0.36857773544E+02  0.34586305267E+03  0.50400001928E-02 0. -1.
</event>
<event>
 5   0  0.7574241E-04  0.6998816E+03  0.7818609E-02  0.9717435E-01
       -1   -1    0    0    0  501  0.00000000000E+00  0.00000000000E+00  0.34336224317E+03  0.34336224321E+03  0.50400001928E-02 0. -1.
        1   -1    0    0  501    0  0.00000000000E+00  0.00000000000E+00 -0.35664541165E+03  0.35664541168E+03  0.50400001928E-02 0.  1.
    10030    2    1    2    0    0  0.00000000000E+00  0.00000000000E+00 -0.13283168479E+02  0.70000765489E+03  0.69988161452E+03 0.  0.
        3    1    3    3  502    0  0.11271264579E+03 -0.27092995304E+03 -0.19733629442E+03  0.35362240211E+03  0.10100000352E+00 0.  1.
       -3    1    3    3    0  502 -0.11271264579E+03  0.27092995304E+03  0.18405312594E+03  0.34638525278E+03  0.10100000352E+00 0. -1.
</event>
<event>
 5   0  0.7572415E-04  0.7009702E+03  0.7818609E-02  0.9715574E-01
        1   -1    0    0  501    0  0.00000000000E+00  0.00000000000E+00  0.69345038859E+03  0.69345038861E+03  0.50400001928E-02 0.  1.
       -1   -1    0    0    0  501  0.00000000000E+00  0.00000000000E+00 -0.17714291264E+03  0.17714291271E+03  0.50400001928E-02 0. -1.
    10030    2    1    2    0    0  0.00000000000E+00  0.00000000000E+00  0.51630747596E+03  0.87059330132E+03  0.70097024657E+03 0.  0.
        4    1    3    3  502    0  0.32624986666E+03  0.10731081501E+03  0.34494715126E+03  0.48676969562E+03  0.12699999809E+01 0.  1.
       -4    1    3    3    0  502 -0.32624986666E+03 -0.10731081501E+03  0.17136032469E+03  0.38382360570E+03  0.12699999809E+01 0. -1.
</event>
<event>
 5   0  0.1243087E-03  0.7004182E+03  0.7818609E-02  0.9716517E-01
       -2   -1    0    0    0  501  0.00000000000E+00  0.00000000000E+00  0.99201839637E+02  0.99201839670E+02  0.25500000920E-02 0. -1.
        2   -1    0    0  501    0  0.00000000000E+00  0.00000000000E+00 -0.12363318767E+04  0.12363318767E+04  0.25500000920E-02 0.  1.
    10030    2    1    2    0    0  0.00000000000E+00  0.00000000000E+00 -0.11371300370E+04  0.13355337164E+04  0.70041815109E+03 0.  0.
        4    1    3    3  502    0 -0.64986486380E+00  0.17863742260E+03  0.57896794449E+01  0.17873691384E+03  0.12699999809E+01 0. -1.
       -4    1    3    3    0  502  0.64986486380E+00 -0.17863742260E+03 -0.11429197165E+04  0.11567968025E+04  0.12699999809E+01 0.  1.
</event>
<event>
 5   0  0.7574241E-04  0.7001656E+03  0.7818609E-02  0.9716949E-01
       -1   -1    0    0    0  501  0.00000000000E+00  0.00000000000E+00  0.19778633636E+03  0.19778633643E+03  0.50400001928E-02 0.  1.
        1   -1    0    0  501    0  0.00000000000E+00  0.00000000000E+00 -0.61964836826E+03  0.61964836828E+03  0.50400001928E-02 0. -1.
    10030    2    1    2    0    0  0.00000000000E+00  0.00000000000E+00 -0.42186203189E+03  0.81743470470E+03  0.70016563933E+03 0.  0.
        3    1    3    3  502    0 -0.28371382344E+03  0.11278457791E+03 -0.10939074680E+02  0.30550543069E+03  0.10100000352E+00 0.  1.
       -3    1    3    3    0  502  0.28371382344E+03 -0.11278457791E+03 -0.41092295721E+03  0.51192927401E+03  0.10100000352E+00 0. -1.
</event>
<event>
 5   0  0.1282546E-03  0.7001024E+03  0.7818609E-02  0.9717057E-01
       -2   -1    0    0    0  501  0.00000000000E+00  0.00000000000E+00  0.38470866372E+03  0.38470866373E+03  0.25500000920E-02 0.  1.
        2   -1    0    0  501    0  0.00000000000E+00  0.00000000000E+00 -0.31851597491E+03  0.31851597492E+03  0.25500000920E-02 0. -1.
    10030    2    1    2    0    0  0.00000000000E+00  0.00000000000E+00  0.66192688809E+02  0.70322463865E+03  0.70010243561E+03 0.  0.
        5    1    3    3  502    0  0.22934736449E+03  0.22361492362E+03 -0.10863542841E+03  0.33827147969E+03  0.46999998093E+01 0. -1.
       -5    1    3    3    0  502 -0.22934736449E+03 -0.22361492362E+03  0.17482811722E+03  0.36495315896E+03  0.46999998093E+01 0.  1.
</event>
<event>
 5   0  0.7574241E-04  0.6975902E+03  0.7818609E-02  0.9721362E-01
        1   -1    0    0  501    0  0.00000000000E+00  0.00000000000E+00  0.13112857869E+04  0.13112857869E+04  0.50400001928E-02 0. -1.
       -1   -1    0    0    0  501  0.00000000000E+00  0.00000000000E+00 -0.92777643672E+02  0.92777643809E+02  0.50400001928E-02 0.  1.
    10030    2    1    2    0    0  0.00000000000E+00  0.00000000000E+00  0.12185081432E+04  0.14040634307E+04  0.69759015356E+03 0.  0.
        3    1    3    3  502    0  0.20715503731E+03 -0.91568112292E+02  0.11431412701E+04  0.11653625626E+04  0.10100000352E+00 0. -1.
       -3    1    3    3    0  502 -0.20715503731E+03  0.91568112292E+02  0.75366873107E+02  0.23870086811E+03  0.10100000352E+00 0.  1.
</event>
<event>
 5   0  0.1265562E-03  0.7003183E+03  0.7818609E-02  0.9716688E-01
        2   -1    0    0  501    0  0.00000000000E+00  0.00000000000E+00  0.25169278535E+03  0.25169278537E+03  0.25500000920E-02 0.  1.
       -2   -1    0    0    0  501  0.00000000000E+00  0.00000000000E+00 -0.48714723434E+03  0.48714723435E+03  0.25500000920E-02 0. -1.
    10030    2    1    2    0    0  0.00000000000E+00  0.00000000000E+00 -0.23545444899E+03  0.73884001971E+03  0.70031833989E+03 0.  0.
        1    1    3    3  502    0  0.19076931365E+03  0.17683940685E+02  0.19149174835E+03  0.27087772611E+03  0.50400001928E-02 0.  1.
       -1    1    3    3    0  502 -0.19076931365E+03 -0.17683940685E+02 -0.42694619734E+03  0.46796229360E+03  0.50400001928E-02 0. -1.
</event>
<event>
 5   0  0.7574241E-04  0.6999875E+03  0.7818609E-02  0.9717254E-01
       -1   -1    0    0    0  501  0.00000000000E+00  0.00000000000E+00  0.22146287242E+03  0.22146287248E+03  0.50400001928E-02 0.  1.
        1   -1    0    0  501    0  0.00000000000E+00  0.00000000000E+00 -0.55312037232E+03  0.55312037234E+03  0.50400001928E-02 0. -1.
    10030    2    1    2    0    0  0.00000000000E+00  0.00000000000E+00 -0.33165749989E+03  0.77458324482E+03  0.69998750412E+03 0.  0.
        3    1    3    3  502    0 -0.27412901470E+02 -0.11745061710E+03 -0.52939882687E+03  0.54296338985E+03  0.10100000352E+00 0. -1.
       -3    1    3    3    0  502  0.27412901470E+02  0.11745061710E+03  0.19774132697E+03  0.23161985498E+03  0.10100000352E+00 0.  1.
</event>
<event>
 5   0  0.1282546E-03  0.7004534E+03  0.7818609E-02  0.9716457E-01
       -2   -1    0    0    0  501  0.00000000000E+00  0.00000000000E+00  0.11252110162E+03  0.11252110165E+03  0.25500000920E-02 0. -1.
        2   -1    0    0  501    0  0.00000000000E+00  0.00000000000E+00 -0.10900953696E+04  0.10900953696E+04  0.25500000920E-02 0.  1.
    10030    2    1    2    0    0  0.00000000000E+00  0.00000000000E+00 -0.97757426794E+03  0.12026164712E+04  0.70045337281E+03 0.  0.
        5    1    3    3  502    0 -0.10174002353E+03  0.25754538159E+03 -0.12072684678E+03  0.30212202419E+03  0.46999998093E+01 0. -1.
       -5    1    3    3    0  502  0.10174002353E+03 -0.25754538159E+03 -0.85684742116E+03  0.90049444702E+03  0.46999998093E+01 0.  1.
</event>
<event>
 5   0  0.1224048E-03  0.6997947E+03  0.7818609E-02  0.9717583E-01
        2   -1    0    0  501    0  0.00000000000E+00  0.00000000000E+00  0.67182614794E+03  0.67182614794E+03  0.25500000920E-02 0.  1.
       -2   -1    0    0    0  501  0.00000000000E+00  0.00000000000E+00 -0.18223191078E+03  0.18223191079E+03  0.25500000920E-02 0. -1.
    10030    2    1    2    0    0  0.00000000000E+00  0.00000000000E+00  0.48959423716E+03  0.85405805874E+03  0.69979472035E+03 0.  0.
        3    1    3    3  502    0 -0.54952029834E+02 -0.15009265918E+03  0.62466728699E+03  0.64479202969E+03  0.10100000352E+00 0.  1.
       -3    1    3    3    0  502  0.54952029834E+02  0.15009265918E+03 -0.13507304983E+03  0.20926602905E+03  0.10100000352E+00 0. -1.
</event>
<event>
 5   0  0.4936000E-04  0.6999200E+03  0.7818609E-02  0.9717369E-01
        3   -1    0    0  501    0  0.00000000000E+00  0.00000000000E+00  0.10420850119E+03  0.10420855014E+03  0.10100000352E+00 0.  1.
       -3   -1    0    0    0  501  0.00000000000E+00  0.00000000000E+00 -0.11752590102E+04  0.11752590146E+04  0.10100000352E+00 0. -1.
    10030    2    1    2    0    0  0.00000000000E+00  0.00000000000E+00 -0.10710505090E+04  0.12794675647E+04  0.69992003559E+03 0.  0.
        3    1    3    3  502    0 -0.27900236185E+03  0.52146189676E+02 -0.16129226128E+03  0.32646094218E+03  0.10100000352E+00 0.  1.
       -3    1    3    3    0  502  0.27900236185E+03 -0.52146189676E+02 -0.90975824775E+03  0.95300662252E+03  0.10100000352E+00 0. -1.
</event>
<event>
 5   0  0.1224048E-03  0.7005246E+03  0.7818609E-02  0.9716335E-01
        2   -1    0    0  501    0  0.00000000000E+00  0.00000000000E+00  0.23294553004E+04  0.23294553004E+04  0.25500000920E-02 0.  1.
       -2   -1    0    0    0  501  0.00000000000E+00  0.00000000000E+00 -0.52666250846E+02  0.52666250908E+02  0.25500000920E-02 0. -1.
    10030    2    1    2    0    0  0.00000000000E+00  0.00000000000E+00  0.22767890495E+04  0.23821215513E+04  0.70052459560E+03 0.  0.
        3    1    3    3  502    0  0.24402703806E+03  0.17075337595E+03  0.51158169219E+03  0.59196431369E+03  0.10100000352E+00 0. -1.
       -3    1    3    3    0  502 -0.24402703806E+03 -0.17075337595E+03  0.17652073574E+04  0.17901572376E+04  0.10100000352E+00 0.  1.
</event>
<event>
 5   0  0.7572415E-04  0.6998902E+03  0.7818609E-02  0.9717420E-01
        1   -1    0    0  501    0  0.00000000000E+00  0.00000000000E+00  0.28482099791E+04  0.28482099791E+04  0.50400001928E-02 0.  1.
       -1   -1    0    0    0  501  0.00000000000E+00  0.00000000000E+00 -0.42995974410E+02  0.42995974705E+02  0.50400001928E-02 0. -1.
    10030    2    1    2    0    0  0.00000000000E+00  0.00000000000E+00  0.28052140047E+04  0.28912059538E+04  0.69989017369E+03 0.  0.
        4    1    3    3  502    0  0.16602377830E+03 -0.30169981417E+03  0.16596989487E+04  0.16950483433E+04  0.12699999809E+01 0.  1.
       -4    1    3    3    0  502 -0.16602377830E+03  0.30169981417E+03  0.11455150560E+04  0.11961576105E+04  0.12699999809E+01 0. -1.
</event>
<event>
 5   0  0.7572415E-04  0.7004285E+03  0.7818609E-02  0.9716500E-01
        1   -1    0    0  501    0  0.00000000000E+00  0.00000000000E+00  0.54172991971E+03  0.54172991973E+03  0.50400001928E-02 0. -1.
       -1   -1    0    0    0  501  0.00000000000E+00  0.00000000000E+00 -0.22640436882E+03  0.22640436888E+03  0.50400001928E-02 0.  1.
    10030    2    1    2    0    0  0.00000000000E+00  0.00000000000E+00  0.31532555088E+03  0.76813428861E+03  0.70042849906E+03 0.  0.
        4    1    3    3  502    0  0.35923516595E+02 -0.33661794413E+03  0.59290979772E+02  0.34368469931E+03  0.12699999809E+01 0.  1.
       -4    1    3    3    0  502 -0.35923516595E+02  0.33661794413E+03  0.25603457111E+03  0.42444958930E+03  0.12699999809E+01 0. -1.
</event>
<event>
 5   0  0.7013526E-04  0.7001158E+03  0.7818609E-02  0.9717034E-01
        1   -1    0    0  501    0  0.00000000000E+00  0.00000000000E+00  0.11561296972E+04  0.11561296972E+04  0.50400001928E-02 0.  1.
       -1   -1    0    0    0  501  0.00000000000E+00  0.00000000000E+00 -0.10599203680E+03  0.10599203692E+03  0.50400001928E-02 0. -1.
    10030    2    1    2    0    0  0.00000000000E+00  0.00000000000E+00  0.10501376604E+04  0.12621217341E+04  0.70011582326E+03 0.  0.
        1    1    3    3  502    0 -0.42293841161E+02 -0.39938148117E+02 -0.97218009391E+02  0.11329239185E+03  0.50400001928E-02 0. -1.
       -1    1    3    3    0  502  0.42293841161E+02  0.39938148117E+02  0.11473556698E+04  0.11488293423E+04  0.50400001928E-02 0.  1.
</event>
<event>
 5   0  0.7570633E-04  0.6996976E+03  0.7818609E-02  0.9717750E-01
       -1   -1    0    0    0  501  0.00000000000E+00  0.00000000000E+00  0.11760139358E+03  0.11760139369E+03  0.50400001928E-02 0.  1.
        1   -1    0    0  501    0  0.00000000000E+00  0.00000000000E+00 -0.10407544100E+04  0.10407544100E+04  0.50400001928E-02 0. -1.
    10030    2    1    2    0    0  0.00000000000E+00  0.00000000000E+00 -0.92315301644E+03  0.11583558037E+04  0.69969756056E+03 0.  0.
        5    1    3    3  502    0  0.11473769818E+03  0.21308113913E+03 -0.87974834671E+03  0.91244043903E+03  0.46999998093E+01 0. -1.
       -5    1    3    3    0  502 -0.11473769818E+03 -0.21308113913E+03 -0.43404669724E+02  0.24591536469E+03  0.46999998093E+01 0.  1.
</event>
<event>
 5   0  0.7574241E-04  0.7002160E+03  0.7818609E-02  0.9716863E-01
       -1   -1    0    0    0  501  0.00000000000E+00  0.00000000000E+00  0.38474035427E+03  0.38474035431E+03  0.50400001928E-02 0. -1.
        1   -1    0    0  501    0  0.00000000000E+00  0.00000000000E+00 -0.31859307710E+03  0.31859307714E+03  0.50400001928E-02 0.  1.
    10030    2    1    2    0    0  0.00000000000E+00  0.00000000000E+00  0.66147277174E+02  0.70333343145E+03  0.70021600490E+03 0.  0.
        3    1    3    3  502    0 -0.23267680445E+03 -0.25032996767E+03 -0.43238382992E+02  0.34448970377E+03  0.10100000352E+00 0.  1.
       -3    1    3    3    0  502  0.23267680445E+03  0.25032996767E+03  0.10938566017E+03  0.35884372767E+03  0.10100000352E+00 0. -1.
</event>
<event>
 5   0  0.7459843E-04  0.7002746E+03  0.7818609E-02  0.9716763E-01
       -1   -1    0    0    0  501  0.00000000000E+00  0.00000000000E+00  0.52048504632E+03  0.52048504634E+03  0.50400001928E-02 0. -1.
        1   -1    0    0  501    0  0.00000000000E+00  0.00000000000E+00 -0.23554206395E+03  0.23554206401E+03  0.50400001928E-02 0.  1.
    10030    2    1    2    0    0  0.00000000000E+00  0.00000000000E+00  0.28494298237E+03  0.75602711035E+03  0.70027458070E+03 0.  0.
        2    1    3    3  502    0  0.17054221452E+03  0.27093907092E+03 -0.10603692821E+02  0.32032025442E+03  0.25500000920E-02 0.  1.
       -2    1    3    3    0  502 -0.17054221452E+03 -0.27093907092E+03  0.29554667519E+03  0.43570685593E+03  0.25500000920E-02 0. -1.
</event>
<event>
 5   0  0.7459843E-04  0.7046466E+03  0.7818609E-02  0.9709319E-01
        1   -1    0    0  501    0  0.00000000000E+00  0.00000000000E+00  0.23371155382E+03  0.23371155388E+03  0.50400001928E-02 0. -1.
       -1   -1    0    0    0  501  0.00000000000E+00  0.00000000000E+00 -0.53113204101E+03  0.53113204103E+03  0.50400001928E-02 0.  1.
    10030    2    1    2    0    0  0.00000000000E+00  0.00000000000E+00 -0.29742048718E+03  0.76484359491E+03  0.70464656281E+03 0.  0.
        2    1    3    3  502    0  0.51157721335E+02 -0.85026387419E+02  0.21823063309E+03  0.23973153367E+03  0.25500000920E-02 0. -1.
       -2    1    3    3    0  502 -0.51157721335E+02  0.85026387419E+02 -0.51565112028E+03  0.52511206124E+03  0.25500000920E-02 0.  1.
</event>
<event>
 5   0  0.1222679E-03  0.6997293E+03  0.7818609E-02  0.9717695E-01
        2   -1    0    0  501    0  0.00000000000E+00  0.00000000000E+00  0.26409983389E+03  0.26409983391E+03  0.25500000920E-02 0.  1.
       -2   -1    0    0    0  501  0.00000000000E+00  0.00000000000E+00 -0.46348102714E+03  0.46348102715E+03  0.25500000920E-02 0. -1.
    10030    2    1    2    0    0  0.00000000000E+00  0.00000000000E+00 -0.19938119324E+03  0.72758086105E+03  0.69972926847E+03 0.  0.
        2    1    3    3  502    0 -0.49187437974E+02  0.17444943497E+03 -0.41085643327E+03  0.44906014985E+03  0.25500000920E-02 0. -1.
       -2    1    3    3    0  502  0.49187437974E+02 -0.17444943497E+03  0.21147524003E+03  0.27852071120E+03  0.25500000920E-02 0.  1.
</event>
<event>
 5   0  0.7574241E-04  0.6974005E+03  0.7818609E-02  0.9721688E-01
       -1   -1    0    0    0  501  0.00000000000E+00  0.00000000000E+00  0.32199656522E+03  0.32199656526E+03  0.50400001928E-02 0. -1.
        1   -1    0    0  501    0  0.00000000000E+00  0.00000000000E+00 -0.37761846381E+03  0.37761846384E+03  0.50400001928E-02 0.  1.
    10030    2    1    2    0    0  0.00000000000E+00  0.00000000000E+00 -0.55621898585E+02  0.69961502911E+03  0.69740045408E+03 0.  0.
        3    1    3    3  502    0  0.10886073019E+03  0.31656136013E+03 -0.12574309900E+03  0.35759347093E+03  0.10100000352E+00 0. -1.
       -3    1    3    3    0  502 -0.10886073019E+03 -0.31656136013E+03  0.70121200412E+02  0.34202155817E+03  0.10100000352E+00 0.  1.
</event>
<event>
 5   0  0.7013526E-04  0.6993057E+03  0.7818609E-02  0.9718420E-01
       -1   -1    0    0    0  501  0.00000000000E+00  0.00000000000E+00  0.17694706325E+03  0.17694706332E+03  0.50400001928E-02 0.  1.
        1   -1    0    0  501    0  0.00000000000E+00  0.00000000000E+00 -0.69092485022E+03  0.69092485024E+03  0.50400001928E-02 0. -1.
    10030    2    1    2    0    0  0.00000000000E+00  0.00000000000E+00 -0.51397778697E+03  0.86787191356E+03  0.69930572202E+03 0.  0.
        1    1    3    3  502    0  0.22231127778E+02 -0.26481099328E+03 -0.53900467907E+03  0.60095351675E+03  0.50400001928E-02 0. -1.
       -1    1    3    3    0  502 -0.22231127778E+02  0.26481099328E+03  0.25026892103E+02  0.26691839682E+03  0.50400001928E-02 0.  1.
</event>
<event>
 5   0  0.1222679E-03  0.7002860E+03  0.7818609E-02  0.9716743E-01
        2   -1    0    0  501    0  0.00000000000E+00  0.00000000000E+00  0.83384280218E+03  0.83384280219E+03  0.25500000920E-02 0. -1.
       -2   -1    0    0    0  501  0.00000000000E+00  0.00000000000E+00 -0.14703026347E+03  0.14703026349E+03  0.25500000920E-02 0.  1.
    10030    2    1    2    0    0  0.00000000000E+00  0.00000000000E+00  0.68681253872E+03  0.98087306567E+03  0.70028601844E+03 0.  0.
        2    1    3    3  502    0  0.25339722892E+03  0.23461851787E+03  0.26240749774E+03  0.43372076204E+03  0.25500000920E-02 0.  1.
       -2    1    3    3    0  502 -0.25339722892E+03 -0.23461851787E+03  0.42440504098E+03  0.54715230363E+03  0.25500000920E-02 0. -1.
</event>
<event>
 5   0  0.7459843E-04  0.7002269E+03  0.7818609E-02  0.9716844E-01
       -1   -1    0    0    0  501  0.00000000000E+00  0.00000000000E+00  0.22749419569E+03  0.22749419574E+03  0.50400001928E-02 0.  1.
        1   -1    0    0  501    0  0.00000000000E+00  0.00000000000E+00 -0.53882446309E+03  0.53882446312E+03  0.50400001928E-02 0. -1.
    10030    2    1    2    0    0  0.00000000000E+00  0.00000000000E+00 -0.31133026741E+03  0.76631865886E+03  0.70022692858E+03 0.  0.
        2    1    3    3  502    0 -0.22055194657E+03 -0.20165797402E+03 -0.35528290383E+03  0.46425751624E+03  0.25500000920E-02 0. -1.
       -2    1    3    3    0  502  0.22055194657E+03  0.20165797402E+03  0.43952636429E+02  0.30206114262E+03  0.25500000920E-02 0.  1.
</event>
<event>
 5   0  0.7574241E-04  0.6990664E+03  0.7818609E-02  0.9718830E-01
        1   -1    0    0  501    0  0.00000000000E+00  0.00000000000E+00  0.11652141115E+04  0.11652141115E+04  0.50400001928E-02 0. -1.
       -1   -1    0    0    0  501  0.00000000000E+00  0.00000000000E+00 -0.10485064194E+03  0.10485064206E+03  0.50400001928E-02 0.  1.
    10030    2    1    2    0    0  0.00000000000E+00  0.00000000000E+00  0.10603634695E+04  0.12700647535E+04  0.69906637073E+03 0.  0.
        3    1    3    3  502    0  0.19989156555E+03 -0.14271823193E+03  0.98200787887E+03  0.10122571887E+04  0.10100000352E+00 0. -1.
       -3    1    3    3    0  502 -0.19989156555E+03  0.14271823193E+03  0.78355590649E+02  0.25780756484E+03  0.10100000352E+00 0.  1.
</event>
<event>
 5   0  0.1265562E-03  0.6955243E+03  0.7818609E-02  0.9724917E-01
        2   -1    0    0  501    0  0.00000000000E+00  0.00000000000E+00  0.36490372361E+03  0.36490372362E+03  0.25500000920E-02 0. -1.
       -2   -1    0    0    0  501  0.00000000000E+00  0.00000000000E+00 -0.33142582682E+03  0.33142582683E+03  0.25500000920E-02 0.  1.
    10030    2    1    2    0    0  0.00000000000E+00  0.00000000000E+00  0.33477896797E+02  0.69632955045E+03  0.69552431536E+03 0.  0.
        1    1    3    3  502    0 -0.99691141839E+02 -0.14435944539E+03  0.31735403538E+03  0.36261764578E+03  0.50400001928E-02 0. -1.
       -1    1    3    3    0  502  0.99691141839E+02  0.14435944539E+03 -0.28387613858E+03  0.33371190467E+03  0.50400001928E-02 0.  1.
</event>
<event>
 5   0  0.1222679E-03  0.7001034E+03  0.7818609E-02  0.9717055E-01
        2   -1    0    0  501    0  0.00000000000E+00  0.00000000000E+00  0.12784658667E+04  0.12784658667E+04  0.25500000920E-02 0. -1.
       -2   -1    0    0    0  501  0.00000000000E+00  0.00000000000E+00 -0.95846280338E+02  0.95846280372E+02  0.25500000920E-02 0.  1.
    10030    2    1    2    0    0  0.00000000000E+00  0.00000000000E+00  0.11826195864E+04  0.13743121471E+04  0.70010341490E+03 0.  0.
        2    1    3    3  502    0 -0.28085142196E+03 -0.43443728700E+02  0.99251104936E+03  0.10323967560E+04  0.25500000920E-02 0. -1.
       -2    1    3    3    0  502  0.28085142196E+03  0.43443728700E+02  0.19010853701E+03  0.34191539104E+03  0.25500000920E-02 0.  1.
</event>
<event>
 5   0  0.1243087E-03  0.7002351E+03  0.7818609E-02  0.9716830E-01
       -2   -1    0    0    0  501  0.00000000000E+00  0.00000000000E+00  0.11160313815E+03  0.11160313818E+03  0.25500000920E-02 0. -1.
        2   -1    0    0  501    0  0.00000000000E+00  0.00000000000E+00 -0.10983768826E+04  0.10983768826E+04  0.25500000920E-02 0.  1.
    10030    2    1    2    0    0  0.00000000000E+00  0.00000000000E+00 -0.98677374443E+03  0.12099800208E+04  0.70023512333E+03 0.  0.
        4    1    3    3  502    0  0.15222870036E+03 -0.44817352683E+02  0.45888380710E+02  0.16519542578E+03  0.12699999809E+01 0. -1.
       -4    1    3    3    0  502 -0.15222870036E+03  0.44817352683E+02 -0.10326621251E+04  0.10447845950E+04  0.12699999809E+01 0.  1.
</event>
<event>
 5   0  0.1282546E-03  0.6999943E+03  0.7818609E-02  0.9717242E-01
       -2   -1    0    0    0  501  0.00000000000E+00  0.00000000000E+00  0.39441941955E+03  0.39441941956E+03  0.25500000920E-02 0.  1.
        2   -1    0    0  501    0  0.00000000000E+00  0.00000000000E+00 -0.31057806219E+03  0.31057806220E+03  0.25500000920E-02 0. -1.
    10030    2    1    2    0    0  0.00000000000E+00  0.00000000000E+00  0.83841357363E+02  0.70499748176E+03  0.69999434004E+03 0.  0.
        5    1    3    3  502    0 -0.15722685306E+03 -0.64609867297E+02  0.35001760604E+03  0.38913896337E+03  0.46999998093E+01 0.  1.
       -5    1    3    3    0  502  0.15722685306E+03  0.64609867297E+02 -0.26617624868E+03  0.31585851839E+03  0.46999998093E+01 0. -1.
</event>
<event>
 5   0  0.1243087E-03  0.7000957E+03  0.7818609E-02  0.9717068E-01
        2   -1    0    0  501    0  0.00000000000E+00  0.00000000000E+00  0.12826202798E+04  0.12826202798E+04  0.25500000920E-02 0. -1.
       -2   -1    0    0    0  501  0.00000000000E+00  0.00000000000E+00 -0.95533736502E+02  0.95533736536E+02  0.25500000920E-02 0.  1.
    10030    2    1    2    0    0  0.00000000000E+00  0.00000000000E+00  0.11870865433E+04  0.13781540163E+04  0.70009573022E+03 0.  0.
        4    1    3    3  502    0  0.32429751354E+03 -0.68245955101E+02  0.37165398651E+03  0.49795048576E+03  0.12699999809E+01 0.  1.
       -4    1    3    3    0  502 -0.32429751354E+03  0.68245955101E+02  0.81543255679E+03  0.88020353058E+03  0.12699999809E+01 0. -1.
</event>
<event>
 5   0  0.1265562E-03  0.6997751E+03  0.7818609E-02  0.9717617E-01
        2   -1    0    0  501    0  0.00000000000E+00  0.00000000000E+00  0.60044338126E+03  0.60044338126E+03  0.25500000920E-02 0.  1.
       -2   -1    0    0    0  501  0.00000000000E+00  0.00000000000E+00 -0.20388481797E+03  0.20388481798E+03  0.25500000920E-02 0. -1.
    10030    2    1    2    0    0  0.00000000000E+00  0.00000000000E+00  0.39655856329E+03  0.80432819924E+03  0.69977507671E+03 0.  0.
        1    1    3    3  502    0  0.16596520744E+03 -0.13363829341E+02 -0.15542946179E+03  0.22777480026E+03  0.50400001928E-02 0. -1.
       -1    1    3    3    0  502 -0.16596520744E+03  0.13363829341E+02  0.55198802508E+03  0.57655339898E+03  0.50400001928E-02 0.  1.
</event>
<event>
 5   0  0.7459843E-04  0.6995996E+03  0.7818609E-02  0.9717917E-01
        1   -1    0    0  501    0  0.00000000000E+00  0.00000000000E+00  0.10363322946E+04  0.10363322946E+04  0.50400001928E-02 0. -1.
       -1   -1    0    0    0  501  0.00000000000E+00  0.00000000000E+00 -0.11807013636E+03  0.11807013646E+03  0.50400001928E-02 0.  1.
    10030    2    1    2    0    0  0.00000000000E+00  0.00000000000E+00  0.91826215821E+03  0.11544024310E+04  0.69959958661E+03 0.  0.
        2    1    3    3  502    0  0.24928580661E+03  0.45227494847E+01  0.54283448632E+02  0.25516771238E+03  0.25500000920E-02 0.  1.
       -2    1    3    3    0  502 -0.24928580661E+03 -0.45227494847E+01  0.86397870958E+03  0.89923471866E+03  0.25500000920E-02 0. -1.
</event>
<event>
 5   0  0.1222679E-03  0.6995276E+03  0.7818609E-02  0.9718040E-01
        2   -1    0    0  501    0  0.00000000000E+00  0.00000000000E+00  0.17618885797E+03  0.17618885799E+03  0.25500000920E-02 0. -1.
       -2   -1    0    0    0  501  0.00000000000E+00  0.00000000000E+00 -0.69433849735E+03  0.69433849736E+03  0.25500000920E-02 0.  1.
    10030    2    1    2    0    0  0.00000000000E+00  0.00000000000E+00 -0.51814963938E+03  0.87052735535E+03  0.69952757459E+03 0.  0.
        2    1    3    3  502    0 -0.33689231479E+03  0.75365021856E+02 -0.32901236204E+03  0.47689144747E+03  0.25500000920E-02 0.  1.
       -2    1    3    3    0  502  0.33689231479E+03 -0.75365021856E+02 -0.18913727734E+03  0.39363590788E+03  0.25500000920E-02 0. -1.
</event>
<event>
 5   0  0.1224048E-03  0.7003906E+03  0.7818609E-02  0.9716564E-01
       -2   -1    0    0    0  501  0.00000000000E+00  0.00000000000E+00  0.73305119359E+02  0.73305119403E+02  0.25500000920E-02 0.  1.
        2   -1    0    0  501    0  0.00000000000E+00  0.00000000000E+00 -0.16729628117E+04  0.16729628117E+04  0.25500000920E-02 0. -1.
    10030    2    1    2    0    0  0.00000000000E+00  0.00000000000E+00 -0.15996576924E+04  0.17462679311E+04  0.70039057286E+03 0.  0.
        3    1    3    3  502    0 -0.29452875246E+03  0.39906722518E+01 -0.32759384842E+03  0.44054608296E+03  0.10100000352E+00 0.  1.
       -3    1    3    3    0  502  0.29452875246E+03 -0.39906722518E+01 -0.12720638439E+04  0.13057218482E+04  0.10100000352E+00 0. -1.
</event>
<event>
 5   0  0.4936000E-04  0.7000444E+03  0.7818609E-02  0.9717156E-01
       -4   -1    0    0    0  501  0.00000000000E+00  0.00000000000E+00  0.37577889061E+03  0.37578103668E+03  0.12699999809E+01 0.  1.
        4   -1    0    0  501    0  0.00000000000E+00  0.00000000000E+00 -0.32602657535E+03  0.32602904891E+03  0.12699999809E+01 0. -1.
    10030    2    1    2    0    0  0.00000000000E+00  0.00000000000E+00  0.49752315262E+02  0.70181008559E+03  0.70004435814E+03 0.  0.
        2    1    3    3  502    0  0.24707863371E+03 -0.16676963572E+03  0.20879341269E+03  0.36394319862E+03  0.25500000920E-02 0.  1.
       -2    1    3    3    0  502 -0.24707863371E+03  0.16676963572E+03 -0.15904109742E+03  0.33786688697E+03  0.25500000920E-02 0. -1.
</event>
<event>
 5   0  0.1265562E-03  0.7003743E+03  0.7818609E-02  0.9716592E-01
       -2   -1    0    0    0  501  0.00000000000E+00  0.00000000000E+00  0.31746977757E+03  0.31746977758E+03  0.25500000920E-02 0.  1.
        2   -1    0    0  501    0  0.00000000000E+00  0.00000000000E+00 -0.38627626593E+03  0.38627626593E+03  0.25500000920E-02 0. -1.
    10030    2    1    2    0    0  0.00000000000E+00  0.00000000000E+00 -0.68806488357E+02  0.70374604351E+03  0.70037430058E+03 0.  0.
        1    1    3    3  502    0 -0.23573652313E+03  0.21077622386E+03 -0.18556923495E+03  0.36665278653E+03  0.50400001928E-02 0.  1.
       -1    1    3    3    0  502  0.23573652313E+03 -0.21077622386E+03  0.11676274659E+03  0.33709325698E+03  0.50400001928E-02 0. -1.
</event>
<event>
 5   0  0.7013526E-04  0.7000107E+03  0.7818609E-02  0.9717214E-01
        1   -1    0    0  501    0  0.00000000000E+00  0.00000000000E+00  0.79508935196E+03  0.79508935198E+03  0.50400001928E-02 0.  1.
       -1   -1    0    0    0  501  0.00000000000E+00  0.00000000000E+00 -0.15407545295E+03  0.15407545304E+03  0.50400001928E-02 0. -1.
    10030    2    1    2    0    0  0.00000000000E+00  0.00000000000E+00  0.64101389901E+03  0.94916480501E+03  0.70001072017E+03 0.  0.
        1    1    3    3  502    0 -0.10517091123E+03  0.25339440806E+03  0.61519653148E+03  0.67359959840E+03  0.50400001928E-02 0.  1.
       -1    1    3    3    0  502  0.10517091123E+03 -0.25339440806E+03  0.25817367533E+02  0.27556520661E+03  0.50400001928E-02 0. -1.
</event>
<event>
 5   0  0.1222679E-03  0.7012247E+03  0.7818609E-02  0.9715140E-01
        2   -1    0    0  501    0  0.00000000000E+00  0.00000000000E+00  0.22301343299E+03  0.22301343301E+03  0.25500000920E-02 0.  1.
       -2   -1    0    0    0  501  0.00000000000E+00  0.00000000000E+00 -0.55121799171E+03  0.55121799172E+03  0.25500000920E-02 0. -1.
    10030    2    1    2    0    0  0.00000000000E+00  0.00000000000E+00 -0.32820455872E+03  0.77423142472E+03  0.70122469057E+03 0.  0.
        2    1    3    3  502    0 -0.33914140695E+03  0.11037084019E+02 -0.66650260528E+02  0.34580481253E+03  0.25500000920E-02 0. -1.
       -2    1    3    3    0  502  0.33914140695E+03 -0.11037084019E+02 -0.26155429819E+03  0.42842661220E+03  0.25500000920E-02 0.  1.
</event>
<event>
 5   0  0.7574241E-04  0.7001417E+03  0.7818609E-02  0.9716990E-01
        1   -1    0    0  501    0  0.00000000000E+00  0.00000000000E+00  0.47626723676E+03  0.47626723679E+03  0.50400001928E-02 0. -1.
       -1   -1    0    0    0  501  0.00000000000E+00  0.00000000000E+00 -0.25731267413E+03  0.25731267418E+03  0.50400001928E-02 0.  1.
    10030    2    1    2    0    0  0.00000000000E+00  0.00000000000E+00  0.21895456263E+03  0.73357991096E+03  0.70014168943E+03 0.  0.
        3    1    3    3  502    0  0.68931360660E+02 -0.17730849971E+03  0.41738259134E+03  0.45869169854E+03  0.10100000352E+00 0. -1.
       -3    1    3    3    0  502 -0.68931360660E+02  0.17730849971E+03 -0.19842802871E+03  0.27488821243E+03  0.10100000352E+00 0.  1.
</event>
<event>
 5   0  0.1282546E-03  0.7000572E+03  0.7818609E-02  0.9717134E-01
       -2   -1    0    0    0  501  0.00000000000E+00  0.00000000000E+00  0.38753851364E+03  0.38753851364E+03  0.25500000920E-02 0.  1.
        2   -1    0    0  501    0  0.00000000000E+00  0.00000000000E+00 -0.31614924108E+03  0.31614924109E+03  0.25500000920E-02 0. -1.
    10030    2    1    2    0    0  0.00000000000E+00  0.00000000000E+00  0.71389272560E+02  0.70368775473E+03  0.70005716047E+03 0.  0.
        5    1    3    3  502    0  0.93498969819E+02  0.29381455577E+03  0.20217017215E+03  0.36873285593E+03  0.46999998093E+01 0.  1.
       -5    1    3    3    0  502 -0.93498969819E+02 -0.29381455577E+03 -0.13078089959E+03  0.33495489880E+03  0.46999998093E+01 0. -1.
</event>
<event>
 5   0  0.7459843E-04  0.7000031E+03  0.7818609E-02  0.9717227E-01
       -1   -1    0    0    0  501  0.00000000000E+00  0.00000000000E+00  0.73730312585E+02  0.73730312757E+02  0.50400001928E-02 0.  1.
        1   -1    0    0  501    0  0.00000000000E+00  0.00000000000E+00 -0.16614751275E+04  0.16614751275E+04  0.50400001928E-02 0. -1.
    10030    2    1    2    0    0  0.00000000000E+00  0.00000000000E+00 -0.15877448149E+04  0.17352054402E+04  0.70000308758E+03 0.  0.
        2    1    3    3  502    0 -0.29318678845E+03 -0.14097182573E+03 -0.47382622626E+03  0.57475459221E+03  0.25500000920E-02 0.  1.
       -2    1    3    3    0  502  0.29318678845E+03  0.14097182573E+03 -0.11139185886E+04  0.11604508480E+04  0.25500000920E-02 0. -1.
</event>
<event>
 5   0  0.1243087E-03  0.7001707E+03  0.7818609E-02  0.9716940E-01
        2   -1    0    0  501    0  0.00000000000E+00  0.00000000000E+00  0.65236704220E+03  0.65236704221E+03  0.25500000920E-02 0.  1.
       -2   -1    0    0    0  501  0.00000000000E+00  0.00000000000E+00 -0.18786932359E+03  0.18786932361E+03  0.25500000920E-02 0. -1.
    10030    2    1    2    0    0  0.00000000000E+00  0.00000000000E+00  0.46449771861E+03  0.84023636582E+03  0.70017070765E+03 0.  0.
        4    1    3    3  502    0 -0.23310487576E+03 -0.74421250788E+02 -0.68198260973E+02  0.25402563132E+03  0.12699999809E+01 0. -1.
       -4    1    3    3    0  502  0.23310487576E+03  0.74421250788E+02  0.53269597958E+03  0.58621073449E+03  0.12699999809E+01 0.  1.
</event>
<event>
 5   0  0.7013526E-04  0.6997506E+03  0.7818609E-02  0.9717659E-01
        1   -1    0    0  501    0  0.00000000000E+00  0.00000000000E+00  0.32485038838E+03  0.32485038841E+03  0.50400001928E-02 0. -1.
       -1   -1    0    0    0  501  0.00000000000E+00  0.00000000000E+00 -0.37682799461E+03  0.37682799464E+03  0.50400001928E-02 0.  1.
    10030    2    1    2    0    0  0.00000000000E+00  0.00000000000E+00 -0.51977606231E+02  0.70167838305E+03  0.69975058535E+03 0.  0.
        1    1    3    3  502    0  0.46321849881E+02 -0.31424173433E+03  0.12110936777E+03  0.33994273100E+03  0.50400001928E-02 0. -1.
       -1    1    3    3    0  502 -0.46321849881E+02  0.31424173433E+03 -0.17308697400E+03  0.36173565205E+03  0.50400001928E-02 0.  1.
</event>
<event>
 5   0  0.1265562E-03  0.6999312E+03  0.7818609E-02  0.9717350E-01
        2   -1    0    0  501    0  0.00000000000E+00  0.00000000000E+00  0.12152290000E+04  0.12152290000E+04  0.25500000920E-02 0.  1.
       -2   -1    0    0    0  501  0.00000000000E+00  0.00000000000E+00 -0.10078423471E+03  0.10078423474E+03  0.25500000920E-02 0. -1.
    10030    2    1    2    0    0  0.00000000000E+00  0.00000000000E+00  0.11144447653E+04  0.13160132348E+04  0.69993121029E+03 0.  0.
        1    1    3    3  502    0  0.84727431380E+02 -0.30342334075E+03  0.84380060316E+03  0.90069080114E+03  0.50400001928E-02 0.  1.
       -1    1    3    3    0  502 -0.84727431380E+02  0.30342334075E+03  0.27064416217E+03  0.41532243364E+03  0.50400001928E-02 0. -1.
</event>
<event>
 5   0  0.7572415E-04  0.7000676E+03  0.7818609E-02  0.9717117E-01
       -1   -1    0    0    0  501  0.00000000000E+00  0.00000000000E+00  0.57554746508E+03  0.57554746510E+03  0.50400001928E-02 0.  1.
        1   -1    0    0  501    0  0.00000000000E+00  0.00000000000E+00 -0.21288192315E+03  0.21288192321E+03  0.50400001928E-02 0. -1.
    10030    2    1    2    0    0  0.00000000000E+00  0.00000000000E+00  0.36266554192E+03  0.78842938831E+03  0.70006757178E+03 0.  0.
        4    1    3    3  502    0 -0.96434169377E+02  0.42718393649E+02  0.55722280825E+03  0.56711840132E+03  0.12699999809E+01 0.  1.
       -4    1    3    3    0  502  0.96434169377E+02 -0.42718393649E+02 -0.19455726633E+03  0.22131098699E+03  0.12699999809E+01 0. -1.
</event>
<event>
 5   0  0.4936000E-04  0.7002799E+03  0.7818609E-02  0.9716754E-01
        3   -1    0    0  501    0  0.00000000000E+00  0.00000000000E+00  0.69984445901E+03  0.69984446630E+03  0.10100000352E+00 0.  1.
       -3   -1    0    0    0  501  0.00000000000E+00  0.00000000000E+00 -0.17517885883E+03  0.17517888794E+03  0.10100000352E+00 0. -1.
    10030    2    1    2    0    0  0.00000000000E+00  0.00000000000E+00  0.52466560019E+03  0.87502335425E+03  0.70027985724E+03 0.  0.
        2    1    3    3  502    0  0.29436699589E+03 -0.15149691658E+03  0.11989293076E+03  0.35210447151E+03  0.25500000920E-02 0. -1.
       -2    1    3    3    0  502 -0.29436699589E+03  0.15149691658E+03  0.40477266942E+03  0.52291888274E+03  0.25500000920E-02 0.  1.
</event>
<event>
 5   0  0.1224048E-03  0.6996315E+03  0.7818609E-02  0.9717863E-01
       -2   -1    0    0    0  501  0.00000000000E+00  0.00000000000E+00  0.55162867116E+02  0.55162867175E+02  0.25500000920E-02 0.  1.
        2   -1    0    0  501    0  0.00000000000E+00  0.00000000000E+00 -0.22183591872E+04  0.22183591872E+04  0.25500000920E-02 0. -1.
    10030    2    1    2    0    0  0.00000000000E+00  0.00000000000E+00 -0.21631963201E+04  0.22735220543E+04  0.69963148336E+03 0.  0.
        3    1    3    3  502    0  0.43326121841E+02 -0.49330077886E+02  0.34961707008E+02  0.74383738652E+02  0.10100000352E+00 0.  1.
       -3    1    3    3    0  502 -0.43326121841E+02  0.49330077886E+02 -0.21981580271E+04  0.21991383157E+04  0.10100000352E+00 0. -1.
</event>
<event>
 5   0  0.7574241E-04  0.7001548E+03  0.7818609E-02  0.9716967E-01
       -1   -1    0    0    0  501  0.00000000000E+00  0.00000000000E+00  0.12774325539E+03  0.12774325549E+03  0.50400001928E-02 0. -1.
        1   -1    0    0  501    0  0.00000000000E+00  0.00000000000E+00 -0.95937893195E+03  0.95937893197E+03  0.50400001928E-02 0.  1.
    10030    2    1    2    0    0  0.00000000000E+00  0.00000000000E+00 -0.83163567656E+03  0.10871221875E+04  0.70015480569E+03 0.  0.
        3    1    3    3  502    0 -0.16446703991E+03  0.29711460292E+03 -0.54782085080E+03  0.64454184446E+03  0.10100000352E+00 0.  1.
       -3    1    3    3    0  502  0.16446703991E+03 -0.29711460292E+03 -0.28381482576E+03  0.44258034299E+03  0.10100000352E+00 0. -1.
</event>
<event>
 5   0  0.1265562E-03  0.7001455E+03  0.7818609E-02  0.9716983E-01
        2   -1    0    0  501    0  0.00000000000E+00  0.00000000000E+00  0.59163373817E+03  0.59163373817E+03  0.25500000920E-02 0. -1.
       -2   -1    0    0    0  501  0.00000000000E+00  0.00000000000E+00 -0.20713987819E+03  0.20713987820E+03  0.25500000920E-02 0.  1.
    10030    2    1    2    0    0  0.00000000000E+00  0.00000000000E+00  0.38449385998E+03  0.79877361637E+03  0.70014552905E+03 0.  0.
        1    1    3    3  502    0 -0.59419040395E+02 -0.33565951242E+03  0.28318069111E+03  0.44315824993E+03  0.50400001928E-02 0.  1.
       -1    1    3    3    0  502  0.59419040395E+02  0.33565951242E+03  0.10131316887E+03  0.35561536645E+03  0.50400001928E-02 0. -1.
</event>
<event>
 5   0  0.7572415E-04  0.7001208E+03  0.7818609E-02  0.9717026E-01
       -1   -1    0    0    0  501  0.00000000000E+00  0.00000000000E+00  0.42498478217E+03  0.42498478220E+03  0.50400001928E-02 0. -1.
        1   -1    0    0  501    0  0.00000000000E+00  0.00000000000E+00 -0.28834511869E+03  0.28834511874E+03  0.50400001928E-02 0.  1.
    10030    2    1    2    0    0  0.00000000000E+00  0.00000000000E+00  0.13663966347E+03  0.71332990093E+03  0.70012081096E+03 0.  0.
        4    1    3    3  502    0  0.20787072435E+03  0.23999439083E+02 -0.21760707787E+03  0.30189512145E+03  0.12699999809E+01 0.  1.
       -4    1    3    3    0  502 -0.20787072435E+03 -0.23999439083E+02  0.35424674134E+03  0.41143477948E+03  0.12699999809E+01 0. -1.
</event>
<event>
 5   0  0.1224048E-03  0.6994140E+03  0.7818609E-02  0.9718235E-01
        2   -1    0    0  501    0  0.00000000000E+00  0.00000000000E+00  0.91593923352E+03  0.91593923353E+03  0.25500000920E-02 0. -1.
       -2   -1    0    0    0  501  0.00000000000E+00  0.00000000000E+00 -0.13351866693E+03  0.13351866696E+03  0.25500000920E-02 0.  1.
    10030    2    1    2    0    0  0.00000000000E+00  0.00000000000E+00  0.78242056659E+03  0.10494579005E+04  0.69941399890E+03 0.  0.
        3    1    3    3  502    0 -0.21626823918E+03  0.83995936847E+02  0.78383134327E+03  0.81744654478E+03  0.10100000352E+00 0. -1.
       -3    1    3    3    0  502  0.21626823918E+03 -0.83995936847E+02 -0.14107766745E+01  0.23201135570E+03  0.10100000352E+00 0.  1.
</event>
<event>
 5   0  0.7572415E-04  0.6999536E+03  0.7818609E-02  0.9717312E-01
       -1   -1    0    0    0  501  0.00000000000E+00  0.00000000000E+00  0.32168167750E+03  0.32168167754E+03  0.50400001928E-02 0. -1.
        1   -1    0    0  501    0  0.00000000000E+00  0.00000000000E+00 -0.38076074138E+03  0.38076074142E+03  0.50400001928E-02 0.  1.
    10030    2    1    2    0    0  0.00000000000E+00  0.00000000000E+00 -0.59079063879E+02  0.70244241896E+03  0.69995358143E+03 0.  0.
        4    1    3    3  502    0  0.14984158827E+03  0.31446088639E+03  0.44036614281E+01  0.34836641023E+03  0.12699999809E+01 0.  1.
       -4    1    3    3    0  502 -0.14984158827E+03 -0.31446088639E+03 -0.63482725307E+02  0.35407600873E+03  0.12699999809E+01 0. -1.
</event>
<event>
 5   0  0.7570633E-04  0.7008851E+03  0.7818609E-02  0.9715720E-01
       -1   -1    0    0    0  501  0.00000000000E+00  0.00000000000E+00  0.11893926910E+03  0.11893926921E+03  0.50400001928E-02 0. -1.
        1   -1    0    0  501    0  0.00000000000E+00  0.00000000000E+00 -0.10325435090E+04  0.10325435090E+04  0.50400001928E-02 0.  1.
    10030    2    1    2    0    0  0.00000000000E+00  0.00000000000E+00 -0.91360423994E+03  0.11514827783E+04  0.70088507002E+03 0.  0.
        5    1    3    3  502    0  0.17050275731E+03  0.45745700322E+02 -0.95409851581E+03  0.97030403854E+03  0.46999998093E+01 0.  1.
       -5    1    3    3    0  502 -0.17050275731E+03 -0.45745700322E+02  0.40494275871E+02  0.18117873971E+03  0.46999998093E+01 0. -1.
</event>
<event>
 5   0  0.7572415E-04  0.7002740E+03  0.7818609E-02  0.9716764E-01
        1   -1    0    0  501    0  0.00000000000E+00  0.00000000000E+00  0.14646026618E+04  0.14646026618E+04  0.50400001928E-02 0.  1.
       -1   -1    0    0    0  501  0.00000000000E+00  0.00000000000E+00 -0.83705927758E+02  0.83705927909E+02  0.50400001928E-02 0. -1.
    10030    2    1    2    0    0  0.00000000000E+00  0.00000000000E+00  0.13808967340E+04  0.15483085897E+04  0.70027401701E+03 0.  0.
        4    1    3    3  502    0 -0.79564564263E+02 -0.29908428225E+03  0.32840780839E+03  0.45125960298E+03  0.12699999809E+01 0. -1.
       -4    1    3    3    0  502  0.79564564263E+02  0.29908428225E+03  0.10524889256E+04  0.10970489867E+04  0.12699999809E+01 0.  1.
</event>
<event>
 5   0  0.7574241E-04  0.7005635E+03  0.7818609E-02  0.9716269E-01
        1   -1    0    0  501    0  0.00000000000E+00  0.00000000000E+00  0.52520817858E+03  0.52520817861E+03  0.50400001928E-02 0.  1.
       -1   -1    0    0    0  501  0.00000000000E+00  0.00000000000E+00 -0.23361652735E+03  0.23361652740E+03  0.50400001928E-02 0. -1.
    10030    2    1    2    0    0  0.00000000000E+00  0.00000000000E+00  0.29159165124E+03  0.75882470601E+03  0.70056351845E+03 0.  0.
        3    1    3    3  502    0  0.28061173402E+03 -0.20651542566E+03  0.18493587389E+03  0.39445260040E+03  0.10100000352E+00 0. -1.
       -3    1    3    3    0  502 -0.28061173402E+03  0.20651542566E+03  0.10665577734E+03  0.36437210561E+03  0.10100000352E+00 0.  1.
</event>
<event>
 5   0  0.1222679E-03  0.7000516E+03  0.7818609E-02  0.9717144E-01
       -2   -1    0    0    0  501  0.00000000000E+00  0.00000000000E+00  0.90262935836E+02  0.90262935872E+02  0.25500000920E-02 0. -1.
        2   -1    0    0  501    0  0.00000000000E+00  0.00000000000E+00 -0.13573461486E+04  0.13573461486E+04  0.25500000920E-02 0.  1.
    10030    2    1    2    0    0  0.00000000000E+00  0.00000000000E+00 -0.12670832128E+04  0.14476090845E+04  0.70005156481E+03 0.  0.
        2    1    3    3  502    0 -0.23377146273E+03  0.18244317037E+03 -0.10180938694E+04  0.10604007422E+04  0.25500000920E-02 0.  1.
       -2    1    3    3    0  502  0.23377146273E+03 -0.18244317037E+03 -0.24898934341E+03  0.38720834229E+03  0.25500000920E-02 0. -1.
</event>
<event>
 5   0  0.1243087E-03  0.6999564E+03  0.7818609E-02  0.9717307E-01
       -2   -1    0    0    0  501  0.00000000000E+00  0.00000000000E+00  0.29250775645E+03  0.29250775647E+03  0.25500000920E-02 0. -1.
        2   -1    0    0  501    0  0.00000000000E+00  0.00000000000E+00 -0.41874018519E+03  0.41874018519E+03  0.25500000920E-02 0.  1.
    10030    2    1    2    0    0  0.00000000000E+00  0.00000000000E+00 -0.12623242873E+03  0.71124794166E+03  0.69995643325E+03 0.  0.
        4    1    3    3  502    0  0.20292938495E+03  0.22186170216E+03 -0.24511499262E+03  0.38792515085E+03  0.12699999809E+01 0.  1.
       -4    1    3    3    0  502 -0.20292938495E+03 -0.22186170216E+03  0.11888256389E+03  0.32332279081E+03  0.12699999809E+01 0. -1.
</event>
<event>
 5   0  0.1282546E-03  0.7000643E+03  0.7818609E-02  0.9717122E-01
        2   -1    0    0  501    0  0.00000000000E+00  0.00000000000E+00  0.77791574585E+03  0.77791574585E+03  0.25500000920E-02 0.  1.
       -2   -1    0    0    0  501  0.00000000000E+00  0.00000000000E+00 -0.15750099082E+03  0.15750099085E+03  0.25500000920E-02 0. -1.
    10030    2    1    2    0    0  0.00000000000E+00  0.00000000000E+00  0.62041475502E+03  0.93541673669E+03  0.70006428494E+03 0.  0.
        5    1    3    3  502    0  0.13756126836E+03  0.26070990208E+03  0.56234572491E+03  0.63493902063E+03  0.46999998093E+01 0.  1.
       -5    1    3    3    0  502 -0.13756126836E+03 -0.26070990208E+03  0.58069030115E+02  0.30047771607E+03  0.46999998093E+01 0. -1.
</event>
<event>
 5   0  0.1282546E-03  0.7000305E+03  0.7818609E-02  0.9717180E-01
        2   -1    0    0  501    0  0.00000000000E+00  0.00000000000E+00  0.16858012295E+04  0.16858012295E+04  0.25500000920E-02 0. -1.
       -2   -1    0    0    0  501  0.00000000000E+00  0.00000000000E+00 -0.72672076067E+02  0.72672076112E+02  0.25500000920E-02 0.  1.
    10030    2    1    2    0    0  0.00000000000E+00  0.00000000000E+00  0.16131291534E+04  0.17584733056E+04  0.70003049997E+03 0.  0.
        5    1    3    3  502    0 -0.85055149162E+02 -0.28344661450E+03  0.12759261948E+04  0.13098038427E+04  0.46999998093E+01 0. -1.
       -5    1    3    3    0  502  0.85055149162E+02  0.28344661450E+03  0.33720295858E+03  0.44866946290E+03  0.46999998093E+01 0.  1.
</event>
<event>
 5   0  0.7459843E-04  0.6997155E+03  0.7818609E-02  0.9717719E-01
        1   -1    0    0  501    0  0.00000000000E+00  0.00000000000E+00  0.35520340992E+03  0.35520340995E+03  0.50400001928E-02 0. -1.
       -1   -1    0    0    0  501  0.00000000000E+00  0.00000000000E+00 -0.34459254981E+03  0.34459254985E+03  0.50400001928E-02 0.  1.
    10030    2    1    2    0    0  0.00000000000E+00  0.00000000000E+00  0.10610860106E+02  0.69979595980E+03  0.69971551004E+03 0.  0.
        2    1    3    3  502    0 -0.75455078373E+02 -0.30884291320E+03 -0.14073544905E+03  0.34768359252E+03  0.25500000920E-02 0.  1.
       -2    1    3    3    0  502  0.75455078373E+02  0.30884291320E+03  0.15134630916E+03  0.35211236727E+03  0.25500000920E-02 0. -1.
</event>
<event>
 5   0  0.7013526E-04  0.7000987E+03  0.7818609E-02  0.9717063E-01
        1   -1    0    0  501    0  0.00000000000E+00  0.00000000000E+00  0.35381447511E+03  0.35381447515E+03  0.50400001928E-02 0.  1.
       -1   -1    0    0    0  501  0.00000000000E+00  0.00000000000E+00 -0.34632430433E+03  0.34632430437E+03  0.50400001928E-02 0. -1.
    10030    2    1    2    0    0  0.00000000000E+00  0.00000000000E+00  0.74901707813E+01  0.70013877951E+03  0.70009871298E+03 0.  0.
        1    1    3    3  502    0 -0.16348334738E+03  0.17689187169E+03  0.25776161560E+03  0.35278688984E+03  0.50400001928E-02 0.  1.
       -1    1    3    3    0  502  0.16348334738E+03 -0.17689187169E+03 -0.25027144482E+03  0.34735188967E+03  0.50400001928E-02 0. -1.
</event>
<event>
 5   0  0.1224048E-03  0.6997285E+03  0.7818609E-02  0.9717697E-01
        2   -1    0    0  501    0  0.00000000000E+00  0.00000000000E+00  0.11236338914E+04  0.11236338914E+04  0.25500000920E-02 0. -1.
       -2   -1    0    0    0  501  0.00000000000E+00  0.00000000000E+00 -0.10893671783E+03  0.10893671786E+03  0.25500000920E-02 0.  1.
    10030    2    1    2    0    0  0.00000000000E+00  0.00000000000E+00  0.10146971735E+04  0.12325706092E+04  0.69972848502E+03 0.  0.
        3    1    3    3  502    0 -0.58374834713E+02 -0.28509407794E+03  0.16524254308E+03  0.33465110615E+03  0.10100000352E+00 0.  1.
       -3    1    3    3    0  502  0.58374834713E+02  0.28509407794E+03  0.84945463045E+03  0.89791950307E+03  0.10100000352E+00 0. -1.
</event>
<event>
 5   0  0.1265562E-03  0.7000804E+03  0.7818609E-02  0.9717095E-01
       -2   -1    0    0    0  501  0.00000000000E+00  0.00000000000E+00  0.21648669026E+03  0.21648669027E+03  0.25500000920E-02 0.  1.
        2   -1    0    0  501    0  0.00000000000E+00  0.00000000000E+00 -0.56598464301E+03  0.56598464302E+03  0.25500000920E-02 0. -1.
    10030    2    1    2    0    0  0.00000000000E+00  0.00000000000E+00 -0.34949795275E+03  0.78247133329E+03  0.70008040141E+03 0.  0.
        1    1    3    3  502    0  0.17006319625E+03  0.15076158130E+03  0.12281133755E+03  0.25832764036E+03  0.50400001928E-02 0.  1.
       -1    1    3    3    0  502 -0.17006319625E+03 -0.15076158130E+03 -0.47230929030E+03  0.52414369293E+03  0.50400001928E-02 0. -1.
</event>
<event>
 5   0  0.4936000E-04  0.6997434E+03  0.7818609E-02  0.9717671E-01
        3   -1    0    0  501    0  0.00000000000E+00  0.00000000000E+00  0.16072699374E+03  0.16072702547E+03  0.10100000352E+00 0. -1.
       -3   -1    0    0    0  501  0.00000000000E+00  0.00000000000E+00 -0.76160323206E+03  0.76160323875E+03  0.10100000352E+00 0.  1.
    10030    2    1    2    0    0  0.00000000000E+00  0.00000000000E+00 -0.60087623832E+03  0.92233026423E+03  0.69974342622E+03 0.  0.
        2    1    3    3  502    0  0.15357613260E+03  0.15307442101E+03 -0.66235812792E+03  0.69694741300E+03  0.25500000920E-02 0.  1.
       -2    1    3    3    0  502 -0.15357613260E+03 -0.15307442101E+03  0.61481889601E+02  0.22538285122E+03  0.25500000920E-02 0. -1.
</event>
<event>
 5   0  0.1282546E-03  0.7001035E+03  0.7818609E-02  0.9717055E-01
        2   -1    0    0  501    0  0.00000000000E+00  0.00000000000E+00  0.13813899848E+04  0.13813899848E+04  0.25500000920E-02 0. -1.
       -2   -1    0    0    0  501  0.00000000000E+00  0.00000000000E+00 -0.88705016235E+02  0.88705016272E+02  0.25500000920E-02 0.  1.
    10030    2    1    2    0    0  0.00000000000E+00  0.00000000000E+00  0.12926849685E+04  0.14700950010E+04  0.70010348108E+03 0.  0.
        5    1    3    3  502    0  0.25168387181E+03 -0.15993619185E+02  0.11560145267E+04  0.11832126787E+04  0.46999998093E+01 0. -1.
       -5    1    3    3    0  502 -0.25168387181E+03  0.15993619185E+02  0.13667044185E+03  0.28688232232E+03  0.46999998093E+01 0.  1.
</event>
<event>
 5   0  0.7574241E-04  0.7007662E+03  0.7818609E-02  0.9715923E-01
       -1   -1    0    0    0  501  0.00000000000E+00  0.00000000000E+00  0.16257980761E+03  0.16257980769E+03  0.50400001928E-02 0.  1.
        1   -1    0    0  501    0  0.00000000000E+00  0.00000000000E+00 -0.75512637402E+03  0.75512637404E+03  0.50400001928E-02 0. -1.
    10030    2    1    2    0    0  0.00000000000E+00  0.00000000000E+00 -0.59254656641E+03  0.91770618172E+03  0.70076615401E+03 0.  0.
        3    1    3    3  502    0 -0.11952328514E+03  0.53000951275E+02 -0.72198276780E+03  0.73372613673E+03  0.10100000352E+00 0. -1.
       -3    1    3    3    0  502  0.11952328514E+03 -0.53000951275E+02  0.12943620139E+03  0.18398004499E+03  0.10100000352E+00 0.  1.
</event>
<event>
 5   0  0.4936000E-04  0.6996118E+03  0.7818609E-02  0.9717896E-01
       -3   -1    0    0    0  501  0.00000000000E+00  0.00000000000E+00  0.23320497672E+03  0.23320499859E+03  0.10100000352E+00 0. -1.
        3   -1    0    0  501    0  0.00000000000E+00  0.00000000000E+00 -0.52470640458E+03  0.52470641430E+03  0.10100000352E+00 0.  1.
    10030    2    1    2    0    0  0.00000000000E+00  0.00000000000E+00 -0.29150142786E+03  0.75791141290E+03  0.69961176902E+03 0.  0.
        4    1    3    3  502    0 -0.95529391340E+02  0.51114377508E+02 -0.50606876405E+03  0.51753816385E+03  0.12699999809E+01 0.  1.
       -4    1    3    3    0  502  0.95529391340E+02 -0.51114377508E+02  0.21456733619E+03  0.24037324904E+03  0.12699999809E+01 0. -1.
</event>
<event>
 5   0  0.1222679E-03  0.7001706E+03  0.7818609E-02  0.9716941E-01
        2   -1    0    0  501    0  0.00000000000E+00  0.00000000000E+00  0.21726058197E+03  0.21726058198E+03  0.25500000920E-02 0. -1.
       -2   -1    0    0    0  501  0.00000000000E+00  0.00000000000E+00 -0.56411388957E+03  0.56411388958E+03  0.25500000920E-02 0.  1.
    10030    2    1    2    0    0  0.00000000000E+00  0.00000000000E+00 -0.34685330761E+03  0.78137447156E+03  0.70017058479E+03 0.  0.
        2    1    3    3  502    0  0.40534304473E+02  0.15802741810E+03 -0.51909873634E+03  0.54413159510E+03  0.25500000920E-02 0.  1.
       -2    1    3    3    0  502 -0.40534304473E+02 -0.15802741810E+03  0.17224542873E+03  0.23724287646E+03  0.25500000920E-02 0. -1.
</event>
<event>
 5   0  0.7013526E-04  0.7000723E+03  0.7818609E-02  0.9717109E-01
       -1   -1    0    0    0  501  0.00000000000E+00  0.00000000000E+00  0.66476669589E+03  0.66476669591E+03  0.50400001928E-02 0.  1.
        1   -1    0    0  501    0  0.00000000000E+00  0.00000000000E+00 -0.18431322834E+03  0.18431322841E+03  0.50400001928E-02 0. -1.
    10030    2    1    2    0    0  0.00000000000E+00  0.00000000000E+00  0.48045346755E+03  0.84907992431E+03  0.70007227012E+03 0.  0.
        1    1    3    3  502    0  0.13335524819E+03  0.29000436228E+02 -0.15071751237E+03  0.20332342729E+03  0.50400001928E-02 0. -1.
       -1    1    3    3    0  502 -0.13335524819E+03 -0.29000436228E+02  0.63117097993E+03  0.64575649702E+03  0.50400001928E-02 0.  1.
</event>
<event>
 5   0  0.1224048E-03  0.6998604E+03  0.7818609E-02  0.9717471E-01
        2   -1    0    0  501    0  0.00000000000E+00  0.00000000000E+00  0.10688471250E+04  0.10688471250E+04  0.25500000920E-02 0.  1.
       -2   -1    0    0    0  501  0.00000000000E+00  0.00000000000E+00 -0.11456376179E+03  0.11456376182E+03  0.25500000920E-02 0. -1.
    10030    2    1    2    0    0  0.00000000000E+00  0.00000000000E+00  0.95428336320E+03  0.11834108868E+04  0.69986040734E+03 0.  0.
        3    1    3    3  502    0  0.10579351218E+03  0.25354217064E+03  0.11065463571E+03  0.29617622814E+03  0.10100000352E+00 0. -1.
       -3    1    3    3    0  502 -0.10579351218E+03 -0.25354217064E+03  0.84362872749E+03  0.88723465868E+03  0.10100000352E+00 0.  1.
</event>
<event>
 5   0  0.1222679E-03  0.7000997E+03  0.7818609E-02  0.9717062E-01
        2   -1    0    0  501    0  0.00000000000E+00  0.00000000000E+00  0.44409549658E+03  0.44409549659E+03  0.25500000920E-02 0. -1.
       -2   -1    0    0    0  501  0.00000000000E+00  0.00000000000E+00 -0.27592016977E+03  0.27592016978E+03  0.25500000920E-02 0.  1.
    10030    2    1    2    0    0  0.00000000000E+00  0.00000000000E+00  0.16817532682E+03  0.72001566637E+03  0.70009972094E+03 0.  0.
        2    1    3    3  502    0  0.32167435761E+03 -0.18589617423E+01  0.22606203495E+03  0.39316903710E+03  0.25500000920E-02 0. -1.
       -2    1    3    3    0  502 -0.32167435761E+03  0.18589617423E+01 -0.57886708132E+02  0.32684662927E+03  0.25500000920E-02 0.  1.
</event>
<event>
 5   0  0.7013526E-04  0.6988417E+03  0.7818609E-02  0.9719215E-01
       -1   -1    0    0    0  501  0.00000000000E+00  0.00000000000E+00  0.81114509766E+03  0.81114509768E+03  0.50400001928E-02 0. -1.
        1   -1    0    0  501    0  0.00000000000E+00  0.00000000000E+00 -0.15052168054E+03  0.15052168062E+03  0.50400001928E-02 0.  1.
    10030    2    1    2    0    0  0.00000000000E+00  0.00000000000E+00  0.66062341713E+03  0.96166677830E+03  0.69884167967E+03 0.  0.
        1    1    3    3  502    0 -0.69073805072E+02  0.44630080028E+02  0.79763832453E+03  0.80186652966E+03  0.50400001928E-02 0. -1.
       -1    1    3    3    0  502  0.69073805072E+02 -0.44630080028E+02 -0.13701490741E+03  0.15980024865E+03  0.50400001928E-02 0.  1.
</event>
<event>
 5   0  0.1282546E-03  0.6998613E+03  0.7818609E-02  0.9717469E-01
       -2   -1    0    0    0  501  0.00000000000E+00  0.00000000000E+00  0.21364366914E+03  0.21364366916E+03  0.25500000920E-02 0. -1.
        2   -1    0    0  501    0  0.00000000000E+00  0.00000000000E+00 -0.57315745705E+03  0.57315745706E+03  0.25500000920E-02 0.  1.
    10030    2    1    2    0    0  0.00000000000E+00  0.00000000000E+00 -0.35951378791E+03  0.78680112622E+03  0.69986130663E+03 0.  0.
        5    1    3    3  502    0 -0.20813066382E+03 -0.21554619929E+03 -0.38289908622E+03  0.48622251848E+03  0.46999998093E+01 0.  1.
       -5    1    3    3    0  502  0.20813066382E+03  0.21554619929E+03  0.23385298308E+02  0.30057860773E+03  0.46999998093E+01 0. -1.
</event>
<event>
 5   0  0.1222679E-03  0.6999957E+03  0.7818609E-02  0.9717240E-01
       -2   -1    0    0    0  501  0.00000000000E+00  0.00000000000E+00  0.22202214762E+03  0.22202214763E+03  0.25500000920E-02 0. -1.
        2   -1    0    0  501    0  0.00000000000E+00  0.00000000000E+00 -0.55173992079E+03  0.55173992079E+03  0.25500000920E-02 0.  1.
    10030    2    1    2    0    0  0.00000000000E+00  0.00000000000E+00 -0.32971777317E+03  0.77376206843E+03  0.69999566327E+03 0.  0.
        2    1    3    3  502    0  0.11947869357E+03  0.35965898104E+02 -0.52631986447E+03  0.54090785147E+03  0.25500000920E-02 0.  1.
       -2    1    3    3    0  502 -0.11947869357E+03 -0.35965898104E+02  0.19660209130E+03  0.23285421695E+03  0.25500000920E-02 0. -1.
</event>
<event>
 5   0  0.1282546E-03  0.7000338E+03  0.7818609E-02  0.9717174E-01
        2   -1    0    0  501    0  0.00000000000E+00  0.00000000000E+00  0.15572925945E+04  0.15572925945E+04  0.25500000920E-02 0.  1.
       -2   -1    0    0    0  501  0.00000000000E+00  0.00000000000E+00 -0.78669762076E+02  0.78669762117E+02  0.25500000920E-02 0. -1.
    10030    2    1    2    0    0  0.00000000000E+00  0.00000000000E+00  0.14786228325E+04  0.16359623567E+04  0.70003382184E+03 0.  0.
        5    1    3    3  502    0 -0.26861103024E+03 -0.15059775993E+03  0.35065480519E+03  0.46670381749E+03  0.46999998093E+01 0. -1.
       -5    1    3    3    0  502  0.26861103024E+03  0.15059775993E+03  0.11279680273E+04  0.11692585392E+04  0.46999998093E+01 0.  1.
</event>
<event>
 5   0  0.7013526E-04  0.6999610E+03  0.7818609E-02  0.9717299E-01
       -1   -1    0    0    0  501  0.00000000000E+00  0.00000000000E+00  0.11599601515E+03  0.11599601526E+03  0.50400001928E-02 0.  1.
        1   -1    0    0  501    0  0.00000000000E+00  0.00000000000E+00 -0.10559531893E+04  0.10559531893E+04  0.50400001928E-02 0. -1.
    10030    2    1    2    0    0  0.00000000000E+00  0.00000000000E+00 -0.93995717413E+03  0.11719492045E+04  0.69996103379E+03 0.  0.
        1    1    3    3  502    0 -0.73694365654E+02  0.49222814407E+02 -0.10368558377E+04  0.10406362348E+04  0.50400001928E-02 0. -1.
       -1    1    3    3    0  502  0.73694365654E+02 -0.49222814407E+02  0.96898663587E+02  0.13131296972E+03  0.50400001928E-02 0.  1.
</event>
<event>
 5   0  0.1243087E-03  0.6996762E+03  0.7818609E-02  0.9717786E-01
        2   -1    0    0  501    0  0.00000000000E+00  0.00000000000E+00  0.71861625501E+03  0.71861625501E+03  0.25500000920E-02 0. -1.
       -2   -1    0    0    0  501  0.00000000000E+00  0.00000000000E+00 -0.17030885284E+03  0.17030885286E+03  0.25500000920E-02 0.  1.
    10030    2    1    2    0    0  0.00000000000E+00  0.00000000000E+00  0.54830740217E+03  0.88892510787E+03  0.69967623951E+03 0.  0.
        4    1    3    3  502    0 -0.26217904478E+03  0.22316752833E+03  0.35291837600E+03  0.49304623540E+03  0.12699999809E+01 0. -1.
       -4    1    3    3    0  502  0.26217904478E+03 -0.22316752833E+03  0.19538902617E+03  0.39587887247E+03  0.12699999809E+01 0.  1.
</event>
<event>
 5   0  0.1224048E-03  0.6997869E+03  0.7818609E-02  0.9717597E-01
        2   -1    0    0  501    0  0.00000000000E+00  0.00000000000E+00  0.45420112857E+03  0.45420112858E+03  0.25500000920E-02 0. -1.
       -2   -1    0    0    0  501  0.00000000000E+00  0.00000000000E+00 -0.26954012069E+03  0.26954012070E+03  0.25500000920E-02 0.  1.
    10030    2    1    2    0    0  0.00000000000E+00  0.00000000000E+00  0.18466100788E+03  0.72374124928E+03  0.69978690190E+03 0.  0.
        3    1    3    3  502    0  0.32966979513E+03 -0.11695547491E+03  0.10064689646E+03  0.36399253413E+03  0.10100000352E+00 0. -1.
       -3    1    3    3    0  502 -0.32966979513E+03  0.11695547491E+03  0.84014111418E+02  0.35974871515E+03  0.10100000352E+00 0.  1.
</event>
<event>
 5   0  0.1282546E-03  0.7004196E+03  0.7818609E-02  0.9716515E-01
        2   -1    0    0  501    0  0.00000000000E+00  0.00000000000E+00  0.67912984120E+03  0.67912984120E+03  0.25500000920E-02 0. -1.
       -2   -1    0    0    0  501  0.00000000000E+00  0.00000000000E+00 -0.18059420322E+03  0.18059420324E+03  0.25500000920E-02 0.  1.
    10030    2    1    2    0    0  0.00000000000E+00  0.00000000000E+00  0.49853563797E+03  0.85972404444E+03  0.70041962441E+03 0.  0.
        5    1    3    3  502    0 -0.14842204250E+03 -0.20149264269E+03 -0.51383760212E+02  0.25552058346E+03  0.46999998093E+01 0.  1.
       -5    1    3    3    0  502  0.14842204250E+03  0.20149264269E+03  0.54991939819E+03  0.60420346098E+03  0.46999998093E+01 0. -1.
</event>
<event>
 5   0  0.1224048E-03  0.7001037E+03  0.7818609E-02  0.9717055E-01
       -2   -1    0    0    0  501  0.00000000000E+00  0.00000000000E+00  0.56052552728E+03  0.56052552729E+03  0.25500000920E-02 0. -1.
        2   -1    0    0  501    0  0.00000000000E+00  0.00000000000E+00 -0.21860963532E+03  0.21860963533E+03  0.25500000920E-02 0.  1.
    10030    2    1    2    0    0  0.00000000000E+00  0.00000000000E+00  0.34191589197E+03  0.77913516262E+03  0.70010365265E+03 0.  0.
        3    1    3    3  502    0  0.23551943580E+03  0.55977100527E+02  0.45235170767E+03  0.51305449813E+03  0.10100000352E+00 0. -1.
       -3    1    3    3    0  502 -0.23551943580E+03 -0.55977100527E+02 -0.11043581570E+03  0.26608066449E+03  0.10100000352E+00 0.  1.
</event>
<event>
 5   0  0.7574241E-04  0.7002576E+03  0.7818609E-02  0.9716792E-01
        1   -1    0    0  501    0  0.00000000000E+00  0.00000000000E+00  0.70287188979E+03  0.70287188980E+03  0.50400001928E-02 0. -1.
       -1   -1    0    0    0  501  0.00000000000E+00  0.00000000000E+00 -0.17441326925E+03  0.17441326932E+03  0.50400001928E-02 0.  1.
    10030    2    1    2    0    0  0.00000000000E+00  0.00000000000E+00  0.52845862054E+03  0.87728515912E+03  0.70025762173E+03 0.  0.
        3    1    3    3  502    0 -0.71021844428E+02  0.33823500352E+03  0.33446628038E+03  0.48095189250E+03  0.10100000352E+00 0.  1.
       -3    1    3    3    0  502  0.71021844428E+02 -0.33823500352E+03  0.19399234016E+03  0.39633326662E+03  0.10100000352E+00 0. -1.
</event>
<event>
 5   0  0.7574241E-04  0.7000852E+03  0.7818609E-02  0.9717086E-01
        1   -1    0    0  501    0  0.00000000000E+00  0.00000000000E+00  0.11307127495E+04  0.11307127495E+04  0.50400001928E-02 0.  1.
       -1   -1    0    0    0  501  0.00000000000E+00  0.00000000000E+00 -0.10836513289E+03  0.10836513300E+03  0.50400001928E-02 0. -1.
    10030    2    1    2    0    0  0.00000000000E+00  0.00000000000E+00  0.10223476166E+04  0.12390778825E+04  0.70008524462E+03 0.  0.
        3    1    3    3  502    0  0.13984852466E+03  0.31984062719E+03  0.46521814685E+03  0.58162150150E+03  0.10100000352E+00 0. -1.
       -3    1    3    3    0  502 -0.13984852466E+03 -0.31984062719E+03  0.55712946973E+03  0.65745638098E+03  0.10100000352E+00 0.  1.
</event>
<event>
 5   0  0.1243087E-03  0.7000742E+03  0.7818609E-02  0.9717105E-01
       -2   -1    0    0    0  501  0.00000000000E+00  0.00000000000E+00  0.99458797505E+02  0.99458797538E+02  0.25500000920E-02 0. -1.
        2   -1    0    0  501    0  0.00000000000E+00  0.00000000000E+00 -0.12319269721E+04  0.12319269721E+04  0.25500000920E-02 0.  1.
    10030    2    1    2    0    0  0.00000000000E+00  0.00000000000E+00 -0.11324681746E+04  0.13313857697E+04  0.70007421116E+03 0.  0.
        4    1    3    3  502    0 -0.39507227807E+01 -0.43499381434E+02 -0.12267196006E+04  0.12274976154E+04  0.12699999809E+01 0.  1.
       -4    1    3    3    0  502  0.39507227807E+01  0.43499381434E+02  0.94251425989E+02  0.10388815426E+03  0.12699999809E+01 0. -1.
</event>
<event>
 5   0  0.7570633E-04  0.7002678E+03  0.7818609E-02  0.9716774E-01
       -1   -1    0    0    0  501  0.00000000000E+00  0.00000000000E+00  0.51601215641E+02  0.51601215887E+02  0.50400001928E-02 0. -1.
        1   -1    0    0  501    0  0.00000000000E+00  0.00000000000E+00 -0.23757916828E+04  0.23757916828E+04  0.50400001928E-02 0.  1.
    10030    2    1    2    0    0  0.00000000000E+00  0.00000000000E+00 -0.23241904672E+04  0.24273928987E+04  0.70026777521E+03 0.  0.
        5    1    3    3  502    0  0.34895251645E+03 -0.27947454683E+02 -0.11455688271E+04  0.11978726755E+04  0.46999998093E+01 0. -1.
       -5    1    3    3    0  502 -0.34895251645E+03  0.27947454683E+02 -0.11786216401E+04  0.12295202233E+04  0.46999998093E+01 0.  1.
</event>
<event>
 5   0  0.4936000E-04  0.6997870E+03  0.7818609E-02  0.9717597E-01
        3   -1    0    0  501    0  0.00000000000E+00  0.00000000000E+00  0.22830133470E+03  0.22830135704E+03  0.10100000352E+00 0. -1.
       -3   -1    0    0    0  501  0.00000000000E+00  0.00000000000E+00 -0.53624499747E+03  0.53624500699E+03  0.10100000352E+00 0.  1.
    10030    2    1    2    0    0  0.00000000000E+00  0.00000000000E+00 -0.30794366278E+03  0.76454636402E+03  0.69978699852E+03 0.  0.
        2    1    3    3  502    0 -0.93155044948E+02 -0.29908930789E+03 -0.32425831623E+03  0.45086110072E+03  0.25500000920E-02 0. -1.
       -2    1    3    3    0  502  0.93155044948E+02  0.29908930789E+03  0.16314653453E+02  0.31368526330E+03  0.25500000920E-02 0.  1.
</event>
<event>
 5   0  0.7574241E-04  0.7003245E+03  0.7818609E-02  0.9716677E-01
       -1   -1    0    0    0  501  0.00000000000E+00  0.00000000000E+00  0.18926681310E+03  0.18926681317E+03  0.50400001928E-02 0.  1.
        1   -1    0    0  501    0  0.00000000000E+00  0.00000000000E+00 -0.64783462342E+03  0.64783462344E+03  0.50400001928E-02 0. -1.
    10030    2    1    2    0    0  0.00000000000E+00  0.00000000000E+00 -0.45856781032E+03  0.83710143661E+03  0.70032448087E+03 0.  0.
        3    1    3    3  502    0 -0.99537527624E+02 -0.10588571019E+03  0.15151802222E+03  0.20994576511E+03  0.10100000352E+00 0.  1.
       -3    1    3    3    0  502  0.99537527624E+02  0.10588571019E+03 -0.61008583254E+03  0.62715567150E+03  0.10100000352E+00 0. -1.
</event>
<event>
 5   0  0.7570633E-04  0.7001470E+03  0.7818609E-02  0.9716981E-01
       -1   -1    0    0    0  501  0.00000000000E+00  0.00000000000E+00  0.17079365716E+03  0.17079365723E+03  0.50400001928E-02 0. -1.
        1   -1    0    0  501    0  0.00000000000E+00  0.00000000000E+00 -0.71754101097E+03  0.71754101099E+03  0.50400001928E-02 0.  1.
    10030    2    1    2    0    0  0.00000000000E+00  0.00000000000E+00 -0.54674735382E+03  0.88833466822E+03  0.70014699447E+03 0.  0.
        5    1    3    3  502    0  0.69544339055E+02  0.17539388327E+03 -0.64746019574E+03  0.67440805485E+03  0.46999998093E+01 0.  1.
       -5    1    3    3    0  502 -0.69544339055E+02 -0.17539388327E+03  0.10071284192E+03  0.21392661337E+03  0.46999998093E+01 0. -1.
</event>
<event>
 5   0  0.7013526E-04  0.7000315E+03  0.7818609E-02  0.9717178E-01
        1   -1    0    0  501    0  0.00000000000E+00  0.00000000000E+00  0.26982777223E+03  0.26982777227E+03  0.50400001928E-02 0. -1.
       -1   -1    0    0    0  501  0.00000000000E+00  0.00000000000E+00 -0.45403411081E+03  0.45403411083E+03  0.50400001928E-02 0.  1.
    10030    2    1    2    0    0  0.00000000000E+00  0.00000000000E+00 -0.18420633858E+03  0.72386188311E+03  0.70003146404E+03 0.  0.
        1    1    3    3  502    0  0.13357964582E+03 -0.15209584377E+03  0.20315943196E+03  0.28679334422E+03  0.50400001928E-02 0. -1.
       -1    1    3    3    0  502 -0.13357964582E+03  0.15209584377E+03 -0.38736577054E+03  0.43706853888E+03  0.50400001928E-02 0.  1.
</event>
<event>
 5   0  0.1265562E-03  0.6998978E+03  0.7818609E-02  0.9717407E-01
       -2   -1    0    0    0  501  0.00000000000E+00  0.00000000000E+00  0.58132590052E+03  0.58132590053E+03  0.25500000920E-02 0. -1.
        2   -1    0    0  501    0  0.00000000000E+00  0.00000000000E+00 -0.21066366621E+03  0.21066366623E+03  0.25500000920E-02 0.  1.
    10030    2    1    2    0    0  0.00000000000E+00  0.00000000000E+00  0.37066223431E+03  0.79198956675E+03  0.69989783676E+03 0.  0.
        1    1    3    3  502    0  0.30896369254E+03  0.14264977503E+03  0.27765521634E+03  0.43920375774E+03  0.50400001928E-02 0. -1.
       -1    1    3    3    0  502 -0.30896369254E+03 -0.14264977503E+03  0.93007017969E+02  0.35278580901E+03  0.50400001928E-02 0.  1.
</event>
<event>
 5   0  0.7459843E-04  0.7000713E+03  0.7818609E-02  0.9717110E-01
        1   -1    0    0  501    0  0.00000000000E+00  0.00000000000E+00  0.38181315212E+03  0.38181315215E+03  0.50400001928E-02 0.  1.
       -1   -1    0    0    0  501  0.00000000000E+00  0.00000000000E+00 -0.32090296422E+03  0.32090296426E+03  0.50400001928E-02 0. -1.
    10030    2    1    2    0    0  0.00000000000E+00  0.00000000000E+00  0.60910187901E+02  0.70271611641E+03  0.70007134585E+03 0.  0.
        2    1    3    3  502    0 -0.13067463135E+03  0.10628455365E+03 -0.27754724644E+03  0.32466096106E+03  0.25500000920E-02 0. -1.
       -2    1    3    3    0  502  0.13067463135E+03 -0.10628455365E+03  0.33845743434E+03  0.37805515535E+03  0.25500000920E-02 0.  1.
</event>
<event>
 5   0  0.7574241E-04  0.7000800E+03  0.7818609E-02  0.9717095E-01
        1   -1    0    0  501    0  0.00000000000E+00  0.00000000000E+00  0.91173909786E+03  0.91173909787E+03  0.50400001928E-02 0.  1.
       -1   -1    0    0    0  501  0.00000000000E+00  0.00000000000E+00 -0.13438932902E+03  0.13438932911E+03  0.50400001928E-02 0. -1.
    10030    2    1    2    0    0  0.00000000000E+00  0.00000000000E+00  0.77734976884E+03  0.10461284270E+04  0.70008001158E+03 0.  0.
        3    1    3    3  502    0 -0.14967623279E+03  0.11831577728E+03  0.82721110239E+03  0.84892862830E+03  0.10100000352E+00 0.  1.
       -3    1    3    3    0  502  0.14967623279E+03 -0.11831577728E+03 -0.49861333555E+02  0.19719979868E+03  0.10100000352E+00 0. -1.
</event>
<event>
 5   0  0.7459843E-04  0.6967230E+03  0.7818609E-02  0.9722853E-01
        1   -1    0    0  501    0  0.00000000000E+00  0.00000000000E+00  0.13797158223E+04  0.13797158223E+04  0.50400001928E-02 0. -1.
       -1   -1    0    0    0  501  0.00000000000E+00  0.00000000000E+00 -0.87957048683E+02  0.87957048827E+02  0.50400001928E-02 0.  1.
    10030    2    1    2    0    0  0.00000000000E+00  0.00000000000E+00  0.12917587736E+04  0.14676728711E+04  0.69672299190E+03 0.  0.
        2    1    3    3  502    0  0.15447435259E+03  0.13668148712E+03  0.54502789715E+02  0.21334176483E+03  0.25500000920E-02 0.  1.
       -2    1    3    3    0  502 -0.15447435259E+03 -0.13668148712E+03  0.12372559839E+04  0.12543311063E+04  0.25500000920E-02 0. -1.
</event>
<event>
 5   0  0.7574241E-04  0.6999016E+03  0.7818609E-02  0.9717400E-01
       -1   -1    0    0    0  501  0.00000000000E+00  0.00000000000E+00  0.85130388425E+02  0.85130388574E+02  0.50400001928E-02 0.  1.
        1   -1    0    0  501    0  0.00000000000E+00  0.00000000000E+00 -0.14385647356E+04  0.14385647357E+04  0.50400001928E-02 0. -1.
    10030    2    1    2    0    0  0.00000000000E+00  0.00000000000E+00 -0.13534343472E+04  0.15236951242E+04  0.69990163549E+03 0.  0.
        3    1    3    3  502    0  0.20602357336E+03  0.15183122903E+03 -0.15711227273E+03  0.30030436449E+03  0.10100000352E+00 0.  1.
       -3    1    3    3    0  502 -0.20602357336E+03 -0.15183122903E+03 -0.11963220745E+04  0.12233907597E+04  0.10100000352E+00 0. -1.
</event>
<event>
 5   0  0.1282546E-03  0.7002992E+03  0.7818609E-02  0.9716721E-01
        2   -1    0    0  501    0  0.00000000000E+00  0.00000000000E+00  0.11107903555E+04  0.11107903555E+04  0.25500000920E-02 0. -1.
       -2   -1    0    0    0  501  0.00000000000E+00  0.00000000000E+00 -0.11037612019E+03  0.11037612022E+03  0.25500000920E-02 0.  1.
    10030    2    1    2    0    0  0.00000000000E+00  0.00000000000E+00  0.10004142353E+04  0.12211664757E+04  0.70029916408E+03 0.  0.
        5    1    3    3  502    0  0.10428365828E+03 -0.27702523485E+03  0.17414119802E+03  0.34346078229E+03  0.46999998093E+01 0.  1.
       -5    1    3    3    0  502 -0.10428365828E+03  0.27702523485E+03  0.82627303727E+03  0.87770569341E+03  0.46999998093E+01 0. -1.
</event>
<event>
 5   0  0.1265562E-03  0.6999162E+03  0.7818609E-02  0.9717375E-01
       -2   -1    0    0    0  501  0.00000000000E+00  0.00000000000E+00  0.11794106065E+03  0.11794106067E+03  0.25500000920E-02 0.  1.
        2   -1    0    0  501    0  0.00000000000E+00  0.00000000000E+00 -0.10384057671E+04  0.10384057671E+04  0.25500000920E-02 0. -1.
    10030    2    1    2    0    0  0.00000000000E+00  0.00000000000E+00 -0.92046470648E+03  0.11563468278E+04  0.69991621663E+03 0.  0.
        1    1    3    3  502    0 -0.27833191115E+02  0.47085412068E+02 -0.10313002745E+04  0.10327497174E+04  0.50400001928E-02 0. -1.
       -1    1    3    3    0  502  0.27833191115E+02 -0.47085412068E+02  0.11083556798E+03  0.12359711045E+03  0.50400001928E-02 0.  1.
</event>
<event>
 5   0  0.7013526E-04  0.7002004E+03  0.7818609E-02  0.9716890E-01
       -1   -1    0    0    0  501  0.00000000000E+00  0.00000000000E+00  0.15985594454E+03  0.15985594462E+03  0.50400001928E-02 0. -1.
        1   -1    0    0  501    0  0.00000000000E+00  0.00000000000E+00 -0.76675373157E+03  0.76675373158E+03  0.50400001928E-02 0.  1.
    10030    2    1    2    0    0  0.00000000000E+00  0.00000000000E+00 -0.60689778702E+03  0.92660967620E+03  0.70020037714E+03 0.  0.
        1    1    3    3  502    0  0.54947648770E+02  0.14521383949E+03  0.11180419600E+03  0.19132820376E+03  0.50400001928E-02 0. -1.
       -1    1    3    3    0  502 -0.54947648770E+02 -0.14521383949E+03 -0.71870198303E+03  0.73528147244E+03  0.50400001928E-02 0.  1.
</event>
<event>
 5   0  0.1222679E-03  0.6999303E+03  0.7818609E-02  0.9717351E-01
       -2   -1    0    0    0  501  0.00000000000E+00  0.00000000000E+00  0.11577155466E+03  0.11577155469E+03  0.25500000920E-02 0. -1.
        2   -1    0    0  501    0  0.00000000000E+00  0.00000000000E+00 -0.10579076651E+04  0.10579076651E+04  0.25500000920E-02 0.  1.
    10030    2    1    2    0    0  0.00000000000E+00  0.00000000000E+00 -0.94213611044E+03  0.11736792198E+04  0.69993032537E+03 0.  0.
        2    1    3    3  502    0 -0.10182140577E+03  0.66468674891E+02 -0.10213460624E+04  0.10285589252E+04  0.25500000920E-02 0.  1.
       -2    1    3    3    0  502  0.10182140577E+03 -0.66468674891E+02  0.79209951946E+02  0.14512029461E+03  0.25500000920E-02 0. -1.
</event>
<event>
 5   0  0.1282546E-03  0.7000369E+03  0.7818609E-02  0.9717169E-01
       -2   -1    0    0    0  501  0.00000000000E+00  0.00000000000E+00  0.73965873907E+02  0.73965873951E+02  0.25500000920E-02 0.  1.
        2   -1    0    0  501    0  0.00000000000E+00  0.00000000000E+00 -0.16563437097E+04  0.16563437097E+04  0.25500000920E-02 0. -1.
    10030    2    1    2    0    0  0.00000000000E+00  0.00000000000E+00 -0.15823778358E+04  0.17303095837E+04  0.70003688480E+03 0.  0.
        5    1    3    3  502    0 -0.21277479383E+03  0.12983391020E+03 -0.18392062012E+03  0.30980452165E+03  0.46999998093E+01 0.  1.
       -5    1    3    3    0  502  0.21277479383E+03 -0.12983391020E+03 -0.13984572157E+04  0.14205050620E+04  0.46999998093E+01 0. -1.
</event>
<event>
 5   0  0.7459843E-04  0.7000196E+03  0.7818609E-02  0.9717199E-01
        1   -1    0    0  501    0  0.00000000000E+00  0.00000000000E+00  0.47975989377E+03  0.47975989380E+03  0.50400001928E-02 0. -1.
       -1   -1    0    0    0  501  0.00000000000E+00  0.00000000000E+00 -0.25535035767E+03  0.25535035772E+03  0.50400001928E-02 0.  1.
    10030    2    1    2    0    0  0.00000000000E+00  0.00000000000E+00  0.22440953610E+03  0.73511025152E+03  0.70001960115E+03 0.  0.
        2    1    3    3  502    0 -0.46529732965E+01 -0.34534969341E+03  0.17178322452E+03  0.38574283808E+03  0.25500000920E-02 0.  1.
       -2    1    3    3    0  502  0.46529732965E+01  0.34534969341E+03  0.52626311573E+02  0.34936741344E+03  0.25500000920E-02 0. -1.
</event>
<event>
 5   0  0.1222679E-03  0.6999029E+03  0.7818609E-02  0.9717398E-01
       -2   -1    0    0    0  501  0.00000000000E+00  0.00000000000E+00  0.13547568703E+03  0.13547568706E+03  0.25500000920E-02 0. -1.
        2   -1    0    0  501    0  0.00000000000E+00  0.00000000000E+00 -0.90397038167E+03  0.90397038168E+03  0.25500000920E-02 0.  1.
    10030    2    1    2    0    0  0.00000000000E+00  0.00000000000E+00 -0.76849469464E+03  0.10394460687E+04  0.69990287477E+03 0.  0.
        2    1    3    3  502    0 -0.24206809643E+03 -0.24099602166E+03 -0.49725349462E+03  0.60327198151E+03  0.25500000920E-02 0.  1.
       -2    1    3    3    0  502  0.24206809643E+03  0.24099602166E+03 -0.27124120003E+03  0.43617408722E+03  0.25500000920E-02 0. -1.
</event>
<event>
 5   0  0.1224048E-03  0.7000547E+03  0.7818609E-02  0.9717139E-01
       -2   -1    0    0    0  501  0.00000000000E+00  0.00000000000E+00  0.15672098692E+03  0.15672098694E+03  0.25500000920E-02 0.  1.
        2   -1    0    0  501    0  0.00000000000E+00  0.00000000000E+00 -0.78176605746E+03  0.78176605747E+03  0.25500000920E-02 0. -1.
    10030    2    1    2    0    0  0.00000000000E+00  0.00000000000E+00 -0.62504507055E+03  0.93848704440E+03  0.70005470665E+03 0.  0.
        3    1    3    3  502    0  0.18314167403E+03 -0.11839580374E+03 -0.67956229759E+03  0.71369697044E+03  0.10100000352E+00 0. -1.
       -3    1    3    3    0  502 -0.18314167403E+03  0.11839580374E+03  0.54517227043E+02  0.22479007397E+03  0.10100000352E+00 0.  1.
</event>
<event>
 5   0  0.7570633E-04  0.6965548E+03  0.7818609E-02  0.9723142E-01
        1   -1    0    0  501    0  0.00000000000E+00  0.00000000000E+00  0.40726497488E+03  0.40726497491E+03  0.50400001928E-02 0.  1.
       -1   -1    0    0    0  501  0.00000000000E+00  0.00000000000E+00 -0.29783344847E+03  0.29783344852E+03  0.50400001928E-02 0. -1.
    10030    2    1    2    0    0  0.00000000000E+00  0.00000000000E+00  0.10943152641E+03  0.70509842343E+03  0.69655475575E+03 0.  0.
        5    1    3    3  502    0  0.38489613306E+02 -0.21533574766E+03 -0.21957666533E+03  0.30997892913E+03  0.46999998093E+01 0. -1.
       -5    1    3    3    0  502 -0.38489613306E+02  0.21533574766E+03  0.32900819173E+03  0.39511949430E+03  0.46999998093E+01 0.  1.
</event>
<event>
 5   0  0.7574241E-04  0.7000253E+03  0.7818609E-02  0.9717189E-01
       -1   -1    0    0    0  501  0.00000000000E+00  0.00000000000E+00  0.16932222260E+03  0.16932222267E+03  0.50400001928E-02 0. -1.
        1   -1    0    0  501    0  0.00000000000E+00  0.00000000000E+00 -0.72352496775E+03  0.72352496777E+03  0.50400001928E-02 0.  1.
    10030    2    1    2    0    0  0.00000000000E+00  0.00000000000E+00 -0.55420274515E+03  0.89284719044E+03  0.70002530150E+03 0.  0.
        3    1    3    3  502    0 -0.19043407296E+03 -0.24001127513E+03 -0.49294388846E+03  0.58040006522E+03  0.10100000352E+00 0. -1.
       -3    1    3    3    0  502  0.19043407296E+03  0.24001127513E+03 -0.61258856692E+02  0.31244712522E+03  0.10100000352E+00 0.  1.
</event>
<event>
 5   0  0.1265562E-03  0.6998217E+03  0.7818609E-02  0.9717537E-01
       -2   -1    0    0    0  501  0.00000000000E+00  0.00000000000E+00  0.31269754152E+03  0.31269754153E+03  0.25500000920E-02 0. -1.
        2   -1    0    0  501    0  0.00000000000E+00  0.00000000000E+00 -0.39155279805E+03  0.39155279806E+03  0.25500000920E-02 0.  1.
    10030    2    1    2    0    0  0.00000000000E+00  0.00000000000E+00 -0.78855256528E+02  0.70425033960E+03  0.69982168396E+03 0.  0.
        1    1    3    3  502    0  0.10766155525E+03 -0.33183930683E+03 -0.12251896616E+02  0.34908228977E+03  0.50400001928E-02 0. -1.
       -1    1    3    3    0  502 -0.10766155525E+03  0.33183930683E+03 -0.66603359913E+02  0.35516804982E+03  0.50400001928E-02 0.  1.
</event>
<event>
 5   0  0.7572415E-04  0.6975328E+03  0.7818609E-02  0.9721461E-01
        1   -1    0    0  501    0  0.00000000000E+00  0.00000000000E+00  0.20817810190E+04  0.20817810191E+04  0.50400001928E-02 0. -1.
       -1   -1    0    0    0  501  0.00000000000E+00  0.00000000000E+00 -0.58429782754E+02  0.58429782972E+02  0.50400001928E-02 0.  1.
    10030    2    1    2    0    0  0.00000000000E+00  0.00000000000E+00  0.20233512363E+04  0.21402108020E+04  0.69753283198E+03 0.  0.
        4    1    3    3  502    0 -0.24977125410E+03 -0.20001916912E+03  0.58604890094E+03  0.66771870918E+03  0.12699999809E+01 0.  1.
       -4    1    3    3    0  502  0.24977125410E+03  0.20001916912E+03  0.14373023353E+04  0.14724920928E+04  0.12699999809E+01 0. -1.
</event>
<event>
 5   0  0.7459843E-04  0.6985278E+03  0.7818609E-02  0.9719753E-01
        1   -1    0    0  501    0  0.00000000000E+00  0.00000000000E+00  0.10055019920E+04  0.10055019920E+04  0.50400001928E-02 0.  1.
       -1   -1    0    0    0  501  0.00000000000E+00  0.00000000000E+00 -0.12131778758E+03  0.12131778769E+03  0.50400001928E-02 0. -1.
    10030    2    1    2    0    0  0.00000000000E+00  0.00000000000E+00  0.88418420439E+03  0.11268197797E+04  0.69852781517E+03 0.  0.
        2    1    3    3  502    0 -0.22825851170E+03 -0.22581760505E+03  0.66380130846E+03  0.73737895009E+03  0.25500000920E-02 0.  1.
       -2    1    3    3    0  502  0.22825851170E+03  0.22581760505E+03  0.22038289593E+03  0.38944082958E+03  0.25500000920E-02 0. -1.
</event>
<event>
 5   0  0.1243087E-03  0.7000866E+03  0.7818609E-02  0.9717084E-01
        2   -1    0    0  501    0  0.00000000000E+00  0.00000000000E+00  0.24784429055E+03  0.24784429057E+03  0.25500000920E-02 0.  1.
       -2   -1    0    0    0  501  0.00000000000E+00  0.00000000000E+00 -0.49438419231E+03  0.49438419232E+03  0.25500000920E-02 0. -1.
    10030    2    1    2    0    0  0.00000000000E+00  0.00000000000E+00 -0.24653990176E+03  0.74222848289E+03  0.70008656440E+03 0.  0.
        4    1    3    3  502    0 -0.76644039523E+02 -0.33473389962E+03 -0.51304676912E+02  0.34721013107E+03  0.12699999809E+01 0.  1.
       -4    1    3    3    0  502  0.76644039523E+02  0.33473389962E+03 -0.19523522484E+03  0.39501835181E+03  0.12699999809E+01 0. -1.
</event>
<event>
 5   0  0.1222679E-03  0.6997783E+03  0.7818609E-02  0.9717611E-01
        2   -1    0    0  501    0  0.00000000000E+00  0.00000000000E+00  0.53450463149E+03  0.53450463150E+03  0.25500000920E-02 0. -1.
       -2   -1    0    0    0  501  0.00000000000E+00  0.00000000000E+00 -0.22903902785E+03  0.22903902786E+03  0.25500000920E-02 0.  1.
    10030    2    1    2    0    0  0.00000000000E+00  0.00000000000E+00  0.30546560364E+03  0.76354365936E+03  0.69977831113E+03 0.  0.
        2    1    3    3  502    0  0.60357657215E+02 -0.24303430520E+03 -0.11389804459E+03  0.27510268057E+03  0.25500000920E-02 0.  1.
       -2    1    3    3    0  502 -0.60357657215E+02  0.24303430520E+03  0.41936364823E+03  0.48844097878E+03  0.25500000920E-02 0. -1.
</event>
<event>
 5   0  0.1224048E-03  0.7000263E+03  0.7818609E-02  0.9717187E-01
        2   -1    0    0  501    0  0.00000000000E+00  0.00000000000E+00  0.85219479431E+03  0.85219479431E+03  0.25500000920E-02 0.  1.
       -2   -1    0    0    0  501  0.00000000000E+00  0.00000000000E+00 -0.14375728557E+03  0.14375728559E+03  0.25500000920E-02 0. -1.
    10030    2    1    2    0    0  0.00000000000E+00  0.00000000000E+00  0.70843750874E+03  0.99595207990E+03  0.70002631499E+03 0.  0.
        3    1    3    3  502    0  0.81876884153E+02  0.12053145320E+03  0.80699189858E+03  0.82004121234E+03  0.10100000352E+00 0.  1.
       -3    1    3    3    0  502 -0.81876884153E+02 -0.12053145320E+03 -0.98554389841E+02  0.17591086756E+03  0.10100000352E+00 0. -1.
</event>
<event>
 5   0  0.4936000E-04  0.6995483E+03  0.7818609E-02  0.9718005E-01
        4   -1    0    0  501    0  0.00000000000E+00  0.00000000000E+00  0.56238085003E+03  0.56238228402E+03  0.12699999809E+01 0. -1.
       -4   -1    0    0    0  501  0.00000000000E+00  0.00000000000E+00 -0.21753932259E+03  0.21754302970E+03  0.12699999809E+01 0.  1.
    10030    2    1    2    0    0  0.00000000000E+00  0.00000000000E+00  0.34484152745E+03  0.77992531372E+03  0.69954829421E+03 0.  0.
        4    1    3    3  502    0 -0.31550237109E+03 -0.10896586560E+03  0.28895317525E+03  0.44148709655E+03  0.12699999809E+01 0.  1.
       -4    1    3    3    0  502  0.31550237109E+03  0.10896586560E+03  0.55888352192E+02  0.33843821717E+03  0.12699999809E+01 0. -1.
</event>
<event>
 5   0  0.1243087E-03  0.7001460E+03  0.7818609E-02  0.9716983E-01
       -2   -1    0    0    0  501  0.00000000000E+00  0.00000000000E+00  0.94239451850E+02  0.94239451884E+02  0.25500000920E-02 0.  1.
        2   -1    0    0  501    0  0.00000000000E+00  0.00000000000E+00 -0.13004225298E+04  0.13004225298E+04  0.25500000920E-02 0. -1.
    10030    2    1    2    0    0  0.00000000000E+00  0.00000000000E+00 -0.12061830779E+04  0.13946619817E+04  0.70014600307E+03 0.  0.
        4    1    3    3  502    0  0.29688996641E+03 -0.17846509882E+03 -0.70379977949E+03  0.78442921042E+03  0.12699999809E+01 0. -1.
       -4    1    3    3    0  502 -0.29688996641E+03  0.17846509882E+03 -0.50238329843E+03  0.61023277124E+03  0.12699999809E+01 0.  1.
</event>
<event>
 5   0  0.1224048E-03  0.6999986E+03  0.7818609E-02  0.9717235E-01
        2   -1    0    0  501    0  0.00000000000E+00  0.00000000000E+00  0.16037406035E+04  0.16037406035E+04  0.25500000920E-02 0. -1.
       -2   -1    0    0    0  501  0.00000000000E+00  0.00000000000E+00 -0.76383623506E+02  0.76383623548E+02  0.25500000920E-02 0.  1.
    10030    2    1    2    0    0  0.00000000000E+00  0.00000000000E+00  0.15273569800E+04  0.16801242270E+04  0.69999862427E+03 0.  0.
        3    1    3    3  502    0 -0.22830852383E+03  0.16921410717E+03  0.12540522879E+04  0.12858481042E+04  0.10100000352E+00 0. -1.
       -3    1    3    3    0  502  0.22830852383E+03 -0.16921410717E+03  0.27330469210E+03  0.39427612284E+03  0.10100000352E+00 0.  1.
</event>
<event>
 5   0  0.7574241E-04  0.7002769E+03  0.7818609E-02  0.9716759E-01
        1   -1    0    0  501    0  0.00000000000E+00  0.00000000000E+00  0.10481841978E+04  0.10481841978E+04  0.50400001928E-02 0. -1.
       -1   -1    0    0    0  501  0.00000000000E+00  0.00000000000E+00 -0.11696126500E+03  0.11696126511E+03  0.50400001928E-02 0.  1.
    10030    2    1    2    0    0  0.00000000000E+00  0.00000000000E+00  0.93122293278E+03  0.11651454629E+04  0.70027694464E+03 0.  0.
        3    1    3    3  502    0  0.28795601823E+03 -0.19289560602E+03  0.38292778791E+03  0.51648919080E+03  0.10100000352E+00 0.  1.
       -3    1    3    3    0  502 -0.28795601823E+03  0.19289560602E+03  0.54829514487E+03  0.64865627211E+03  0.10100000352E+00 0. -1.
</event>
<event>
 5   0  0.1224048E-03  0.7002249E+03  0.7818609E-02  0.9716848E-01
       -2   -1    0    0    0  501  0.00000000000E+00  0.00000000000E+00  0.16691015321E+03  0.16691015323E+03  0.25500000920E-02 0. -1.
        2   -1    0    0  501    0  0.00000000000E+00  0.00000000000E+00 -0.73439953257E+03  0.73439953257E+03  0.25500000920E-02 0.  1.
    10030    2    1    2    0    0  0.00000000000E+00  0.00000000000E+00 -0.56748937936E+03  0.90130968580E+03  0.70022493102E+03 0.  0.
        3    1    3    3  502    0 -0.11540986076E+03  0.87436760951E+02  0.12656660052E+03  0.19231156412E+03  0.10100000352E+00 0. -1.
       -3    1    3    3    0  502  0.11540986076E+03 -0.87436760951E+02 -0.69405597988E+03  0.70899812168E+03  0.10100000352E+00 0.  1.
</event>
<event>
 5   0  0.7459843E-04  0.7019300E+03  0.7818609E-02  0.9713937E-01
        1   -1    0    0  501    0  0.00000000000E+00  0.00000000000E+00  0.32087713850E+03  0.32087713854E+03  0.50400001928E-02 0. -1.
       -1   -1    0    0    0  501  0.00000000000E+00  0.00000000000E+00 -0.38387416763E+03  0.38387416766E+03  0.50400001928E-02 0.  1.
    10030    2    1    2    0    0  0.00000000000E+00  0.00000000000E+00 -0.62997029126E+02  0.70475130621E+03  0.70193003777E+03 0.  0.
        2    1    3    3  502    0  0.84415543632E+02  0.67493119917E+02  0.30375244452E+03  0.32240789817E+03  0.25500000920E-02 0. -1.
       -2    1    3    3    0  502 -0.84415543632E+02 -0.67493119917E+02 -0.36674947365E+03  0.38234340804E+03  0.25500000920E-02 0.  1.
</event>
<event>
 5   0  0.7013526E-04  0.7003788E+03  0.7818609E-02  0.9716585E-01
       -1   -1    0    0    0  501  0.00000000000E+00  0.00000000000E+00  0.84971486271E+02  0.84971486421E+02  0.50400001928E-02 0. -1.
        1   -1    0    0  501    0  0.00000000000E+00  0.00000000000E+00 -0.14432207373E+04  0.14432207373E+04  0.50400001928E-02 0.  1.
    10030    2    1    2    0    0  0.00000000000E+00  0.00000000000E+00 -0.13582492510E+04  0.15281922237E+04  0.70037878661E+03 0.  0.
        1    1    3    3  502    0  0.16953770903E+03 -0.20227333743E+03 -0.17691991117E+03  0.31773918992E+03  0.50400001928E-02 0. -1.
       -1    1    3    3    0  502 -0.16953770903E+03  0.20227333743E+03 -0.11813293398E+04  0.12104530338E+04  0.50400001928E-02 0.  1.
</event>
<event>
 5   0  0.1243087E-03  0.7008113E+03  0.7818609E-02  0.9715846E-01
        2   -1    0    0  501    0  0.00000000000E+00  0.00000000000E+00  0.97114451198E+03  0.97114451198E+03  0.25500000920E-02 0. -1.
       -2   -1    0    0    0  501  0.00000000000E+00  0.00000000000E+00 -0.12643240425E+03  0.12643240427E+03  0.25500000920E-02 0.  1.
    10030    2    1    2    0    0  0.00000000000E+00  0.00000000000E+00  0.84471210773E+03  0.10975769163E+04  0.70081134561E+03 0.  0.
        4    1    3    3  502    0 -0.32748341378E+02  0.20352606414E+03  0.86612511801E+03  0.89031996810E+03  0.12699999809E+01 0. -1.
       -4    1    3    3    0  502  0.32748341378E+02 -0.20352606414E+03 -0.21413010281E+02  0.20725694815E+03  0.12699999809E+01 0.  1.
</event>
<event>
 5   0  0.1243087E-03  0.7000140E+03  0.7818609E-02  0.9717208E-01
       -2   -1    0    0    0  501  0.00000000000E+00  0.00000000000E+00  0.13441162747E+03  0.13441162750E+03  0.25500000920E-02 0.  1.
        2   -1    0    0  501    0  0.00000000000E+00  0.00000000000E+00 -0.91141593677E+03  0.91141593678E+03  0.25500000920E-02 0. -1.
    10030    2    1    2    0    0  0.00000000000E+00  0.00000000000E+00 -0.77700430930E+03  0.10458275643E+04  0.70001399809E+03 0.  0.
        4    1    3    3  502    0  0.28096472341E+03 -0.18704432715E+03 -0.25014259408E+03  0.42011865752E+03  0.12699999809E+01 0.  1.
       -4    1    3    3    0  502 -0.28096472341E+03  0.18704432715E+03 -0.52686171522E+03  0.62570890675E+03  0.12699999809E+01 0. -1.
</event>
<event>
 5   0  0.1243087E-03  0.6999994E+03  0.7818609E-02  0.9717233E-01
       -2   -1    0    0    0  501  0.00000000000E+00  0.00000000000E+00  0.20489670179E+03  0.20489670181E+03  0.25500000920E-02 0. -1.
        2   -1    0    0  501    0  0.00000000000E+00  0.00000000000E+00 -0.59786125896E+03  0.59786125896E+03  0.25500000920E-02 0.  1.
    10030    2    1    2    0    0  0.00000000000E+00  0.00000000000E+00 -0.39296455716E+03  0.80275796077E+03  0.69999942886E+03 0.  0.
        4    1    3    3  502    0  0.13164271255E+03  0.32028229381E+03 -0.13814602928E+03  0.37282233007E+03  0.12699999809E+01 0.  1.
       -4    1    3    3    0  502 -0.13164271255E+03 -0.32028229381E+03 -0.25481852788E+03  0.42993563070E+03  0.12699999809E+01 0. -1.
</event>
<event>
 5   0  0.4936000E-04  0.7000412E+03  0.7818609E-02  0.9717162E-01
       -3   -1    0    0    0  501  0.00000000000E+00  0.00000000000E+00  0.12131782610E+03  0.12131786815E+03  0.10100000352E+00 0.  1.
        3   -1    0    0  501    0  0.00000000000E+00  0.00000000000E+00 -0.10098629453E+04  0.10098629503E+04  0.10100000352E+00 0. -1.
    10030    2    1    2    0    0  0.00000000000E+00  0.00000000000E+00 -0.88854511915E+03  0.11311808185E+04  0.70004115255E+03 0.  0.
        2    1    3    3  502    0  0.12173075508E+03 -0.32811218729E+03 -0.45428834570E+03  0.57345783212E+03  0.25500000920E-02 0.  1.
       -2    1    3    3    0  502 -0.12173075508E+03  0.32811218729E+03 -0.43425677345E+03  0.55772298633E+03  0.25500000920E-02 0. -1.
</event>
<event>
 5   0  0.7013526E-04  0.6988807E+03  0.7818609E-02  0.9719148E-01
       -1   -1    0    0    0  501  0.00000000000E+00  0.00000000000E+00  0.46429888290E+03  0.46429888293E+03  0.50400001928E-02 0. -1.
        1   -1    0    0  501    0  0.00000000000E+00  0.00000000000E+00 -0.26299557581E+03  0.26299557586E+03  0.50400001928E-02 0.  1.
    10030    2    1    2    0    0  0.00000000000E+00  0.00000000000E+00  0.20130330709E+03  0.72729445879E+03  0.69888068248E+03 0.  0.
        1    1    3    3  502    0 -0.11396447908E+03 -0.32800985487E+03  0.59943709694E+02  0.35237993095E+03  0.50400001928E-02 0.  1.
       -1    1    3    3    0  502  0.11396447908E+03  0.32800985487E+03  0.14135959739E+03  0.37491452783E+03  0.50400001928E-02 0. -1.
</event>
<event>
 5   0  0.4936000E-04  0.7004616E+03  0.7818609E-02  0.9716443E-01
        3   -1    0    0  501    0  0.00000000000E+00  0.00000000000E+00  0.16524087275E+03  0.16524090362E+03  0.10100000352E+00 0.  1.
       -3   -1    0    0    0  501  0.00000000000E+00  0.00000000000E+00 -0.74232000537E+03  0.74232001224E+03  0.10100000352E+00 0. -1.
    10030    2    1    2    0    0  0.00000000000E+00  0.00000000000E+00 -0.57707913262E+03  0.90756091586E+03  0.70046162685E+03 0.  0.
        2    1    3    3  502    0  0.12311622200E+03  0.26371320903E+03 -0.36103799888E+02  0.29326736114E+03  0.25500000920E-02 0.  1.
       -2    1    3    3    0  502 -0.12311622200E+03 -0.26371320903E+03 -0.54097533274E+03  0.61429355472E+03  0.25500000920E-02 0. -1.
</event>
<event>
 5   0  0.1224048E-03  0.6999801E+03  0.7818609E-02  0.9717266E-01
       -2   -1    0    0    0  501  0.00000000000E+00  0.00000000000E+00  0.38418848905E+03  0.38418848906E+03  0.25500000920E-02 0. -1.
        2   -1    0    0  501    0  0.00000000000E+00  0.00000000000E+00 -0.31883580908E+03  0.31883580909E+03  0.25500000920E-02 0.  1.
    10030    2    1    2    0    0  0.00000000000E+00  0.00000000000E+00  0.65352679967E+02  0.70302429815E+03  0.69998013615E+03 0.  0.
        3    1    3    3  502    0  0.21831179377E+03  0.97532280220E+02  0.28936649493E+03  0.37537389836E+03  0.10100000352E+00 0. -1.
       -3    1    3    3    0  502 -0.21831179377E+03 -0.97532280220E+02 -0.22401381496E+03  0.32765039979E+03  0.10100000352E+00 0.  1.
</event>
<event>
 5   0  0.4936000E-04  0.6987672E+03  0.7818609E-02  0.9719343E-01
       -3   -1    0    0    0  501  0.00000000000E+00  0.00000000000E+00  0.55154703367E+03  0.55154704292E+03  0.10100000352E+00 0. -1.
        3   -1    0    0  501    0  0.00000000000E+00  0.00000000000E+00 -0.22132087484E+03  0.22132089788E+03  0.10100000352E+00 0.  1.
    10030    2    1    2    0    0  0.00000000000E+00  0.00000000000E+00  0.33022615884E+03  0.77286794081E+03  0.69876715574E+03 0.  0.
        1    1    3    3  502    0  0.23422808286E+03 -0.84957021927E+02  0.43601147140E+03  0.50218173363E+03  0.50400001928E-02 0. -1.
       -1    1    3    3    0  502 -0.23422808286E+03  0.84957021927E+02 -0.10578531257E+03  0.27068620717E+03  0.50400001928E-02 0.  1.
</event>
<event>
 5   0  0.1265562E-03  0.7000270E+03  0.7818609E-02  0.9717186E-01
       -2   -1    0    0    0  501  0.00000000000E+00  0.00000000000E+00  0.41228080021E+03  0.41228080022E+03  0.25500000920E-02 0. -1.
        2   -1    0    0  501    0  0.00000000000E+00  0.00000000000E+00 -0.29715053023E+03  0.29715053024E+03  0.25500000920E-02 0.  1.
    10030    2    1    2    0    0  0.00000000000E+00  0.00000000000E+00  0.11513026998E+03  0.70943133046E+03  0.70002702346E+03 0.  0.
        1    1    3    3  502    0 -0.12214030769E+03 -0.32775409566E+03  0.70718573366E+02  0.35685027480E+03  0.50400001928E-02 0.  1.
       -1    1    3    3    0  502  0.12214030769E+03  0.32775409566E+03  0.44411696612E+02  0.35258105565E+03  0.50400001928E-02 0. -1.
</event>
<event>
 5   0  0.4936000E-04  0.6997041E+03  0.7818609E-02  0.9717738E-01
        4   -1    0    0  501    0  0.00000000000E+00  0.00000000000E+00  0.47859918306E+03  0.47860086808E+03  0.12699999809E+01 0. -1.
       -4   -1    0    0    0  501  0.00000000000E+00  0.00000000000E+00 -0.25573522562E+03  0.25573837906E+03  0.12699999809E+01 0.  1.
    10030    2    1    2    0    0  0.00000000000E+00  0.00000000000E+00  0.22286395744E+03  0.73433924714E+03  0.69970407057E+03 0.  0.
        1    1    3    3  502    0 -0.14941309500E+03 -0.14420114647E+03  0.40693317140E+03  0.45685101468E+03  0.50400001928E-02 0. -1.
       -1    1    3    3    0  502  0.14941309500E+03  0.14420114647E+03 -0.18406921396E+03  0.27748823246E+03  0.50400001928E-02 0.  1.
</event>
<event>
 5   0  0.7013526E-04  0.6998713E+03  0.7818609E-02  0.9717452E-01
       -1   -1    0    0    0  501  0.00000000000E+00  0.00000000000E+00  0.94426388157E+02  0.94426388292E+02  0.50400001928E-02 0. -1.
        1   -1    0    0  501    0  0.00000000000E+00  0.00000000000E+00 -0.12968297666E+04  0.12968297666E+04  0.50400001928E-02 0.  1.
    10030    2    1    2    0    0  0.00000000000E+00  0.00000000000E+00 -0.12024033784E+04  0.13912561549E+04  0.69987127678E+03 0.  0.
        1    1    3    3  502    0  0.28759103908E+03 -0.13766922927E+02 -0.99656794327E+03  0.10373262744E+04  0.50400001928E-02 0.  1.
       -1    1    3    3    0  502 -0.28759103908E+03  0.13766922927E+02 -0.20583543516E+03  0.35392988051E+03  0.50400001928E-02 0. -1.
</event>
<event>
 5   0  0.7459843E-04  0.7003608E+03  0.7818609E-02  0.9716615E-01
        1   -1    0    0  501    0  0.00000000000E+00  0.00000000000E+00  0.10136520251E+04  0.10136520251E+04  0.50400001928E-02 0. -1.
       -1   -1    0    0    0  501  0.00000000000E+00  0.00000000000E+00 -0.12097474641E+03  0.12097474652E+03  0.50400001928E-02 0.  1.
    10030    2    1    2    0    0  0.00000000000E+00  0.00000000000E+00  0.89267727872E+03  0.11346267717E+04  0.70036075491E+03 0.  0.
        2    1    3    3  502    0  0.72876307195E+01 -0.34746928248E+03  0.51579909638E+03  0.62196199214E+03  0.25500000920E-02 0. -1.
       -2    1    3    3    0  502 -0.72876307195E+01  0.34746928248E+03  0.37687818234E+03  0.51266477952E+03  0.25500000920E-02 0.  1.
</event>
<event>
 5   0  0.1224048E-03  0.7005104E+03  0.7818609E-02  0.9716360E-01
       -2   -1    0    0    0  501  0.00000000000E+00  0.00000000000E+00  0.54553960223E+03  0.54553960224E+03  0.25500000920E-02 0.  1.
        2   -1    0    0  501    0  0.00000000000E+00  0.00000000000E+00 -0.22487586831E+03  0.22487586833E+03  0.25500000920E-02 0. -1.
    10030    2    1    2    0    0  0.00000000000E+00  0.00000000000E+00  0.32066373392E+03  0.77041547057E+03  0.70051036184E+03 0.  0.
        3    1    3    3  502    0 -0.27768186189E+03 -0.21112379703E+03  0.19507914890E+03  0.39967031242E+03  0.10100000352E+00 0.  1.
       -3    1    3    3    0  502  0.27768186189E+03  0.21112379703E+03  0.12558458502E+03  0.37074515815E+03  0.10100000352E+00 0. -1.
</event>
<event>
 5   0  0.7459843E-04  0.6999189E+03  0.7818609E-02  0.9717371E-01
       -1   -1    0    0    0  501  0.00000000000E+00  0.00000000000E+00  0.90514935091E+02  0.90514935232E+02  0.50400001928E-02 0.  1.
        1   -1    0    0  501    0  0.00000000000E+00  0.00000000000E+00 -0.13530541097E+04  0.13530541097E+04  0.50400001928E-02 0. -1.
    10030    2    1    2    0    0  0.00000000000E+00  0.00000000000E+00 -0.12625391746E+04  0.14435690449E+04  0.69991886679E+03 0.  0.
        2    1    3    3  502    0 -0.28300253819E+03  0.40607660346E+02 -0.21501529854E+03  0.35773034161E+03  0.25500000920E-02 0.  1.
       -2    1    3    3    0  502  0.28300253819E+03 -0.40607660346E+02 -0.10475238761E+04  0.10858387033E+04  0.25500000920E-02 0. -1.
</event>
<event>
 5   0  0.1222679E-03  0.6977992E+03  0.7818609E-02  0.9721003E-01
        2   -1    0    0  501    0  0.00000000000E+00  0.00000000000E+00  0.25793182369E+03  0.25793182371E+03  0.25500000920E-02 0.  1.
       -2   -1    0    0    0  501  0.00000000000E+00  0.00000000000E+00 -0.47195001631E+03  0.47195001632E+03  0.25500000920E-02 0. -1.
    10030    2    1    2    0    0  0.00000000000E+00  0.00000000000E+00 -0.21401819261E+03  0.72988184002E+03  0.69779919291E+03 0.  0.
        2    1    3    3  502    0  0.57557380614E+02  0.19687001475E+03  0.18820901153E+03  0.27837616062E+03  0.25500000920E-02 0.  1.
       -2    1    3    3    0  502 -0.57557380614E+02 -0.19687001475E+03 -0.40222720415E+03  0.45150567941E+03  0.25500000920E-02 0. -1.
</event>
<event>
 5   0  0.7574241E-04  0.7000636E+03  0.7818609E-02  0.9717123E-01
        1   -1    0    0  501    0  0.00000000000E+00  0.00000000000E+00  0.68069618304E+03  0.68069618305E+03  0.50400001928E-02 0. -1.
       -1   -1    0    0    0  501  0.00000000000E+00  0.00000000000E+00 -0.17999551105E+03  0.17999551112E+03  0.50400001928E-02 0.  1.
    10030    2    1    2    0    0  0.00000000000E+00  0.00000000000E+00  0.50070067198E+03  0.86069169418E+03  0.70006358961E+03 0.  0.
        3    1    3    3  502    0 -0.32772353517E+02  0.34235611493E+03  0.33041100178E+03  0.47692051422E+03  0.10100000352E+00 0. -1.
       -3    1    3    3    0  502  0.32772353517E+02 -0.34235611493E+03  0.17028967020E+03  0.38377117996E+03  0.10100000352E+00 0.  1.
</event>
<event>
 5   0  0.7013526E-04  0.6999534E+03  0.7818609E-02  0.9717312E-01
       -1   -1    0    0    0  501  0.00000000000E+00  0.00000000000E+00  0.43387810903E+03  0.43387810906E+03  0.50400001928E-02 0. -1.
        1   -1    0    0  501    0  0.00000000000E+00  0.00000000000E+00 -0.28229976159E+03  0.28229976163E+03  0.50400001928E-02 0.  1.
    10030    2    1    2    0    0  0.00000000000E+00  0.00000000000E+00  0.15157834744E+03  0.71617787069E+03  0.69995338920E+03 0.  0.
        1    1    3    3  502    0 -0.10146817169E+03  0.91539058948E+02  0.40545067306E+03  0.42786146997E+03  0.50400001928E-02 0. -1.
       -1    1    3    3    0  502  0.10146817169E+03 -0.91539058948E+02 -0.25387232562E+03  0.28831640071E+03  0.50400001928E-02 0.  1.
</event>
<event>
 5   0  0.1243087E-03  0.7003544E+03  0.7818609E-02  0.9716626E-01
        2   -1    0    0  501    0  0.00000000000E+00  0.00000000000E+00  0.84868207193E+03  0.84868207194E+03  0.25500000920E-02 0.  1.
       -2   -1    0    0    0  501  0.00000000000E+00  0.00000000000E+00 -0.14448763131E+03  0.14448763133E+03  0.25500000920E-02 0. -1.
    10030    2    1    2    0    0  0.00000000000E+00  0.00000000000E+00  0.70419444063E+03  0.99316970327E+03  0.70035437407E+03 0.  0.
        4    1    3    3  502    0 -0.32600305401E+03  0.12609771096E+03  0.38197248317E+03  0.51776752962E+03  0.12699999809E+01 0.  1.
       -4    1    3    3    0  502  0.32600305401E+03 -0.12609771096E+03  0.32222195746E+03  0.47540217364E+03  0.12699999809E+01 0. -1.
</event>
<event>
 5   0  0.1282546E-03  0.6999649E+03  0.7818609E-02  0.9717292E-01
        2   -1    0    0  501    0  0.00000000000E+00  0.00000000000E+00  0.59170572632E+03  0.59170572632E+03  0.25500000920E-02 0. -1.
       -2   -1    0    0    0  501  0.00000000000E+00  0.00000000000E+00 -0.20700782089E+03  0.20700782091E+03  0.25500000920E-02 0.  1.
    10030    2    1    2    0    0  0.00000000000E+00  0.00000000000E+00  0.38469790543E+03  0.79871354723E+03  0.69996489347E+03 0.  0.
        5    1    3    3  502    0  0.31790330813E+03  0.28282961713E+02  0.28560997779E+02  0.32046881257E+03  0.46999998093E+01 0.  1.
       -5    1    3    3    0  502 -0.31790330813E+03 -0.28282961713E+02  0.35613690765E+03  0.47824473466E+03  0.46999998093E+01 0. -1.
</event>
<event>
 5   0  0.7459843E-04  0.7001156E+03  0.7818609E-02  0.9717035E-01
       -1   -1    0    0    0  501  0.00000000000E+00  0.00000000000E+00  0.34167916780E+03  0.34167916784E+03  0.50400001928E-02 0.  1.
        1   -1    0    0  501    0  0.00000000000E+00  0.00000000000E+00 -0.35864185086E+03  0.35864185090E+03  0.50400001928E-02 0. -1.
    10030    2    1    2    0    0  0.00000000000E+00  0.00000000000E+00 -0.16962683061E+02  0.70032101874E+03  0.70011555951E+03 0.  0.
        2    1    3    3  502    0 -0.53180648073E+02  0.34238501436E+03  0.41380751971E+02  0.34895278482E+03  0.25500000920E-02 0.  1.
       -2    1    3    3    0  502  0.53180648073E+02 -0.34238501436E+03 -0.58343435032E+02  0.35136823392E+03  0.25500000920E-02 0. -1.
</event>
<event>
 5   0  0.7459843E-04  0.6998842E+03  0.7818609E-02  0.9717430E-01
       -1   -1    0    0    0  501  0.00000000000E+00  0.00000000000E+00  0.36791708207E+03  0.36791708210E+03  0.50400001928E-02 0. -1.
        1   -1    0    0  501    0  0.00000000000E+00  0.00000000000E+00 -0.33284526991E+03  0.33284526995E+03  0.50400001928E-02 0.  1.
    10030    2    1    2    0    0  0.00000000000E+00  0.00000000000E+00  0.35071812152E+02  0.70076235205E+03  0.69988416331E+03 0.  0.
        2    1    3    3  502    0 -0.50647452105E+02 -0.34614873855E+03  0.88447550193E+01  0.34994620058E+03  0.25500000920E-02 0. -1.
       -2    1    3    3    0  502  0.50647452105E+02  0.34614873855E+03  0.26227057132E+02  0.35081615147E+03  0.25500000920E-02 0.  1.
</event>
<event>
 5   0  0.7013526E-04  0.7000213E+03  0.7818609E-02  0.9717196E-01
       -1   -1    0    0    0  501  0.00000000000E+00  0.00000000000E+00  0.54805610627E+02  0.54805610858E+02  0.50400001928E-02 0.  1.
        1   -1    0    0  501    0  0.00000000000E+00  0.00000000000E+00 -0.22353087931E+04  0.22353087931E+04  0.50400001928E-02 0. -1.
    10030    2    1    2    0    0  0.00000000000E+00  0.00000000000E+00 -0.21805031825E+04  0.22901144040E+04  0.70002132430E+03 0.  0.
        1    1    3    3  502    0 -0.83897166992E+02  0.15441377110E+03 -0.20805205775E+04  0.20879291705E+04  0.50400001928E-02 0. -1.
       -1    1    3    3    0  502  0.83897166992E+02 -0.15441377110E+03 -0.99982604984E+02  0.20218523354E+03  0.50400001928E-02 0.  1.
</event>
<event>
 5   0  0.7570633E-04  0.7000544E+03  0.7818609E-02  0.9717139E-01
        1   -1    0    0  501    0  0.00000000000E+00  0.00000000000E+00  0.11661609867E+04  0.11661609867E+04  0.50400001928E-02 0.  1.
       -1   -1    0    0    0  501  0.00000000000E+00  0.00000000000E+00 -0.10506186735E+03  0.10506186747E+03  0.50400001928E-02 0. -1.
    10030    2    1    2    0    0  0.00000000000E+00  0.00000000000E+00  0.10610991194E+04  0.12712228542E+04  0.70005442925E+03 0.  0.
        5    1    3    3  502    0  0.20736574312E+03 -0.11915265699E+03  0.99457664252E+03  0.10229382655E+04  0.46999998093E+01 0.  1.
       -5    1    3    3    0  502 -0.20736574312E+03  0.11915265699E+03  0.66522476865E+02  0.24828458876E+03  0.46999998093E+01 0. -1.
</event>
<event>
 5   0  0.7574241E-04  0.6999519E+03  0.7818609E-02  0.9717314E-01
        1   -1    0    0  501    0  0.00000000000E+00  0.00000000000E+00  0.27999836833E+03  0.27999836838E+03  0.50400001928E-02 0.  1.
       -1   -1    0    0    0  501  0.00000000000E+00  0.00000000000E+00 -0.43744243676E+03  0.43744243678E+03  0.50400001928E-02 0. -1.
    10030    2    1    2    0    0  0.00000000000E+00  0.00000000000E+00 -0.15744406842E+03  0.71744080516E+03  0.69995190851E+03 0.  0.
        3    1    3    3  502    0 -0.19375794629E+03 -0.10377948185E+03 -0.35786999413E+03  0.41998007750E+03  0.10100000352E+00 0. -1.
       -3    1    3    3    0  502  0.19375794629E+03  0.10377948185E+03  0.20042592570E+03  0.29746072766E+03  0.10100000352E+00 0.  1.
</event>
<event>
 5   0  0.1265562E-03  0.6999284E+03  0.7818609E-02  0.9717355E-01
       -2   -1    0    0    0  501  0.00000000000E+00  0.00000000000E+00  0.97152266920E+02  0.97152266953E+02  0.25500000920E-02 0.  1.
        2   -1    0    0  501    0  0.00000000000E+00  0.00000000000E+00 -0.12606492094E+04  0.12606492094E+04  0.25500000920E-02 0. -1.
    10030    2    1    2    0    0  0.00000000000E+00  0.00000000000E+00 -0.11634969425E+04  0.13578014764E+04  0.69992836351E+03 0.  0.
        1    1    3    3  502    0 -0.33432235529E+03 -0.88324358446E+02 -0.47723945602E+03  0.58934720492E+03  0.50400001928E-02 0.  1.
       -1    1    3    3    0  502  0.33432235529E+03  0.88324358446E+02 -0.68625748649E+03  0.76845427146E+03  0.50400001928E-02 0. -1.
</event>
<event>
 5   0  0.7574241E-04  0.7003779E+03  0.7818609E-02  0.9716586E-01
       -1   -1    0    0    0  501  0.00000000000E+00  0.00000000000E+00  0.39048073287E+03  0.39048073290E+03  0.50400001928E-02 0. -1.
        1   -1    0    0  501    0  0.00000000000E+00  0.00000000000E+00 -0.31405468639E+03  0.31405468643E+03  0.50400001928E-02 0.  1.
    10030    2    1    2    0    0  0.00000000000E+00  0.00000000000E+00  0.76426046480E+02  0.70453541933E+03  0.70037790979E+03 0.  0.
        3    1    3    3  502    0  0.17534769066E+03  0.26537240254E+03 -0.10915908404E+03  0.33628119258E+03  0.10100000352E+00 0.  1.
       -3    1    3    3    0  502 -0.17534769066E+03 -0.26537240254E+03  0.18558513052E+03  0.36825422676E+03  0.10100000352E+00 0. -1.
</event>
<event>
 5   0  0.7013526E-04  0.7000342E+03  0.7818609E-02  0.9717174E-01
        1   -1    0    0  501    0  0.00000000000E+00  0.00000000000E+00  0.68009514457E+03  0.68009514459E+03  0.50400001928E-02 0. -1.
       -1   -1    0    0    0  501  0.00000000000E+00  0.00000000000E+00 -0.18013943506E+03  0.18013943513E+03  0.50400001928E-02 0.  1.
    10030    2    1    2    0    0  0.00000000000E+00  0.00000000000E+00  0.49995570951E+03  0.86023457971E+03  0.70003415678E+03 0.  0.
        1    1    3    3  502    0 -0.23758274209E+03  0.24756854001E+03  0.33490363480E+03  0.47947490651E+03  0.50400001928E-02 0. -1.
       -1    1    3    3    0  502  0.23758274209E+03 -0.24756854001E+03  0.16505207471E+03  0.38075967320E+03  0.50400001928E-02 0.  1.
</event>
<event>
 5   0  0.7013526E-04  0.7011682E+03  0.7818609E-02  0.9715236E-01
        1   -1    0    0  501    0  0.00000000000E+00  0.00000000000E+00  0.13052586781E+04  0.13052586781E+04  0.50400001928E-02 0. -1.
       -1   -1    0    0    0  501  0.00000000000E+00  0.00000000000E+00 -0.94164638591E+02  0.94164638725E+02  0.50400001928E-02 0.  1.
    10030    2    1    2    0    0  0.00000000000E+00  0.00000000000E+00  0.12110940395E+04  0.13994233168E+04  0.70116820175E+03 0.  0.
        1    1    3    3  502    0  0.18458975538E+03  0.91778041965E+02  0.39582751729E+02  0.20991279389E+03  0.50400001928E-02 0.  1.
       -1    1    3    3    0  502 -0.18458975538E+03 -0.91778041965E+02  0.11715112877E+04  0.11895105229E+04  0.50400001928E-02 0. -1.
</event>
<event>
 5   0  0.7459843E-04  0.7001232E+03  0.7818609E-02  0.9717021E-01
        1   -1    0    0  501    0  0.00000000000E+00  0.00000000000E+00  0.11185965877E+04  0.11185965877E+04  0.50400001928E-02 0.  1.
       -1   -1    0    0    0  501  0.00000000000E+00  0.00000000000E+00 -0.10955078694E+03  0.10955078706E+03  0.50400001928E-02 0. -1.
    10030    2    1    2    0    0  0.00000000000E+00  0.00000000000E+00  0.10090458008E+04  0.12281473748E+04  0.70012323640E+03 0.  0.
        2    1    3    3  502    0  0.25991180736E+03 -0.11465726542E+03  0.86335050424E+03  0.90888642266E+03  0.25500000920E-02 0.  1.
       -2    1    3    3    0  502 -0.25991180736E+03  0.11465726542E+03  0.14569529655E+03  0.31926095214E+03  0.25500000920E-02 0. -1.
</event>
<event>
 5   0  0.7574241E-04  0.7011491E+03  0.7818609E-02  0.9715269E-01
       -1   -1    0    0    0  501  0.00000000000E+00  0.00000000000E+00  0.10895562896E+03  0.10895562908E+03  0.50400001928E-02 0. -1.
        1   -1    0    0  501    0  0.00000000000E+00  0.00000000000E+00 -0.11280051336E+04  0.11280051336E+04  0.50400001928E-02 0.  1.
    10030    2    1    2    0    0  0.00000000000E+00  0.00000000000E+00 -0.10190495046E+04  0.12369607627E+04  0.70114908225E+03 0.  0.
        3    1    3    3  502    0 -0.16586411274E+03  0.28909503417E+03 -0.31775748783E+03  0.46049611719E+03  0.10100000352E+00 0. -1.
       -3    1    3    3    0  502  0.16586411274E+03 -0.28909503417E+03 -0.70129201682E+03  0.77646464551E+03  0.10100000352E+00 0.  1.
</event>
<event>
 5   0  0.1265562E-03  0.7002739E+03  0.7818609E-02  0.9716764E-01
        2   -1    0    0  501    0  0.00000000000E+00  0.00000000000E+00  0.10512753407E+04  0.10512753407E+04  0.25500000920E-02 0.  1.
       -2   -1    0    0    0  501  0.00000000000E+00  0.00000000000E+00 -0.11661633148E+03  0.11661633151E+03  0.25500000920E-02 0. -1.
    10030    2    1    2    0    0  0.00000000000E+00  0.00000000000E+00  0.93465900925E+03  0.11678916722E+04  0.70027387108E+03 0.  0.
        1    1    3    3  502    0  0.32808974580E+03  0.50382317484E+02  0.65315327034E+03  0.73265984863E+03  0.50400001928E-02 0.  1.
       -1    1    3    3    0  502 -0.32808974580E+03 -0.50382317484E+02  0.28150573891E+03  0.43523182361E+03  0.50400001928E-02 0. -1.
</event>
<event>
 5   0  0.1224048E-03  0.7001472E+03  0.7818609E-02  0.9716980E-01
       -2   -1    0    0    0  501  0.00000000000E+00  0.00000000000E+00  0.92766619567E+02  0.92766619602E+02  0.25500000920E-02 0.  1.
        2   -1    0    0  501    0  0.00000000000E+00  0.00000000000E+00 -0.13210735742E+04  0.13210735742E+04  0.25500000920E-02 0. -1.
    10030    2    1    2    0    0  0.00000000000E+00  0.00000000000E+00 -0.12283069547E+04  0.14138401938E+04  0.70014721225E+03 0.  0.
        3    1    3    3  502    0  0.30043570928E+03 -0.79505826255E+02 -0.93956752448E+03  0.98963121165E+03  0.10100000352E+00 0. -1.
       -3    1    3    3    0  502 -0.30043570928E+03  0.79505826255E+02 -0.28873943018E+03  0.42420898217E+03  0.10100000352E+00 0.  1.
</event>
<event>
 5   0  0.7574241E-04  0.6999315E+03  0.7818609E-02  0.9717349E-01
        1   -1    0    0  501    0  0.00000000000E+00  0.00000000000E+00  0.54338886408E+03  0.54338886410E+03  0.50400001928E-02 0. -1.
       -1   -1    0    0    0  501  0.00000000000E+00  0.00000000000E+00 -0.22539295163E+03  0.22539295169E+03  0.50400001928E-02 0.  1.
    10030    2    1    2    0    0  0.00000000000E+00  0.00000000000E+00  0.31799591244E+03  0.76878181579E+03  0.69993148233E+03 0.  0.
        3    1    3    3  502    0 -0.41266813146E+02  0.34645613771E+03  0.18890108407E+03  0.39675992109E+03  0.10100000352E+00 0. -1.
       -3    1    3    3    0  502  0.41266813146E+02 -0.34645613771E+03  0.12909482837E+03  0.37202189470E+03  0.10100000352E+00 0.  1.
</event>
<event>
 5   0  0.4936000E-04  0.6999294E+03  0.7818609E-02  0.9717353E-01
       -4   -1    0    0    0  501  0.00000000000E+00  0.00000000000E+00  0.19564325759E+03  0.19564737959E+03  0.12699999809E+01 0. -1.
        4   -1    0    0  501    0  0.00000000000E+00  0.00000000000E+00 -0.62600195518E+03  0.62600324343E+03  0.12699999809E+01 0.  1.
    10030    2    1    2    0    0  0.00000000000E+00  0.00000000000E+00 -0.43035869759E+03  0.82165062302E+03  0.69992938052E+03 0.  0.
        2    1    3    3  502    0  0.22218527622E+03  0.10250407779E+03 -0.50889475512E+03  0.56466561320E+03  0.25500000920E-02 0.  1.
       -2    1    3    3    0  502 -0.22218527622E+03 -0.10250407779E+03  0.78536057531E+02  0.25698500982E+03  0.25500000920E-02 0. -1.
</event>
<event>
 5   0  0.7572415E-04  0.6998464E+03  0.7818609E-02  0.9717495E-01
       -1   -1    0    0    0  501  0.00000000000E+00  0.00000000000E+00  0.40804095879E+03  0.40804095882E+03  0.50400001928E-02 0.  1.
        1   -1    0    0  501    0  0.00000000000E+00  0.00000000000E+00 -0.30008325866E+03  0.30008325871E+03  0.50400001928E-02 0. -1.
    10030    2    1    2    0    0  0.00000000000E+00  0.00000000000E+00  0.10795770012E+03  0.70812421752E+03  0.69984644203E+03 0.  0.
        4    1    3    3  502    0  0.13893862817E+03 -0.44016675531E+02  0.37586618665E+03  0.40313572565E+03  0.12699999809E+01 0.  1.
       -4    1    3    3    0  502 -0.13893862817E+03  0.44016675531E+02 -0.26790848653E+03  0.30498849188E+03  0.12699999809E+01 0. -1.
</event>
<event>
 5   0  0.7459843E-04  0.7001186E+03  0.7818609E-02  0.9717029E-01
        1   -1    0    0  501    0  0.00000000000E+00  0.00000000000E+00  0.18860172720E+03  0.18860172727E+03  0.50400001928E-02 0.  1.
       -1   -1    0    0    0  501  0.00000000000E+00  0.00000000000E+00 -0.64973698395E+03  0.64973698397E+03  0.50400001928E-02 0. -1.
    10030    2    1    2    0    0  0.00000000000E+00  0.00000000000E+00 -0.46113525675E+03  0.83833871124E+03  0.70011861120E+03 0.  0.
        2    1    3    3  502    0 -0.21072717598E+03 -0.19626702301E+03 -0.46889657781E+03  0.55026419809E+03  0.25500000920E-02 0. -1.
       -2    1    3    3    0  502  0.21072717598E+03  0.19626702301E+03  0.77613210525E+01  0.28807451315E+03  0.25500000920E-02 0.  1.
</event>
<event>
 5   0  0.7013526E-04  0.6997099E+03  0.7818609E-02  0.9717728E-01
       -1   -1    0    0    0  501  0.00000000000E+00  0.00000000000E+00  0.52431270382E+03  0.52431270384E+03  0.50400001928E-02 0.  1.
        1   -1    0    0  501    0  0.00000000000E+00  0.00000000000E+00 -0.23344556990E+03  0.23344556995E+03  0.50400001928E-02 0. -1.
    10030    2    1    2    0    0  0.00000000000E+00  0.00000000000E+00  0.29086713392E+03  0.75775827380E+03  0.69970987696E+03 0.  0.
        1    1    3    3  502    0  0.93070205707E+02  0.14093908641E+03  0.47723792038E+03  0.50624294755E+03  0.50400001928E-02 0.  1.
       -1    1    3    3    0  502 -0.93070205707E+02 -0.14093908641E+03 -0.18637078645E+03  0.25151532625E+03  0.50400001928E-02 0. -1.
</event>
<event>
 5   0  0.7574241E-04  0.7001857E+03  0.7818609E-02  0.9716915E-01
        1   -1    0    0  501    0  0.00000000000E+00  0.00000000000E+00  0.18883685650E+04  0.18883685650E+04  0.50400001928E-02 0. -1.
       -1   -1    0    0    0  501  0.00000000000E+00  0.00000000000E+00 -0.64905238429E+02  0.64905238625E+02  0.50400001928E-02 0.  1.
    10030    2    1    2    0    0  0.00000000000E+00  0.00000000000E+00  0.18234633265E+04  0.19532738036E+04  0.70018572436E+03 0.  0.
        3    1    3    3  502    0 -0.14483208865E+03 -0.22660980384E+03  0.15369911263E+04  0.15603429333E+04  0.10100000352E+00 0. -1.
       -3    1    3    3    0  502  0.14483208865E+03  0.22660980384E+03  0.28647220027E+03  0.39293087029E+03  0.10100000352E+00 0.  1.
</event>
<event>
 5   0  0.1282546E-03  0.6990269E+03  0.7818609E-02  0.9718898E-01
       -2   -1    0    0    0  501  0.00000000000E+00  0.00000000000E+00  0.14315546317E+03  0.14315546319E+03  0.25500000920E-02 0.  1.
        2   -1    0    0  501    0  0.00000000000E+00  0.00000000000E+00 -0.85333562767E+03  0.85333562767E+03  0.25500000920E-02 0. -1.
    10030    2    1    2    0    0  0.00000000000E+00  0.00000000000E+00 -0.71018016450E+03  0.99649109086E+03  0.69902691516E+03 0.  0.
        5    1    3    3  502    0 -0.24684392544E+03  0.19053205709E+03 -0.13012924747E+03  0.33792025591E+03  0.46999998093E+01 0.  1.
       -5    1    3    3    0  502  0.24684392544E+03 -0.19053205709E+03 -0.58005091703E+03  0.65857083496E+03  0.46999998093E+01 0. -1.
</event>
<event>
 5   0  0.1243087E-03  0.7002638E+03  0.7818609E-02  0.9716781E-01
       -2   -1    0    0    0  501  0.00000000000E+00  0.00000000000E+00  0.10098690164E+03  0.10098690167E+03  0.25500000920E-02 0. -1.
        2   -1    0    0  501    0  0.00000000000E+00  0.00000000000E+00 -0.12139429361E+04  0.12139429361E+04  0.25500000920E-02 0.  1.
    10030    2    1    2    0    0  0.00000000000E+00  0.00000000000E+00 -0.11129560344E+04  0.13149298377E+04  0.70026376716E+03 0.  0.
        4    1    3    3  502    0  0.31804566444E+03  0.69594855126E+02 -0.79836892008E+03  0.86220127231E+03  0.12699999809E+01 0.  1.
       -4    1    3    3    0  502 -0.31804566444E+03 -0.69594855126E+02 -0.31458711435E+03  0.45272856542E+03  0.12699999809E+01 0. -1.
</event>
<event>
 5   0  0.7570633E-04  0.7000046E+03  0.7818609E-02  0.9717224E-01
       -1   -1    0    0    0  501  0.00000000000E+00  0.00000000000E+00  0.62881104504E+02  0.62881104706E+02  0.50400001928E-02 0.  1.
        1   -1    0    0  501    0  0.00000000000E+00  0.00000000000E+00 -0.19481465751E+04  0.19481465751E+04  0.50400001928E-02 0. -1.
    10030    2    1    2    0    0  0.00000000000E+00  0.00000000000E+00 -0.18852654706E+04  0.20110276798E+04  0.70000459595E+03 0.  0.
        5    1    3    3  502    0  0.25467784801E+03 -0.12073264762E+03 -0.15386585833E+04  0.15642664429E+04  0.46999998093E+01 0. -1.
       -5    1    3    3    0  502 -0.25467784801E+03  0.12073264762E+03 -0.34660688727E+03  0.44676123687E+03  0.46999998093E+01 0.  1.
</event>
<event>
 5   0  0.7570633E-04  0.7000127E+03  0.7818609E-02  0.9717210E-01
        1   -1    0    0  501    0  0.00000000000E+00  0.00000000000E+00  0.71775187723E+03  0.71775187725E+03  0.50400001928E-02 0. -1.
       -1   -1    0    0    0  501  0.00000000000E+00  0.00000000000E+00 -0.17067798026E+03  0.17067798033E+03  0.50400001928E-02 0.  1.
    10030    2    1    2    0    0  0.00000000000E+00  0.00000000000E+00  0.54707389697E+03  0.88842985758E+03  0.70001268781E+03 0.  0.
        5    1    3    3  502    0  0.81628983113E+01  0.21485057556E+03 -0.76933374298E+02  0.22840367074E+03  0.46999998093E+01 0.  1.
       -5    1    3    3    0  502 -0.81628983113E+01 -0.21485057556E+03  0.62400727127E+03  0.66002618685E+03  0.46999998093E+01 0. -1.
</event>
<event>
 5   0  0.1265562E-03  0.7001337E+03  0.7818609E-02  0.9717004E-01
        2   -1    0    0  501    0  0.00000000000E+00  0.00000000000E+00  0.30197889512E+03  0.30197889513E+03  0.25500000920E-02 0. -1.
       -2   -1    0    0    0  501  0.00000000000E+00  0.00000000000E+00 -0.40581244707E+03  0.40581244708E+03  0.25500000920E-02 0.  1.
    10030    2    1    2    0    0  0.00000000000E+00  0.00000000000E+00 -0.10383355196E+03  0.70779134221E+03  0.70013368552E+03 0.  0.
        1    1    3    3  502    0 -0.46855411041E+02  0.31298576021E+03  0.99357025500E+02  0.33170368430E+03  0.50400001928E-02 0. -1.
       -1    1    3    3    0  502  0.46855411041E+02 -0.31298576021E+03 -0.20319057745E+03  0.37608765791E+03  0.50400001928E-02 0.  1.
</event>
<event>
 5   0  0.1243087E-03  0.6997650E+03  0.7818609E-02  0.9717634E-01
       -2   -1    0    0    0  501  0.00000000000E+00  0.00000000000E+00  0.34834430038E+03  0.34834430039E+03  0.25500000920E-02 0.  1.
        2   -1    0    0  501    0  0.00000000000E+00  0.00000000000E+00 -0.35142747707E+03  0.35142747708E+03  0.25500000920E-02 0. -1.
    10030    2    1    2    0    0  0.00000000000E+00  0.00000000000E+00 -0.30831766872E+01  0.69977177747E+03  0.69976498523E+03 0.  0.
        4    1    3    3  502    0  0.16405088562E+03 -0.30871662220E+03  0.12512011801E+02  0.34982396893E+03  0.12699999809E+01 0. -1.
       -4    1    3    3    0  502 -0.16405088562E+03  0.30871662220E+03 -0.15595188488E+02  0.34994780854E+03  0.12699999809E+01 0.  1.
</event>
<event>
 5   0  0.1243087E-03  0.7001845E+03  0.7818609E-02  0.9716917E-01
       -2   -1    0    0    0  501  0.00000000000E+00  0.00000000000E+00  0.90798963692E+02  0.90798963728E+02  0.25500000920E-02 0.  1.
        2   -1    0    0  501    0  0.00000000000E+00  0.00000000000E+00 -0.13498455943E+04  0.13498455943E+04  0.25500000920E-02 0. -1.
    10030    2    1    2    0    0  0.00000000000E+00  0.00000000000E+00 -0.12590466306E+04  0.14406445580E+04  0.70018449321E+03 0.  0.
        4    1    3    3  502    0 -0.14033863468E+03 -0.29075720059E+02 -0.12867158627E+04  0.12946735705E+04  0.12699999809E+01 0. -1.
       -4    1    3    3    0  502  0.14033863468E+03  0.29075720059E+02  0.27669232152E+02  0.14597098749E+03  0.12699999809E+01 0.  1.
</event>
<event>
 5   0  0.7572415E-04  0.6999715E+03  0.7818609E-02  0.9717281E-01
        1   -1    0    0  501    0  0.00000000000E+00  0.00000000000E+00  0.62740009617E+03  0.62740009619E+03  0.50400001928E-02 0. -1.
       -1   -1    0    0    0  501  0.00000000000E+00  0.00000000000E+00 -0.19523431937E+03  0.19523431943E+03  0.50400001928E-02 0.  1.
    10030    2    1    2    0    0  0.00000000000E+00  0.00000000000E+00  0.43216577680E+03  0.82263441562E+03  0.69997151594E+03 0.  0.
        4    1    3    3  502    0 -0.57399365424E+02  0.23892704884E+03  0.50896905979E+03  0.56518310179E+03  0.12699999809E+01 0. -1.
       -4    1    3    3    0  502  0.57399365424E+02 -0.23892704884E+03 -0.76803282993E+02  0.25745131384E+03  0.12699999809E+01 0.  1.
</event>
<event>
 5   0  0.7574241E-04  0.7000886E+03  0.7818609E-02  0.9717081E-01
       -1   -1    0    0    0  501  0.00000000000E+00  0.00000000000E+00  0.90178141959E+02  0.90178142100E+02  0.50400001928E-02 0.  1.
        1   -1    0    0  501    0  0.00000000000E+00  0.00000000000E+00 -0.13587662658E+04  0.13587662658E+04  0.50400001928E-02 0. -1.
    10030    2    1    2    0    0  0.00000000000E+00  0.00000000000E+00 -0.12685881238E+04  0.14489444079E+04  0.70008861529E+03 0.  0.
        3    1    3    3  502    0 -0.24973327941E+03  0.21435970120E+03 -0.38754236704E+03  0.50843474389E+03  0.10100000352E+00 0.  1.
       -3    1    3    3    0  502  0.24973327941E+03 -0.21435970120E+03 -0.88104575680E+03  0.94050966402E+03  0.10100000352E+00 0. -1.
</event>
<event>
 5   0  0.7013526E-04  0.6997174E+03  0.7818609E-02  0.9717716E-01
       -1   -1    0    0    0  501  0.00000000000E+00  0.00000000000E+00  0.43784664217E+03  0.43784664220E+03  0.50400001928E-02 0. -1.
        1   -1    0    0  501    0  0.00000000000E+00  0.00000000000E+00 -0.27955247739E+03  0.27955247743E+03  0.50400001928E-02 0.  1.
    10030    2    1    2    0    0  0.00000000000E+00  0.00000000000E+00  0.15829416479E+03  0.71739911963E+03  0.69971741028E+03 0.  0.
        1    1    3    3  502    0 -0.27751426161E+03 -0.21016028241E+03  0.11495240165E+03  0.36660000596E+03  0.50400001928E-02 0. -1.
       -1    1    3    3    0  502  0.27751426161E+03  0.21016028241E+03  0.43341763137E+02  0.35079911368E+03  0.50400001928E-02 0.  1.
</event>
<event>
 5   0  0.1243087E-03  0.7002415E+03  0.7818609E-02  0.9716819E-01
       -2   -1    0    0    0  501  0.00000000000E+00  0.00000000000E+00  0.27028759480E+03  0.27028759481E+03  0.25500000920E-02 0.  1.
        2   -1    0    0  501    0  0.00000000000E+00  0.00000000000E+00 -0.45353375432E+03  0.45353375433E+03  0.25500000920E-02 0. -1.
    10030    2    1    2    0    0  0.00000000000E+00  0.00000000000E+00 -0.18324615953E+03  0.72382134914E+03  0.70024152297E+03 0.  0.
        4    1    3    3  502    0 -0.88066415148E+02  0.13310437150E+03  0.23049607511E+03  0.28036141092E+03  0.12699999809E+01 0.  1.
       -4    1    3    3    0  502  0.88066415148E+02 -0.13310437150E+03 -0.41374223464E+03  0.44345993823E+03  0.12699999809E+01 0. -1.
</event>
<event>
 5   0  0.7572415E-04  0.7011644E+03  0.7818609E-02  0.9715243E-01
        1   -1    0    0  501    0  0.00000000000E+00  0.00000000000E+00  0.13826828145E+03  0.13826828154E+03  0.50400001928E-02 0.  1.
       -1   -1    0    0    0  501  0.00000000000E+00  0.00000000000E+00 -0.88890872071E+03  0.88890872072E+03  0.50400001928E-02 0. -1.
    10030    2    1    2    0    0  0.00000000000E+00  0.00000000000E+00 -0.75064043926E+03  0.10271770023E+04  0.70116440650E+03 0.  0.
        4    1    3    3  502    0 -0.29093375196E+03 -0.81022803042E+02 -0.11449530882E+03  0.32298286531E+03  0.12699999809E+01 0.  1.
       -4    1    3    3    0  502  0.29093375196E+03  0.81022803042E+02 -0.63614513044E+03  0.70419413695E+03  0.12699999809E+01 0. -1.
</event>
<event>
 5   0  0.4936000E-04  0.6999077E+03  0.7818609E-02  0.9717390E-01
       -3   -1    0    0    0  501  0.00000000000E+00  0.00000000000E+00  0.82610115406E+03  0.82610116023E+03  0.10100000352E+00 0. -1.
        3   -1    0    0  501    0  0.00000000000E+00  0.00000000000E+00 -0.14824779972E+03  0.14824783412E+03  0.10100000352E+00 0.  1.
    10030    2    1    2    0    0  0.00000000000E+00  0.00000000000E+00  0.67785335434E+03  0.97434899436E+03  0.69990770307E+03 0.  0.
        3    1    3    3  502    0 -0.13577636675E+03 -0.30224419869E+03  0.18216171998E+03  0.37811331613E+03  0.10100000352E+00 0.  1.
       -3    1    3    3    0  502  0.13577636675E+03  0.30224419869E+03  0.49569163437E+03  0.59623567823E+03  0.10100000352E+00 0. -1.
</event>
<event>
 5   0  0.1265562E-03  0.6998694E+03  0.7818609E-02  0.9717456E-01
       -2   -1    0    0    0  501  0.00000000000E+00  0.00000000000E+00  0.66314783394E+02  0.66314783444E+02  0.25500000920E-02 0.  1.
        2   -1    0    0  501    0  0.00000000000E+00  0.00000000000E+00 -0.18465608743E+04  0.18465608743E+04  0.25500000920E-02 0. -1.
    10030    2    1    2    0    0  0.00000000000E+00  0.00000000000E+00 -0.17802460909E+04  0.19128756577E+04  0.69986937195E+03 0.  0.
        1    1    3    3  502    0  0.18470203698E+03  0.25943784442E+03 -0.12864962865E+04  0.13253284622E+04  0.50400001928E-02 0.  1.
       -1    1    3    3    0  502 -0.18470203698E+03 -0.25943784442E+03 -0.49374980438E+03  0.58754719550E+03  0.50400001928E-02 0. -1.
</event>
<event>
 5   0  0.7574241E-04  0.6998795E+03  0.7818609E-02  0.9717438E-01
        1   -1    0    0  501    0  0.00000000000E+00  0.00000000000E+00  0.54391870470E+03  0.54391870472E+03  0.50400001928E-02 0. -1.
       -1   -1    0    0    0  501  0.00000000000E+00  0.00000000000E+00 -0.22513996421E+03  0.22513996426E+03  0.50400001928E-02 0.  1.
    10030    2    1    2    0    0  0.00000000000E+00  0.00000000000E+00  0.31877874050E+03  0.76905866899E+03  0.69987952603E+03 0.  0.
        3    1    3    3  502    0 -0.46825928878E+02  0.31616894861E+03  0.31595967641E+03  0.44942852491E+03  0.10100000352E+00 0. -1.
       -3    1    3    3    0  502  0.46825928878E+02 -0.31616894861E+03  0.28190640836E+01  0.31963014408E+03  0.10100000352E+00 0.  1.
</event>
<event>
 5   0  0.1224048E-03  0.7004349E+03  0.7818609E-02  0.9716489E-01
       -2   -1    0    0    0  501  0.00000000000E+00  0.00000000000E+00  0.12641517939E+03  0.12641517941E+03  0.25500000920E-02 0.  1.
        2   -1    0    0  501    0  0.00000000000E+00  0.00000000000E+00 -0.97023378235E+03  0.97023378236E+03  0.25500000920E-02 0. -1.
    10030    2    1    2    0    0  0.00000000000E+00  0.00000000000E+00 -0.84381860297E+03  0.10966489618E+04  0.70043494390E+03 0.  0.
        3    1    3    3  502    0 -0.34448051844E+03  0.36347849887E+02 -0.34109480990E+03  0.48614161858E+03  0.10100000352E+00 0.  1.
       -3    1    3    3    0  502  0.34448051844E+03 -0.36347849887E+02 -0.50272379307E+03  0.61050734319E+03  0.10100000352E+00 0. -1.
</event>
<event>
 5   0  0.1265562E-03  0.6999225E+03  0.7818609E-02  0.9717365E-01
       -2   -1    0    0    0  501  0.00000000000E+00  0.00000000000E+00  0.89306557069E+02  0.89306557106E+02  0.25500000920E-02 0. -1.
        2   -1    0    0  501    0  0.00000000000E+00  0.00000000000E+00 -0.13713762689E+04  0.13713762689E+04  0.25500000920E-02 0.  1.
    10030    2    1    2    0    0  0.00000000000E+00  0.00000000000E+00 -0.12820697119E+04  0.14606828260E+04  0.69992254730E+03 0.  0.
        1    1    3    3  502    0 -0.29776560831E+03  0.53549590503E+02 -0.27394452139E+03  0.40813909021E+03  0.50400001928E-02 0. -1.
       -1    1    3    3    0  502  0.29776560831E+03 -0.53549590503E+02 -0.10081251905E+04  0.10525437358E+04  0.50400001928E-02 0.  1.
</event>
<event>
 5   0  0.7570633E-04  0.6999220E+03  0.7818609E-02  0.9717366E-01
       -1   -1    0    0    0  501  0.00000000000E+00  0.00000000000E+00  0.15556134648E+03  0.15556134656E+03  0.50400001928E-02 0.  1.
        1   -1    0    0  501    0  0.00000000000E+00  0.00000000000E+00 -0.78729529300E+03  0.78729529301E+03  0.50400001928E-02 0. -1.
    10030    2    1    2    0    0  0.00000000000E+00  0.00000000000E+00 -0.63173394652E+03  0.94285663958E+03  0.69992204110E+03 0.  0.
        5    1    3    3  502    0 -0.15871400438E+03 -0.30075232575E+03 -0.20471359973E+03  0.39695320196E+03  0.46999998093E+01 0.  1.
       -5    1    3    3    0  502  0.15871400438E+03  0.30075232575E+03 -0.42702034679E+03  0.54590343762E+03  0.46999998093E+01 0. -1.
</event>
<event>
 5   0  0.7459843E-04  0.7001314E+03  0.7818609E-02  0.9717008E-01
       -1   -1    0    0    0  501  0.00000000000E+00  0.00000000000E+00  0.50668265338E+03  0.50668265341E+03  0.50400001928E-02 0.  1.
        1   -1    0    0  501    0  0.00000000000E+00  0.00000000000E+00 -0.24185944732E+03  0.24185944738E+03  0.50400001928E-02 0. -1.
    10030    2    1    2    0    0  0.00000000000E+00  0.00000000000E+00  0.26482320606E+03  0.74854210078E+03  0.70013137780E+03 0.  0.
        2    1    3    3  502    0  0.24206259058E+03  0.24648895157E+03  0.19284323758E+03  0.39565087551E+03  0.25500000920E-02 0.  1.
       -2    1    3    3    0  502 -0.24206259058E+03 -0.24648895157E+03  0.71979968480E+02  0.35289122527E+03  0.25500000920E-02 0. -1.
</event>
<event>
 5   0  0.1222679E-03  0.7001826E+03  0.7818609E-02  0.9716920E-01
       -2   -1    0    0    0  501  0.00000000000E+00  0.00000000000E+00  0.17897455935E+03  0.17897455936E+03  0.25500000920E-02 0.  1.
        2   -1    0    0  501    0  0.00000000000E+00  0.00000000000E+00 -0.68481192593E+03  0.68481192594E+03  0.25500000920E-02 0. -1.
    10030    2    1    2    0    0  0.00000000000E+00  0.00000000000E+00 -0.50583736659E+03  0.86378648530E+03  0.70018258387E+03 0.  0.
        2    1    3    3  502    0 -0.81389402993E+02  0.86105911961E+02  0.15348805295E+03  0.19389957555E+03  0.25500000920E-02 0.  1.
       -2    1    3    3    0  502  0.81389402993E+02 -0.86105911961E+02 -0.65932541954E+03  0.66988690975E+03  0.25500000920E-02 0. -1.
</event>
<event>
 5   0  0.1222679E-03  0.7000134E+03  0.7818609E-02  0.9717209E-01
       -2   -1    0    0    0  501  0.00000000000E+00  0.00000000000E+00  0.10858298018E+03  0.10858298021E+03  0.25500000920E-02 0.  1.
        2   -1    0    0  501    0  0.00000000000E+00  0.00000000000E+00 -0.11282126695E+04  0.11282126695E+04  0.25500000920E-02 0. -1.
    10030    2    1    2    0    0  0.00000000000E+00  0.00000000000E+00 -0.10196296893E+04  0.12367956497E+04  0.70001341117E+03 0.  0.
        2    1    3    3  502    0  0.50816251865E+02 -0.97736568551E+02 -0.10967863816E+04  0.11023044476E+04  0.25500000920E-02 0. -1.
       -2    1    3    3    0  502 -0.50816251865E+02  0.97736568551E+02  0.77156692272E+02  0.13449120215E+03  0.25500000920E-02 0.  1.
</event>
<event>
 5   0  0.7013526E-04  0.7001753E+03  0.7818609E-02  0.9716932E-01
        1   -1    0    0  501    0  0.00000000000E+00  0.00000000000E+00  0.11157110143E+04  0.11157110144E+04  0.50400001928E-02 0.  1.
       -1   -1    0    0    0  501  0.00000000000E+00  0.00000000000E+00 -0.10985047018E+03  0.10985047030E+03  0.50400001928E-02 0. -1.
    10030    2    1    2    0    0  0.00000000000E+00  0.00000000000E+00  0.10058605442E+04  0.12255614847E+04  0.70017534830E+03 0.  0.
        1    1    3    3  502    0  0.26735340810E+02  0.15929562592E+03 -0.40730270382E+02  0.16657980020E+03  0.50400001928E-02 0. -1.
       -1    1    3    3    0  502 -0.26735340810E+02 -0.15929562592E+03  0.10465908145E+04  0.10589816844E+04  0.50400001928E-02 0.  1.
</event>
<event>
 5   0  0.7459843E-04  0.6994797E+03  0.7818609E-02  0.9718122E-01
       -1   -1    0    0    0  501  0.00000000000E+00  0.00000000000E+00  0.27197708888E+03  0.27197708893E+03  0.50400001928E-02 0.  1.
        1   -1    0    0  501    0  0.00000000000E+00  0.00000000000E+00 -0.44973632133E+03  0.44973632136E+03  0.50400001928E-02 0. -1.
    10030    2    1    2    0    0  0.00000000000E+00  0.00000000000E+00 -0.17775923245E+03  0.72171341028E+03  0.69947973656E+03 0.  0.
        2    1    3    3  502    0  0.13929333761E+03  0.20614804387E+03 -0.34249405771E+03  0.42332237062E+03  0.25500000920E-02 0. -1.
       -2    1    3    3    0  502 -0.13929333761E+03 -0.20614804387E+03  0.16473482526E+03  0.29839103966E+03  0.25500000920E-02 0.  1.
</event>
<event>
 5   0  0.1265562E-03  0.7049956E+03  0.7818609E-02  0.9708727E-01
       -2   -1    0    0    0  501  0.00000000000E+00  0.00000000000E+00  0.13658838983E+03  0.13658838985E+03  0.25500000920E-02 0. -1.
        2   -1    0    0  501    0  0.00000000000E+00  0.00000000000E+00 -0.90970185643E+03  0.90970185643E+03  0.25500000920E-02 0.  1.
    10030    2    1    2    0    0  0.00000000000E+00  0.00000000000E+00 -0.77311346660E+03  0.10462902463E+04  0.70499563632E+03 0.  0.
        1    1    3    3  502    0  0.80086585808E+02 -0.14819470635E+03 -0.84610158226E+03  0.86270703008E+03  0.50400001928E-02 0.  1.
       -1    1    3    3    0  502 -0.80086585808E+02  0.14819470635E+03  0.72988115660E+02  0.18358321620E+03  0.50400001928E-02 0. -1.
</event>
<event>
 5   0  0.7572415E-04  0.6999574E+03  0.7818609E-02  0.9717305E-01
       -1   -1    0    0    0  501  0.00000000000E+00  0.00000000000E+00  0.30468471850E+03  0.30468471854E+03  0.50400001928E-02 0.  1.
        1   -1    0    0  501    0  0.00000000000E+00  0.00000000000E+00 -0.40200596263E+03  0.40200596267E+03  0.50400001928E-02 0. -1.
    10030    2    1    2    0    0  0.00000000000E+00  0.00000000000E+00 -0.97321244135E+02  0.70669068121E+03  0.69995735180E+03 0.  0.
        4    1    3    3  502    0 -0.57919790887E+02 -0.34298058537E+03 -0.96485673030E+01  0.34797283208E+03  0.12699999809E+01 0.  1.
       -4    1    3    3    0  502  0.57919790887E+02  0.34298058537E+03 -0.87672676831E+02  0.35871784912E+03  0.12699999809E+01 0. -1.
</event>
<event>
 5   0  0.1265562E-03  0.7000077E+03  0.7818609E-02  0.9717219E-01
        2   -1    0    0  501    0  0.00000000000E+00  0.00000000000E+00  0.91416285457E+03  0.91416285458E+03  0.25500000920E-02 0.  1.
       -2   -1    0    0    0  501  0.00000000000E+00  0.00000000000E+00 -0.13400533300E+03  0.13400533302E+03  0.25500000920E-02 0. -1.
    10030    2    1    2    0    0  0.00000000000E+00  0.00000000000E+00  0.78015752157E+03  0.10481681876E+04  0.70000770783E+03 0.  0.
        1    1    3    3  502    0  0.29529115835E+03 -0.18787365376E+03  0.39464996217E+03  0.52748646489E+03  0.50400001928E-02 0.  1.
       -1    1    3    3    0  502 -0.29529115835E+03  0.18787365376E+03  0.38550755940E+03  0.52068172271E+03  0.50400001928E-02 0. -1.
</event>
<event>
 5   0  0.7013526E-04  0.7000909E+03  0.7818609E-02  0.9717077E-01
        1   -1    0    0  501    0  0.00000000000E+00  0.00000000000E+00  0.14784156823E+03  0.14784156832E+03  0.50400001928E-02 0. -1.
       -1   -1    0    0    0  501  0.00000000000E+00  0.00000000000E+00 -0.82880486906E+03  0.82880486908E+03  0.50400001928E-02 0.  1.
    10030    2    1    2    0    0  0.00000000000E+00  0.00000000000E+00 -0.68096330083E+03  0.97664643739E+03  0.70009088453E+03 0.  0.
        1    1    3    3  502    0 -0.14449887641E+03  0.31875649990E+03 -0.34996169626E+03  0.49493314739E+03  0.50400001928E-02 0.  1.
       -1    1    3    3    0  502  0.14449887641E+03 -0.31875649990E+03 -0.33100160457E+03  0.48171329000E+03  0.50400001928E-02 0. -1.
</event>
<event>
 5   0  0.1243087E-03  0.7000023E+03  0.7818609E-02  0.9717228E-01
        2   -1    0    0  501    0  0.00000000000E+00  0.00000000000E+00  0.19943395279E+04  0.19943395279E+04  0.25500000920E-02 0.  1.
       -2   -1    0    0    0  501  0.00000000000E+00  0.00000000000E+00 -0.61424254820E+02  0.61424254873E+02  0.25500000920E-02 0. -1.
    10030    2    1    2    0    0  0.00000000000E+00  0.00000000000E+00  0.19329152730E+04  0.20557637827E+04  0.70000234117E+03 0.  0.
        4    1    3    3  502    0 -0.10903388617E+03  0.80408145308E+02  0.18707934418E+02  0.13676789782E+03  0.12699999809E+01 0. -1.
       -4    1    3    3    0  502  0.10903388617E+03 -0.80408145308E+02  0.19142073386E+04  0.19189958849E+04  0.12699999809E+01 0.  1.
</event>
<event>
 5   0  0.7570633E-04  0.7001289E+03  0.7818609E-02  0.9717012E-01
        1   -1    0    0  501    0  0.00000000000E+00  0.00000000000E+00  0.21497994639E+03  0.21497994645E+03  0.50400001928E-02 0. -1.
       -1   -1    0    0    0  501  0.00000000000E+00  0.00000000000E+00 -0.57003053741E+03  0.57003053743E+03  0.50400001928E-02 0.  1.
    10030    2    1    2    0    0  0.00000000000E+00  0.00000000000E+00 -0.35505059102E+03  0.78501048388E+03  0.70012894356E+03 0.  0.
        5    1    3    3  502    0  0.63956068943E+01  0.33978517267E+03 -0.27152332981E+03  0.43501939725E+03  0.46999998093E+01 0.  1.
       -5    1    3    3    0  502 -0.63956068943E+01 -0.33978517267E+03 -0.83527261210E+02  0.34999108663E+03  0.46999998093E+01 0. -1.
</event>
<event>
 5   0  0.1224048E-03  0.7000346E+03  0.7818609E-02  0.9717173E-01
        2   -1    0    0  501    0  0.00000000000E+00  0.00000000000E+00  0.52543391078E+03  0.52543391078E+03  0.25500000920E-02 0.  1.
       -2   -1    0    0    0  501  0.00000000000E+00  0.00000000000E+00 -0.23316367163E+03  0.23316367165E+03  0.25500000920E-02 0. -1.
    10030    2    1    2    0    0  0.00000000000E+00  0.00000000000E+00  0.29227023914E+03  0.75859758243E+03  0.70003457013E+03 0.  0.
        3    1    3    3  502    0 -0.61436532091E+02  0.26294918130E+03  0.38746579873E+03  0.47227796350E+03  0.10100000352E+00 0.  1.
       -3    1    3    3    0  502  0.61436532091E+02 -0.26294918130E+03 -0.95195559587E+02  0.28631961893E+03  0.10100000352E+00 0. -1.
</event>
<event>
 5   0  0.1222679E-03  0.7017411E+03  0.7818609E-02  0.9714259E-01
        2   -1    0    0  501    0  0.00000000000E+00  0.00000000000E+00  0.75989806732E+03  0.75989806733E+03  0.25500000920E-02 0. -1.
       -2   -1    0    0    0  501  0.00000000000E+00  0.00000000000E+00 -0.16200873670E+03  0.16200873672E+03  0.25500000920E-02 0.  1.
    10030    2    1    2    0    0  0.00000000000E+00  0.00000000000E+00  0.59788933062E+03  0.92190680405E+03  0.70174105174E+03 0.  0.
        2    1    3    3  502    0 -0.13109348724E+03 -0.30284356003E+03  0.14233689235E+03  0.35938769481E+03  0.25500000920E-02 0. -1.
       -2    1    3    3    0  502  0.13109348724E+03  0.30284356003E+03  0.45555243827E+03  0.56251910924E+03  0.25500000920E-02 0.  1.
</event>
<event>
 5   0  0.1265562E-03  0.7000481E+03  0.7818609E-02  0.9717150E-01
        2   -1    0    0  501    0  0.00000000000E+00  0.00000000000E+00  0.20782410303E+04  0.20782410303E+04  0.25500000920E-02 0. -1.
       -2   -1    0    0    0  501  0.00000000000E+00  0.00000000000E+00 -0.58952171197E+02  0.58952171252E+02  0.25500000920E-02 0.  1.
    10030    2    1    2    0    0  0.00000000000E+00  0.00000000000E+00  0.20192888591E+04  0.21371932016E+04  0.70004805854E+03 0.  0.
        1    1    3    3  502    0  0.98113037268E+02  0.12847356522E+02 -0.15363448212E+02  0.10013619834E+03  0.50400001928E-02 0.  1.
       -1    1    3    3    0  502 -0.98113037268E+02 -0.12847356522E+02  0.20346523073E+04  0.20370570032E+04  0.50400001928E-02 0. -1.
</event>
<event>
 5   0  0.7459843E-04  0.6998783E+03  0.7818609E-02  0.9717440E-01
       -1   -1    0    0    0  501  0.00000000000E+00  0.00000000000E+00  0.35982570090E+03  0.35982570093E+03  0.50400001928E-02 0. -1.
        1   -1    0    0  501    0  0.00000000000E+00  0.00000000000E+00 -0.34032423840E+03  0.34032423844E+03  0.50400001928E-02 0.  1.
    10030    2    1    2    0    0  0.00000000000E+00  0.00000000000E+00  0.19501462493E+02  0.70014993937E+03  0.69987829696E+03 0.  0.
        2    1    3    3  502    0 -0.10128477593E+03 -0.15589992850E+03 -0.28683358324E+03  0.34181412789E+03  0.25500000920E-02 0.  1.
       -2    1    3    3    0  502  0.10128477593E+03  0.15589992850E+03  0.30633504573E+03  0.35833581148E+03  0.25500000920E-02 0. -1.
</event>
<event>
 5   0  0.1222679E-03  0.6998646E+03  0.7818609E-02  0.9717464E-01
        2   -1    0    0  501    0  0.00000000000E+00  0.00000000000E+00  0.79368862425E+03  0.79368862426E+03  0.25500000920E-02 0.  1.
       -2   -1    0    0    0  501  0.00000000000E+00  0.00000000000E+00 -0.15428293572E+03  0.15428293575E+03  0.25500000920E-02 0. -1.
    10030    2    1    2    0    0  0.00000000000E+00  0.00000000000E+00  0.63940568853E+03  0.94797156000E+03  0.69986458980E+03 0.  0.
        2    1    3    3  502    0  0.83660776397E+02  0.20334206253E+03  0.68843115400E+03  0.72269258590E+03  0.25500000920E-02 0.  1.
       -2    1    3    3    0  502 -0.83660776397E+02 -0.20334206253E+03 -0.49025465476E+02  0.22527897411E+03  0.25500000920E-02 0. -1.
</event>
<event>
 5   0  0.7574241E-04  0.6997765E+03  0.7818609E-02  0.9717615E-01
       -1   -1    0    0    0  501  0.00000000000E+00  0.00000000000E+00  0.66384517299E+02  0.66384517490E+02  0.50400001928E-02 0.  1.
        1   -1    0    0  501    0  0.00000000000E+00  0.00000000000E+00 -0.18441314220E+04  0.18441314220E+04  0.50400001928E-02 0. -1.
    10030    2    1    2    0    0  0.00000000000E+00  0.00000000000E+00 -0.17777469047E+04  0.19105159395E+04  0.69977646281E+03 0.  0.
        3    1    3    3  502    0  0.17631115220E+03  0.93465308561E+02 -0.10421193829E+03  0.22512557513E+03  0.10100000352E+00 0.  1.
       -3    1    3    3    0  502 -0.17631115220E+03 -0.93465308561E+02 -0.16735349664E+04  0.16853903644E+04  0.10100000352E+00 0. -1.
</event>
<event>
 5   0  0.7572415E-04  0.6995349E+03  0.7818609E-02  0.9718028E-01
        1   -1    0    0  501    0  0.00000000000E+00  0.00000000000E+00  0.36381791041E+03  0.36381791044E+03  0.50400001928E-02 0. -1.
       -1   -1    0    0    0  501  0.00000000000E+00  0.00000000000E+00 -0.33625961131E+03  0.33625961135E+03  0.50400001928E-02 0.  1.
    10030    2    1    2    0    0  0.00000000000E+00  0.00000000000E+00  0.27558299093E+02  0.70007752179E+03  0.69953490025E+03 0.  0.
        4    1    3    3  502    0 -0.29814675374E+03  0.68820492796E+02 -0.15578636395E+03  0.34336387563E+03  0.12699999809E+01 0.  1.
       -4    1    3    3    0  502  0.29814675374E+03 -0.68820492796E+02  0.18334466305E+03  0.35671364616E+03  0.12699999809E+01 0. -1.
</event>
<event>
 5   0  0.7459843E-04  0.7001697E+03  0.7818609E-02  0.9716942E-01
        1   -1    0    0  501    0  0.00000000000E+00  0.00000000000E+00  0.10494550406E+04  0.10494550406E+04  0.50400001928E-02 0. -1.
       -1   -1    0    0    0  501  0.00000000000E+00  0.00000000000E+00 -0.11678386134E+03  0.11678386145E+03  0.50400001928E-02 0.  1.
    10030    2    1    2    0    0  0.00000000000E+00  0.00000000000E+00  0.93267117924E+03  0.11662389020E+04  0.70016972804E+03 0.  0.
        2    1    3    3  502    0 -0.15016217402E+03 -0.37003650549E+02  0.98947079440E+03  0.10014840995E+04  0.25500000920E-02 0. -1.
       -2    1    3    3    0  502  0.15016217402E+03  0.37003650549E+02 -0.56799615162E+02  0.16475480251E+03  0.25500000920E-02 0.  1.
</event>
<event>
 5   0  0.7570633E-04  0.7008279E+03  0.7818609E-02  0.9715817E-01
        1   -1    0    0  501    0  0.00000000000E+00  0.00000000000E+00  0.97976067402E+03  0.97976067403E+03  0.50400001928E-02 0. -1.
       -1   -1    0    0    0  501  0.00000000000E+00  0.00000000000E+00 -0.12532645452E+03  0.12532645463E+03  0.50400001928E-02 0.  1.
    10030    2    1    2    0    0  0.00000000000E+00  0.00000000000E+00  0.85443421950E+03  0.11050871287E+04  0.70082788649E+03 0.  0.
        5    1    3    3  502    0  0.29427005568E+03 -0.17730600715E+03  0.31870689466E+03  0.46864534623E+03  0.46999998093E+01 0.  1.
       -5    1    3    3    0  502 -0.29427005568E+03  0.17730600715E+03  0.53572732484E+03  0.63644178243E+03  0.46999998093E+01 0. -1.
</event>
<event>
 5   0  0.1224048E-03  0.7001619E+03  0.7818609E-02  0.9716955E-01
        2   -1    0    0  501    0  0.00000000000E+00  0.00000000000E+00  0.11817121253E+04  0.11817121253E+04  0.25500000920E-02 0. -1.
       -2   -1    0    0    0  501  0.00000000000E+00  0.00000000000E+00 -0.10371110677E+03  0.10371110680E+03  0.25500000920E-02 0.  1.
    10030    2    1    2    0    0  0.00000000000E+00  0.00000000000E+00  0.10780010185E+04  0.12854232321E+04  0.70016190248E+03 0.  0.
        3    1    3    3  502    0  0.28454618432E+03  0.12448734611E+03  0.83555871211E+03  0.89141572901E+03  0.10100000352E+00 0. -1.
       -3    1    3    3    0  502 -0.28454618432E+03 -0.12448734611E+03  0.24244230643E+03  0.39400750310E+03  0.10100000352E+00 0.  1.
</event>
<event>
 5   0  0.1243087E-03  0.6996055E+03  0.7818609E-02  0.9717907E-01
        2   -1    0    0  501    0  0.00000000000E+00  0.00000000000E+00  0.90230137650E+03  0.90230137650E+03  0.25500000920E-02 0. -1.
       -2   -1    0    0    0  501  0.00000000000E+00  0.00000000000E+00 -0.13561097579E+03  0.13561097582E+03  0.25500000920E-02 0.  1.
    10030    2    1    2    0    0  0.00000000000E+00  0.00000000000E+00  0.76669040070E+03  0.10379123523E+04  0.69960551782E+03 0.  0.
        4    1    3    3  502    0 -0.43422298185E+02 -0.19583754933E+03 -0.41801268641E+02  0.20490680972E+03  0.12699999809E+01 0.  1.
       -4    1    3    3    0  502  0.43422298185E+02  0.19583754933E+03  0.80849166934E+03  0.83300554260E+03  0.12699999809E+01 0. -1.
</event>
<event>
 5   0  0.1224048E-03  0.7000540E+03  0.7818609E-02  0.9717140E-01
       -2   -1    0    0    0  501  0.00000000000E+00  0.00000000000E+00  0.60057259671E+02  0.60057259725E+02  0.25500000920E-02 0. -1.
        2   -1    0    0  501    0  0.00000000000E+00  0.00000000000E+00 -0.20400350396E+04  0.20400350396E+04  0.25500000920E-02 0.  1.
    10030    2    1    2    0    0  0.00000000000E+00  0.00000000000E+00 -0.19799777799E+04  0.21000922993E+04  0.70005403840E+03 0.  0.
        3    1    3    3  502    0  0.25704699029E+03  0.23503992136E+03 -0.10939943603E+04  0.11481030400E+04  0.10100000352E+00 0.  1.
       -3    1    3    3    0  502 -0.25704699029E+03 -0.23503992136E+03 -0.88598341963E+03  0.95198925935E+03  0.10100000352E+00 0. -1.
</event>
<event>
 5   0  0.7459843E-04  0.7006203E+03  0.7818609E-02  0.9716172E-01
       -1   -1    0    0    0  501  0.00000000000E+00  0.00000000000E+00  0.74084126609E+03  0.74084126611E+03  0.50400001928E-02 0.  1.
        1   -1    0    0  501    0  0.00000000000E+00  0.00000000000E+00 -0.16564575928E+03  0.16564575935E+03  0.50400001928E-02 0. -1.
    10030    2    1    2    0    0  0.00000000000E+00  0.00000000000E+00  0.57519550682E+03  0.90648702546E+03  0.70062033675E+03 0.  0.
        2    1    3    3  502    0  0.33902731934E+03 -0.84158627736E+01  0.17401361126E+03  0.38117067950E+03  0.25500000920E-02 0. -1.
       -2    1    3    3    0  502 -0.33902731934E+03  0.84158627736E+01  0.40118189556E+03  0.52531634596E+03  0.25500000920E-02 0.  1.
</event>
<event>
 5   0  0.4936000E-04  0.6999814E+03  0.7818609E-02  0.9717264E-01
        4   -1    0    0  501    0  0.00000000000E+00  0.00000000000E+00  0.41797871608E+03  0.41798064548E+03  0.12699999809E+01 0. -1.
       -4   -1    0    0    0  501  0.00000000000E+00  0.00000000000E+00 -0.29305759882E+03  0.29306035066E+03  0.12699999809E+01 0.  1.
    10030    2    1    2    0    0  0.00000000000E+00  0.00000000000E+00  0.12492111726E+03  0.71104099614E+03  0.69998143736E+03 0.  0.
        1    1    3    3  502    0 -0.16733027049E+03 -0.12016267649E+03 -0.22494978204E+03  0.30502605251E+03  0.50400001928E-02 0.  1.
       -1    1    3    3    0  502  0.16733027049E+03  0.12016267649E+03  0.34987089931E+03  0.40601494363E+03  0.50400001928E-02 0. -1.
</event>
<event>
 5   0  0.7570633E-04  0.7001461E+03  0.7818609E-02  0.9716982E-01
       -1   -1    0    0    0  501  0.00000000000E+00  0.00000000000E+00  0.89339662701E+02  0.89339662843E+02  0.50400001928E-02 0. -1.
        1   -1    0    0  501    0  0.00000000000E+00  0.00000000000E+00 -0.13717441278E+04  0.13717441278E+04  0.50400001928E-02 0.  1.
    10030    2    1    2    0    0  0.00000000000E+00  0.00000000000E+00 -0.12824044651E+04  0.14610837906E+04  0.70014614987E+03 0.  0.
        5    1    3    3  502    0 -0.57717754946E+02 -0.16239201964E+03 -0.53992699811E+01  0.17249275171E+03  0.46999998093E+01 0. -1.
       -5    1    3    3    0  502  0.57717754946E+02  0.16239201964E+03 -0.12770051951E+04  0.12885910389E+04  0.46999998093E+01 0.  1.
</event>
<event>
 5   0  0.7570633E-04  0.7005983E+03  0.7818609E-02  0.9716210E-01
       -1   -1    0    0    0  501  0.00000000000E+00  0.00000000000E+00  0.11299659076E+03  0.11299659088E+03  0.50400001928E-02 0. -1.
        1   -1    0    0  501    0  0.00000000000E+00  0.00000000000E+00 -0.10859573492E+04  0.10859573493E+04  0.50400001928E-02 0.  1.
    10030    2    1    2    0    0  0.00000000000E+00  0.00000000000E+00 -0.97296075848E+03  0.11989539401E+04  0.70059825365E+03 0.  0.
        5    1    3    3  502    0 -0.33655442741E+03 -0.96383947334E+02 -0.50589022334E+03  0.61522821455E+03  0.46999998093E+01 0. -1.
       -5    1    3    3    0  502  0.33655442741E+03  0.96383947334E+02 -0.46707053514E+03  0.58372572558E+03  0.46999998093E+01 0.  1.
</event>
<event>
 5   0  0.7572415E-04  0.6998999E+03  0.7818609E-02  0.9717403E-01
       -1   -1    0    0    0  501  0.00000000000E+00  0.00000000000E+00  0.20454538004E+03  0.20454538011E+03  0.50400001928E-02 0. -1.
        1   -1    0    0  501    0  0.00000000000E+00  0.00000000000E+00 -0.59871779174E+03  0.59871779176E+03  0.50400001928E-02 0.  1.
    10030    2    1    2    0    0  0.00000000000E+00  0.00000000000E+00 -0.39417241169E+03  0.80326317186E+03  0.69989987365E+03 0.  0.
        4    1    3    3  502    0  0.21721813264E+03  0.21462055310E+03 -0.91080202695E+00  0.30536558651E+03  0.12699999809E+01 0. -1.
       -4    1    3    3    0  502 -0.21721813264E+03 -0.21462055310E+03 -0.39326160967E+03  0.49789758535E+03  0.12699999809E+01 0.  1.
</event>
<event>
 5   0  0.7013526E-04  0.7000239E+03  0.7818609E-02  0.9717191E-01
        1   -1    0    0  501    0  0.00000000000E+00  0.00000000000E+00  0.49739023171E+03  0.49739023174E+03  0.50400001928E-02 0. -1.
       -1   -1    0    0    0  501  0.00000000000E+00  0.00000000000E+00 -0.24630234150E+03  0.24630234155E+03  0.50400001928E-02 0.  1.
    10030    2    1    2    0    0  0.00000000000E+00  0.00000000000E+00  0.25108789022E+03  0.74369257329E+03  0.70002393884E+03 0.  0.
        1    1    3    3  502    0  0.20790653160E+03 -0.24756908800E+03  0.26804888615E+03  0.41995926542E+03  0.50400001928E-02 0. -1.
       -1    1    3    3    0  502 -0.20790653160E+03  0.24756908800E+03 -0.16960995934E+02  0.32373330787E+03  0.50400001928E-02 0.  1.
</event>
<event>
 5   0  0.1243087E-03  0.6998171E+03  0.7818609E-02  0.9717545E-01
        2   -1    0    0  501    0  0.00000000000E+00  0.00000000000E+00  0.13053891521E+04  0.13053891521E+04  0.25500000920E-02 0. -1.
       -2   -1    0    0    0  501  0.00000000000E+00  0.00000000000E+00 -0.93792713035E+02  0.93792713070E+02  0.25500000920E-02 0.  1.
    10030    2    1    2    0    0  0.00000000000E+00  0.00000000000E+00  0.12115964390E+04  0.13991818651E+04  0.69981709086E+03 0.  0.
        4    1    3    3  502    0  0.51249878520E+02  0.28584265564E+03  0.21553071706E+03  0.36164578903E+03  0.12699999809E+01 0.  1.
       -4    1    3    3    0  502 -0.51249878520E+02 -0.28584265564E+03  0.99606572196E+03  0.10375360761E+04  0.12699999809E+01 0. -1.
</event>
<event>
 5   0  0.1282546E-03  0.7001117E+03  0.7818609E-02  0.9717041E-01
        2   -1    0    0  501    0  0.00000000000E+00  0.00000000000E+00  0.65695594699E+03  0.65695594699E+03  0.25500000920E-02 0.  1.
       -2   -1    0    0    0  501  0.00000000000E+00  0.00000000000E+00 -0.18652556955E+03  0.18652556957E+03  0.25500000920E-02 0. -1.
    10030    2    1    2    0    0  0.00000000000E+00  0.00000000000E+00  0.47043037743E+03  0.84348151656E+03  0.70011165450E+03 0.  0.
        5    1    3    3  502    0  0.28683498037E+03  0.14557504346E+02  0.47626411950E+03  0.55617967278E+03  0.46999998093E+01 0.  1.
       -5    1    3    3    0  502 -0.28683498037E+03 -0.14557504346E+02 -0.58337420627E+01  0.28730184378E+03  0.46999998093E+01 0. -1.
</event>
<event>
 5   0  0.7570633E-04  0.6999726E+03  0.7818609E-02  0.9717279E-01
       -1   -1    0    0    0  501  0.00000000000E+00  0.00000000000E+00  0.33890851444E+03  0.33890851448E+03  0.50400001928E-02 0. -1.
        1   -1    0    0  501    0  0.00000000000E+00  0.00000000000E+00 -0.36142619333E+03  0.36142619337E+03  0.50400001928E-02 0.  1.
    10030    2    1    2    0    0  0.00000000000E+00  0.00000000000E+00 -0.22517678891E+02  0.70033470785E+03  0.69997261172E+03 0.  0.
        5    1    3    3  502    0 -0.27274296133E+03 -0.16999002817E+03 -0.14983316439E+03  0.35462289799E+03  0.46999998093E+01 0.  1.
       -5    1    3    3    0  502  0.27274296133E+03  0.16999002817E+03  0.12731548550E+03  0.34571180986E+03  0.46999998093E+01 0. -1.
</event>
<event>
 5   0  0.1265562E-03  0.6989784E+03  0.7818609E-02  0.9718981E-01
       -2   -1    0    0    0  501  0.00000000000E+00  0.00000000000E+00  0.14688664699E+03  0.14688664701E+03  0.25500000920E-02 0. -1.
        2   -1    0    0  501    0  0.00000000000E+00  0.00000000000E+00 -0.83154402765E+03  0.83154402766E+03  0.25500000920E-02 0.  1.
    10030    2    1    2    0    0  0.00000000000E+00  0.00000000000E+00 -0.68465738067E+03  0.97843067467E+03  0.69897843760E+03 0.  0.
        1    1    3    3  502    0 -0.35988636754E+02  0.24597617524E+03  0.15305040619E+01  0.24859968469E+03  0.50400001928E-02 0. -1.
       -1    1    3    3    0  502  0.35988636754E+02 -0.24597617524E+03 -0.68618788473E+03  0.72983098998E+03  0.50400001928E-02 0.  1.
</event>
<event>
 5   0  0.1222679E-03  0.7005181E+03  0.7818609E-02  0.9716347E-01
       -2   -1    0    0    0  501  0.00000000000E+00  0.00000000000E+00  0.93768463042E+02  0.93768463076E+02  0.25500000920E-02 0.  1.
        2   -1    0    0  501    0  0.00000000000E+00  0.00000000000E+00 -0.13083438362E+04  0.13083438362E+04  0.25500000920E-02 0. -1.
    10030    2    1    2    0    0  0.00000000000E+00  0.00000000000E+00 -0.12145753731E+04  0.14021122992E+04  0.70051806736E+03 0.  0.
        2    1    3    3  502    0  0.25777644630E+03 -0.22168148809E+03 -0.43875391081E+03  0.55506429599E+03  0.25500000920E-02 0.  1.
       -2    1    3    3    0  502 -0.25777644630E+03  0.22168148809E+03 -0.77582146232E+03  0.84704800326E+03  0.25500000920E-02 0. -1.
</event>
<event>
 5   0  0.1222679E-03  0.7002321E+03  0.7818609E-02  0.9716835E-01
       -2   -1    0    0    0  501  0.00000000000E+00  0.00000000000E+00  0.10194156663E+03  0.10194156666E+03  0.25500000920E-02 0.  1.
        2   -1    0    0  501    0  0.00000000000E+00  0.00000000000E+00 -0.12024658717E+04  0.12024658717E+04  0.25500000920E-02 0. -1.
    10030    2    1    2    0    0  0.00000000000E+00  0.00000000000E+00 -0.11005243050E+04  0.13044074383E+04  0.70023211808E+03 0.  0.
        2    1    3    3  502    0  0.27004240430E+03  0.15578106224E+03 -0.84709219385E+03  0.90263825776E+03  0.25500000920E-02 0. -1.
       -2    1    3    3    0  502 -0.27004240430E+03 -0.15578106224E+03 -0.25343211118E+03  0.40176918057E+03  0.25500000920E-02 0.  1.
</event>
<event>
 5   0  0.7572415E-04  0.7007641E+03  0.7818609E-02  0.9715926E-01
       -1   -1    0    0    0  501  0.00000000000E+00  0.00000000000E+00  0.72118535176E+02  0.72118535352E+02  0.50400001928E-02 0.  1.
        1   -1    0    0  501    0  0.00000000000E+00  0.00000000000E+00 -0.17023025690E+04  0.17023025691E+04  0.50400001928E-02 0. -1.
    10030    2    1    2    0    0  0.00000000000E+00  0.00000000000E+00 -0.16301840339E+04  0.17744211044E+04  0.70076406263E+03 0.  0.
        4    1    3    3  502    0 -0.62720946192E+02  0.18117363866E+03 -0.15576915587E+04  0.15694465297E+04  0.12699999809E+01 0. -1.
       -4    1    3    3    0  502  0.62720946192E+02 -0.18117363866E+03 -0.72492475136E+02  0.20497457474E+03  0.12699999809E+01 0.  1.
</event>
<event>
 5   0  0.7013526E-04  0.7002016E+03  0.7818609E-02  0.9716887E-01
        1   -1    0    0  501    0  0.00000000000E+00  0.00000000000E+00  0.40036878598E+03  0.40036878601E+03  0.50400001928E-02 0.  1.
       -1   -1    0    0    0  501  0.00000000000E+00  0.00000000000E+00 -0.30614418696E+03  0.30614418700E+03  0.50400001928E-02 0. -1.
    10030    2    1    2    0    0  0.00000000000E+00  0.00000000000E+00  0.94224599021E+02  0.70651297301E+03  0.70020161809E+03 0.  0.
        1    1    3    3  502    0  0.14369961744E+03  0.10874949311E+03  0.34997533924E+03  0.39364802858E+03  0.50400001928E-02 0.  1.
       -1    1    3    3    0  502 -0.14369961744E+03 -0.10874949311E+03 -0.25575074022E+03  0.31286494443E+03  0.50400001928E-02 0. -1.
</event>
<event>
 5   0  0.1282546E-03  0.6996469E+03  0.7818609E-02  0.9717836E-01
       -2   -1    0    0    0  501  0.00000000000E+00  0.00000000000E+00  0.88849684147E+02  0.88849684184E+02  0.25500000920E-02 0.  1.
        2   -1    0    0  501    0  0.00000000000E+00  0.00000000000E+00 -0.13773425274E+04  0.13773425274E+04  0.25500000920E-02 0. -1.
    10030    2    1    2    0    0  0.00000000000E+00  0.00000000000E+00 -0.12884928432E+04  0.14661922116E+04  0.69964690680E+03 0.  0.
        5    1    3    3  502    0 -0.12175981556E+03 -0.12052385348E+03 -0.12833338148E+04  0.12947274703E+04  0.46999998093E+01 0. -1.
       -5    1    3    3    0  502  0.12175981556E+03  0.12052385348E+03 -0.51590284012E+01  0.17146474131E+03  0.46999998093E+01 0.  1.
</event>
<event>
 5   0  0.7570633E-04  0.6995740E+03  0.7818609E-02  0.9717961E-01
        1   -1    0    0  501    0  0.00000000000E+00  0.00000000000E+00  0.12784547187E+03  0.12784547197E+03  0.50400001928E-02 0.  1.
       -1   -1    0    0    0  501  0.00000000000E+00  0.00000000000E+00 -0.95702217151E+03  0.95702217152E+03  0.50400001928E-02 0. -1.
    10030    2    1    2    0    0  0.00000000000E+00  0.00000000000E+00 -0.82917669963E+03  0.10848676435E+04  0.69957401658E+03 0.  0.
        5    1    3    3  502    0  0.26138490164E+03 -0.85252159475E+02 -0.79328025702E+02  0.28619053646E+03  0.46999998093E+01 0.  1.
       -5    1    3    3    0  502 -0.26138490164E+03  0.85252159475E+02 -0.74984867393E+03  0.79867710703E+03  0.46999998093E+01 0. -1.
</event>
<event>
 5   0  0.1222679E-03  0.7002312E+03  0.7818609E-02  0.9716837E-01
        2   -1    0    0  501    0  0.00000000000E+00  0.00000000000E+00  0.59446931901E+03  0.59446931902E+03  0.25500000920E-02 0. -1.
       -2   -1    0    0    0  501  0.00000000000E+00  0.00000000000E+00 -0.20620229114E+03  0.20620229115E+03  0.25500000920E-02 0.  1.
    10030    2    1    2    0    0  0.00000000000E+00  0.00000000000E+00  0.38826702787E+03  0.80067161017E+03  0.70023120639E+03 0.  0.
        2    1    3    3  502    0  0.29137344983E+03  0.16792989039E+03  0.82790506079E+02  0.34634260964E+03  0.25500000920E-02 0.  1.
       -2    1    3    3    0  502 -0.29137344983E+03 -0.16792989039E+03  0.30547652179E+03  0.45432900053E+03  0.25500000920E-02 0. -1.
</event>
<event>
 5   0  0.1243087E-03  0.7000100E+03  0.7818609E-02  0.9717215E-01
        2   -1    0    0  501    0  0.00000000000E+00  0.00000000000E+00  0.63446855669E+03  0.63446855669E+03  0.25500000920E-02 0. -1.
       -2   -1    0    0    0  501  0.00000000000E+00  0.00000000000E+00 -0.19308051669E+03  0.19308051671E+03  0.25500000920E-02 0.  1.
    10030    2    1    2    0    0  0.00000000000E+00  0.00000000000E+00  0.44138803999E+03  0.82754907340E+03  0.70001004782E+03 0.  0.
        4    1    3    3  502    0 -0.20308805498E+03  0.61405576435E+02  0.54977479235E+03  0.58929562878E+03  0.12699999809E+01 0. -1.
       -4    1    3    3    0  502  0.20308805498E+03 -0.61405576435E+02 -0.10838675236E+03  0.23825344463E+03  0.12699999809E+01 0.  1.
</event>
<event>
 5   0  0.7572415E-04  0.6985748E+03  0.7818609E-02  0.9719673E-01
       -1   -1    0    0    0  501  0.00000000000E+00  0.00000000000E+00  0.18585834206E+03  0.18585834212E+03  0.50400001928E-02 0. -1.
        1   -1    0    0  501    0  0.00000000000E+00  0.00000000000E+00 -0.65642300511E+03  0.65642300513E+03  0.50400001928E-02 0.  1.
    10030    2    1    2    0    0  0.00000000000E+00  0.00000000000E+00 -0.47056466306E+03  0.84228134726E+03  0.69857481047E+03 0.  0.
        4    1    3    3  502    0 -0.12482991975E+03  0.19901750344E+03  0.76365211341E+02  0.24702982399E+03  0.12699999809E+01 0. -1.
       -4    1    3    3    0  502  0.12482991975E+03 -0.19901750344E+03 -0.54692987440E+03  0.59525152327E+03  0.12699999809E+01 0.  1.
</event>
<event>
 5   0  0.1282546E-03  0.6998737E+03  0.7818609E-02  0.9717448E-01
       -2   -1    0    0    0  501  0.00000000000E+00  0.00000000000E+00  0.13376399307E+03  0.13376399309E+03  0.25500000920E-02 0. -1.
        2   -1    0    0  501    0  0.00000000000E+00  0.00000000000E+00 -0.91546160961E+03  0.91546160962E+03  0.25500000920E-02 0.  1.
    10030    2    1    2    0    0  0.00000000000E+00  0.00000000000E+00 -0.78169761655E+03  0.10492256027E+04  0.69987370408E+03 0.  0.
        5    1    3    3  502    0 -0.17615531024E+03 -0.30184622776E+03 -0.41646091664E+03  0.54369442118E+03  0.46999998093E+01 0. -1.
       -5    1    3    3    0  502  0.17615531024E+03  0.30184622776E+03 -0.36523669991E+03  0.50553118153E+03  0.46999998093E+01 0.  1.
</event>
<event>
 5   0  0.1224048E-03  0.7000709E+03  0.7818609E-02  0.9717111E-01
       -2   -1    0    0    0  501  0.00000000000E+00  0.00000000000E+00  0.19299234706E+03  0.19299234707E+03  0.25500000920E-02 0.  1.
        2   -1    0    0  501    0  0.00000000000E+00  0.00000000000E+00 -0.63486877703E+03  0.63486877704E+03  0.25500000920E-02 0. -1.
    10030    2    1    2    0    0  0.00000000000E+00  0.00000000000E+00 -0.44187642997E+03  0.82786112411E+03  0.70007089744E+03 0.  0.
        3    1    3    3  502    0 -0.47080601085E+02  0.69589471434E+02  0.18089111853E+03  0.19945145900E+03  0.10100000352E+00 0.  1.
       -3    1    3    3    0  502  0.47080601085E+02 -0.69589471434E+02 -0.62276754851E+03  0.62840966511E+03  0.10100000352E+00 0. -1.
</event>
<event>
 5   0  0.1243087E-03  0.7001194E+03  0.7818609E-02  0.9717028E-01
        2   -1    0    0  501    0  0.00000000000E+00  0.00000000000E+00  0.51348450422E+03  0.51348450423E+03  0.25500000920E-02 0. -1.
       -2   -1    0    0    0  501  0.00000000000E+00  0.00000000000E+00 -0.23864747995E+03  0.23864747996E+03  0.25500000920E-02 0.  1.
    10030    2    1    2    0    0  0.00000000000E+00  0.00000000000E+00  0.27483702428E+03  0.75213198419E+03  0.70011936963E+03 0.  0.
        4    1    3    3  502    0  0.15815840154E+03 -0.24641924776E+03  0.34351347487E+03  0.45137528284E+03  0.12699999809E+01 0. -1.
       -4    1    3    3    0  502 -0.15815840154E+03  0.24641924776E+03 -0.68676450590E+02  0.30075670135E+03  0.12699999809E+01 0.  1.
</event>
<event>
 5   0  0.7459843E-04  0.6987472E+03  0.7818609E-02  0.9719377E-01
        1   -1    0    0  501    0  0.00000000000E+00  0.00000000000E+00  0.14885254415E+03  0.14885254423E+03  0.50400001928E-02 0.  1.
       -1   -1    0    0    0  501  0.00000000000E+00  0.00000000000E+00 -0.82001902518E+03  0.82001902520E+03  0.50400001928E-02 0. -1.
    10030    2    1    2    0    0  0.00000000000E+00  0.00000000000E+00 -0.67116648104E+03  0.96887156943E+03  0.69874721665E+03 0.  0.
        2    1    3    3  502    0  0.17919875374E+03 -0.71191581785E+01  0.80158523175E+02  0.19643895896E+03  0.25500000920E-02 0.  1.
       -2    1    3    3    0  502 -0.17919875374E+03  0.71191581785E+01 -0.75132500421E+03  0.77243261047E+03  0.25500000920E-02 0. -1.
</event>
<event>
 5   0  0.1282546E-03  0.6995944E+03  0.7818609E-02  0.9717926E-01
       -2   -1    0    0    0  501  0.00000000000E+00  0.00000000000E+00  0.68884199410E+02  0.68884199457E+02  0.25500000920E-02 0. -1.
        2   -1    0    0  501    0  0.00000000000E+00  0.00000000000E+00 -0.17762863625E+04  0.17762863625E+04  0.25500000920E-02 0.  1.
    10030    2    1    2    0    0  0.00000000000E+00  0.00000000000E+00 -0.17074021631E+04  0.18451705620E+04  0.69959435118E+03 0.  0.
        5    1    3    3  502    0  0.33227861942E+03  0.99460143934E+02 -0.97266817484E+03  0.10326697776E+04  0.46999998093E+01 0. -1.
       -5    1    3    3    0  502 -0.33227861942E+03 -0.99460143934E+02 -0.73473398829E+03  0.81250078443E+03  0.46999998093E+01 0.  1.
</event>
<event>
 5   0  0.7574241E-04  0.6997129E+03  0.7818609E-02  0.9717723E-01
       -1   -1    0    0    0  501  0.00000000000E+00  0.00000000000E+00  0.13902918375E+03  0.13902918384E+03  0.50400001928E-02 0.  1.
        1   -1    0    0  501    0  0.00000000000E+00  0.00000000000E+00 -0.88038728642E+03  0.88038728644E+03  0.50400001928E-02 0. -1.
    10030    2    1    2    0    0  0.00000000000E+00  0.00000000000E+00 -0.74135810267E+03  0.10194164703E+04  0.69971287216E+03 0.  0.
        3    1    3    3  502    0  0.10264683487E+03  0.26878790790E+03 -0.80698941735E+02  0.29882376335E+03  0.10100000352E+00 0.  1.
       -3    1    3    3    0  502 -0.10264683487E+03 -0.26878790790E+03 -0.66065916094E+03  0.72059270693E+03  0.10100000352E+00 0. -1.
</event>
<event>
 5   0  0.1243087E-03  0.7000628E+03  0.7818609E-02  0.9717125E-01
        2   -1    0    0  501    0  0.00000000000E+00  0.00000000000E+00  0.16902934253E+04  0.16902934253E+04  0.25500000920E-02 0. -1.
       -2   -1    0    0    0  501  0.00000000000E+00  0.00000000000E+00 -0.72485629055E+02  0.72485629100E+02  0.25500000920E-02 0.  1.
    10030    2    1    2    0    0  0.00000000000E+00  0.00000000000E+00  0.16178077963E+04  0.17627790544E+04  0.70006280365E+03 0.  0.
        4    1    3    3  502    0  0.21221711659E+03  0.21160783934E+03  0.35352052992E+03  0.46345696695E+03  0.12699999809E+01 0.  1.
       -4    1    3    3    0  502 -0.21221711659E+03 -0.21160783934E+03  0.12642872664E+04  0.12993220875E+04  0.12699999809E+01 0. -1.
</event>
<event>
 5   0  0.7013526E-04  0.7050752E+03  0.7818609E-02  0.9708592E-01
       -1   -1    0    0    0  501  0.00000000000E+00  0.00000000000E+00  0.14018114111E+03  0.14018114120E+03  0.50400001928E-02 0.  1.
        1   -1    0    0  501    0  0.00000000000E+00  0.00000000000E+00 -0.88658675190E+03  0.88658675191E+03  0.50400001928E-02 0. -1.
    10030    2    1    2    0    0  0.00000000000E+00  0.00000000000E+00 -0.74640561078E+03  0.10267678931E+04  0.70507515239E+03 0.  0.
        1    1    3    3  502    0  0.24897483032E+02 -0.32372969974E+03 -0.57320282722E+03  0.65877331786E+03  0.50400001928E-02 0. -1.
       -1    1    3    3    0  502 -0.24897483032E+02  0.32372969974E+03 -0.17320278356E+03  0.36799457525E+03  0.50400001928E-02 0.  1.
</event>
<event>
 5   0  0.1282546E-03  0.6999425E+03  0.7818609E-02  0.9717331E-01
       -2   -1    0    0    0  501  0.00000000000E+00  0.00000000000E+00  0.15829483434E+03  0.15829483436E+03  0.25500000920E-02 0. -1.
        2   -1    0    0  501    0  0.00000000000E+00  0.00000000000E+00 -0.77374515801E+03  0.77374515802E+03  0.25500000920E-02 0.  1.
    10030    2    1    2    0    0  0.00000000000E+00  0.00000000000E+00 -0.61545032367E+03  0.93203999238E+03  0.69994245941E+03 0.  0.
        5    1    3    3  502    0 -0.60574229416E+02  0.23358160537E+03 -0.64519500975E+03  0.68886014128E+03  0.46999998093E+01 0.  1.
       -5    1    3    3    0  502  0.60574229416E+02 -0.23358160537E+03  0.29744686077E+02  0.24317985110E+03  0.46999998093E+01 0. -1.
</event>
<event>
 5   0  0.7570633E-04  0.6998821E+03  0.7818609E-02  0.9717434E-01
        1   -1    0    0  501    0  0.00000000000E+00  0.00000000000E+00  0.88561996162E+03  0.88561996164E+03  0.50400001928E-02 0.  1.
       -1   -1    0    0    0  501  0.00000000000E+00  0.00000000000E+00 -0.13827458546E+03  0.13827458556E+03  0.50400001928E-02 0. -1.
    10030    2    1    2    0    0  0.00000000000E+00  0.00000000000E+00  0.74734537616E+03  0.10238945472E+04  0.69988208472E+03 0.  0.
        5    1    3    3  502    0  0.18372000843E+03 -0.27882826782E+03  0.22066712273E+03  0.40026780220E+03  0.46999998093E+01 0. -1.
       -5    1    3    3    0  502 -0.18372000843E+03  0.27882826782E+03  0.52667825343E+03  0.62362674499E+03  0.46999998093E+01 0.  1.
</event>
<event>
 5   0  0.7570633E-04  0.7015450E+03  0.7818609E-02  0.9714594E-01
        1   -1    0    0  501    0  0.00000000000E+00  0.00000000000E+00  0.21526723175E+03  0.21526723181E+03  0.50400001928E-02 0. -1.
       -1   -1    0    0    0  501  0.00000000000E+00  0.00000000000E+00 -0.57157494855E+03  0.57157494858E+03  0.50400001928E-02 0.  1.
    10030    2    1    2    0    0  0.00000000000E+00  0.00000000000E+00 -0.35630771681E+03  0.78684218038E+03  0.70154502904E+03 0.  0.
        5    1    3    3  502    0 -0.14723259726E+03 -0.35102024905E+02  0.17671681593E+03  0.23272411323E+03  0.46999998093E+01 0. -1.
       -5    1    3    3    0  502  0.14723259726E+03  0.35102024905E+02 -0.53302453274E+03  0.55411806715E+03  0.46999998093E+01 0.  1.
</event>
<event>
 5   0  0.1282546E-03  0.7005192E+03  0.7818609E-02  0.9716345E-01
       -2   -1    0    0    0  501  0.00000000000E+00  0.00000000000E+00  0.27132285433E+03  0.27132285434E+03  0.25500000920E-02 0. -1.
        2   -1    0    0  501    0  0.00000000000E+00  0.00000000000E+00 -0.45216167099E+03  0.45216167099E+03  0.25500000920E-02 0.  1.
    10030    2    1    2    0    0  0.00000000000E+00  0.00000000000E+00 -0.18083881666E+03  0.72348452533E+03  0.70051922228E+03 0.  0.
        5    1    3    3  502    0 -0.33076588286E+03 -0.77824932254E+02 -0.17803520254E+03  0.38364229783E+03  0.46999998093E+01 0.  1.
       -5    1    3    3    0  502  0.33076588286E+03  0.77824932254E+02 -0.28036141243E+01  0.33984222750E+03  0.46999998093E+01 0. -1.
</event>
<event>
 5   0  0.7572415E-04  0.6997384E+03  0.7818609E-02  0.9717680E-01
       -1   -1    0    0    0  501  0.00000000000E+00  0.00000000000E+00  0.34688010691E+03  0.34688010695E+03  0.50400001928E-02 0.  1.
        1   -1    0    0  501    0  0.00000000000E+00  0.00000000000E+00 -0.35288405397E+03  0.35288405401E+03  0.50400001928E-02 0. -1.
    10030    2    1    2    0    0  0.00000000000E+00  0.00000000000E+00 -0.60039470634E+01  0.69976416095E+03  0.69973840367E+03 0.  0.
        4    1    3    3  502    0 -0.28742488777E+03  0.80154260748E+02 -0.18568073677E+03  0.35144945658E+03  0.12699999809E+01 0. -1.
       -4    1    3    3    0  502  0.28742488777E+03 -0.80154260748E+02  0.17967678971E+03  0.34831470437E+03  0.12699999809E+01 0.  1.
</event>
<event>
 5   0  0.7572415E-04  0.7000394E+03  0.7818609E-02  0.9717165E-01
       -1   -1    0    0    0  501  0.00000000000E+00  0.00000000000E+00  0.24330162083E+03  0.24330162088E+03  0.50400001928E-02 0. -1.
        1   -1    0    0  501    0  0.00000000000E+00  0.00000000000E+00 -0.50354692518E+03  0.50354692520E+03  0.50400001928E-02 0.  1.
    10030    2    1    2    0    0  0.00000000000E+00  0.00000000000E+00 -0.26024530435E+03  0.74684854608E+03  0.70003937914E+03 0.  0.
        4    1    3    3  502    0  0.22746278084E+03  0.10831929084E+03  0.12910567161E+03  0.28309410587E+03  0.12699999809E+01 0.  1.
       -4    1    3    3    0  502 -0.22746278084E+03 -0.10831929084E+03 -0.38935097596E+03  0.46375444021E+03  0.12699999809E+01 0. -1.
</event>
<event>
 5   0  0.7570633E-04  0.7001159E+03  0.7818609E-02  0.9717034E-01
       -1   -1    0    0    0  501  0.00000000000E+00  0.00000000000E+00  0.23039672101E+03  0.23039672107E+03  0.50400001928E-02 0.  1.
        1   -1    0    0  501    0  0.00000000000E+00  0.00000000000E+00 -0.53186771581E+03  0.53186771583E+03  0.50400001928E-02 0. -1.
    10030    2    1    2    0    0  0.00000000000E+00  0.00000000000E+00 -0.30147099479E+03  0.76226443690E+03  0.70011592687E+03 0.  0.
        5    1    3    3  502    0  0.80387042976E+01  0.18653873348E+03 -0.47308679180E+03  0.50862021434E+03  0.46999998093E+01 0. -1.
       -5    1    3    3    0  502 -0.80387042976E+01 -0.18653873348E+03  0.17161579701E+03  0.25364422256E+03  0.46999998093E+01 0.  1.
</event>
<event>
 5   0  0.7459843E-04  0.7008521E+03  0.7818609E-02  0.9715776E-01
       -1   -1    0    0    0  501  0.00000000000E+00  0.00000000000E+00  0.65374153254E+02  0.65374153448E+02  0.50400001928E-02 0. -1.
        1   -1    0    0  501    0  0.00000000000E+00  0.00000000000E+00 -0.18783938980E+04  0.18783938980E+04  0.50400001928E-02 0.  1.
    10030    2    1    2    0    0  0.00000000000E+00  0.00000000000E+00 -0.18130197448E+04  0.19437680515E+04  0.70085208356E+03 0.  0.
        2    1    3    3  502    0 -0.17184366113E+03 -0.18974504627E+03 -0.15701958528E+04  0.15909269131E+04  0.25500000920E-02 0.  1.
       -2    1    3    3    0  502  0.17184366113E+03  0.18974504627E+03 -0.24282389194E+03  0.35284113842E+03  0.25500000920E-02 0. -1.
</event>
<event>
 5   0  0.7572415E-04  0.6998658E+03  0.7818609E-02  0.9717462E-01
       -1   -1    0    0    0  501  0.00000000000E+00  0.00000000000E+00  0.70829353592E+03  0.70829353594E+03  0.50400001928E-02 0.  1.
        1   -1    0    0  501    0  0.00000000000E+00  0.00000000000E+00 -0.17288456788E+03  0.17288456795E+03  0.50400001928E-02 0. -1.
    10030    2    1    2    0    0  0.00000000000E+00  0.00000000000E+00  0.53540896804E+03  0.88117810389E+03  0.69986576407E+03 0.  0.
        4    1    3    3  502    0 -0.11170783895E+03 -0.39746327312E+01  0.68520818502E+03  0.69426674176E+03  0.12699999809E+01 0.  1.
       -4    1    3    3    0  502  0.11170783895E+03  0.39746327312E+01 -0.14979921698E+03  0.18691136214E+03  0.12699999809E+01 0. -1.
</event>
<event>
 5   0  0.7572415E-04  0.7000381E+03  0.7818609E-02  0.9717167E-01
       -1   -1    0    0    0  501  0.00000000000E+00  0.00000000000E+00  0.43540042703E+03  0.43540042706E+03  0.50400001928E-02 0. -1.
        1   -1    0    0  501    0  0.00000000000E+00  0.00000000000E+00 -0.28138086319E+03  0.28138086323E+03  0.50400001928E-02 0.  1.
    10030    2    1    2    0    0  0.00000000000E+00  0.00000000000E+00  0.15401956384E+03  0.71678129029E+03  0.70003813615E+03 0.  0.
        4    1    3    3  502    0 -0.31607227501E+03 -0.59065924600E+02 -0.64577196079E+02  0.32796690935E+03  0.12699999809E+01 0.  1.
       -4    1    3    3    0  502  0.31607227501E+03  0.59065924600E+02  0.21859675992E+03  0.38881438094E+03  0.12699999809E+01 0. -1.
</event>
<event>
 5   0  0.7013526E-04  0.7004902E+03  0.7818609E-02  0.9716394E-01
       -1   -1    0    0    0  501  0.00000000000E+00  0.00000000000E+00  0.14184886121E+03  0.14184886130E+03  0.50400001928E-02 0.  1.
        1   -1    0    0  501    0  0.00000000000E+00  0.00000000000E+00 -0.86480510315E+03  0.86480510317E+03  0.50400001928E-02 0. -1.
    10030    2    1    2    0    0  0.00000000000E+00  0.00000000000E+00 -0.72295624194E+03  0.10066539645E+04  0.70049016867E+03 0.  0.
        1    1    3    3  502    0  0.12957859332E+03  0.19193655345E+03 -0.73907887573E+03  0.77451135368E+03  0.50400001928E-02 0. -1.
       -1    1    3    3    0  502 -0.12957859332E+03 -0.19193655345E+03  0.16122633788E+02  0.23214261078E+03  0.50400001928E-02 0.  1.
</event>
<event>
 5   0  0.1222679E-03  0.7008305E+03  0.7818609E-02  0.9715813E-01
       -2   -1    0    0    0  501  0.00000000000E+00  0.00000000000E+00  0.11843901553E+04  0.11843901553E+04  0.25500000920E-02 0. -1.
        2   -1    0    0  501    0  0.00000000000E+00  0.00000000000E+00 -0.10367431550E+03  0.10367431553E+03  0.25500000920E-02 0.  1.
    10030    2    1    2    0    0  0.00000000000E+00  0.00000000000E+00  0.10807158398E+04  0.12880644709E+04  0.70083047497E+03 0.  0.
        2    1    3    3  502    0 -0.13730815289E+02 -0.77237957552E+02  0.11680433540E+04  0.11706748115E+04  0.25500000920E-02 0. -1.
       -2    1    3    3    0  502  0.13730815289E+02  0.77237957552E+02 -0.87327514220E+02  0.11738965935E+03  0.25500000920E-02 0.  1.
</event>
<event>
 5   0  0.7013526E-04  0.7000753E+03  0.7818609E-02  0.9717103E-01
        1   -1    0    0  501    0  0.00000000000E+00  0.00000000000E+00  0.29488579010E+03  0.29488579015E+03  0.50400001928E-02 0. -1.
       -1   -1    0    0    0  501  0.00000000000E+00  0.00000000000E+00 -0.41550442100E+03  0.41550442103E+03  0.50400001928E-02 0.  1.
    10030    2    1    2    0    0  0.00000000000E+00  0.00000000000E+00 -0.12061863090E+03  0.71039021118E+03  0.70007528025E+03 0.  0.
        1    1    3    3  502    0 -0.15083763522E+03  0.10727289163E+03  0.24116555918E+03  0.30400705984E+03  0.50400001928E-02 0. -1.
       -1    1    3    3    0  502  0.15083763522E+03 -0.10727289163E+03 -0.36178419007E+03  0.40638315133E+03  0.50400001928E-02 0.  1.
</event>
<event>
 5   0  0.7572415E-04  0.6998086E+03  0.7818609E-02  0.9717559E-01
       -1   -1    0    0    0  501  0.00000000000E+00  0.00000000000E+00  0.26407712966E+03  0.26407712971E+03  0.50400001928E-02 0.  1.
        1   -1    0    0  501    0  0.00000000000E+00  0.00000000000E+00 -0.46362604053E+03  0.46362604055E+03  0.50400001928E-02 0. -1.
    10030    2    1    2    0    0  0.00000000000E+00  0.00000000000E+00 -0.19954891087E+03  0.72770317026E+03  0.69980864254E+03 0.  0.
        4    1    3    3  502    0 -0.31158342621E+03  0.65121885075E+02  0.51296621317E+02  0.32242525904E+03  0.12699999809E+01 0.  1.
       -4    1    3    3    0  502  0.31158342621E+03 -0.65121885075E+02 -0.25084553218E+03  0.40527791122E+03  0.12699999809E+01 0. -1.
</event>
<event>
 5   0  0.1282546E-03  0.7001833E+03  0.7818609E-02  0.9716919E-01
       -2   -1    0    0    0  501  0.00000000000E+00  0.00000000000E+00  0.68812478279E+02  0.68812478326E+02  0.25500000920E-02 0. -1.
        2   -1    0    0  501    0  0.00000000000E+00  0.00000000000E+00 -0.17811329260E+04  0.17811329260E+04  0.25500000920E-02 0.  1.
    10030    2    1    2    0    0  0.00000000000E+00  0.00000000000E+00 -0.17123204477E+04  0.18499454043E+04  0.70018332122E+03 0.  0.
        5    1    3    3  502    0 -0.14034665351E+03 -0.22229819791E+03 -0.14668677481E+04  0.14902472118E+04  0.46999998093E+01 0.  1.
       -5    1    3    3    0  502  0.14034665351E+03  0.22229819791E+03 -0.24545269965E+03  0.35969819253E+03  0.46999998093E+01 0. -1.
</event>
<event>
 5   0  0.4936000E-04  0.6997477E+03  0.7818609E-02  0.9717664E-01
       -4   -1    0    0    0  501  0.00000000000E+00  0.00000000000E+00  0.48102110963E+03  0.48102278616E+03  0.12699999809E+01 0. -1.
        4   -1    0    0  501    0  0.00000000000E+00  0.00000000000E+00 -0.25447935956E+03  0.25448252856E+03  0.12699999809E+01 0.  1.
    10030    2    1    2    0    0  0.00000000000E+00  0.00000000000E+00  0.22654175007E+03  0.73550531472E+03  0.69974774273E+03 0.  0.
        4    1    3    3  502    0  0.17448761981E+03  0.80855558856E+02  0.42048471277E+03  0.46237707278E+03  0.12699999809E+01 0. -1.
       -4    1    3    3    0  502 -0.17448761981E+03 -0.80855558856E+02 -0.19394296270E+03  0.27312824194E+03  0.12699999809E+01 0.  1.
</event>
<event>
 5   0  0.7574241E-04  0.6989087E+03  0.7818609E-02  0.9719100E-01
       -1   -1    0    0    0  501  0.00000000000E+00  0.00000000000E+00  0.26096560075E+03  0.26096560080E+03  0.50400001928E-02 0. -1.
        1   -1    0    0  501    0  0.00000000000E+00  0.00000000000E+00 -0.46794807293E+03  0.46794807295E+03  0.50400001928E-02 0.  1.
    10030    2    1    2    0    0  0.00000000000E+00  0.00000000000E+00 -0.20698247217E+03  0.72891367376E+03  0.69890872080E+03 0.  0.
        3    1    3    3  502    0  0.11127465175E+03 -0.64865131233E+02  0.23530700800E+03  0.26825161992E+03  0.10100000352E+00 0. -1.
       -3    1    3    3    0  502 -0.11127465175E+03  0.64865131233E+02 -0.44228948017E+03  0.46066205384E+03  0.10100000352E+00 0.  1.
</event>
<event>
 5   0  0.7572415E-04  0.7000452E+03  0.7818609E-02  0.9717155E-01
       -1   -1    0    0    0  501  0.00000000000E+00  0.00000000000E+00  0.16506505040E+03  0.16506505048E+03  0.50400001928E-02 0.  1.
        1   -1    0    0  501    0  0.00000000000E+00  0.00000000000E+00 -0.74222756474E+03  0.74222756476E+03  0.50400001928E-02 0. -1.
    10030    2    1    2    0    0  0.00000000000E+00  0.00000000000E+00 -0.57716251434E+03  0.90729261524E+03  0.70004522832E+03 0.  0.
        4    1    3    3  502    0  0.19511979734E+03  0.21038443920E+03 -0.54837635025E+03  0.61891161081E+03  0.12699999809E+01 0. -1.
       -4    1    3    3    0  502 -0.19511979734E+03 -0.21038443920E+03 -0.28786164090E+02  0.28838100443E+03  0.12699999809E+01 0.  1.
</event>
<event>
 5   0  0.7459843E-04  0.7003558E+03  0.7818609E-02  0.9716624E-01
       -1   -1    0    0    0  501  0.00000000000E+00  0.00000000000E+00  0.20663360024E+03  0.20663360030E+03  0.50400001928E-02 0.  1.
        1   -1    0    0  501    0  0.00000000000E+00  0.00000000000E+00 -0.59343955275E+03  0.59343955277E+03  0.50400001928E-02 0. -1.
    10030    2    1    2    0    0  0.00000000000E+00  0.00000000000E+00 -0.38680595250E+03  0.80007315307E+03  0.70035577057E+03 0.  0.
        2    1    3    3  502    0  0.82883590728E+02  0.13813290408E+03 -0.54859744618E+03  0.57176004299E+03  0.25500000920E-02 0. -1.
       -2    1    3    3    0  502 -0.82883590728E+02 -0.13813290408E+03  0.16179149368E+03  0.22831311008E+03  0.25500000920E-02 0.  1.
</event>
<event>
 5   0  0.1243087E-03  0.7000067E+03  0.7818609E-02  0.9717221E-01
       -2   -1    0    0    0  501  0.00000000000E+00  0.00000000000E+00  0.67947524345E+02  0.67947524393E+02  0.25500000920E-02 0.  1.
        2   -1    0    0  501    0  0.00000000000E+00  0.00000000000E+00 -0.18028964523E+04  0.18028964523E+04  0.25500000920E-02 0. -1.
    10030    2    1    2    0    0  0.00000000000E+00  0.00000000000E+00 -0.17349489280E+04  0.18708439767E+04  0.70000671606E+03 0.  0.
        4    1    3    3  502    0 -0.43302316261E+01 -0.74871892714E+02  0.46214500725E+02  0.88101896698E+02  0.12699999809E+01 0.  1.
       -4    1    3    3    0  502  0.43302316261E+01  0.74871892714E+02 -0.17811634287E+04  0.17827420800E+04  0.12699999809E+01 0. -1.
</event>
<event>
 5   0  0.7570633E-04  0.7000905E+03  0.7818609E-02  0.9717077E-01
       -1   -1    0    0    0  501  0.00000000000E+00  0.00000000000E+00  0.11885793629E+03  0.11885793640E+03  0.50400001928E-02 0. -1.
        1   -1    0    0  501    0  0.00000000000E+00  0.00000000000E+00 -0.10309086180E+04  0.10309086180E+04  0.50400001928E-02 0.  1.
    10030    2    1    2    0    0  0.00000000000E+00  0.00000000000E+00 -0.91205068167E+03  0.11497665544E+04  0.70009048245E+03 0.  0.
        5    1    3    3  502    0 -0.32786873195E+02 -0.12997415771E+03  0.74980731877E+02  0.15366346631E+03  0.46999998093E+01 0. -1.
       -5    1    3    3    0  502  0.32786873195E+02  0.12997415771E+03 -0.98703141354E+03  0.99610308806E+03  0.46999998093E+01 0.  1.
</event>
<event>
 5   0  0.7574241E-04  0.7001226E+03  0.7818609E-02  0.9717023E-01
        1   -1    0    0  501    0  0.00000000000E+00  0.00000000000E+00  0.33544760381E+03  0.33544760385E+03  0.50400001928E-02 0. -1.
       -1   -1    0    0    0  501  0.00000000000E+00  0.00000000000E+00 -0.36531159734E+03  0.36531159737E+03  0.50400001928E-02 0.  1.
    10030    2    1    2    0    0  0.00000000000E+00  0.00000000000E+00 -0.29863993529E+02  0.70075920122E+03  0.70012256069E+03 0.  0.
        3    1    3    3  502    0  0.16284592535E+03  0.22931023517E+03  0.19368236124E+03  0.34148916032E+03  0.10100000352E+00 0. -1.
       -3    1    3    3    0  502 -0.16284592535E+03 -0.22931023517E+03 -0.22354635477E+03  0.35927004090E+03  0.10100000352E+00 0.  1.
</event>
<event>
 5   0  0.1222679E-03  0.6999665E+03  0.7818609E-02  0.9717290E-01
       -2   -1    0    0    0  501  0.00000000000E+00  0.00000000000E+00  0.12693550231E+03  0.12693550233E+03  0.25500000920E-02 0.  1.
        2   -1    0    0  501    0  0.00000000000E+00  0.00000000000E+00 -0.96496455679E+03  0.96496455679E+03  0.25500000920E-02 0. -1.
    10030    2    1    2    0    0  0.00000000000E+00  0.00000000000E+00 -0.83802905448E+03  0.10919000591E+04  0.69996645846E+03 0.  0.
        2    1    3    3  502    0  0.23350750273E+03  0.23622832255E+03 -0.59102266371E+03  0.67796560623E+03  0.25500000920E-02 0.  1.
       -2    1    3    3    0  502 -0.23350750273E+03 -0.23622832255E+03 -0.24700639077E+03  0.41393445290E+03  0.25500000920E-02 0. -1.
</event>
<event>
 5   0  0.1282546E-03  0.6998022E+03  0.7818609E-02  0.9717571E-01
        2   -1    0    0  501    0  0.00000000000E+00  0.00000000000E+00  0.10708417955E+04  0.10708417955E+04  0.25500000920E-02 0.  1.
       -2   -1    0    0    0  501  0.00000000000E+00  0.00000000000E+00 -0.11433134499E+03  0.11433134502E+03  0.25500000920E-02 0. -1.
    10030    2    1    2    0    0  0.00000000000E+00  0.00000000000E+00  0.95651045053E+03  0.11851731405E+04  0.69980220854E+03 0.  0.
        5    1    3    3  502    0  0.17221025397E+03  0.12526308909E+03  0.81174327984E+01  0.21315533250E+03  0.46999998093E+01 0. -1.
       -5    1    3    3    0  502 -0.17221025397E+03 -0.12526308909E+03  0.94839301773E+03  0.97201780804E+03  0.46999998093E+01 0.  1.
</event>
<event>
 5   0  0.1224048E-03  0.6999571E+03  0.7818609E-02  0.9717306E-01
        2   -1    0    0  501    0  0.00000000000E+00  0.00000000000E+00  0.58885166231E+03  0.58885166231E+03  0.25500000920E-02 0.  1.
       -2   -1    0    0    0  501  0.00000000000E+00  0.00000000000E+00 -0.20800653738E+03  0.20800653740E+03  0.25500000920E-02 0. -1.
    10030    2    1    2    0    0  0.00000000000E+00  0.00000000000E+00  0.38084512493E+03  0.79685819971E+03  0.69995712816E+03 0.  0.
        3    1    3    3  502    0  0.53408719085E+01 -0.30662651587E+03 -0.15542360927E+01  0.30667698153E+03  0.10100000352E+00 0. -1.
       -3    1    3    3    0  502 -0.53408719085E+01  0.30662651587E+03  0.38239936102E+03  0.49018121818E+03  0.10100000352E+00 0.  1.
</event>
<event>
 5   0  0.4936000E-04  0.6997749E+03  0.7818609E-02  0.9717617E-01
        4   -1    0    0  501    0  0.00000000000E+00  0.00000000000E+00  0.11309637407E+04  0.11309644537E+04  0.12699999809E+01 0.  1.
       -4   -1    0    0    0  501  0.00000000000E+00  0.00000000000E+00 -0.10824058382E+03  0.10824803410E+03  0.12699999809E+01 0. -1.
    10030    2    1    2    0    0  0.00000000000E+00  0.00000000000E+00  0.10227231569E+04  0.12392124878E+04  0.69977491699E+03 0.  0.
        5    1    3    3  502    0 -0.25512433445E+02  0.26010335265E+02  0.11275432404E+04  0.11281415118E+04  0.46999998093E+01 0.  1.
       -5    1    3    3    0  502  0.25512433445E+02 -0.26010335265E+02 -0.10482008353E+03  0.11107097600E+03  0.46999998093E+01 0. -1.
</event>
<event>
 5   0  0.1224048E-03  0.7001567E+03  0.7818609E-02  0.9716964E-01
        2   -1    0    0  501    0  0.00000000000E+00  0.00000000000E+00  0.22248862551E+03  0.22248862553E+03  0.25500000920E-02 0. -1.
       -2   -1    0    0    0  501  0.00000000000E+00  0.00000000000E+00 -0.55083651361E+03  0.55083651362E+03  0.25500000920E-02 0.  1.
    10030    2    1    2    0    0  0.00000000000E+00  0.00000000000E+00 -0.32834788810E+03  0.77332513914E+03  0.70015672189E+03 0.  0.
        3    1    3    3  502    0 -0.13800764803E+03  0.28861755324E+03 -0.71609952055E+01  0.31999608280E+03  0.10100000352E+00 0. -1.
       -3    1    3    3    0  502  0.13800764803E+03 -0.28861755324E+03 -0.32118689289E+03  0.45332905634E+03  0.10100000352E+00 0.  1.
</event>
<event>
 5   0  0.7570633E-04  0.7005322E+03  0.7818609E-02  0.9716322E-01
       -1   -1    0    0    0  501  0.00000000000E+00  0.00000000000E+00  0.27239072199E+03  0.27239072203E+03  0.50400001928E-02 0. -1.
        1   -1    0    0  501    0  0.00000000000E+00  0.00000000000E+00 -0.45040578535E+03  0.45040578537E+03  0.50400001928E-02 0.  1.
    10030    2    1    2    0    0  0.00000000000E+00  0.00000000000E+00 -0.17801506336E+03  0.72279650741E+03  0.70053224647E+03 0.  0.
        5    1    3    3  502    0 -0.15548674873E+03 -0.15557917701E+02 -0.41241165304E+03  0.44104834133E+03  0.46999998093E+01 0.  1.
       -5    1    3    3    0  502  0.15548674873E+03  0.15557917701E+02  0.23439658968E+03  0.28174816607E+03  0.46999998093E+01 0. -1.
</event>
<event>
 5   0  0.7574241E-04  0.6998312E+03  0.7818609E-02  0.9717521E-01
        1   -1    0    0  501    0  0.00000000000E+00  0.00000000000E+00  0.79295355812E+03  0.79295355814E+03  0.50400001928E-02 0.  1.
       -1   -1    0    0    0  501  0.00000000000E+00  0.00000000000E+00 -0.15441122346E+03  0.15441122354E+03  0.50400001928E-02 0. -1.
    10030    2    1    2    0    0  0.00000000000E+00  0.00000000000E+00  0.63854233467E+03  0.94736478168E+03  0.69983120566E+03 0.  0.
        3    1    3    3  502    0  0.16438125165E+03  0.30869968810E+03  0.30418324476E+03  0.46351283684E+03  0.10100000352E+00 0. -1.
       -3    1    3    3    0  502 -0.16438125165E+03 -0.30869968810E+03  0.33435908990E+03  0.48385194484E+03  0.10100000352E+00 0.  1.
</event>
<event>
 5   0  0.4936000E-04  0.7000573E+03  0.7818609E-02  0.9717134E-01
        3   -1    0    0  501    0  0.00000000000E+00  0.00000000000E+00  0.29491426412E+03  0.29491428142E+03  0.10100000352E+00 0.  1.
       -3   -1    0    0    0  501  0.00000000000E+00  0.00000000000E+00 -0.41544296714E+03  0.41544297941E+03  0.10100000352E+00 0. -1.
    10030    2    1    2    0    0  0.00000000000E+00  0.00000000000E+00 -0.12052870301E+03  0.71035726083E+03  0.70005733320E+03 0.  0.
        1    1    3    3  502    0  0.21026057465E+03 -0.10796188123E+03 -0.32223877787E+03  0.39962871149E+03  0.50400001928E-02 0. -1.
       -1    1    3    3    0  502 -0.21026057465E+03  0.10796188123E+03  0.20171007486E+03  0.31072854935E+03  0.50400001928E-02 0.  1.
</event>
<event>
 5   0  0.7572415E-04  0.7001661E+03  0.7818609E-02  0.9716948E-01
        1   -1    0    0  501    0  0.00000000000E+00  0.00000000000E+00  0.30376488891E+03  0.30376488895E+03  0.50400001928E-02 0.  1.
       -1   -1    0    0    0  501  0.00000000000E+00  0.00000000000E+00 -0.40346381843E+03  0.40346381846E+03  0.50400001928E-02 0. -1.
    10030    2    1    2    0    0  0.00000000000E+00  0.00000000000E+00 -0.99698929520E+02  0.70722870740E+03  0.70016610031E+03 0.  0.
        4    1    3    3  502    0  0.32648684655E+03  0.10529010574E+03 -0.12038842020E+03  0.36355831988E+03  0.12699999809E+01 0. -1.
       -4    1    3    3    0  502 -0.32648684655E+03 -0.10529010574E+03  0.20689490683E+02  0.34367038752E+03  0.12699999809E+01 0.  1.
</event>
<event>
 5   0  0.1243087E-03  0.7016591E+03  0.7818609E-02  0.9714399E-01
        2   -1    0    0  501    0  0.00000000000E+00  0.00000000000E+00  0.13325786726E+04  0.13325786726E+04  0.25500000920E-02 0. -1.
       -2   -1    0    0    0  501  0.00000000000E+00  0.00000000000E+00 -0.92363304534E+02  0.92363304570E+02  0.25500000920E-02 0.  1.
    10030    2    1    2    0    0  0.00000000000E+00  0.00000000000E+00  0.12402153680E+04  0.14249419771E+04  0.70165909038E+03 0.  0.
        4    1    3    3  502    0  0.15878031987E+03 -0.19514831629E+03  0.11166653480E+04  0.11446559167E+04  0.12699999809E+01 0. -1.
       -4    1    3    3    0  502 -0.15878031987E+03  0.19514831629E+03  0.12355002005E+03  0.28028606045E+03  0.12699999809E+01 0.  1.
</event>
<event>
 5   0  0.7572415E-04  0.6992625E+03  0.7818609E-02  0.9718494E-01
        1   -1    0    0  501    0  0.00000000000E+00  0.00000000000E+00  0.74615846822E+03  0.74615846823E+03  0.50400001928E-02 0. -1.
       -1   -1    0    0    0  501  0.00000000000E+00  0.00000000000E+00 -0.16382847077E+03  0.16382847085E+03  0.50400001928E-02 0.  1.
    10030    2    1    2    0    0  0.00000000000E+00  0.00000000000E+00  0.58232999744E+03  0.90998693908E+03  0.69926247102E+03 0.  0.
        4    1    3    3  502    0 -0.21447794670E+03  0.26808652541E+03  0.20514556920E+03  0.39994686171E+03  0.12699999809E+01 0. -1.
       -4    1    3    3    0  502  0.21447794670E+03 -0.26808652541E+03  0.37718442824E+03  0.51004007738E+03  0.12699999809E+01 0.  1.
</event>
<event>
 5   0  0.4936000E-04  0.7021961E+03  0.7818609E-02  0.9713484E-01
       -4   -1    0    0    0  501  0.00000000000E+00  0.00000000000E+00  0.49621503641E+03  0.49621666161E+03  0.12699999809E+01 0. -1.
        4   -1    0    0  501    0  0.00000000000E+00  0.00000000000E+00 -0.24841651814E+03  0.24841976448E+03  0.12699999809E+01 0.  1.
    10030    2    1    2    0    0  0.00000000000E+00  0.00000000000E+00  0.24779851827E+03  0.74463642610E+03  0.70219605625E+03 0.  0.
        2    1    3    3  502    0 -0.12834677057E+03 -0.11604756555E+03  0.44786290537E+03  0.48012614279E+03  0.25500000920E-02 0. -1.
       -2    1    3    3    0  502  0.12834677057E+03  0.11604756555E+03 -0.20006438709E+03  0.26451028330E+03  0.25500000920E-02 0.  1.
</event>
<event>
 5   0  0.7574241E-04  0.6998751E+03  0.7818609E-02  0.9717446E-01
       -1   -1    0    0    0  501  0.00000000000E+00  0.00000000000E+00  0.87671720520E+02  0.87671720665E+02  0.50400001928E-02 0.  1.
        1   -1    0    0  501    0  0.00000000000E+00  0.00000000000E+00 -0.13967590757E+04  0.13967590757E+04  0.50400001928E-02 0. -1.
    10030    2    1    2    0    0  0.00000000000E+00  0.00000000000E+00 -0.13090873552E+04  0.14844307964E+04  0.69987505009E+03 0.  0.
        3    1    3    3  502    0 -0.11741814303E+03  0.13240912982E+03 -0.12948487750E+04  0.13068865897E+04  0.10100000352E+00 0. -1.
       -3    1    3    3    0  502  0.11741814303E+03 -0.13240912982E+03 -0.14238580205E+02  0.17754420672E+03  0.10100000352E+00 0.  1.
</event>
<event>
 5   0  0.1222679E-03  0.6999754E+03  0.7818609E-02  0.9717274E-01
       -2   -1    0    0    0  501  0.00000000000E+00  0.00000000000E+00  0.96375308025E+02  0.96375308058E+02  0.25500000920E-02 0.  1.
        2   -1    0    0  501    0  0.00000000000E+00  0.00000000000E+00 -0.12709831715E+04  0.12709831715E+04  0.25500000920E-02 0. -1.
    10030    2    1    2    0    0  0.00000000000E+00  0.00000000000E+00 -0.11746078634E+04  0.13673584795E+04  0.69997541290E+03 0.  0.
        2    1    3    3  502    0  0.15040913198E+03 -0.27766438500E+03 -0.88207878708E+03  0.93690095757E+03  0.25500000920E-02 0. -1.
       -2    1    3    3    0  502 -0.15040913198E+03  0.27766438500E+03 -0.29252907635E+03  0.43045752194E+03  0.25500000920E-02 0.  1.
</event>
<event>
 5   0  0.1243087E-03  0.7002899E+03  0.7818609E-02  0.9716737E-01
       -2   -1    0    0    0  501  0.00000000000E+00  0.00000000000E+00  0.90213652966E+02  0.90213653002E+02  0.25500000920E-02 0. -1.
        2   -1    0    0  501    0  0.00000000000E+00  0.00000000000E+00 -0.13590124872E+04  0.13590124872E+04  0.25500000920E-02 0.  1.
    10030    2    1    2    0    0  0.00000000000E+00  0.00000000000E+00 -0.12687988342E+04  0.14492261402E+04  0.70028988547E+03 0.  0.
        4    1    3    3  502    0  0.13154687211E+03 -0.79746046614E+00 -0.13059233000E+04  0.13125328544E+04  0.12699999809E+01 0.  1.
       -4    1    3    3    0  502 -0.13154687211E+03  0.79746046614E+00  0.37124465821E+02  0.13669328575E+03  0.12699999809E+01 0. -1.
</event>
<event>
 5   0  0.1222679E-03  0.7005667E+03  0.7818609E-02  0.9716264E-01
       -2   -1    0    0    0  501  0.00000000000E+00  0.00000000000E+00  0.23106101842E+03  0.23106101844E+03  0.25500000920E-02 0.  1.
        2   -1    0    0  501    0  0.00000000000E+00  0.00000000000E+00 -0.53102173109E+03  0.53102173110E+03  0.25500000920E-02 0. -1.
    10030    2    1    2    0    0  0.00000000000E+00  0.00000000000E+00 -0.29996071267E+03  0.76208274954E+03  0.70056669061E+03 0.  0.
        2    1    3    3  502    0  0.26781299120E+03  0.18321729605E+03 -0.29349714640E+03  0.43753051411E+03  0.25500000920E-02 0. -1.
       -2    1    3    3    0  502 -0.26781299120E+03 -0.18321729605E+03 -0.64635662664E+01  0.32455223543E+03  0.25500000920E-02 0.  1.
</event>
<event>
 5   0  0.7572415E-04  0.7001024E+03  0.7818609E-02  0.9717057E-01
       -1   -1    0    0    0  501  0.00000000000E+00  0.00000000000E+00  0.46847378813E+03  0.46847378816E+03  0.50400001928E-02 0. -1.
        1   -1    0    0  501    0  0.00000000000E+00  0.00000000000E+00 -0.26156395028E+03  0.26156395033E+03  0.50400001928E-02 0.  1.
    10030    2    1    2    0    0  0.00000000000E+00  0.00000000000E+00  0.20690983785E+03  0.73003773849E+03  0.70010243438E+03 0.  0.
        4    1    3    3  502    0 -0.20443246840E+03  0.27602626850E+02 -0.19144429559E+03  0.28143750702E+03  0.12699999809E+01 0.  1.
       -4    1    3    3    0  502  0.20443246840E+03 -0.27602626850E+02  0.39835413344E+03  0.44860023147E+03  0.12699999809E+01 0. -1.
</event>
<event>
 5   0  0.1282546E-03  0.7001574E+03  0.7818609E-02  0.9716963E-01
        2   -1    0    0  501    0  0.00000000000E+00  0.00000000000E+00  0.71286583063E+03  0.71286583063E+03  0.25500000920E-02 0. -1.
       -2   -1    0    0    0  501  0.00000000000E+00  0.00000000000E+00 -0.17191889214E+03  0.17191889216E+03  0.25500000920E-02 0.  1.
    10030    2    1    2    0    0  0.00000000000E+00  0.00000000000E+00  0.54094693849E+03  0.88478472279E+03  0.70015742189E+03 0.  0.
        5    1    3    3  502    0 -0.26220280717E+03  0.70801579022E+02  0.54954631161E+03  0.61301420398E+03  0.46999998093E+01 0. -1.
       -5    1    3    3    0  502  0.26220280717E+03 -0.70801579022E+02 -0.85993731163E+01  0.27177051881E+03  0.46999998093E+01 0.  1.
</event>
<event>
 5   0  0.7459843E-04  0.7000918E+03  0.7818609E-02  0.9717075E-01
        1   -1    0    0  501    0  0.00000000000E+00  0.00000000000E+00  0.27170254889E+03  0.27170254894E+03  0.50400001928E-02 0.  1.
       -1   -1    0    0    0  501  0.00000000000E+00  0.00000000000E+00 -0.45097896593E+03  0.45097896596E+03  0.50400001928E-02 0. -1.
    10030    2    1    2    0    0  0.00000000000E+00  0.00000000000E+00 -0.17927641704E+03  0.72268151490E+03  0.70009180703E+03 0.  0.
        2    1    3    3  502    0  0.15876536069E+03 -0.30732639329E+03 -0.14499873262E+03  0.37507410499E+03  0.25500000920E-02 0. -1.
       -2    1    3    3    0  502 -0.15876536069E+03  0.30732639329E+03 -0.34277684415E+02  0.34760740991E+03  0.25500000920E-02 0.  1.
</event>
<event>
 5   0  0.7013526E-04  0.7000291E+03  0.7818609E-02  0.9717182E-01
        1   -1    0    0  501    0  0.00000000000E+00  0.00000000000E+00  0.24985115904E+03  0.24985115909E+03  0.50400001928E-02 0. -1.
       -1   -1    0    0    0  501  0.00000000000E+00  0.00000000000E+00 -0.49033266744E+03  0.49033266746E+03  0.50400001928E-02 0.  1.
    10030    2    1    2    0    0  0.00000000000E+00  0.00000000000E+00 -0.24048150840E+03  0.74018382655E+03  0.70002910026E+03 0.  0.
        1    1    3    3  502    0 -0.25936176164E+03  0.23469109682E+03 -0.13368842031E+03  0.37446098338E+03  0.50400001928E-02 0.  1.
       -1    1    3    3    0  502  0.25936176164E+03 -0.23469109682E+03 -0.10679308810E+03  0.36572284317E+03  0.50400001928E-02 0. -1.
</event>
<event>
 5   0  0.7570633E-04  0.6996209E+03  0.7818609E-02  0.9717881E-01
        1   -1    0    0  501    0  0.00000000000E+00  0.00000000000E+00  0.21746893273E+03  0.21746893279E+03  0.50400001928E-02 0. -1.
       -1   -1    0    0    0  501  0.00000000000E+00  0.00000000000E+00 -0.56268893956E+03  0.56268893958E+03  0.50400001928E-02 0.  1.
    10030    2    1    2    0    0  0.00000000000E+00  0.00000000000E+00 -0.34522000683E+03  0.78015787237E+03  0.69962093501E+03 0.  0.
        5    1    3    3  502    0 -0.20551505354E+03  0.28299716956E+03 -0.17777311467E+03  0.39236361390E+03  0.46999998093E+01 0. -1.
       -5    1    3    3    0  502  0.20551505354E+03 -0.28299716956E+03 -0.16744689216E+03  0.38779425847E+03  0.46999998093E+01 0.  1.
</event>
<event>
 5   0  0.7572415E-04  0.6999775E+03  0.7818609E-02  0.9717271E-01
        1   -1    0    0  501    0  0.00000000000E+00  0.00000000000E+00  0.48826622301E+03  0.48826622304E+03  0.50400001928E-02 0.  1.
       -1   -1    0    0    0  501  0.00000000000E+00  0.00000000000E+00 -0.25087156791E+03  0.25087156796E+03  0.50400001928E-02 0. -1.
    10030    2    1    2    0    0  0.00000000000E+00  0.00000000000E+00  0.23739465510E+03  0.73913779099E+03  0.69997746521E+03 0.  0.
        4    1    3    3  502    0 -0.96456361622E+02  0.31534139078E+03 -0.51073528874E+01  0.32980557968E+03  0.12699999809E+01 0. -1.
       -4    1    3    3    0  502  0.96456361622E+02 -0.31534139078E+03  0.24250200799E+03  0.40933221131E+03  0.12699999809E+01 0.  1.
</event>
<event>
 5   0  0.1265562E-03  0.6999133E+03  0.7818609E-02  0.9717381E-01
        2   -1    0    0  501    0  0.00000000000E+00  0.00000000000E+00  0.17546606311E+04  0.17546606311E+04  0.25500000920E-02 0. -1.
       -2   -1    0    0    0  501  0.00000000000E+00  0.00000000000E+00 -0.69796771825E+02  0.69796771871E+02  0.25500000920E-02 0.  1.
    10030    2    1    2    0    0  0.00000000000E+00  0.00000000000E+00  0.16848638592E+04  0.18244574029E+04  0.69991327389E+03 0.  0.
        1    1    3    3  502    0 -0.14653504142E+02 -0.34901292547E+03  0.89741397457E+03  0.96300394034E+03  0.50400001928E-02 0. -1.
       -1    1    3    3    0  502  0.14653504142E+02  0.34901292547E+03  0.78744988468E+03  0.86145346260E+03  0.50400001928E-02 0.  1.
</event>
<event>
 5   0  0.7013526E-04  0.6995145E+03  0.7818609E-02  0.9718063E-01
        1   -1    0    0  501    0  0.00000000000E+00  0.00000000000E+00  0.63330377084E+03  0.63330377086E+03  0.50400001928E-02 0.  1.
       -1   -1    0    0    0  501  0.00000000000E+00  0.00000000000E+00 -0.19316186860E+03  0.19316186867E+03  0.50400001928E-02 0. -1.
    10030    2    1    2    0    0  0.00000000000E+00  0.00000000000E+00  0.44014190224E+03  0.82646563953E+03  0.69951451680E+03 0.  0.
        1    1    3    3  502    0 -0.12000432237E+03 -0.12854095800E+03 -0.13713295039E+03  0.22300058605E+03  0.50400001928E-02 0. -1.
       -1    1    3    3    0  502  0.12000432237E+03  0.12854095800E+03  0.57727485262E+03  0.60346505348E+03  0.50400001928E-02 0.  1.
</event>
<event>
 5   0  0.1224048E-03  0.7002592E+03  0.7818609E-02  0.9716789E-01
        2   -1    0    0  501    0  0.00000000000E+00  0.00000000000E+00  0.41977067176E+03  0.41977067177E+03  0.25500000920E-02 0.  1.
       -2   -1    0    0    0  501  0.00000000000E+00  0.00000000000E+00 -0.29204217866E+03  0.29204217867E+03  0.25500000920E-02 0. -1.
    10030    2    1    2    0    0  0.00000000000E+00  0.00000000000E+00  0.12772849310E+03  0.71181285045E+03  0.70025921351E+03 0.  0.
        3    1    3    3  502    0  0.22694897462E+03 -0.43799292538E+02 -0.20347021308E+03  0.30793563113E+03  0.10100000352E+00 0. -1.
       -3    1    3    3    0  502 -0.22694897462E+03  0.43799292538E+02  0.33119870618E+03  0.40387721932E+03  0.10100000352E+00 0.  1.
</event>
<event>
 5   0  0.1265562E-03  0.6994747E+03  0.7818609E-02  0.9718131E-01
        2   -1    0    0  501    0  0.00000000000E+00  0.00000000000E+00  0.68139467839E+03  0.68139467839E+03  0.25500000920E-02 0. -1.
       -2   -1    0    0    0  501  0.00000000000E+00  0.00000000000E+00 -0.17950863124E+03  0.17950863125E+03  0.25500000920E-02 0.  1.
    10030    2    1    2    0    0  0.00000000000E+00  0.00000000000E+00  0.50188604715E+03  0.86090330964E+03  0.69947473452E+03 0.  0.
        1    1    3    3  502    0  0.76550762454E+02 -0.11400610859E+03  0.64682533116E+03  0.66124157544E+03  0.50400001928E-02 0. -1.
       -1    1    3    3    0  502 -0.76550762454E+02  0.11400610859E+03 -0.14493928402E+03  0.19966173420E+03  0.50400001928E-02 0.  1.
</event>
<event>
 5   0  0.1265562E-03  0.7001098E+03  0.7818609E-02  0.9717044E-01
        2   -1    0    0  501    0  0.00000000000E+00  0.00000000000E+00  0.78554821702E+02  0.78554821744E+02  0.25500000920E-02 0.  1.
       -2   -1    0    0    0  501  0.00000000000E+00  0.00000000000E+00 -0.15599098886E+04  0.15599098886E+04  0.25500000920E-02 0. -1.
    10030    2    1    2    0    0  0.00000000000E+00  0.00000000000E+00 -0.14813550669E+04  0.16384647104E+04  0.70010982913E+03 0.  0.
        1    1    3    3  502    0 -0.20593614424E+03 -0.11926238530E+03 -0.13987623766E+03  0.27604089179E+03  0.50400001928E-02 0.  1.
       -1    1    3    3    0  502  0.20593614424E+03  0.11926238530E+03 -0.13414788293E+04  0.13624238186E+04  0.50400001928E-02 0. -1.
</event>
<event>
 5   0  0.1282546E-03  0.7001544E+03  0.7818609E-02  0.9716968E-01
        2   -1    0    0  501    0  0.00000000000E+00  0.00000000000E+00  0.43715777271E+03  0.43715777272E+03  0.25500000920E-02 0. -1.
       -2   -1    0    0    0  501  0.00000000000E+00  0.00000000000E+00 -0.28034282674E+03  0.28034282675E+03  0.25500000920E-02 0.  1.
    10030    2    1    2    0    0  0.00000000000E+00  0.00000000000E+00  0.15681494597E+03  0.71750059947E+03  0.70015439937E+03 0.  0.
        5    1    3    3  502    0 -0.30076249214E+03 -0.13530173426E+03 -0.41833683886E+02  0.33247072515E+03  0.46999998093E+01 0.  1.
       -5    1    3    3    0  502  0.30076249214E+03  0.13530173426E+03  0.19864862986E+03  0.38502987432E+03  0.46999998093E+01 0. -1.
</event>
<event>
 5   0  0.7570633E-04  0.6998493E+03  0.7818609E-02  0.9717490E-01
        1   -1    0    0  501    0  0.00000000000E+00  0.00000000000E+00  0.97638309310E+03  0.97638309312E+03  0.50400001928E-02 0. -1.
       -1   -1    0    0    0  501  0.00000000000E+00  0.00000000000E+00 -0.12540903461E+03  0.12540903472E+03  0.50400001928E-02 0.  1.
    10030    2    1    2    0    0  0.00000000000E+00  0.00000000000E+00  0.85097405849E+03  0.11017921278E+04  0.69984930144E+03 0.  0.
        5    1    3    3  502    0 -0.39856446740E+02 -0.13686319162E+03 -0.77571888970E+02  0.16235626727E+03  0.46999998093E+01 0.  1.
       -5    1    3    3    0  502  0.39856446740E+02  0.13686319162E+03  0.92854594746E+03  0.93943586056E+03  0.46999998093E+01 0. -1.
</event>
<event>
 5   0  0.1224048E-03  0.6994114E+03  0.7818609E-02  0.9718239E-01
       -2   -1    0    0    0  501  0.00000000000E+00  0.00000000000E+00  0.42615841510E+03  0.42615841510E+03  0.25500000920E-02 0.  1.
        2   -1    0    0  501    0  0.00000000000E+00  0.00000000000E+00 -0.28696860270E+03  0.28696860271E+03  0.25500000920E-02 0. -1.
    10030    2    1    2    0    0  0.00000000000E+00  0.00000000000E+00  0.13918981239E+03  0.71312701782E+03  0.69941142375E+03 0.  0.
        3    1    3    3  502    0  0.76256821188E+02  0.13643550895E+03 -0.24937254570E+03  0.29430668975E+03  0.10100000352E+00 0. -1.
       -3    1    3    3    0  502 -0.76256821188E+02 -0.13643550895E+03  0.38856235809E+03  0.41882032807E+03  0.10100000352E+00 0.  1.
</event>
<event>
 5   0  0.7459843E-04  0.7011596E+03  0.7818609E-02  0.9715251E-01
       -1   -1    0    0    0  501  0.00000000000E+00  0.00000000000E+00  0.14949517608E+03  0.14949517616E+03  0.50400001928E-02 0.  1.
        1   -1    0    0  501    0  0.00000000000E+00  0.00000000000E+00 -0.82214160389E+03  0.82214160391E+03  0.50400001928E-02 0. -1.
    10030    2    1    2    0    0  0.00000000000E+00  0.00000000000E+00 -0.67264642782E+03  0.97163678007E+03  0.70115962200E+03 0.  0.
        2    1    3    3  502    0 -0.12686002386E+03  0.31621505481E+03 -0.22187632700E+03  0.40658889684E+03  0.25500000920E-02 0. -1.
       -2    1    3    3    0  502  0.12686002386E+03 -0.31621505481E+03 -0.45077010081E+03  0.56504788322E+03  0.25500000920E-02 0.  1.
</event>
<event>
 5   0  0.7013526E-04  0.7001314E+03  0.7818609E-02  0.9717008E-01
       -1   -1    0    0    0  501  0.00000000000E+00  0.00000000000E+00  0.44967069894E+03  0.44967069897E+03  0.50400001928E-02 0. -1.
        1   -1    0    0  501    0  0.00000000000E+00  0.00000000000E+00 -0.27252382831E+03  0.27252382835E+03  0.50400001928E-02 0.  1.
    10030    2    1    2    0    0  0.00000000000E+00  0.00000000000E+00  0.17714687063E+03  0.72219452732E+03  0.70013136019E+03 0.  0.
        1    1    3    3  502    0 -0.17460399992E+03 -0.43709238671E+02 -0.22113635967E+03  0.28512864453E+03  0.50400001928E-02 0.  1.
       -1    1    3    3    0  502  0.17460399992E+03  0.43709238671E+02  0.39828323031E+03  0.43706588279E+03  0.50400001928E-02 0. -1.
</event>
<event>
 5   0  0.7574241E-04  0.7000140E+03  0.7818609E-02  0.9717208E-01
       -1   -1    0    0    0  501  0.00000000000E+00  0.00000000000E+00  0.24847816124E+03  0.24847816129E+03  0.50400001928E-02 0.  1.
        1   -1    0    0  501    0  0.00000000000E+00  0.00000000000E+00 -0.49302080001E+03  0.49302080003E+03  0.50400001928E-02 0. -1.
    10030    2    1    2    0    0  0.00000000000E+00  0.00000000000E+00 -0.24454263877E+03  0.74149896132E+03  0.70001400519E+03 0.  0.
        3    1    3    3  502    0  0.12726257873E+03  0.30819830598E+03 -0.23498672181E+03  0.40792245510E+03  0.10100000352E+00 0. -1.
       -3    1    3    3    0  502 -0.12726257873E+03 -0.30819830598E+03 -0.95559169633E+01  0.33357650622E+03  0.10100000352E+00 0.  1.
</event>
<event>
 5   0  0.7574241E-04  0.6999117E+03  0.7818609E-02  0.9717383E-01
        1   -1    0    0  501    0  0.00000000000E+00  0.00000000000E+00  0.63204218774E+03  0.63204218776E+03  0.50400001928E-02 0.  1.
       -1   -1    0    0    0  501  0.00000000000E+00  0.00000000000E+00 -0.19376725821E+03  0.19376725828E+03  0.50400001928E-02 0. -1.
    10030    2    1    2    0    0  0.00000000000E+00  0.00000000000E+00  0.43827492953E+03  0.82580944603E+03  0.69991165679E+03 0.  0.
        3    1    3    3  502    0 -0.30077182626E+03 -0.88414900252E+02  0.35636536502E+02  0.31551681254E+03  0.10100000352E+00 0. -1.
       -3    1    3    3    0  502  0.30077182626E+03  0.88414900252E+02  0.40263839302E+03  0.51029263349E+03  0.10100000352E+00 0.  1.
</event>
<event>
 5   0  0.1222679E-03  0.7021176E+03  0.7818609E-02  0.9713618E-01
        2   -1    0    0  501    0  0.00000000000E+00  0.00000000000E+00  0.12364591153E+04  0.12364591154E+04  0.25500000920E-02 0. -1.
       -2   -1    0    0    0  501  0.00000000000E+00  0.00000000000E+00 -0.99673551115E+02  0.99673551148E+02  0.25500000920E-02 0.  1.
    10030    2    1    2    0    0  0.00000000000E+00  0.00000000000E+00  0.11367855642E+04  0.13361326665E+04  0.70211757095E+03 0.  0.
        2    1    3    3  502    0  0.21542194823E+03 -0.27691631527E+03  0.54485319652E+03  0.64803878526E+03  0.25500000920E-02 0. -1.
       -2    1    3    3    0  502 -0.21542194823E+03  0.27691631527E+03  0.59193236772E+03  0.68809388124E+03  0.25500000920E-02 0.  1.
</event>
<event>
 5   0  0.7570633E-04  0.6995321E+03  0.7818609E-02  0.9718033E-01
        1   -1    0    0  501    0  0.00000000000E+00  0.00000000000E+00  0.38669287281E+03  0.38669287284E+03  0.50400001928E-02 0.  1.
       -1   -1    0    0    0  501  0.00000000000E+00  0.00000000000E+00 -0.31636548294E+03  0.31636548298E+03  0.50400001928E-02 0. -1.
    10030    2    1    2    0    0  0.00000000000E+00  0.00000000000E+00  0.70327389872E+02  0.70305835582E+03  0.69953206497E+03 0.  0.
        5    1    3    3  502    0  0.18019943237E+03 -0.10196942501E+03 -0.24811630101E+03  0.32319249355E+03  0.46999998093E+01 0. -1.
       -5    1    3    3    0  502 -0.18019943237E+03  0.10196942501E+03  0.31844369088E+03  0.37986586227E+03  0.46999998093E+01 0.  1.
</event>
<event>
 5   0  0.1282546E-03  0.6997224E+03  0.7818609E-02  0.9717707E-01
        2   -1    0    0  501    0  0.00000000000E+00  0.00000000000E+00  0.14588299409E+04  0.14588299409E+04  0.25500000920E-02 0. -1.
       -2   -1    0    0    0  501  0.00000000000E+00  0.00000000000E+00 -0.83904827834E+02  0.83904827872E+02  0.25500000920E-02 0.  1.
    10030    2    1    2    0    0  0.00000000000E+00  0.00000000000E+00  0.13749251131E+04  0.15427347688E+04  0.69972244515E+03 0.  0.
        5    1    3    3  502    0 -0.10472732695E+03  0.17896375591E+03  0.13086669799E+04  0.13250008276E+04  0.46999998093E+01 0. -1.
       -5    1    3    3    0  502  0.10472732695E+03 -0.17896375591E+03  0.66258133235E+02  0.21773394121E+03  0.46999998093E+01 0.  1.
</event>
<event>
 5   0  0.4936000E-04  0.7001334E+03  0.7818609E-02  0.9717004E-01
       -4   -1    0    0    0  501  0.00000000000E+00  0.00000000000E+00  0.12841546019E+03  0.12842174005E+03  0.12699999809E+01 0.  1.
        4   -1    0    0  501    0  0.00000000000E+00  0.00000000000E+00 -0.95426866850E+03  0.95426951360E+03  0.12699999809E+01 0. -1.
    10030    2    1    2    0    0  0.00000000000E+00  0.00000000000E+00 -0.82585320831E+03  0.10826912536E+04  0.70013343660E+03 0.  0.
        5    1    3    3  502    0 -0.16680110548E+03 -0.25234745438E+03 -0.14055357477E+03  0.33358543719E+03  0.46999998093E+01 0.  1.
       -5    1    3    3    0  502  0.16680110548E+03  0.25234745438E+03 -0.68529963354E+03  0.74910581646E+03  0.46999998093E+01 0. -1.
</event>
<event>
 5   0  0.4936000E-04  0.6994005E+03  0.7818609E-02  0.9718258E-01
        4   -1    0    0  501    0  0.00000000000E+00  0.00000000000E+00  0.13102109163E+03  0.13102724660E+03  0.12699999809E+01 0. -1.
       -4   -1    0    0    0  501  0.00000000000E+00  0.00000000000E+00 -0.93333459498E+03  0.93333545904E+03  0.12699999809E+01 0.  1.
    10030    2    1    2    0    0  0.00000000000E+00  0.00000000000E+00 -0.80231350335E+03  0.10643627056E+04  0.69940046575E+03 0.  0.
        4    1    3    3  502    0  0.26788620095E+03  0.12078137645E+02 -0.74273617485E+03  0.78966292581E+03  0.12699999809E+01 0.  1.
       -4    1    3    3    0  502 -0.26788620095E+03 -0.12078137645E+02 -0.59577328509E+02  0.27469977983E+03  0.12699999809E+01 0. -1.
</event>
<event>
 5   0  0.7013526E-04  0.7000816E+03  0.7818609E-02  0.9717093E-01
       -1   -1    0    0    0  501  0.00000000000E+00  0.00000000000E+00  0.11918026463E+03  0.11918026473E+03  0.50400001928E-02 0.  1.
        1   -1    0    0  501    0  0.00000000000E+00  0.00000000000E+00 -0.10280942599E+04  0.10280942599E+04  0.50400001928E-02 0. -1.
    10030    2    1    2    0    0  0.00000000000E+00  0.00000000000E+00 -0.90891399524E+03  0.11472745246E+04  0.70008155531E+03 0.  0.
        1    1    3    3  502    0 -0.12790136074E+02  0.34653586354E+03 -0.37624351446E+03  0.51167360153E+03  0.50400001928E-02 0. -1.
       -1    1    3    3    0  502  0.12790136074E+02 -0.34653586354E+03 -0.53267048078E+03  0.63560092308E+03  0.50400001928E-02 0.  1.
</event>
<event>
 5   0  0.7459843E-04  0.7001859E+03  0.7818609E-02  0.9716914E-01
       -1   -1    0    0    0  501  0.00000000000E+00  0.00000000000E+00  0.10959129524E+03  0.10959129535E+03  0.50400001928E-02 0. -1.
        1   -1    0    0  501    0  0.00000000000E+00  0.00000000000E+00 -0.11183831750E+04  0.11183831750E+04  0.50400001928E-02 0.  1.
    10030    2    1    2    0    0  0.00000000000E+00  0.00000000000E+00 -0.10087918797E+04  0.12279744703E+04  0.70018586330E+03 0.  0.
        2    1    3    3  502    0  0.25446230761E+02 -0.26520753103E+03 -0.10608039212E+03  0.28676749254E+03  0.25500000920E-02 0.  1.
       -2    1    3    3    0  502 -0.25446230761E+02  0.26520753103E+03 -0.90271148761E+03  0.94120697779E+03  0.25500000920E-02 0. -1.
</event>
<event>
 5   0  0.1265562E-03  0.7006276E+03  0.7818609E-02  0.9716160E-01
        2   -1    0    0  501    0  0.00000000000E+00  0.00000000000E+00  0.15286024878E+04  0.15286024878E+04  0.25500000920E-02 0.  1.
       -2   -1    0    0    0  501  0.00000000000E+00  0.00000000000E+00 -0.80282315751E+02  0.80282315791E+02  0.25500000920E-02 0. -1.
    10030    2    1    2    0    0  0.00000000000E+00  0.00000000000E+00  0.14483201720E+04  0.16088848036E+04  0.70062756902E+03 0.  0.
        1    1    3    3  502    0 -0.24630400978E+03  0.20976798372E+03  0.41563244489E+03  0.52670542194E+03  0.50400001928E-02 0. -1.
       -1    1    3    3    0  502  0.24630400978E+03 -0.20976798372E+03  0.10326877272E+04  0.10821793817E+04  0.50400001928E-02 0.  1.
</event>
<event>
 5   0  0.1265562E-03  0.7000867E+03  0.7818609E-02  0.9717084E-01
        2   -1    0    0  501    0  0.00000000000E+00  0.00000000000E+00  0.33391783769E+03  0.33391783770E+03  0.25500000920E-02 0. -1.
       -2   -1    0    0    0  501  0.00000000000E+00  0.00000000000E+00 -0.36694759886E+03  0.36694759887E+03  0.25500000920E-02 0.  1.
    10030    2    1    2    0    0  0.00000000000E+00  0.00000000000E+00 -0.33029761167E+02  0.70086543657E+03  0.70008670539E+03 0.  0.
        1    1    3    3  502    0  0.55741384457E+02 -0.34551481326E+03 -0.99684467415E+01  0.35012420379E+03  0.50400001928E-02 0. -1.
       -1    1    3    3    0  502 -0.55741384457E+02  0.34551481326E+03 -0.23061314426E+02  0.35074123278E+03  0.50400001928E-02 0.  1.
</event>
<event>
 5   0  0.7570633E-04  0.7000887E+03  0.7818609E-02  0.9717081E-01
       -1   -1    0    0    0  501  0.00000000000E+00  0.00000000000E+00  0.21703564221E+03  0.21703564227E+03  0.50400001928E-02 0. -1.
        1   -1    0    0  501    0  0.00000000000E+00  0.00000000000E+00 -0.56456640525E+03  0.56456640527E+03  0.50400001928E-02 0.  1.
    10030    2    1    2    0    0  0.00000000000E+00  0.00000000000E+00 -0.34753076304E+03  0.78160204754E+03  0.70008865829E+03 0.  0.
        5    1    3    3  502    0  0.13564404298E+03 -0.16760434789E+03  0.13405123608E+03  0.25393374671E+03  0.46999998093E+01 0. -1.
       -5    1    3    3    0  502 -0.13564404298E+03  0.16760434789E+03 -0.48158199912E+03  0.52766830083E+03  0.46999998093E+01 0.  1.
</event>
<event>
 5   0  0.7572415E-04  0.7001552E+03  0.7818609E-02  0.9716967E-01
        1   -1    0    0  501    0  0.00000000000E+00  0.00000000000E+00  0.15897357544E+04  0.15897357544E+04  0.50400001928E-02 0.  1.
       -1   -1    0    0    0  501  0.00000000000E+00  0.00000000000E+00 -0.77091003047E+02  0.77091003211E+02  0.50400001928E-02 0. -1.
    10030    2    1    2    0    0  0.00000000000E+00  0.00000000000E+00  0.15126447514E+04  0.16668267576E+04  0.70015519431E+03 0.  0.
        4    1    3    3  502    0 -0.18998607064E+02 -0.55285688261E+02 -0.65383326993E+02  0.87715715499E+02  0.12699999809E+01 0. -1.
       -4    1    3    3    0  502  0.18998607064E+02  0.55285688261E+02  0.15780280784E+04  0.15791110421E+04  0.12699999809E+01 0.  1.
</event>
<event>
 5   0  0.1282546E-03  0.7000171E+03  0.7818609E-02  0.9717203E-01
        2   -1    0    0  501    0  0.00000000000E+00  0.00000000000E+00  0.80568957174E+03  0.80568957174E+03  0.25500000920E-02 0.  1.
       -2   -1    0    0    0  501  0.00000000000E+00  0.00000000000E+00 -0.15205108824E+03  0.15205108826E+03  0.25500000920E-02 0. -1.
    10030    2    1    2    0    0  0.00000000000E+00  0.00000000000E+00  0.65363848350E+03  0.95774066000E+03  0.70001707458E+03 0.  0.
        5    1    3    3  502    0  0.15079483401E+03 -0.22197701170E+03  0.63418840302E+03  0.68864351896E+03  0.46999998093E+01 0.  1.
       -5    1    3    3    0  502 -0.15079483401E+03  0.22197701170E+03  0.19450080479E+02  0.26909714104E+03  0.46999998093E+01 0. -1.
</event>
<event>
 5   0  0.7570633E-04  0.7000493E+03  0.7818609E-02  0.9717148E-01
        1   -1    0    0  501    0  0.00000000000E+00  0.00000000000E+00  0.78791766683E+03  0.78791766684E+03  0.50400001928E-02 0.  1.
       -1   -1    0    0    0  501  0.00000000000E+00  0.00000000000E+00 -0.15549500870E+03  0.15549500878E+03  0.50400001928E-02 0. -1.
    10030    2    1    2    0    0  0.00000000000E+00  0.00000000000E+00  0.63242265812E+03  0.94341267563E+03  0.70004932542E+03 0.  0.
        5    1    3    3  502    0 -0.27417146587E+03 -0.14100319559E+03  0.92961528756E+02  0.32204942119E+03  0.46999998093E+01 0. -1.
       -5    1    3    3    0  502  0.27417146587E+03  0.14100319559E+03  0.53946112937E+03  0.62136325444E+03  0.46999998093E+01 0.  1.
</event>
<event>
 5   0  0.7459843E-04  0.6999776E+03  0.7818609E-02  0.9717270E-01
        1   -1    0    0  501    0  0.00000000000E+00  0.00000000000E+00  0.14569282414E+04  0.14569282414E+04  0.50400001928E-02 0.  1.
       -1   -1    0    0    0  501  0.00000000000E+00  0.00000000000E+00 -0.84075634142E+02  0.84075634293E+02  0.50400001928E-02 0. -1.
    10030    2    1    2    0    0  0.00000000000E+00  0.00000000000E+00  0.13728526073E+04  0.15410038757E+04  0.69997761655E+03 0.  0.
        2    1    3    3  502    0 -0.13708112090E+03 -0.90348479258E+02  0.59580898053E+01  0.16428505791E+03  0.25500000920E-02 0. -1.
       -2    1    3    3    0  502  0.13708112090E+03  0.90348479258E+02  0.13668945175E+04  0.13767188178E+04  0.25500000920E-02 0.  1.
</event>
<event>
 5   0  0.1282546E-03  0.7002231E+03  0.7818609E-02  0.9716851E-01
        2   -1    0    0  501    0  0.00000000000E+00  0.00000000000E+00  0.43485744985E+03  0.43485744985E+03  0.25500000920E-02 0. -1.
       -2   -1    0    0    0  501  0.00000000000E+00  0.00000000000E+00 -0.28188113304E+03  0.28188113305E+03  0.25500000920E-02 0.  1.
    10030    2    1    2    0    0  0.00000000000E+00  0.00000000000E+00  0.15297631681E+03  0.71673858290E+03  0.70022313780E+03 0.  0.
        5    1    3    3  502    0  0.22128485550E+03  0.31067199131E+02  0.35233244820E+03  0.41724381624E+03  0.46999998093E+01 0. -1.
       -5    1    3    3    0  502 -0.22128485550E+03 -0.31067199131E+02 -0.19935613139E+03  0.29949476666E+03  0.46999998093E+01 0.  1.
</event>
<event>
 5   0  0.1265562E-03  0.7000594E+03  0.7818609E-02  0.9717131E-01
        2   -1    0    0  501    0  0.00000000000E+00  0.00000000000E+00  0.76590739479E+03  0.76590739480E+03  0.25500000920E-02 0. -1.
       -2   -1    0    0    0  501  0.00000000000E+00  0.00000000000E+00 -0.15996815646E+03  0.15996815648E+03  0.25500000920E-02 0.  1.
    10030    2    1    2    0    0  0.00000000000E+00  0.00000000000E+00  0.60593923833E+03  0.92587555127E+03  0.70005940883E+03 0.  0.
        1    1    3    3  502    0  0.23812736778E+03  0.15402343172E+03  0.31624312559E+02  0.28535584447E+03  0.50400001928E-02 0.  1.
       -1    1    3    3    0  502 -0.23812736778E+03 -0.15402343172E+03  0.57431492577E+03  0.64051970680E+03  0.50400001928E-02 0. -1.
</event>
<event>
 5   0  0.7459843E-04  0.7003192E+03  0.7818609E-02  0.9716686E-01
       -1   -1    0    0    0  501  0.00000000000E+00  0.00000000000E+00  0.80761764276E+02  0.80761764433E+02  0.50400001928E-02 0.  1.
        1   -1    0    0  501    0  0.00000000000E+00  0.00000000000E+00 -0.15181906557E+04  0.15181906557E+04  0.50400001928E-02 0. -1.
    10030    2    1    2    0    0  0.00000000000E+00  0.00000000000E+00 -0.14374288914E+04  0.15989524202E+04  0.70031923006E+03 0.  0.
        2    1    3    3  502    0  0.32441541365E+02 -0.27741539226E+03 -0.12008919342E+04  0.12329449262E+04  0.25500000920E-02 0. -1.
       -2    1    3    3    0  502 -0.32441541365E+02  0.27741539226E+03 -0.23653695723E+03  0.36600749392E+03  0.25500000920E-02 0.  1.
</event>
<event>
 5   0  0.7570633E-04  0.7000534E+03  0.7818609E-02  0.9717141E-01
        1   -1    0    0  501    0  0.00000000000E+00  0.00000000000E+00  0.12863490703E+04  0.12863490703E+04  0.50400001928E-02 0. -1.
       -1   -1    0    0    0  501  0.00000000000E+00  0.00000000000E+00 -0.95245301911E+02  0.95245302044E+02  0.50400001928E-02 0.  1.
    10030    2    1    2    0    0  0.00000000000E+00  0.00000000000E+00  0.11911037684E+04  0.13815943724E+04  0.70005344271E+03 0.  0.
        5    1    3    3  502    0  0.31410259084E+03  0.13977503023E+02  0.89899725268E+03  0.95240430411E+03  0.46999998093E+01 0. -1.
       -5    1    3    3    0  502 -0.31410259084E+03 -0.13977503023E+02  0.29210651570E+03  0.42919006824E+03  0.46999998093E+01 0.  1.
</event>
<event>
 5   0  0.7574241E-04  0.7005634E+03  0.7818609E-02  0.9716269E-01
       -1   -1    0    0    0  501  0.00000000000E+00  0.00000000000E+00  0.43240734268E+03  0.43240734271E+03  0.50400001928E-02 0. -1.
        1   -1    0    0  501    0  0.00000000000E+00  0.00000000000E+00 -0.28375390883E+03  0.28375390887E+03  0.50400001928E-02 0.  1.
    10030    2    1    2    0    0  0.00000000000E+00  0.00000000000E+00  0.14865343385E+03  0.71616125158E+03  0.70056341245E+03 0.  0.
        3    1    3    3  502    0 -0.31167794850E+03 -0.56483629782E+02 -0.78547901321E+02  0.32634847482E+03  0.10100000352E+00 0.  1.
       -3    1    3    3    0  502  0.31167794850E+03  0.56483629782E+02  0.22720133518E+03  0.38981277676E+03  0.10100000352E+00 0. -1.
</event>
<event>
 5   0  0.7574241E-04  0.7003424E+03  0.7818609E-02  0.9716647E-01
       -1   -1    0    0    0  501  0.00000000000E+00  0.00000000000E+00  0.21090072376E+03  0.21090072382E+03  0.50400001928E-02 0. -1.
        1   -1    0    0  501    0  0.00000000000E+00  0.00000000000E+00 -0.58141041795E+03  0.58141041797E+03  0.50400001928E-02 0.  1.
    10030    2    1    2    0    0  0.00000000000E+00  0.00000000000E+00 -0.37050969419E+03  0.79231114179E+03  0.70034242476E+03 0.  0.
        3    1    3    3  502    0 -0.18086432155E+03 -0.40072913739E+02 -0.52143410104E+03  0.55336359941E+03  0.10100000352E+00 0.  1.
       -3    1    3    3    0  502  0.18086432155E+03  0.40072913739E+02  0.15092440685E+03  0.23894754238E+03  0.10100000352E+00 0. -1.
</event>
<event>
 5   0  0.7570633E-04  0.7000549E+03  0.7818609E-02  0.9717138E-01
        1   -1    0    0  501    0  0.00000000000E+00  0.00000000000E+00  0.53133957901E+03  0.53133957904E+03  0.50400001928E-02 0. -1.
       -1   -1    0    0    0  501  0.00000000000E+00  0.00000000000E+00 -0.23058555163E+03  0.23058555169E+03  0.50400001928E-02 0.  1.
    10030    2    1    2    0    0  0.00000000000E+00  0.00000000000E+00  0.30075402738E+03  0.76192513072E+03  0.70005494059E+03 0.  0.
        5    1    3    3  502    0 -0.40953493314E+02  0.21331793792E+03  0.44906798274E+03  0.49886458521E+03  0.46999998093E+01 0. -1.
       -5    1    3    3    0  502  0.40953493314E+02 -0.21331793792E+03 -0.14831395536E+03  0.26306054552E+03  0.46999998093E+01 0.  1.
</event>
<event>
 5   0  0.7572415E-04  0.7001764E+03  0.7818609E-02  0.9716931E-01
        1   -1    0    0  501    0  0.00000000000E+00  0.00000000000E+00  0.24516795540E+03  0.24516795545E+03  0.50400001928E-02 0. -1.
       -1   -1    0    0    0  501  0.00000000000E+00  0.00000000000E+00 -0.49990933303E+03  0.49990933306E+03  0.50400001928E-02 0.  1.
    10030    2    1    2    0    0  0.00000000000E+00  0.00000000000E+00 -0.25474137763E+03  0.74507728851E+03  0.70017640375E+03 0.  0.
        4    1    3    3  502    0 -0.60755268096E+02 -0.17096649272E+03 -0.44596887988E+03  0.48146713175E+03  0.12699999809E+01 0.  1.
       -4    1    3    3    0  502  0.60755268096E+02  0.17096649272E+03  0.19122750224E+03  0.26361015676E+03  0.12699999809E+01 0. -1.
</event>
<event>
 5   0  0.7574241E-04  0.6990387E+03  0.7818609E-02  0.9718878E-01
        1   -1    0    0  501    0  0.00000000000E+00  0.00000000000E+00  0.96014660170E+03  0.96014660171E+03  0.50400001928E-02 0.  1.
       -1   -1    0    0    0  501  0.00000000000E+00  0.00000000000E+00 -0.12723450598E+03  0.12723450608E+03  0.50400001928E-02 0. -1.
    10030    2    1    2    0    0  0.00000000000E+00  0.00000000000E+00  0.83291209572E+03  0.10873811078E+04  0.69903870737E+03 0.  0.
        3    1    3    3  502    0 -0.10833536698E+03 -0.92124557757E+02 -0.80197423622E+02  0.16326396674E+03  0.10100000352E+00 0. -1.
       -3    1    3    3    0  502  0.10833536698E+03  0.92124557757E+02  0.91310951934E+03  0.92411714105E+03  0.10100000352E+00 0.  1.
</event>
<event>
 5   0  0.1243087E-03  0.6999607E+03  0.7818609E-02  0.9717299E-01
       -2   -1    0    0    0  501  0.00000000000E+00  0.00000000000E+00  0.64248368446E+03  0.64248368447E+03  0.25500000920E-02 0. -1.
        2   -1    0    0  501    0  0.00000000000E+00  0.00000000000E+00 -0.19064491705E+03  0.19064491707E+03  0.25500000920E-02 0.  1.
    10030    2    1    2    0    0  0.00000000000E+00  0.00000000000E+00  0.45183876741E+03  0.83312860154E+03  0.69996070958E+03 0.  0.
        4    1    3    3  502    0 -0.17876955062E+03 -0.23543006641E+03  0.29299347765E+01  0.29562825612E+03  0.12699999809E+01 0.  1.
       -4    1    3    3    0  502  0.17876955062E+03  0.23543006641E+03  0.44890883264E+03  0.53750034541E+03  0.12699999809E+01 0. -1.
</event>
<event>
 5   0  0.7574241E-04  0.6965519E+03  0.7818609E-02  0.9723147E-01
       -1   -1    0    0    0  501  0.00000000000E+00  0.00000000000E+00  0.16837658545E+03  0.16837658553E+03  0.50400001928E-02 0.  1.
        1   -1    0    0  501    0  0.00000000000E+00  0.00000000000E+00 -0.72038591377E+03  0.72038591379E+03  0.50400001928E-02 0. -1.
    10030    2    1    2    0    0  0.00000000000E+00  0.00000000000E+00 -0.55200932832E+03  0.88876249932E+03  0.69655185137E+03 0.  0.
        3    1    3    3  502    0 -0.21342170263E+02  0.40906745509E+02 -0.71646899826E+03  0.71795312224E+03  0.10100000352E+00 0. -1.
       -3    1    3    3    0  502  0.21342170263E+02 -0.40906745509E+02  0.16445966994E+03  0.17080937708E+03  0.10100000352E+00 0.  1.
</event>
<event>
 5   0  0.1224048E-03  0.7000535E+03  0.7818609E-02  0.9717141E-01
       -2   -1    0    0    0  501  0.00000000000E+00  0.00000000000E+00  0.19624530646E+03  0.19624530648E+03  0.25500000920E-02 0.  1.
        2   -1    0    0  501    0  0.00000000000E+00  0.00000000000E+00 -0.62431422156E+03  0.62431422156E+03  0.25500000920E-02 0. -1.
    10030    2    1    2    0    0  0.00000000000E+00  0.00000000000E+00 -0.42806891510E+03  0.82055952804E+03  0.70005352866E+03 0.  0.
        3    1    3    3  502    0  0.30340008264E+03 -0.16323398879E+03 -0.14157222629E+03  0.37247771839E+03  0.10100000352E+00 0.  1.
       -3    1    3    3    0  502 -0.30340008264E+03  0.16323398879E+03 -0.28649668881E+03  0.44808180965E+03  0.10100000352E+00 0. -1.
</event>
<event>
 5   0  0.1224048E-03  0.7002751E+03  0.7818609E-02  0.9716762E-01
       -2   -1    0    0    0  501  0.00000000000E+00  0.00000000000E+00  0.30274893727E+03  0.30274893729E+03  0.25500000920E-02 0.  1.
        2   -1    0    0  501    0  0.00000000000E+00  0.00000000000E+00 -0.40494383287E+03  0.40494383288E+03  0.25500000920E-02 0. -1.
    10030    2    1    2    0    0  0.00000000000E+00  0.00000000000E+00 -0.10219489559E+03  0.70769277016E+03  0.70027513183E+03 0.  0.
        3    1    3    3  502    0 -0.30588956738E+03 -0.67574583751E+02  0.10696112944E+03  0.33102181985E+03  0.10100000352E+00 0.  1.
       -3    1    3    3    0  502  0.30588956738E+03  0.67574583751E+02 -0.20915602504E+03  0.37667095032E+03  0.10100000352E+00 0. -1.
</event>
<event>
 5   0  0.4936000E-04  0.7002262E+03  0.7818609E-02  0.9716845E-01
       -4   -1    0    0    0  501  0.00000000000E+00  0.00000000000E+00  0.43726406590E+03  0.43726591021E+03  0.12699999809E+01 0. -1.
        4   -1    0    0  501    0  0.00000000000E+00  0.00000000000E+00 -0.28032832145E+03  0.28033119824E+03  0.12699999809E+01 0.  1.
    10030    2    1    2    0    0  0.00000000000E+00  0.00000000000E+00  0.15693574445E+03  0.71759710845E+03  0.70022623642E+03 0.  0.
        4    1    3    3  502    0  0.25033448582E+03 -0.11609037410E+03  0.29929725350E+03  0.40709309574E+03  0.12699999809E+01 0. -1.
       -4    1    3    3    0  502 -0.25033448582E+03  0.11609037410E+03 -0.14236150905E+03  0.31050401271E+03  0.12699999809E+01 0.  1.
</event>
<event>
 5   0  0.1282546E-03  0.7001127E+03  0.7818609E-02  0.9717040E-01
       -2   -1    0    0    0  501  0.00000000000E+00  0.00000000000E+00  0.16666066168E+03  0.16666066170E+03  0.25500000920E-02 0. -1.
        2   -1    0    0  501    0  0.00000000000E+00  0.00000000000E+00 -0.73526310032E+03  0.73526310033E+03  0.25500000920E-02 0.  1.
    10030    2    1    2    0    0  0.00000000000E+00  0.00000000000E+00 -0.56860243865E+03  0.90192376203E+03  0.70011266184E+03 0.  0.
        5    1    3    3  502    0  0.32142907621E+03  0.39420473072E+02 -0.45543427119E+03  0.55884979208E+03  0.46999998093E+01 0.  1.
       -5    1    3    3    0  502 -0.32142907621E+03 -0.39420473072E+02 -0.11316816746E+03  0.34307396995E+03  0.46999998093E+01 0. -1.
</event>
<event>
 5   0  0.7570633E-04  0.7001271E+03  0.7818609E-02  0.9717015E-01
        1   -1    0    0  501    0  0.00000000000E+00  0.00000000000E+00  0.66124179678E+03  0.66124179680E+03  0.50400001928E-02 0.  1.
       -1   -1    0    0    0  501  0.00000000000E+00  0.00000000000E+00 -0.18532475594E+03  0.18532475601E+03  0.50400001928E-02 0. -1.
    10030    2    1    2    0    0  0.00000000000E+00  0.00000000000E+00  0.47591704084E+03  0.84656655281E+03  0.70012705888E+03 0.  0.
        5    1    3    3  502    0  0.34618770503E+03  0.49468896353E+02  0.21964917373E+03  0.41299025211E+03  0.46999998093E+01 0.  1.
       -5    1    3    3    0  502 -0.34618770503E+03 -0.49468896353E+02  0.25626786711E+03  0.43357630070E+03  0.46999998093E+01 0. -1.
</event>
<event>
 5   0  0.7459843E-04  0.6997541E+03  0.7818609E-02  0.9717653E-01
        1   -1    0    0  501    0  0.00000000000E+00  0.00000000000E+00  0.11463484399E+03  0.11463484410E+03  0.50400001928E-02 0. -1.
       -1   -1    0    0    0  501  0.00000000000E+00  0.00000000000E+00 -0.10678599431E+04  0.10678599431E+04  0.50400001928E-02 0.  1.
    10030    2    1    2    0    0  0.00000000000E+00  0.00000000000E+00 -0.95322509909E+03  0.11824947872E+04  0.69975412267E+03 0.  0.
        2    1    3    3  502    0 -0.14738526168E+02 -0.63130537179E+02  0.10439691781E+03  0.12288777536E+03  0.25500000920E-02 0. -1.
       -2    1    3    3    0  502  0.14738526168E+02  0.63130537179E+02 -0.10576220169E+04  0.10596070118E+04  0.25500000920E-02 0.  1.
</event>
<event>
 5   0  0.1282546E-03  0.7001374E+03  0.7818609E-02  0.9716997E-01
        2   -1    0    0  501    0  0.00000000000E+00  0.00000000000E+00  0.12722855625E+04  0.12722855625E+04  0.25500000920E-02 0. -1.
       -2   -1    0    0    0  501  0.00000000000E+00  0.00000000000E+00 -0.96321208419E+02  0.96321208453E+02  0.25500000920E-02 0.  1.
    10030    2    1    2    0    0  0.00000000000E+00  0.00000000000E+00  0.11759643541E+04  0.13686067710E+04  0.70013736613E+03 0.  0.
        5    1    3    3  502    0 -0.29703030825E+03 -0.13844443680E+03  0.82844360030E+03  0.89091792831E+03  0.46999998093E+01 0. -1.
       -5    1    3    3    0  502  0.29703030825E+03  0.13844443680E+03  0.34752075382E+03  0.47768884269E+03  0.46999998093E+01 0.  1.
</event>
<event>
 5   0  0.1265562E-03  0.6999093E+03  0.7818609E-02  0.9717387E-01
       -2   -1    0    0    0  501  0.00000000000E+00  0.00000000000E+00  0.10469049944E+03  0.10469049947E+03  0.25500000920E-02 0.  1.
        2   -1    0    0  501    0  0.00000000000E+00  0.00000000000E+00 -0.11698124356E+04  0.11698124356E+04  0.25500000920E-02 0. -1.
    10030    2    1    2    0    0  0.00000000000E+00  0.00000000000E+00 -0.10651219362E+04  0.12745029351E+04  0.69990927455E+03 0.  0.
        1    1    3    3  502    0  0.19101108041E+03 -0.24159749356E+03 -0.83515553667E+03  0.89013445736E+03  0.50400001928E-02 0. -1.
       -1    1    3    3    0  502 -0.19101108041E+03  0.24159749356E+03 -0.22996639949E+03  0.38436847770E+03  0.50400001928E-02 0.  1.
</event>
<event>
 5   0  0.7459843E-04  0.6999017E+03  0.7818609E-02  0.9717400E-01
        1   -1    0    0  501    0  0.00000000000E+00  0.00000000000E+00  0.66427430324E+03  0.66427430326E+03  0.50400001928E-02 0. -1.
       -1   -1    0    0    0  501  0.00000000000E+00  0.00000000000E+00 -0.18436000306E+03  0.18436000313E+03  0.50400001928E-02 0.  1.
    10030    2    1    2    0    0  0.00000000000E+00  0.00000000000E+00  0.47991430018E+03  0.84863430638E+03  0.69990174343E+03 0.  0.
        2    1    3    3  502    0  0.24469167300E+03  0.23349787666E+02  0.54198135612E+03  0.59511597005E+03  0.25500000920E-02 0. -1.
       -2    1    3    3    0  502 -0.24469167300E+03 -0.23349787666E+02 -0.62067055937E+02  0.25351833634E+03  0.25500000920E-02 0.  1.
</event>
<event>
 5   0  0.1265562E-03  0.7000029E+03  0.7818609E-02  0.9717227E-01
       -2   -1    0    0    0  501  0.00000000000E+00  0.00000000000E+00  0.14248122083E+03  0.14248122086E+03  0.25500000920E-02 0.  1.
        2   -1    0    0  501    0  0.00000000000E+00  0.00000000000E+00 -0.85976951505E+03  0.85976951505E+03  0.25500000920E-02 0. -1.
    10030    2    1    2    0    0  0.00000000000E+00  0.00000000000E+00 -0.71728829421E+03  0.10022507359E+04  0.70000288615E+03 0.  0.
        1    1    3    3  502    0 -0.19858820760E+03  0.24402966333E+03 -0.57819389955E+03  0.65825218441E+03  0.50400001928E-02 0. -1.
       -1    1    3    3    0  502  0.19858820760E+03 -0.24402966333E+03 -0.13909439467E+03  0.34399855150E+03  0.50400001928E-02 0.  1.
</event>
<event>
 5   0  0.7572415E-04  0.7000879E+03  0.7818609E-02  0.9717082E-01
        1   -1    0    0  501    0  0.00000000000E+00  0.00000000000E+00  0.13350195343E+03  0.13350195353E+03  0.50400001928E-02 0. -1.
       -1   -1    0    0    0  501  0.00000000000E+00  0.00000000000E+00 -0.91782002116E+03  0.91782002117E+03  0.50400001928E-02 0.  1.
    10030    2    1    2    0    0  0.00000000000E+00  0.00000000000E+00 -0.78431806773E+03  0.10513219747E+04  0.70008789671E+03 0.  0.
        4    1    3    3  502    0  0.16354068869E+03  0.30947598242E+03 -0.39646247943E+03  0.52887148821E+03  0.12699999809E+01 0.  1.
       -4    1    3    3    0  502 -0.16354068869E+03 -0.30947598242E+03 -0.38785558830E+03  0.52245048648E+03  0.12699999809E+01 0. -1.
</event>
<event>
 5   0  0.4936000E-04  0.7001290E+03  0.7818609E-02  0.9717012E-01
        3   -1    0    0  501    0  0.00000000000E+00  0.00000000000E+00  0.25404066859E+03  0.25404068866E+03  0.10100000352E+00 0. -1.
       -3   -1    0    0    0  501  0.00000000000E+00  0.00000000000E+00 -0.48238389723E+03  0.48238390781E+03  0.10100000352E+00 0.  1.
    10030    2    1    2    0    0  0.00000000000E+00  0.00000000000E+00 -0.22834322864E+03  0.73642459647E+03  0.70012895685E+03 0.  0.
        1    1    3    3  502    0 -0.16515889657E+03 -0.16506671169E+03  0.16015671689E+03  0.28315129245E+03  0.50400001928E-02 0. -1.
       -1    1    3    3    0  502  0.16515889657E+03  0.16506671169E+03 -0.38849994554E+03  0.45327330402E+03  0.50400001928E-02 0.  1.
</event>
<event>
 5   0  0.1224048E-03  0.7003196E+03  0.7818609E-02  0.9716686E-01
        2   -1    0    0  501    0  0.00000000000E+00  0.00000000000E+00  0.13522589236E+04  0.13522589236E+04  0.25500000920E-02 0.  1.
       -2   -1    0    0    0  501  0.00000000000E+00  0.00000000000E+00 -0.90671908829E+02  0.90671908865E+02  0.25500000920E-02 0. -1.
    10030    2    1    2    0    0  0.00000000000E+00  0.00000000000E+00  0.12615870148E+04  0.14429308325E+04  0.70031963520E+03 0.  0.
        3    1    3    3  502    0 -0.20101892371E+03  0.22215612014E+03  0.25735724362E+03  0.39496165694E+03  0.10100000352E+00 0. -1.
       -3    1    3    3    0  502  0.20101892371E+03 -0.22215612014E+03  0.10042297711E+04  0.10479691755E+04  0.10100000352E+00 0.  1.
</event>
<event>
 5   0  0.7572415E-04  0.7008798E+03  0.7818609E-02  0.9715729E-01
       -1   -1    0    0    0  501  0.00000000000E+00  0.00000000000E+00  0.81581883842E+02  0.81581883997E+02  0.50400001928E-02 0.  1.
        1   -1    0    0  501    0  0.00000000000E+00  0.00000000000E+00 -0.15053358786E+04  0.15053358786E+04  0.50400001928E-02 0. -1.
    10030    2    1    2    0    0  0.00000000000E+00  0.00000000000E+00 -0.14237539948E+04  0.15869177626E+04  0.70087983826E+03 0.  0.
        4    1    3    3  502    0 -0.10829061458E+03  0.31791885746E+03 -0.93837720024E+03  0.99667077812E+03  0.12699999809E+01 0. -1.
       -4    1    3    3    0  502  0.10829061458E+03 -0.31791885746E+03 -0.48537679452E+03  0.59024698448E+03  0.12699999809E+01 0.  1.
</event>
<event>
 5   0  0.1224048E-03  0.6997588E+03  0.7818609E-02  0.9717645E-01
       -2   -1    0    0    0  501  0.00000000000E+00  0.00000000000E+00  0.31990585653E+03  0.31990585654E+03  0.25500000920E-02 0.  1.
        2   -1    0    0  501    0  0.00000000000E+00  0.00000000000E+00 -0.38266128429E+03  0.38266128430E+03  0.25500000920E-02 0. -1.
    10030    2    1    2    0    0  0.00000000000E+00  0.00000000000E+00 -0.62755427763E+02  0.70256714084E+03  0.69975877534E+03 0.  0.
        3    1    3    3  502    0  0.21739254344E+03 -0.25923470460E+03 -0.12091761176E+03  0.35928154565E+03  0.10100000352E+00 0.  1.
       -3    1    3    3    0  502 -0.21739254344E+03  0.25923470460E+03  0.58162183999E+02  0.34328559518E+03  0.10100000352E+00 0. -1.
</event>
<event>
 5   0  0.1243087E-03  0.7000211E+03  0.7818609E-02  0.9717196E-01
       -2   -1    0    0    0  501  0.00000000000E+00  0.00000000000E+00  0.81908670475E+02  0.81908670514E+02  0.25500000920E-02 0.  1.
        2   -1    0    0  501    0  0.00000000000E+00  0.00000000000E+00 -0.14956584880E+04  0.14956584880E+04  0.25500000920E-02 0. -1.
    10030    2    1    2    0    0  0.00000000000E+00  0.00000000000E+00 -0.14137498175E+04  0.15775671585E+04  0.70002113759E+03 0.  0.
        4    1    3    3  502    0  0.97541917311E+02 -0.17552225098E+03 -0.60821401698E+02  0.20981740163E+03  0.12699999809E+01 0.  1.
       -4    1    3    3    0  502 -0.97541917311E+02  0.17552225098E+03 -0.13529284158E+04  0.13677497569E+04  0.12699999809E+01 0. -1.
</event>
<event>
 5   0  0.1222679E-03  0.7000618E+03  0.7818609E-02  0.9717127E-01
       -2   -1    0    0    0  501  0.00000000000E+00  0.00000000000E+00  0.93387442295E+02  0.93387442330E+02  0.25500000920E-02 0. -1.
        2   -1    0    0  501    0  0.00000000000E+00  0.00000000000E+00 -0.13119711257E+04  0.13119711257E+04  0.25500000920E-02 0.  1.
    10030    2    1    2    0    0  0.00000000000E+00  0.00000000000E+00 -0.12185836834E+04  0.14053585681E+04  0.70006179106E+03 0.  0.
        2    1    3    3  502    0 -0.21220848139E+03 -0.23467556606E+03 -0.30872897664E+03  0.44206180779E+03  0.25500000920E-02 0. -1.
       -2    1    3    3    0  502  0.21220848139E+03  0.23467556606E+03 -0.90985470680E+03  0.96329676028E+03  0.25500000920E-02 0.  1.
</event>
<event>
 5   0  0.1222679E-03  0.6998658E+03  0.7818609E-02  0.9717462E-01
       -2   -1    0    0    0  501  0.00000000000E+00  0.00000000000E+00  0.17822960388E+03  0.17822960389E+03  0.25500000920E-02 0.  1.
        2   -1    0    0  501    0  0.00000000000E+00  0.00000000000E+00 -0.68705208617E+03  0.68705208618E+03  0.25500000920E-02 0. -1.
    10030    2    1    2    0    0  0.00000000000E+00  0.00000000000E+00 -0.50882248230E+03  0.86528169007E+03  0.69986576190E+03 0.  0.
        2    1    3    3  502    0 -0.44011696730E+02 -0.95109294459E+01 -0.68345546172E+03  0.68493711783E+03  0.25500000920E-02 0. -1.
       -2    1    3    3    0  502  0.44011696730E+02  0.95109294459E+01  0.17463297942E+03  0.18034457224E+03  0.25500000920E-02 0.  1.
</event>
<event>
 5   0  0.7459843E-04  0.6999830E+03  0.7818609E-02  0.9717261E-01
       -1   -1    0    0    0  501  0.00000000000E+00  0.00000000000E+00  0.95700629405E+02  0.95700629538E+02  0.50400001928E-02 0. -1.
        1   -1    0    0  501    0  0.00000000000E+00  0.00000000000E+00 -0.12799711236E+04  0.12799711236E+04  0.50400001928E-02 0.  1.
    10030    2    1    2    0    0  0.00000000000E+00  0.00000000000E+00 -0.11842704942E+04  0.13756717532E+04  0.69998297764E+03 0.  0.
        2    1    3    3  502    0 -0.50182640793E+02 -0.26425049338E+03 -0.15203496706E+03  0.30896804350E+03  0.25500000920E-02 0. -1.
       -2    1    3    3    0  502  0.50182640793E+02  0.26425049338E+03 -0.10322355271E+04  0.10667037097E+04  0.25500000920E-02 0.  1.
</event>
<event>
 5   0  0.1222679E-03  0.6999807E+03  0.7818609E-02  0.9717265E-01
        2   -1    0    0  501    0  0.00000000000E+00  0.00000000000E+00  0.14461434694E+04  0.14461434694E+04  0.25500000920E-02 0. -1.
       -2   -1    0    0    0  501  0.00000000000E+00  0.00000000000E+00 -0.84703392102E+02  0.84703392140E+02  0.25500000920E-02 0.  1.
    10030    2    1    2    0    0  0.00000000000E+00  0.00000000000E+00  0.13614400773E+04  0.15308468615E+04  0.69998073503E+03 0.  0.
        2    1    3    3  502    0 -0.20917659094E+03  0.13634844826E+03  0.12170777065E+04  0.12424266132E+04  0.25500000920E-02 0. -1.
       -2    1    3    3    0  502  0.20917659094E+03 -0.13634844826E+03  0.14436237080E+03  0.28842024834E+03  0.25500000920E-02 0.  1.
</event>
<event>
 5   0  0.1282546E-03  0.7002931E+03  0.7818609E-02  0.9716731E-01
        2   -1    0    0  501    0  0.00000000000E+00  0.00000000000E+00  0.14015315544E+04  0.14015315544E+04  0.25500000920E-02 0.  1.
       -2   -1    0    0    0  501  0.00000000000E+00  0.00000000000E+00 -0.87477598125E+02  0.87477598162E+02  0.25500000920E-02 0. -1.
    10030    2    1    2    0    0  0.00000000000E+00  0.00000000000E+00  0.13140539562E+04  0.14890091525E+04  0.70029312178E+03 0.  0.
        5    1    3    3  502    0  0.13152345421E+03 -0.11630720676E+02 -0.32443382878E+02  0.13604541801E+03  0.46999998093E+01 0. -1.
       -5    1    3    3    0  502 -0.13152345421E+03  0.11630720676E+02  0.13464973391E+04  0.13529637345E+04  0.46999998093E+01 0.  1.
</event>
<event>
 5   0  0.1282546E-03  0.6996671E+03  0.7818609E-02  0.9717802E-01
       -2   -1    0    0    0  501  0.00000000000E+00  0.00000000000E+00  0.35803013514E+03  0.35803013515E+03  0.25500000920E-02 0. -1.
        2   -1    0    0  501    0  0.00000000000E+00  0.00000000000E+00 -0.34182458675E+03  0.34182458676E+03  0.25500000920E-02 0.  1.
    10030    2    1    2    0    0  0.00000000000E+00  0.00000000000E+00  0.16205548389E+02  0.69985472191E+03  0.69966707224E+03 0.  0.
        5    1    3    3  502    0  0.23907478960E+03 -0.15311985488E+03  0.21250769196E+03  0.35466047725E+03  0.46999998093E+01 0. -1.
       -5    1    3    3    0  502 -0.23907478960E+03  0.15311985488E+03 -0.19630214357E+03  0.34519424466E+03  0.46999998093E+01 0.  1.
</event>
<event>
 5   0  0.1224048E-03  0.6998578E+03  0.7818609E-02  0.9717475E-01
       -2   -1    0    0    0  501  0.00000000000E+00  0.00000000000E+00  0.41018456082E+02  0.41018456162E+02  0.25500000920E-02 0. -1.
        2   -1    0    0  501    0  0.00000000000E+00  0.00000000000E+00 -0.29852473787E+04  0.29852473787E+04  0.25500000920E-02 0.  1.
    10030    2    1    2    0    0  0.00000000000E+00  0.00000000000E+00 -0.29442289227E+04  0.30262658349E+04  0.69985781019E+03 0.  0.
        3    1    3    3  502    0 -0.33933401059E+03 -0.79821230972E+02 -0.13401595824E+04  0.13847551105E+04  0.10100000352E+00 0.  1.
       -3    1    3    3    0  502  0.33933401059E+03  0.79821230972E+02 -0.16040693403E+04  0.16415107244E+04  0.10100000352E+00 0. -1.
</event>
<event>
 5   0  0.7570633E-04  0.6990874E+03  0.7818609E-02  0.9718794E-01
       -1   -1    0    0    0  501  0.00000000000E+00  0.00000000000E+00  0.32184115208E+03  0.32184115212E+03  0.50400001928E-02 0.  1.
        1   -1    0    0  501    0  0.00000000000E+00  0.00000000000E+00 -0.37963072299E+03  0.37963072302E+03  0.50400001928E-02 0. -1.
    10030    2    1    2    0    0  0.00000000000E+00  0.00000000000E+00 -0.57789570911E+02  0.70147187514E+03  0.69908737445E+03 0.  0.
        5    1    3    3  502    0 -0.33201557028E+03 -0.10527972539E+03  0.19616718678E+00  0.34833932877E+03  0.46999998093E+01 0.  1.
       -5    1    3    3    0  502  0.33201557028E+03  0.10527972539E+03 -0.57985738097E+02  0.35313254637E+03  0.46999998093E+01 0. -1.
</event>
<event>
 5   0  0.7013526E-04  0.7001059E+03  0.7818609E-02  0.9717051E-01
       -1   -1    0    0    0  501  0.00000000000E+00  0.00000000000E+00  0.31407726978E+03  0.31407726983E+03  0.50400001928E-02 0. -1.
        1   -1    0    0  501    0  0.00000000000E+00  0.00000000000E+00 -0.39014948136E+03  0.39014948139E+03  0.50400001928E-02 0.  1.
    10030    2    1    2    0    0  0.00000000000E+00  0.00000000000E+00 -0.76072211573E+02  0.70422675122E+03  0.70010594609E+03 0.  0.
        1    1    3    3  502    0 -0.31999681250E+03  0.12603259665E+02 -0.18021972221E+03  0.36747238055E+03  0.50400001928E-02 0.  1.
       -1    1    3    3    0  502  0.31999681250E+03 -0.12603259665E+02  0.10414751064E+03  0.33675437067E+03  0.50400001928E-02 0. -1.
</event>
<event>
 5   0  0.1224048E-03  0.7004207E+03  0.7818609E-02  0.9716513E-01
       -2   -1    0    0    0  501  0.00000000000E+00  0.00000000000E+00  0.25764427405E+03  0.25764427406E+03  0.25500000920E-02 0.  1.
        2   -1    0    0  501    0  0.00000000000E+00  0.00000000000E+00 -0.47603343445E+03  0.47603343446E+03  0.25500000920E-02 0. -1.
    10030    2    1    2    0    0  0.00000000000E+00  0.00000000000E+00 -0.21838916041E+03  0.73367770852E+03  0.70042069829E+03 0.  0.
        3    1    3    3  502    0 -0.12287190980E+02 -0.30635417560E+03  0.68085037628E+02  0.31406916200E+03  0.10100000352E+00 0.  1.
       -3    1    3    3    0  502  0.12287190980E+02  0.30635417560E+03 -0.28647419804E+03  0.41960854652E+03  0.10100000352E+00 0. -1.
</event>
<event>
 5   0  0.4936000E-04  0.7000993E+03  0.7818609E-02  0.9717062E-01
        4   -1    0    0  501    0  0.00000000000E+00  0.00000000000E+00  0.25926499694E+03  0.25926810745E+03  0.12699999809E+01 0.  1.
       -4   -1    0    0    0  501  0.00000000000E+00  0.00000000000E+00 -0.47261676733E+03  0.47261847368E+03  0.12699999809E+01 0. -1.
    10030    2    1    2    0    0  0.00000000000E+00  0.00000000000E+00 -0.21335177039E+03  0.73188658112E+03  0.70009927132E+03 0.  0.
        3    1    3    3  502    0  0.26997629372E+03 -0.11055829177E+03  0.95561571375E+02  0.30698918413E+03  0.10100000352E+00 0.  1.
       -3    1    3    3    0  502 -0.26997629372E+03  0.11055829177E+03 -0.30891334176E+03  0.42489739699E+03  0.10100000352E+00 0. -1.
</event>
<event>
 5   0  0.1243087E-03  0.7009064E+03  0.7818609E-02  0.9715683E-01
       -2   -1    0    0    0  501  0.00000000000E+00  0.00000000000E+00  0.13967056912E+03  0.13967056914E+03  0.25500000920E-02 0.  1.
        2   -1    0    0  501    0  0.00000000000E+00  0.00000000000E+00 -0.87933656540E+03  0.87933656541E+03  0.25500000920E-02 0. -1.
    10030    2    1    2    0    0  0.00000000000E+00  0.00000000000E+00 -0.73966599628E+03  0.10190071345E+04  0.70090638049E+03 0.  0.
        4    1    3    3  502    0 -0.42086526506E+02  0.90812683497E+02 -0.85811099395E+03  0.86392957470E+03  0.12699999809E+01 0. -1.
       -4    1    3    3    0  502  0.42086526506E+02 -0.90812683497E+02  0.11844499767E+03  0.15507755985E+03  0.12699999809E+01 0.  1.
</event>
<event>
 5   0  0.4936000E-04  0.7002011E+03  0.7818609E-02  0.9716888E-01
       -3   -1    0    0    0  501  0.00000000000E+00  0.00000000000E+00  0.10214347518E+03  0.10214352512E+03  0.10100000352E+00 0.  1.
        3   -1    0    0  501    0  0.00000000000E+00  0.00000000000E+00 -0.11999823781E+04  0.11999823823E+04  0.10100000352E+00 0. -1.
    10030    2    1    2    0    0  0.00000000000E+00  0.00000000000E+00 -0.10978389029E+04  0.13021259074E+04  0.70020112977E+03 0.  0.
        4    1    3    3  502    0 -0.29908343186E+03  0.59965471827E+02 -0.22939557049E+03  0.38166830846E+03  0.12699999809E+01 0.  1.
       -4    1    3    3    0  502  0.29908343186E+03 -0.59965471827E+02 -0.86844333240E+03  0.92045759898E+03  0.12699999809E+01 0. -1.
</event>
<event>
 5   0  0.7572415E-04  0.7000193E+03  0.7818609E-02  0.9717199E-01
       -1   -1    0    0    0  501  0.00000000000E+00  0.00000000000E+00  0.80874064083E+03  0.80874064085E+03  0.50400001928E-02 0.  1.
        1   -1    0    0  501    0  0.00000000000E+00  0.00000000000E+00 -0.15147844006E+03  0.15147844015E+03  0.50400001928E-02 0. -1.
    10030    2    1    2    0    0  0.00000000000E+00  0.00000000000E+00  0.65726220077E+03  0.96021908100E+03  0.70001934470E+03 0.  0.
        4    1    3    3  502    0 -0.28232749434E+02 -0.75674317642E+00 -0.14990968238E+03  0.15255224211E+03  0.12699999809E+01 0. -1.
       -4    1    3    3    0  502  0.28232749434E+02  0.75674317642E+00  0.80717188315E+03  0.80766683889E+03  0.12699999809E+01 0.  1.
</event>
<event>
 5   0  0.1243087E-03  0.7008829E+03  0.7818609E-02  0.9715723E-01
       -2   -1    0    0    0  501  0.00000000000E+00  0.00000000000E+00  0.51886840098E+03  0.51886840098E+03  0.25500000920E-02 0. -1.
        2   -1    0    0  501    0  0.00000000000E+00  0.00000000000E+00 -0.23668664685E+03  0.23668664686E+03  0.25500000920E-02 0.  1.
    10030    2    1    2    0    0  0.00000000000E+00  0.00000000000E+00  0.28218175413E+03  0.75555504785E+03  0.70088293456E+03 0.  0.
        4    1    3    3  502    0  0.33908206168E+03  0.37786551345E+02  0.54829346258E+02  0.34556090364E+03  0.12699999809E+01 0.  1.
       -4    1    3    3    0  502 -0.33908206168E+03 -0.37786551345E+02  0.22735240787E+03  0.40999414420E+03  0.12699999809E+01 0. -1.
</event>
<event>
 5   0  0.1265562E-03  0.6999072E+03  0.7818609E-02  0.9717391E-01
        2   -1    0    0  501    0  0.00000000000E+00  0.00000000000E+00  0.50883316069E+03  0.50883316070E+03  0.25500000920E-02 0. -1.
       -2   -1    0    0    0  501  0.00000000000E+00  0.00000000000E+00 -0.24068305979E+03  0.24068305980E+03  0.25500000920E-02 0.  1.
    10030    2    1    2    0    0  0.00000000000E+00  0.00000000000E+00  0.26815010090E+03  0.74951622050E+03  0.69990719969E+03 0.  0.
        1    1    3    3  502    0  0.21430932226E+03 -0.24576442255E+03  0.27011840706E+03  0.42342955831E+03  0.50400001928E-02 0.  1.
       -1    1    3    3    0  502 -0.21430932226E+03  0.24576442255E+03 -0.19683061562E+01  0.32608666218E+03  0.50400001928E-02 0. -1.
</event>
<event>
 5   0  0.1222679E-03  0.7002464E+03  0.7818609E-02  0.9716811E-01
       -2   -1    0    0    0  501  0.00000000000E+00  0.00000000000E+00  0.51648933400E+03  0.51648933401E+03  0.25500000920E-02 0. -1.
        2   -1    0    0  501    0  0.00000000000E+00  0.00000000000E+00 -0.23734515294E+03  0.23734515295E+03  0.25500000920E-02 0.  1.
    10030    2    1    2    0    0  0.00000000000E+00  0.00000000000E+00  0.27914418106E+03  0.75383448696E+03  0.70024635659E+03 0.  0.
        2    1    3    3  502    0  0.16391029911E+02 -0.21828668660E+03  0.43373902020E+03  0.48584697288E+03  0.25500000920E-02 0. -1.
       -2    1    3    3    0  502 -0.16391029911E+02  0.21828668660E+03 -0.15459483914E+03  0.26798751408E+03  0.25500000920E-02 0.  1.
</event>
<event>
 5   0  0.7574241E-04  0.7000235E+03  0.7818609E-02  0.9717192E-01
        1   -1    0    0  501    0  0.00000000000E+00  0.00000000000E+00  0.95713290815E+03  0.95713290816E+03  0.50400001928E-02 0.  1.
       -1   -1    0    0    0  501  0.00000000000E+00  0.00000000000E+00 -0.12799500891E+03  0.12799500901E+03  0.50400001928E-02 0. -1.
    10030    2    1    2    0    0  0.00000000000E+00  0.00000000000E+00  0.82913789924E+03  0.10851279172E+04  0.70002352865E+03 0.  0.
        3    1    3    3  502    0 -0.36938316386E+02  0.19066508738E+02  0.95329288131E+03  0.95419877318E+03  0.10100000352E+00 0.  1.
       -3    1    3    3    0  502  0.36938316386E+02 -0.19066508738E+02 -0.12415498207E+03  0.13092914399E+03  0.10100000352E+00 0. -1.
</event>
<event>
 5   0  0.4936000E-04  0.6999853E+03  0.7818609E-02  0.9717257E-01
       -3   -1    0    0    0  501  0.00000000000E+00  0.00000000000E+00  0.23565421511E+03  0.23565423676E+03  0.10100000352E+00 0.  1.
        3   -1    0    0  501    0  0.00000000000E+00  0.00000000000E+00 -0.51980754425E+03  0.51980755406E+03  0.10100000352E+00 0. -1.
    10030    2    1    2    0    0  0.00000000000E+00  0.00000000000E+00 -0.28415332913E+03  0.75546179082E+03  0.69998528765E+03 0.  0.
        2    1    3    3  502    0 -0.34766092930E+03  0.37706950645E+02 -0.15752601741E+03  0.38354189088E+03  0.25500000920E-02 0. -1.
       -2    1    3    3    0  502  0.34766092930E+03 -0.37706950645E+02 -0.12662731172E+03  0.37191989994E+03  0.25500000920E-02 0.  1.
</event>
<event>
 5   0  0.7013526E-04  0.6987897E+03  0.7818609E-02  0.9719304E-01
       -1   -1    0    0    0  501  0.00000000000E+00  0.00000000000E+00  0.41619385761E+03  0.41619385765E+03  0.50400001928E-02 0. -1.
        1   -1    0    0  501    0  0.00000000000E+00  0.00000000000E+00 -0.29331703166E+03  0.29331703170E+03  0.50400001928E-02 0.  1.
    10030    2    1    2    0    0  0.00000000000E+00  0.00000000000E+00  0.12287682596E+03  0.70951088934E+03  0.69878965915E+03 0.  0.
        1    1    3    3  502    0 -0.76824714348E+01  0.53648335428E+02 -0.28902334319E+03  0.29406063524E+03  0.50400001928E-02 0.  1.
       -1    1    3    3    0  502  0.76824714348E+01 -0.53648335428E+02  0.41190016915E+03  0.41545025410E+03  0.50400001928E-02 0. -1.
</event>
<event>
 5   0  0.7459843E-04  0.7000283E+03  0.7818609E-02  0.9717184E-01
        1   -1    0    0  501    0  0.00000000000E+00  0.00000000000E+00  0.13951766547E+04  0.13951766547E+04  0.50400001928E-02 0. -1.
       -1   -1    0    0    0  501  0.00000000000E+00  0.00000000000E+00 -0.87809596260E+02  0.87809596404E+02  0.50400001928E-02 0.  1.
    10030    2    1    2    0    0  0.00000000000E+00  0.00000000000E+00  0.13073670584E+04  0.14829862511E+04  0.70002828192E+03 0.  0.
        2    1    3    3  502    0  0.13820248706E+03  0.27189925959E+03  0.10174233981E+04  0.10621579477E+04  0.25500000920E-02 0. -1.
       -2    1    3    3    0  502 -0.13820248706E+03 -0.27189925959E+03  0.28994366031E+03  0.42082830341E+03  0.25500000920E-02 0.  1.
</event>
<event>
 5   0  0.1222679E-03  0.7000264E+03  0.7818609E-02  0.9717187E-01
        2   -1    0    0  501    0  0.00000000000E+00  0.00000000000E+00  0.28997225788E+03  0.28997225789E+03  0.25500000920E-02 0.  1.
       -2   -1    0    0    0  501  0.00000000000E+00  0.00000000000E+00 -0.42248612443E+03  0.42248612444E+03  0.25500000920E-02 0. -1.
    10030    2    1    2    0    0  0.00000000000E+00  0.00000000000E+00 -0.13251386655E+03  0.71245838233E+03  0.70002644359E+03 0.  0.
        2    1    3    3  502    0  0.12641293204E+03  0.86472682812E+02  0.25405681942E+03  0.29665235843E+03  0.25500000920E-02 0.  1.
       -2    1    3    3    0  502 -0.12641293204E+03 -0.86472682812E+02 -0.38657068597E+03  0.41580602391E+03  0.25500000920E-02 0. -1.
</event>
<event>
 5   0  0.1282546E-03  0.7001307E+03  0.7818609E-02  0.9717009E-01
        2   -1    0    0  501    0  0.00000000000E+00  0.00000000000E+00  0.57981541074E+03  0.57981541075E+03  0.25500000920E-02 0.  1.
       -2   -1    0    0    0  501  0.00000000000E+00  0.00000000000E+00 -0.21135305585E+03  0.21135305587E+03  0.25500000920E-02 0. -1.
    10030    2    1    2    0    0  0.00000000000E+00  0.00000000000E+00  0.36846235489E+03  0.79116846662E+03  0.70013072751E+03 0.  0.
        5    1    3    3  502    0 -0.15164794630E+03  0.26577414029E+03  0.37630522136E+03  0.48503680570E+03  0.46999998093E+01 0.  1.
       -5    1    3    3    0  502  0.15164794630E+03 -0.26577414029E+03 -0.78428664690E+01  0.30613166092E+03  0.46999998093E+01 0. -1.
</event>
<event>
 5   0  0.7013526E-04  0.6999315E+03  0.7818609E-02  0.9717349E-01
       -1   -1    0    0    0  501  0.00000000000E+00  0.00000000000E+00  0.91841949823E+02  0.91841949961E+02  0.50400001928E-02 0. -1.
        1   -1    0    0  501    0  0.00000000000E+00  0.00000000000E+00 -0.13335520119E+04  0.13335520119E+04  0.50400001928E-02 0.  1.
    10030    2    1    2    0    0  0.00000000000E+00  0.00000000000E+00 -0.12417100621E+04  0.14253939619E+04  0.69993147400E+03 0.  0.
        1    1    3    3  502    0 -0.17029109367E+03  0.20771673022E+01 -0.12434730135E+04  0.12550810756E+04  0.50400001928E-02 0.  1.
       -1    1    3    3    0  502  0.17029109367E+03 -0.20771673022E+01  0.17629513426E+01  0.17031288627E+03  0.50400001928E-02 0. -1.
</event>
<event>
 5   0  0.1265562E-03  0.6999405E+03  0.7818609E-02  0.9717334E-01
        2   -1    0    0  501    0  0.00000000000E+00  0.00000000000E+00  0.10927035555E+04  0.10927035555E+04  0.25500000920E-02 0.  1.
       -2   -1    0    0    0  501  0.00000000000E+00  0.00000000000E+00 -0.11208821342E+03  0.11208821345E+03  0.25500000920E-02 0. -1.
    10030    2    1    2    0    0  0.00000000000E+00  0.00000000000E+00  0.98061534205E+03  0.12047917689E+04  0.69994053848E+03 0.  0.
        1    1    3    3  502    0 -0.16296306999E+03 -0.14652825720E+03  0.95997261461E+03  0.98466995138E+03  0.50400001928E-02 0.  1.
       -1    1    3    3    0  502  0.16296306999E+03  0.14652825720E+03  0.20642727444E+02  0.22012181754E+03  0.50400001928E-02 0. -1.
</event>
<event>
 5   0  0.7572415E-04  0.6999314E+03  0.7818609E-02  0.9717349E-01
        1   -1    0    0  501    0  0.00000000000E+00  0.00000000000E+00  0.15676605749E+04  0.15676605749E+04  0.50400001928E-02 0. -1.
       -1   -1    0    0    0  501  0.00000000000E+00  0.00000000000E+00 -0.78126602804E+02  0.78126602967E+02  0.50400001928E-02 0.  1.
    10030    2    1    2    0    0  0.00000000000E+00  0.00000000000E+00  0.14895339721E+04  0.16457871779E+04  0.69993141153E+03 0.  0.
        4    1    3    3  502    0 -0.17359540610E+03  0.30337737697E+03  0.70396000637E+03  0.78596087775E+03  0.12699999809E+01 0. -1.
       -4    1    3    3    0  502  0.17359540610E+03 -0.30337737697E+03  0.78557396576E+03  0.85982630017E+03  0.12699999809E+01 0.  1.
</event>
<event>
 5   0  0.1282546E-03  0.7013090E+03  0.7818609E-02  0.9714996E-01
       -2   -1    0    0    0  501  0.00000000000E+00  0.00000000000E+00  0.80868766906E+02  0.80868766946E+02  0.25500000920E-02 0.  1.
        2   -1    0    0  501    0  0.00000000000E+00  0.00000000000E+00 -0.15204706883E+04  0.15204706883E+04  0.25500000920E-02 0. -1.
    10030    2    1    2    0    0  0.00000000000E+00  0.00000000000E+00 -0.14396019214E+04  0.16013394552E+04  0.70130903234E+03 0.  0.
        5    1    3    3  502    0  0.15637173325E+03  0.16895124867E+03 -0.13236610681E+04  0.13435391161E+04  0.46999998093E+01 0. -1.
       -5    1    3    3    0  502 -0.15637173325E+03 -0.16895124867E+03 -0.11594085330E+03  0.25780033912E+03  0.46999998093E+01 0.  1.
</event>
<event>
 5   0  0.1265562E-03  0.6999574E+03  0.7818609E-02  0.9717305E-01
        2   -1    0    0  501    0  0.00000000000E+00  0.00000000000E+00  0.18901452769E+04  0.18901452769E+04  0.25500000920E-02 0.  1.
       -2   -1    0    0    0  501  0.00000000000E+00  0.00000000000E+00 -0.64801942622E+02  0.64801942672E+02  0.25500000920E-02 0. -1.
    10030    2    1    2    0    0  0.00000000000E+00  0.00000000000E+00  0.18253433343E+04  0.19549472195E+04  0.69995738679E+03 0.  0.
        1    1    3    3  502    0  0.45574355434E+02  0.25511200016E+03  0.25572849660E+03  0.36408270832E+03  0.50400001928E-02 0. -1.
       -1    1    3    3    0  502 -0.45574355434E+02 -0.25511200016E+03  0.15696148376E+04  0.15908645112E+04  0.50400001928E-02 0.  1.
</event>
<event>
 5   0  0.1282546E-03  0.6997218E+03  0.7818609E-02  0.9717708E-01
       -2   -1    0    0    0  501  0.00000000000E+00  0.00000000000E+00  0.21351662226E+03  0.21351662228E+03  0.25500000920E-02 0.  1.
        2   -1    0    0  501    0  0.00000000000E+00  0.00000000000E+00 -0.57326980606E+03  0.57326980607E+03  0.25500000920E-02 0. -1.
    10030    2    1    2    0    0  0.00000000000E+00  0.00000000000E+00 -0.35975318380E+03  0.78678642834E+03  0.69972175225E+03 0.  0.
        5    1    3    3  502    0 -0.17496960996E+03 -0.29725338714E+03 -0.11424813576E+03  0.36338501221E+03  0.46999998093E+01 0. -1.
       -5    1    3    3    0  502  0.17496960996E+03  0.29725338714E+03 -0.24550504804E+03  0.42340141613E+03  0.46999998093E+01 0.  1.
</event>
<event>
 5   0  0.1282546E-03  0.7001341E+03  0.7818609E-02  0.9717003E-01
       -2   -1    0    0    0  501  0.00000000000E+00  0.00000000000E+00  0.49310084546E+03  0.49310084547E+03  0.25500000920E-02 0. -1.
        2   -1    0    0  501    0  0.00000000000E+00  0.00000000000E+00 -0.24852308159E+03  0.24852308161E+03  0.25500000920E-02 0.  1.
    10030    2    1    2    0    0  0.00000000000E+00  0.00000000000E+00  0.24457776387E+03  0.74162392707E+03  0.70013410618E+03 0.  0.
        5    1    3    3  502    0 -0.10429543383E+03 -0.96949453436E+02 -0.21642278755E+03  0.25910933409E+03  0.46999998093E+01 0.  1.
       -5    1    3    3    0  502  0.10429543383E+03  0.96949453436E+02  0.46100055142E+03  0.48251459299E+03  0.46999998093E+01 0. -1.
</event>
<event>
 5   0  0.4936000E-04  0.6999465E+03  0.7818609E-02  0.9717324E-01
        4   -1    0    0  501    0  0.00000000000E+00  0.00000000000E+00  0.81354394791E+03  0.81354493918E+03  0.12699999809E+01 0.  1.
       -4   -1    0    0    0  501  0.00000000000E+00  0.00000000000E+00 -0.15054900586E+03  0.15055436249E+03  0.12699999809E+01 0. -1.
    10030    2    1    2    0    0  0.00000000000E+00  0.00000000000E+00  0.66299494205E+03  0.96409930167E+03  0.69994654818E+03 0.  0.
        4    1    3    3  502    0 -0.30010555108E+03 -0.13394749708E+03  0.49721073290E+03  0.59600788549E+03  0.12699999809E+01 0.  1.
       -4    1    3    3    0  502  0.30010555108E+03  0.13394749708E+03  0.16578420915E+03  0.36809141618E+03  0.12699999809E+01 0. -1.
</event>
<event>
 5   0  0.1265562E-03  0.7006321E+03  0.7818609E-02  0.9716152E-01
        2   -1    0    0  501    0  0.00000000000E+00  0.00000000000E+00  0.22442274032E+04  0.22442274032E+04  0.25500000920E-02 0. -1.
       -2   -1    0    0    0  501  0.00000000000E+00  0.00000000000E+00 -0.54683116872E+02  0.54683116931E+02  0.25500000920E-02 0.  1.
    10030    2    1    2    0    0  0.00000000000E+00  0.00000000000E+00  0.21895442863E+04  0.22989105201E+04  0.70063214156E+03 0.  0.
        1    1    3    3  502    0  0.22026840597E+03  0.21079639502E+03  0.16608905384E+04  0.16886416646E+04  0.50400001928E-02 0. -1.
       -1    1    3    3    0  502 -0.22026840597E+03 -0.21079639502E+03  0.52865374792E+03  0.61026885554E+03  0.50400001928E-02 0.  1.
</event>
<event>
 5   0  0.7459843E-04  0.6997201E+03  0.7818609E-02  0.9717711E-01
       -1   -1    0    0    0  501  0.00000000000E+00  0.00000000000E+00  0.28611389952E+03  0.28611389957E+03  0.50400001928E-02 0. -1.
        1   -1    0    0  501    0  0.00000000000E+00  0.00000000000E+00 -0.42780880793E+03  0.42780880796E+03  0.50400001928E-02 0.  1.
    10030    2    1    2    0    0  0.00000000000E+00  0.00000000000E+00 -0.14169490841E+03  0.71392270753E+03  0.69972007636E+03 0.  0.
        2    1    3    3  502    0 -0.25722117121E+03  0.16321805264E+03  0.10468875704E+03  0.32212202576E+03  0.25500000920E-02 0. -1.
       -2    1    3    3    0  502  0.25722117121E+03 -0.16321805264E+03 -0.24638366545E+03  0.39180068177E+03  0.25500000920E-02 0.  1.
</event>
<event>
 5   0  0.1243087E-03  0.6998695E+03  0.7818609E-02  0.9717455E-01
       -2   -1    0    0    0  501  0.00000000000E+00  0.00000000000E+00  0.84743858517E+02  0.84743858555E+02  0.25500000920E-02 0. -1.
        2   -1    0    0  501    0  0.00000000000E+00  0.00000000000E+00 -0.14449936944E+04  0.14449936944E+04  0.25500000920E-02 0.  1.
    10030    2    1    2    0    0  0.00000000000E+00  0.00000000000E+00 -0.13602498359E+04  0.15297375530E+04  0.69986953421E+03 0.  0.
        4    1    3    3  502    0  0.27786975684E+03 -0.10584185268E+03 -0.27686424768E+03  0.40628748946E+03  0.12699999809E+01 0. -1.
       -4    1    3    3    0  502 -0.27786975684E+03  0.10584185268E+03 -0.10833855882E+04  0.11234500635E+04  0.12699999809E+01 0.  1.
</event>
<event>
 5   0  0.7574241E-04  0.7002444E+03  0.7818609E-02  0.9716814E-01
        1   -1    0    0  501    0  0.00000000000E+00  0.00000000000E+00  0.27471985049E+03  0.27471985053E+03  0.50400001928E-02 0.  1.
       -1   -1    0    0    0  501  0.00000000000E+00  0.00000000000E+00 -0.44622026437E+03  0.44622026440E+03  0.50400001928E-02 0. -1.
    10030    2    1    2    0    0  0.00000000000E+00  0.00000000000E+00 -0.17150041388E+03  0.72094011494E+03  0.70024442687E+03 0.  0.
        3    1    3    3  502    0 -0.47096830013E+02 -0.33851393898E+03 -0.16399472937E+03  0.37908320952E+03  0.10100000352E+00 0.  1.
       -3    1    3    3    0  502  0.47096830013E+02  0.33851393898E+03 -0.75056845108E+01  0.34185690541E+03  0.10100000352E+00 0. -1.
</event>
<event>
 5   0  0.1224048E-03  0.6990429E+03  0.7818609E-02  0.9718870E-01
       -2   -1    0    0    0  501  0.00000000000E+00  0.00000000000E+00  0.13936832155E+04  0.13936832155E+04  0.25500000920E-02 0. -1.
        2   -1    0    0  501    0  0.00000000000E+00  0.00000000000E+00 -0.87656399210E+02  0.87656399247E+02  0.25500000920E-02 0.  1.
    10030    2    1    2    0    0  0.00000000000E+00  0.00000000000E+00  0.13060268163E+04  0.14813396148E+04  0.69904292384E+03 0.  0.
        3    1    3    3  502    0 -0.16262634748E+03  0.25087189995E+03  0.26933864184E+03  0.40240197970E+03  0.10100000352E+00 0.  1.
       -3    1    3    3    0  502  0.16262634748E+03 -0.25087189995E+03  0.10366881745E+04  0.10789376351E+04  0.10100000352E+00 0. -1.
</event>
<event>
 5   0  0.7572415E-04  0.7000917E+03  0.7818609E-02  0.9717075E-01
        1   -1    0    0  501    0  0.00000000000E+00  0.00000000000E+00  0.63700536607E+03  0.63700536609E+03  0.50400001928E-02 0. -1.
       -1   -1    0    0    0  501  0.00000000000E+00  0.00000000000E+00 -0.19235646087E+03  0.19235646093E+03  0.50400001928E-02 0.  1.
    10030    2    1    2    0    0  0.00000000000E+00  0.00000000000E+00  0.44464890520E+03  0.82936182703E+03  0.70009170201E+03 0.  0.
        4    1    3    3  502    0  0.28835177930E+03  0.41266358938E+02  0.45228286794E+03  0.53796939182E+03  0.12699999809E+01 0. -1.
       -4    1    3    3    0  502 -0.28835177930E+03 -0.41266358938E+02 -0.76339627370E+01  0.29139243520E+03  0.12699999809E+01 0.  1.
</event>
<event>
 5   0  0.1265562E-03  0.7001585E+03  0.7818609E-02  0.9716961E-01
       -2   -1    0    0    0  501  0.00000000000E+00  0.00000000000E+00  0.23227404487E+03  0.23227404488E+03  0.25500000920E-02 0. -1.
        2   -1    0    0  501    0  0.00000000000E+00  0.00000000000E+00 -0.52763309398E+03  0.52763309399E+03  0.25500000920E-02 0.  1.
    10030    2    1    2    0    0  0.00000000000E+00  0.00000000000E+00 -0.29535904912E+03  0.75990713887E+03  0.70015847621E+03 0.  0.
        1    1    3    3  502    0  0.21434637938E+03 -0.18568928404E+03  0.75093682167E+02  0.29336656539E+03  0.50400001928E-02 0. -1.
       -1    1    3    3    0  502 -0.21434637938E+03  0.18568928404E+03 -0.37045273128E+03  0.46654057348E+03  0.50400001928E-02 0.  1.
</event>
<event>
 5   0  0.7570633E-04  0.7000948E+03  0.7818609E-02  0.9717070E-01
       -1   -1    0    0    0  501  0.00000000000E+00  0.00000000000E+00  0.40332324870E+03  0.40332324873E+03  0.50400001928E-02 0.  1.
        1   -1    0    0  501    0  0.00000000000E+00  0.00000000000E+00 -0.30380883980E+03  0.30380883984E+03  0.50400001928E-02 0. -1.
    10030    2    1    2    0    0  0.00000000000E+00  0.00000000000E+00  0.99514408899E+02  0.70713208857E+03  0.70009476009E+03 0.  0.
        5    1    3    3  502    0 -0.12564232635E+03 -0.29463927476E+00  0.37972898054E+03  0.40000283704E+03  0.46999998093E+01 0.  1.
       -5    1    3    3    0  502  0.12564232635E+03  0.29463927476E+00 -0.28021457164E+03  0.30712925152E+03  0.46999998093E+01 0. -1.
</event>
<event>
 5   0  0.7572415E-04  0.6999586E+03  0.7818609E-02  0.9717303E-01
        1   -1    0    0  501    0  0.00000000000E+00  0.00000000000E+00  0.28363995284E+03  0.28363995289E+03  0.50400001928E-02 0.  1.
       -1   -1    0    0    0  501  0.00000000000E+00  0.00000000000E+00 -0.43183447297E+03  0.43183447300E+03  0.50400001928E-02 0. -1.
    10030    2    1    2    0    0  0.00000000000E+00  0.00000000000E+00 -0.14819452013E+03  0.71547442589E+03  0.69995859757E+03 0.  0.
        4    1    3    3  502    0  0.15963735906E+02 -0.15230397723E+03  0.24757288355E+03  0.29111043937E+03  0.12699999809E+01 0.  1.
       -4    1    3    3    0  502 -0.15963735906E+02  0.15230397723E+03 -0.39576740367E+03  0.42436398652E+03  0.12699999809E+01 0. -1.
</event>
<event>
 5   0  0.1224048E-03  0.6999805E+03  0.7818609E-02  0.9717266E-01
        2   -1    0    0  501    0  0.00000000000E+00  0.00000000000E+00  0.99883672372E+03  0.99883672372E+03  0.25500000920E-02 0.  1.
       -2   -1    0    0    0  501  0.00000000000E+00  0.00000000000E+00 -0.12263581841E+03  0.12263581844E+03  0.25500000920E-02 0. -1.
    10030    2    1    2    0    0  0.00000000000E+00  0.00000000000E+00  0.87620090530E+03  0.11214725422E+04  0.69998045428E+03 0.  0.
        3    1    3    3  502    0 -0.12250162893E+03 -0.23326671941E+03  0.80719711032E+03  0.84910964933E+03  0.10100000352E+00 0.  1.
       -3    1    3    3    0  502  0.12250162893E+03  0.23326671941E+03  0.69003794988E+02  0.27236289284E+03  0.10100000352E+00 0. -1.
</event>
<event>
 5   0  0.7570633E-04  0.7001132E+03  0.7818609E-02  0.9717039E-01
       -1   -1    0    0    0  501  0.00000000000E+00  0.00000000000E+00  0.12579026174E+03  0.12579026184E+03  0.50400001928E-02 0. -1.
        1   -1    0    0  501    0  0.00000000000E+00  0.00000000000E+00 -0.97415830309E+03  0.97415830311E+03  0.50400001928E-02 0.  1.
    10030    2    1    2    0    0  0.00000000000E+00  0.00000000000E+00 -0.84836804136E+03  0.10999485649E+04  0.70011321365E+03 0.  0.
        5    1    3    3  502    0  0.21878136503E+03  0.26785609006E+03 -0.50886865689E+03  0.61528982653E+03  0.46999998093E+01 0.  1.
       -5    1    3    3    0  502 -0.21878136503E+03 -0.26785609006E+03 -0.33949938447E+03  0.48465873841E+03  0.46999998093E+01 0. -1.
</event>
<event>
 5   0  0.7574241E-04  0.7001280E+03  0.7818609E-02  0.9717013E-01
        1   -1    0    0  501    0  0.00000000000E+00  0.00000000000E+00  0.12340181350E+04  0.12340181350E+04  0.50400001928E-02 0.  1.
       -1   -1    0    0    0  501  0.00000000000E+00  0.00000000000E+00 -0.99305503558E+02  0.99305503686E+02  0.50400001928E-02 0. -1.
    10030    2    1    2    0    0  0.00000000000E+00  0.00000000000E+00  0.11347126314E+04  0.13333236387E+04  0.70012796655E+03 0.  0.
        3    1    3    3  502    0 -0.30496217013E+03  0.85613312520E+02  0.28352266095E+03  0.42510783804E+03  0.10100000352E+00 0. -1.
       -3    1    3    3    0  502  0.30496217013E+03 -0.85613312520E+02  0.85118997046E+03  0.90821580062E+03  0.10100000352E+00 0.  1.
</event>
<event>
 5   0  0.7459843E-04  0.6999291E+03  0.7818609E-02  0.9717353E-01
       -1   -1    0    0    0  501  0.00000000000E+00  0.00000000000E+00  0.30396899655E+03  0.30396899660E+03  0.50400001928E-02 0. -1.
        1   -1    0    0  501    0  0.00000000000E+00  0.00000000000E+00 -0.40292002836E+03  0.40292002840E+03  0.50400001928E-02 0.  1.
    10030    2    1    2    0    0  0.00000000000E+00  0.00000000000E+00 -0.98951031809E+02  0.70688902499E+03  0.69992912995E+03 0.  0.
        2    1    3    3  502    0 -0.15811491785E+03  0.18900671783E+03 -0.30044465950E+03  0.38857542390E+03  0.25500000920E-02 0.  1.
       -2    1    3    3    0  502  0.15811491785E+03 -0.18900671783E+03  0.20149362769E+03  0.31831360109E+03  0.25500000920E-02 0. -1.
</event>
<event>
 5   0  0.1222679E-03  0.7000550E+03  0.7818609E-02  0.9717138E-01
       -2   -1    0    0    0  501  0.00000000000E+00  0.00000000000E+00  0.88497030924E+02  0.88497030961E+02  0.25500000920E-02 0.  1.
        2   -1    0    0  501    0  0.00000000000E+00  0.00000000000E+00 -0.13844446378E+04  0.13844446378E+04  0.25500000920E-02 0. -1.
    10030    2    1    2    0    0  0.00000000000E+00  0.00000000000E+00 -0.12959476069E+04  0.14729416688E+04  0.70005496915E+03 0.  0.
        2    1    3    3  502    0 -0.32519071048E+03  0.22160984074E+02 -0.91642728174E+03  0.97266596019E+03  0.25500000920E-02 0. -1.
       -2    1    3    3    0  502  0.32519071048E+03 -0.22160984074E+02 -0.37952032518E+03  0.50027570861E+03  0.25500000920E-02 0.  1.
</event>
<event>
 5   0  0.7459843E-04  0.6995350E+03  0.7818609E-02  0.9718028E-01
       -1   -1    0    0    0  501  0.00000000000E+00  0.00000000000E+00  0.51187747553E+03  0.51187747556E+03  0.50400001928E-02 0.  1.
        1   -1    0    0  501    0  0.00000000000E+00  0.00000000000E+00 -0.23899723128E+03  0.23899723133E+03  0.50400001928E-02 0. -1.
    10030    2    1    2    0    0  0.00000000000E+00  0.00000000000E+00  0.27288024425E+03  0.75087470689E+03  0.69953498679E+03 0.  0.
        2    1    3    3  502    0  0.24236544459E+02  0.24926830786E+03 -0.12564148175E+03  0.28019257902E+03  0.25500000920E-02 0. -1.
       -2    1    3    3    0  502 -0.24236544459E+02 -0.24926830786E+03  0.39852172601E+03  0.47068212787E+03  0.25500000920E-02 0.  1.
</event>
<event>
 5   0  0.7459843E-04  0.7002407E+03  0.7818609E-02  0.9716821E-01
        1   -1    0    0  501    0  0.00000000000E+00  0.00000000000E+00  0.24243734680E+03  0.24243734686E+03  0.50400001928E-02 0. -1.
       -1   -1    0    0    0  501  0.00000000000E+00  0.00000000000E+00 -0.50563277313E+03  0.50563277315E+03  0.50400001928E-02 0.  1.
    10030    2    1    2    0    0  0.00000000000E+00  0.00000000000E+00 -0.26319542632E+03  0.74807012001E+03  0.70024072433E+03 0.  0.
        2    1    3    3  502    0  0.16020346662E+03 -0.14858780540E+02 -0.46380139325E+03  0.49091513163E+03  0.25500000920E-02 0.  1.
       -2    1    3    3    0  502 -0.16020346662E+03  0.14858780540E+02  0.20060596693E+03  0.25715498838E+03  0.25500000920E-02 0. -1.
</event>
<event>
 5   0  0.7574241E-04  0.6999095E+03  0.7818609E-02  0.9717387E-01
        1   -1    0    0  501    0  0.00000000000E+00  0.00000000000E+00  0.16122033933E+03  0.16122033941E+03  0.50400001928E-02 0.  1.
       -1   -1    0    0    0  501  0.00000000000E+00  0.00000000000E+00 -0.75963314669E+03  0.75963314670E+03  0.50400001928E-02 0. -1.
    10030    2    1    2    0    0  0.00000000000E+00  0.00000000000E+00 -0.59841280736E+03  0.92085348611E+03  0.69990946191E+03 0.  0.
        3    1    3    3  502    0  0.33562935611E+03  0.38401541718E+02 -0.17900696409E+03  0.38231563725E+03  0.10100000352E+00 0.  1.
       -3    1    3    3    0  502 -0.33562935611E+03 -0.38401541718E+02 -0.41940584326E+03  0.53853784886E+03  0.10100000352E+00 0. -1.
</event>
<event>
 5   0  0.1265562E-03  0.6989129E+03  0.7818609E-02  0.9719093E-01
       -2   -1    0    0    0  501  0.00000000000E+00  0.00000000000E+00  0.27746125243E+03  0.27746125245E+03  0.25500000920E-02 0. -1.
        2   -1    0    0  501    0  0.00000000000E+00  0.00000000000E+00 -0.44013286259E+03  0.44013286260E+03  0.25500000920E-02 0.  1.
    10030    2    1    2    0    0  0.00000000000E+00  0.00000000000E+00 -0.16267161016E+03  0.71759411504E+03  0.69891291388E+03 0.  0.
        1    1    3    3  502    0  0.14380624241E+02 -0.75518132123E+02  0.26867189595E+03  0.27945371412E+03  0.50400001928E-02 0. -1.
       -1    1    3    3    0  502 -0.14380624241E+02  0.75518132123E+02 -0.43134350611E+03  0.43814040092E+03  0.50400001928E-02 0.  1.
</event>
<event>
 5   0  0.4936000E-04  0.6980793E+03  0.7818609E-02  0.9720523E-01
       -3   -1    0    0    0  501  0.00000000000E+00  0.00000000000E+00  0.63876653374E+03  0.63876654172E+03  0.10100000352E+00 0.  1.
        3   -1    0    0  501    0  0.00000000000E+00  0.00000000000E+00 -0.19072486240E+03  0.19072488915E+03  0.10100000352E+00 0. -1.
    10030    2    1    2    0    0  0.00000000000E+00  0.00000000000E+00  0.44804167134E+03  0.82949143087E+03  0.69807928965E+03 0.  0.
        1    1    3    3  502    0  0.34227459685E+03 -0.31352132053E+02  0.29623874060E+03  0.45375350940E+03  0.50400001928E-02 0.  1.
       -1    1    3    3    0  502 -0.34227459685E+03  0.31352132053E+02  0.15180293073E+03  0.37573792148E+03  0.50400001928E-02 0. -1.
</event>
<event>
 5   0  0.1243087E-03  0.6999743E+03  0.7818609E-02  0.9717276E-01
       -2   -1    0    0    0  501  0.00000000000E+00  0.00000000000E+00  0.14013799723E+03  0.14013799726E+03  0.25500000920E-02 0. -1.
        2   -1    0    0  501    0  0.00000000000E+00  0.00000000000E+00 -0.87407413800E+03  0.87407413801E+03  0.25500000920E-02 0.  1.
    10030    2    1    2    0    0  0.00000000000E+00  0.00000000000E+00 -0.73393614077E+03  0.10142121353E+04  0.69997428281E+03 0.  0.
        4    1    3    3  502    0  0.17208242028E+03  0.16991807032E+03 -0.73353497274E+03  0.77237275918E+03  0.12699999809E+01 0.  1.
       -4    1    3    3    0  502 -0.17208242028E+03 -0.16991807032E+03 -0.40116803334E+00  0.24183937609E+03  0.12699999809E+01 0. -1.
</event>
<event>
 5   0  0.7013526E-04  0.7001098E+03  0.7818609E-02  0.9717044E-01
        1   -1    0    0  501    0  0.00000000000E+00  0.00000000000E+00  0.78757717639E+03  0.78757717640E+03  0.50400001928E-02 0.  1.
       -1   -1    0    0    0  501  0.00000000000E+00  0.00000000000E+00 -0.15558912619E+03  0.15558912628E+03  0.50400001928E-02 0. -1.
    10030    2    1    2    0    0  0.00000000000E+00  0.00000000000E+00  0.63198805019E+03  0.94316630268E+03  0.70010983347E+03 0.  0.
        1    1    3    3  502    0 -0.42078445647E+02 -0.29387673536E+03  0.56587232744E+03  0.63901926588E+03  0.50400001928E-02 0.  1.
       -1    1    3    3    0  502  0.42078445647E+02  0.29387673536E+03  0.66115722752E+02  0.30414703680E+03  0.50400001928E-02 0. -1.
</event>
<event>
 5   0  0.1265562E-03  0.7001690E+03  0.7818609E-02  0.9716943E-01
        2   -1    0    0  501    0  0.00000000000E+00  0.00000000000E+00  0.14446432611E+04  0.14446432611E+04  0.25500000920E-02 0.  1.
       -2   -1    0    0    0  501  0.00000000000E+00  0.00000000000E+00 -0.84836958308E+02  0.84836958347E+02  0.25500000920E-02 0. -1.
    10030    2    1    2    0    0  0.00000000000E+00  0.00000000000E+00  0.13598063028E+04  0.15294802195E+04  0.70016895145E+03 0.  0.
        1    1    3    3  502    0  0.38353958242E+02  0.30412199233E+03  0.31049344807E+03  0.43631112025E+03  0.50400001928E-02 0. -1.
       -1    1    3    3    0  502 -0.38353958242E+02 -0.30412199233E+03  0.10493128547E+04  0.10931690992E+04  0.50400001928E-02 0.  1.
</event>
<event>
 5   0  0.4936000E-04  0.6999263E+03  0.7818609E-02  0.9717358E-01
       -3   -1    0    0    0  501  0.00000000000E+00  0.00000000000E+00  0.10826718483E+04  0.10826718530E+04  0.10100000352E+00 0.  1.
        3   -1    0    0  501    0  0.00000000000E+00  0.00000000000E+00 -0.11312214487E+03  0.11312218995E+03  0.10100000352E+00 0. -1.
    10030    2    1    2    0    0  0.00000000000E+00  0.00000000000E+00  0.96954970345E+03  0.11957940430E+04  0.69992625738E+03 0.  0.
        5    1    3    3  502    0 -0.28907485856E+03  0.19191466588E+03  0.56225274673E+03  0.66071609185E+03  0.46999998093E+01 0. -1.
       -5    1    3    3    0  502  0.28907485856E+03 -0.19191466588E+03  0.40729695672E+03  0.53507795113E+03  0.46999998093E+01 0.  1.
</event>
<event>
 5   0  0.1243087E-03  0.6997834E+03  0.7818609E-02  0.9717603E-01
        2   -1    0    0  501    0  0.00000000000E+00  0.00000000000E+00  0.93863910729E+03  0.93863910730E+03  0.25500000920E-02 0. -1.
       -2   -1    0    0    0  501  0.00000000000E+00  0.00000000000E+00 -0.13042734143E+03  0.13042734146E+03  0.25500000920E-02 0.  1.
    10030    2    1    2    0    0  0.00000000000E+00  0.00000000000E+00  0.80821176586E+03  0.10690664488E+04  0.69978340462E+03 0.  0.
        4    1    3    3  502    0  0.53231260876E+02  0.29738858914E+03  0.13447882897E+03  0.33069579438E+03  0.12699999809E+01 0.  1.
       -4    1    3    3    0  502 -0.53231260876E+02 -0.29738858914E+03  0.67373293689E+03  0.73837065437E+03  0.12699999809E+01 0. -1.
</event>
<event>
 5   0  0.1282546E-03  0.6984231E+03  0.7818609E-02  0.9719933E-01
        2   -1    0    0  501    0  0.00000000000E+00  0.00000000000E+00  0.34599486630E+03  0.34599486631E+03  0.25500000920E-02 0. -1.
       -2   -1    0    0    0  501  0.00000000000E+00  0.00000000000E+00 -0.35245813136E+03  0.35245813137E+03  0.25500000920E-02 0.  1.
    10030    2    1    2    0    0  0.00000000000E+00  0.00000000000E+00 -0.64632650649E+01  0.69845299768E+03  0.69842309253E+03 0.  0.
        5    1    3    3  502    0 -0.28973345306E+03 -0.18112180424E+03  0.68716095151E+02  0.34856071713E+03  0.46999998093E+01 0. -1.
       -5    1    3    3    0  502  0.28973345306E+03  0.18112180424E+03 -0.75179360216E+02  0.34989228056E+03  0.46999998093E+01 0.  1.
</event>
<event>
 5   0  0.1265562E-03  0.6995585E+03  0.7818609E-02  0.9717988E-01
       -2   -1    0    0    0  501  0.00000000000E+00  0.00000000000E+00  0.95035484989E+02  0.95035485023E+02  0.25500000920E-02 0.  1.
        2   -1    0    0  501    0  0.00000000000E+00  0.00000000000E+00 -0.12873666383E+04  0.12873666383E+04  0.25500000920E-02 0. -1.
    10030    2    1    2    0    0  0.00000000000E+00  0.00000000000E+00 -0.11923311533E+04  0.13824021233E+04  0.69955846891E+03 0.  0.
        1    1    3    3  502    0  0.33759717100E+03  0.63874122033E+02 -0.46667766365E+03  0.57951686352E+03  0.50400001928E-02 0.  1.
       -1    1    3    3    0  502 -0.33759717100E+03 -0.63874122033E+02 -0.72565348968E+03  0.80288525982E+03  0.50400001928E-02 0. -1.
</event>
<event>
 5   0  0.1282546E-03  0.6996021E+03  0.7818609E-02  0.9717913E-01
       -2   -1    0    0    0  501  0.00000000000E+00  0.00000000000E+00  0.38039345631E+03  0.38039345632E+03  0.25500000920E-02 0. -1.
        2   -1    0    0  501    0  0.00000000000E+00  0.00000000000E+00 -0.32166895270E+03  0.32166895271E+03  0.25500000920E-02 0.  1.
    10030    2    1    2    0    0  0.00000000000E+00  0.00000000000E+00  0.58724503607E+02  0.70206240903E+03  0.69960207178E+03 0.  0.
        5    1    3    3  502    0  0.21502662512E+03  0.21627010720E+03  0.20122300487E+03  0.36540661799E+03  0.46999998093E+01 0. -1.
       -5    1    3    3    0  502 -0.21502662512E+03 -0.21627010720E+03 -0.14249850126E+03  0.33665579104E+03  0.46999998093E+01 0.  1.
</event>
<event>
 5   0  0.1265562E-03  0.6998648E+03  0.7818609E-02  0.9717463E-01
        2   -1    0    0  501    0  0.00000000000E+00  0.00000000000E+00  0.98426969822E+03  0.98426969823E+03  0.25500000920E-02 0.  1.
       -2   -1    0    0    0  501  0.00000000000E+00  0.00000000000E+00 -0.12440968112E+03  0.12440968114E+03  0.25500000920E-02 0. -1.
    10030    2    1    2    0    0  0.00000000000E+00  0.00000000000E+00  0.85986001711E+03  0.11086793794E+04  0.69986478496E+03 0.  0.
        1    1    3    3  502    0  0.58159091144E+02  0.34418698786E+03  0.46891118316E+03  0.58457237380E+03  0.50400001928E-02 0. -1.
       -1    1    3    3    0  502 -0.58159091144E+02 -0.34418698786E+03  0.39094883395E+03  0.52410700557E+03  0.50400001928E-02 0.  1.
</event>
<event>
 5   0  0.7572415E-04  0.7001462E+03  0.7818609E-02  0.9716982E-01
       -1   -1    0    0    0  501  0.00000000000E+00  0.00000000000E+00  0.31035191446E+03  0.31035191450E+03  0.50400001928E-02 0. -1.
        1   -1    0    0  501    0  0.00000000000E+00  0.00000000000E+00 -0.39487813552E+03  0.39487813555E+03  0.50400001928E-02 0.  1.
    10030    2    1    2    0    0  0.00000000000E+00  0.00000000000E+00 -0.84526221058E+02  0.70523005005E+03  0.70014622862E+03 0.  0.
        4    1    3    3  502    0  0.13771802999E+02 -0.16519985237E+03 -0.35283441970E+03  0.38983893392E+03  0.12699999809E+01 0.  1.
       -4    1    3    3    0  502 -0.13771802999E+02  0.16519985237E+03  0.26830819864E+03  0.31539111613E+03  0.12699999809E+01 0. -1.
</event>
<event>
 5   0  0.7574241E-04  0.7004801E+03  0.7818609E-02  0.9716412E-01
        1   -1    0    0  501    0  0.00000000000E+00  0.00000000000E+00  0.49937948582E+03  0.49937948584E+03  0.50400001928E-02 0. -1.
       -1   -1    0    0    0  501  0.00000000000E+00  0.00000000000E+00 -0.24564102491E+03  0.24564102496E+03  0.50400001928E-02 0.  1.
    10030    2    1    2    0    0  0.00000000000E+00  0.00000000000E+00  0.25373846091E+03  0.74502051080E+03  0.70048008892E+03 0.  0.
        3    1    3    3  502    0  0.20074409817E+02 -0.75037622752E+02 -0.23636424027E+03  0.24880050450E+03  0.10100000352E+00 0.  1.
       -3    1    3    3    0  502 -0.20074409817E+02  0.75037622752E+02  0.49010270118E+03  0.49622000631E+03  0.10100000352E+00 0. -1.
</event>
<event>
 5   0  0.1265562E-03  0.6998706E+03  0.7818609E-02  0.9717454E-01
       -2   -1    0    0    0  501  0.00000000000E+00  0.00000000000E+00  0.14210142041E+03  0.14210142043E+03  0.25500000920E-02 0.  1.
        2   -1    0    0  501    0  0.00000000000E+00  0.00000000000E+00 -0.86174164122E+03  0.86174164122E+03  0.25500000920E-02 0. -1.
    10030    2    1    2    0    0  0.00000000000E+00  0.00000000000E+00 -0.71964022081E+03  0.10038430617E+04  0.69987059162E+03 0.  0.
        1    1    3    3  502    0 -0.16501120971E+03  0.19481950390E+03 -0.70307511136E+03  0.74799595632E+03  0.50400001928E-02 0. -1.
       -1    1    3    3    0  502  0.16501120971E+03 -0.19481950390E+03 -0.16565109453E+02  0.25584710533E+03  0.50400001928E-02 0.  1.
</event>
<event>
 5   0  0.7459843E-04  0.6998522E+03  0.7818609E-02  0.9717485E-01
       -1   -1    0    0    0  501  0.00000000000E+00  0.00000000000E+00  0.14063138077E+03  0.14063138086E+03  0.50400001928E-02 0. -1.
        1   -1    0    0  501    0  0.00000000000E+00  0.00000000000E+00 -0.87070377342E+03  0.87070377344E+03  0.50400001928E-02 0.  1.
    10030    2    1    2    0    0  0.00000000000E+00  0.00000000000E+00 -0.73007239265E+03  0.10113351543E+04  0.69985219568E+03 0.  0.
        2    1    3    3  502    0 -0.84630574693E+01 -0.92634208672E+02 -0.85251015636E+03  0.85756998937E+03  0.25500000920E-02 0.  1.
       -2    1    3    3    0  502  0.84630574693E+01  0.92634208672E+02  0.12243776371E+03  0.15376516493E+03  0.25500000920E-02 0. -1.
</event>
<event>
 5   0  0.1222679E-03  0.6996657E+03  0.7818609E-02  0.9717804E-01
       -2   -1    0    0    0  501  0.00000000000E+00  0.00000000000E+00  0.67796729091E+02  0.67796729139E+02  0.25500000920E-02 0. -1.
        2   -1    0    0  501    0  0.00000000000E+00  0.00000000000E+00 -0.18051463304E+04  0.18051463304E+04  0.25500000920E-02 0.  1.
    10030    2    1    2    0    0  0.00000000000E+00  0.00000000000E+00 -0.17373496013E+04  0.18729430595E+04  0.69966568239E+03 0.  0.
        2    1    3    3  502    0 -0.15029777653E+03 -0.78144965525E+02 -0.49317035803E+02  0.17643193388E+03  0.25500000920E-02 0. -1.
       -2    1    3    3    0  502  0.15029777653E+03  0.78144965525E+02 -0.16880325655E+04  0.16965111256E+04  0.25500000920E-02 0.  1.
</event>
<event>
 5   0  0.7572415E-04  0.7000180E+03  0.7818609E-02  0.9717201E-01
       -1   -1    0    0    0  501  0.00000000000E+00  0.00000000000E+00  0.65562705035E+03  0.65562705037E+03  0.50400001928E-02 0. -1.
        1   -1    0    0  501    0  0.00000000000E+00  0.00000000000E+00 -0.18685362478E+03  0.18685362485E+03  0.50400001928E-02 0.  1.
    10030    2    1    2    0    0  0.00000000000E+00  0.00000000000E+00  0.46877342557E+03  0.84248067522E+03  0.70001797376E+03 0.  0.
        4    1    3    3  502    0 -0.15492999068E+03 -0.31047558042E+03  0.17915228812E+03  0.39050677751E+03  0.12699999809E+01 0. -1.
       -4    1    3    3    0  502  0.15492999068E+03  0.31047558042E+03  0.28962113745E+03  0.45197389770E+03  0.12699999809E+01 0.  1.
</event>
<event>
 5   0  0.1282546E-03  0.7041241E+03  0.7818609E-02  0.9710205E-01
       -2   -1    0    0    0  501  0.00000000000E+00  0.00000000000E+00  0.23604913950E+03  0.23604913951E+03  0.25500000920E-02 0.  1.
        2   -1    0    0  501    0  0.00000000000E+00  0.00000000000E+00 -0.52509270354E+03  0.52509270355E+03  0.25500000920E-02 0. -1.
    10030    2    1    2    0    0  0.00000000000E+00  0.00000000000E+00 -0.28904356405E+03  0.76114184306E+03  0.70412408235E+03 0.  0.
        5    1    3    3  502    0  0.21159076667E+03 -0.27888654309E+03 -0.18463803186E+03  0.39580506473E+03  0.46999998093E+01 0.  1.
       -5    1    3    3    0  502 -0.21159076667E+03  0.27888654309E+03 -0.10440553219E+03  0.36533677834E+03  0.46999998093E+01 0. -1.
</event>
<event>
 5   0  0.7572415E-04  0.7000862E+03  0.7818609E-02  0.9717085E-01
        1   -1    0    0  501    0  0.00000000000E+00  0.00000000000E+00  0.95658312818E+03  0.95658312819E+03  0.50400001928E-02 0. -1.
       -1   -1    0    0    0  501  0.00000000000E+00  0.00000000000E+00 -0.12809150949E+03  0.12809150959E+03  0.50400001928E-02 0.  1.
    10030    2    1    2    0    0  0.00000000000E+00  0.00000000000E+00  0.82849161868E+03  0.10846746378E+04  0.70008621442E+03 0.  0.
        4    1    3    3  502    0 -0.57321550882E+02  0.28187002343E+03  0.10518327977E+03  0.30627047776E+03  0.12699999809E+01 0.  1.
       -4    1    3    3    0  502  0.57321550882E+02 -0.28187002343E+03  0.72330833891E+03  0.77840416002E+03  0.12699999809E+01 0. -1.
</event>
<event>
 5   0  0.1265562E-03  0.7000164E+03  0.7818609E-02  0.9717204E-01
        2   -1    0    0  501    0  0.00000000000E+00  0.00000000000E+00  0.22931139818E+03  0.22931139819E+03  0.25500000920E-02 0.  1.
       -2   -1    0    0    0  501  0.00000000000E+00  0.00000000000E+00 -0.53423310065E+03  0.53423310066E+03  0.25500000920E-02 0. -1.
    10030    2    1    2    0    0  0.00000000000E+00  0.00000000000E+00 -0.30492170247E+03  0.76354449885E+03  0.70001639773E+03 0.  0.
        1    1    3    3  502    0 -0.29861746306E+03  0.17984530351E+03 -0.11815817731E+03  0.36807346730E+03  0.50400001928E-02 0.  1.
       -1    1    3    3    0  502  0.29861746306E+03 -0.17984530351E+03 -0.18676352516E+03  0.39547103155E+03  0.50400001928E-02 0. -1.
</event>
<event>
 5   0  0.7459843E-04  0.7001709E+03  0.7818609E-02  0.9716940E-01
        1   -1    0    0  501    0  0.00000000000E+00  0.00000000000E+00  0.42008595792E+03  0.42008595795E+03  0.50400001928E-02 0. -1.
       -1   -1    0    0    0  501  0.00000000000E+00  0.00000000000E+00 -0.29174940915E+03  0.29174940920E+03  0.50400001928E-02 0.  1.
    10030    2    1    2    0    0  0.00000000000E+00  0.00000000000E+00  0.12833654877E+03  0.71183536715E+03  0.70017092211E+03 0.  0.
        2    1    3    3  502    0  0.97885840829E+02  0.17607497487E+03  0.35525225873E+03  0.40839711306E+03  0.25500000920E-02 0. -1.
       -2    1    3    3    0  502 -0.97885840829E+02 -0.17607497487E+03 -0.22691570996E+03  0.30343825409E+03  0.25500000920E-02 0.  1.
</event>
<event>
 5   0  0.7459843E-04  0.7001669E+03  0.7818609E-02  0.9716947E-01
        1   -1    0    0  501    0  0.00000000000E+00  0.00000000000E+00  0.48461103635E+03  0.48461103638E+03  0.50400001928E-02 0.  1.
       -1   -1    0    0    0  501  0.00000000000E+00  0.00000000000E+00 -0.25290062781E+03  0.25290062786E+03  0.50400001928E-02 0. -1.
    10030    2    1    2    0    0  0.00000000000E+00  0.00000000000E+00  0.23171040854E+03  0.73751166424E+03  0.70016693828E+03 0.  0.
        2    1    3    3  502    0  0.22783312392E+03  0.26537453444E+03  0.99989996731E+02  0.36377132286E+03  0.25500000920E-02 0.  1.
       -2    1    3    3    0  502 -0.22783312392E+03 -0.26537453444E+03  0.13172041181E+03  0.37374034138E+03  0.25500000920E-02 0. -1.
</event>
<event>
 5   0  0.7574241E-04  0.6994409E+03  0.7818609E-02  0.9718189E-01
        1   -1    0    0  501    0  0.00000000000E+00  0.00000000000E+00  0.81393218302E+03  0.81393218304E+03  0.50400001928E-02 0.  1.
       -1   -1    0    0    0  501  0.00000000000E+00  0.00000000000E+00 -0.15026359764E+03  0.15026359773E+03  0.50400001928E-02 0. -1.
    10030    2    1    2    0    0  0.00000000000E+00  0.00000000000E+00  0.66366858538E+03  0.96419578076E+03  0.69944085698E+03 0.  0.
        3    1    3    3  502    0  0.68601915860E+02 -0.94132338408E+02 -0.12273845725E+03  0.16920951239E+03  0.10100000352E+00 0. -1.
       -3    1    3    3    0  502 -0.68601915860E+02  0.94132338408E+02  0.78640704263E+03  0.79498626837E+03  0.10100000352E+00 0.  1.
</event>
<event>
 5   0  0.7570633E-04  0.7001264E+03  0.7818609E-02  0.9717016E-01
        1   -1    0    0  501    0  0.00000000000E+00  0.00000000000E+00  0.20189912891E+03  0.20189912898E+03  0.50400001928E-02 0.  1.
       -1   -1    0    0    0  501  0.00000000000E+00  0.00000000000E+00 -0.60695776077E+03  0.60695776079E+03  0.50400001928E-02 0. -1.
    10030    2    1    2    0    0  0.00000000000E+00  0.00000000000E+00 -0.40505863186E+03  0.80885688977E+03  0.70012639779E+03 0.  0.
        5    1    3    3  502    0  0.21912199359E+03  0.11282755864E+03  0.84622071063E+02  0.26062902941E+03  0.46999998093E+01 0.  1.
       -5    1    3    3    0  502 -0.21912199359E+03 -0.11282755864E+03 -0.48968070292E+03  0.54822786036E+03  0.46999998093E+01 0. -1.
</event>
<event>
 5   0  0.7572415E-04  0.7002015E+03  0.7818609E-02  0.9716888E-01
        1   -1    0    0  501    0  0.00000000000E+00  0.00000000000E+00  0.54004199231E+03  0.54004199233E+03  0.50400001928E-02 0. -1.
       -1   -1    0    0    0  501  0.00000000000E+00  0.00000000000E+00 -0.22696482417E+03  0.22696482423E+03  0.50400001928E-02 0.  1.
    10030    2    1    2    0    0  0.00000000000E+00  0.00000000000E+00  0.31307716814E+03  0.76700681656E+03  0.70020150202E+03 0.  0.
        4    1    3    3  502    0  0.34165145129E+03  0.16742782491E+02  0.23823939076E+03  0.41685207825E+03  0.12699999809E+01 0. -1.
       -4    1    3    3    0  502 -0.34165145129E+03 -0.16742782491E+02  0.74837777377E+02  0.35015473830E+03  0.12699999809E+01 0.  1.
</event>
<event>
 5   0  0.1243087E-03  0.7001039E+03  0.7818609E-02  0.9717055E-01
       -2   -1    0    0    0  501  0.00000000000E+00  0.00000000000E+00  0.29786391377E+03  0.29786391378E+03  0.25500000920E-02 0. -1.
        2   -1    0    0  501    0  0.00000000000E+00  0.00000000000E+00 -0.41138371661E+03  0.41138371662E+03  0.25500000920E-02 0.  1.
    10030    2    1    2    0    0  0.00000000000E+00  0.00000000000E+00 -0.11351980284E+03  0.70924763040E+03  0.70010388914E+03 0.  0.
        4    1    3    3  502    0  0.39332172413E+01 -0.35405756197E+02 -0.40954027517E+03  0.41108866155E+03  0.12699999809E+01 0.  1.
       -4    1    3    3    0  502 -0.39332172413E+01  0.35405756197E+02  0.29602047233E+03  0.29815896885E+03  0.12699999809E+01 0. -1.
</event>
<event>
 5   0  0.1265562E-03  0.7001226E+03  0.7818609E-02  0.9717023E-01
        2   -1    0    0  501    0  0.00000000000E+00  0.00000000000E+00  0.11386698708E+04  0.11386698708E+04  0.25500000920E-02 0. -1.
       -2   -1    0    0    0  501  0.00000000000E+00  0.00000000000E+00 -0.10761935994E+03  0.10761935997E+03  0.25500000920E-02 0.  1.
    10030    2    1    2    0    0  0.00000000000E+00  0.00000000000E+00  0.10310505109E+04  0.12462892308E+04  0.70012262554E+03 0.  0.
        1    1    3    3  502    0 -0.10659966338E+02  0.27188358651E+03  0.90758668046E+03  0.94749559475E+03  0.50400001928E-02 0. -1.
       -1    1    3    3    0  502  0.10659966338E+02 -0.27188358651E+03  0.12346383044E+03  0.29879363605E+03  0.50400001928E-02 0.  1.
</event>
<event>
 5   0  0.1282546E-03  0.6983703E+03  0.7818609E-02  0.9720023E-01
       -2   -1    0    0    0  501  0.00000000000E+00  0.00000000000E+00  0.13955542824E+03  0.13955542827E+03  0.25500000920E-02 0. -1.
        2   -1    0    0  501    0  0.00000000000E+00  0.00000000000E+00 -0.87370503364E+03  0.87370503364E+03  0.25500000920E-02 0.  1.
    10030    2    1    2    0    0  0.00000000000E+00  0.00000000000E+00 -0.73414960539E+03  0.10132604619E+04  0.69837033197E+03 0.  0.
        5    1    3    3  502    0  0.49225754353E+02  0.30341956809E+03 -0.12681475445E+03  0.33255177212E+03  0.46999998093E+01 0. -1.
       -5    1    3    3    0  502 -0.49225754353E+02 -0.30341956809E+03 -0.60733485094E+03  0.68070868979E+03  0.46999998093E+01 0.  1.
</event>
<event>
 5   0  0.1222679E-03  0.7000878E+03  0.7818609E-02  0.9717082E-01
       -2   -1    0    0    0  501  0.00000000000E+00  0.00000000000E+00  0.41424413532E+03  0.41424413533E+03  0.25500000920E-02 0.  1.
        2   -1    0    0  501    0  0.00000000000E+00  0.00000000000E+00 -0.29579356172E+03  0.29579356173E+03  0.25500000920E-02 0. -1.
    10030    2    1    2    0    0  0.00000000000E+00  0.00000000000E+00  0.11845057360E+03  0.71003769706E+03  0.70008784653E+03 0.  0.
        2    1    3    3  502    0 -0.68824987397E+02 -0.33687711702E+03  0.12579097886E+03  0.36612353274E+03  0.25500000920E-02 0. -1.
       -2    1    3    3    0  502  0.68824987397E+02  0.33687711702E+03 -0.73404052573E+01  0.34391416432E+03  0.25500000920E-02 0.  1.
</event>
<event>
 5   0  0.7459843E-04  0.7000963E+03  0.7818609E-02  0.9717067E-01
        1   -1    0    0  501    0  0.00000000000E+00  0.00000000000E+00  0.14390515341E+04  0.14390515341E+04  0.50400001928E-02 0.  1.
       -1   -1    0    0    0  501  0.00000000000E+00  0.00000000000E+00 -0.85148945766E+02  0.85148945916E+02  0.50400001928E-02 0. -1.
    10030    2    1    2    0    0  0.00000000000E+00  0.00000000000E+00  0.13539025883E+04  0.15242004800E+04  0.70009633952E+03 0.  0.
        2    1    3    3  502    0  0.32156166487E+03 -0.22913829524E+02  0.97392624540E+03  0.10258943802E+04  0.25500000920E-02 0.  1.
       -2    1    3    3    0  502 -0.32156166487E+03  0.22913829524E+02  0.37997634293E+03  0.49830609979E+03  0.25500000920E-02 0. -1.
</event>
<event>
 5   0  0.7013526E-04  0.6999308E+03  0.7818609E-02  0.9717351E-01
       -1   -1    0    0    0  501  0.00000000000E+00  0.00000000000E+00  0.26532008406E+03  0.26532008411E+03  0.50400001928E-02 0. -1.
        1   -1    0    0  501    0  0.00000000000E+00  0.00000000000E+00 -0.46161519450E+03  0.46161519452E+03  0.50400001928E-02 0.  1.
    10030    2    1    2    0    0  0.00000000000E+00  0.00000000000E+00 -0.19629511044E+03  0.72693527863E+03  0.69993080297E+03 0.  0.
        1    1    3    3  502    0 -0.19342714461E+02 -0.33140383560E+03  0.16910882322E+02  0.33239828642E+03  0.50400001928E-02 0. -1.
       -1    1    3    3    0  502  0.19342714461E+02  0.33140383560E+03 -0.21320599276E+03  0.39453699221E+03  0.50400001928E-02 0.  1.
</event>
<event>
 5   0  0.1282546E-03  0.7000873E+03  0.7818609E-02  0.9717083E-01
       -2   -1    0    0    0  501  0.00000000000E+00  0.00000000000E+00  0.77377869204E+02  0.77377869246E+02  0.25500000920E-02 0. -1.
        2   -1    0    0  501    0  0.00000000000E+00  0.00000000000E+00 -0.15835348720E+04  0.15835348720E+04  0.25500000920E-02 0.  1.
    10030    2    1    2    0    0  0.00000000000E+00  0.00000000000E+00 -0.15061570028E+04  0.16609127412E+04  0.70008729239E+03 0.  0.
        5    1    3    3  502    0  0.13959604512E+03  0.15377874020E+03 -0.84684708557E+02  0.22434024742E+03  0.46999998093E+01 0. -1.
       -5    1    3    3    0  502 -0.13959604512E+03 -0.15377874020E+03 -0.14214722942E+04  0.14365724938E+04  0.46999998093E+01 0.  1.
</event>
<event>
 5   0  0.1265562E-03  0.6999190E+03  0.7818609E-02  0.9717371E-01
        2   -1    0    0  501    0  0.00000000000E+00  0.00000000000E+00  0.15860266948E+04  0.15860266948E+04  0.25500000920E-02 0. -1.
       -2   -1    0    0    0  501  0.00000000000E+00  0.00000000000E+00 -0.77219156150E+02  0.77219156192E+02  0.25500000920E-02 0.  1.
    10030    2    1    2    0    0  0.00000000000E+00  0.00000000000E+00  0.15088075386E+04  0.16632458510E+04  0.69991897542E+03 0.  0.
        1    1    3    3  502    0 -0.37311019640E+02 -0.24967601360E+03  0.17845892107E+03  0.30915661159E+03  0.50400001928E-02 0.  1.
       -1    1    3    3    0  502  0.37311019640E+02  0.24967601360E+03  0.13303486176E+04  0.13540892394E+04  0.50400001928E-02 0. -1.
</event>
<event>
 5   0  0.7570633E-04  0.6999371E+03  0.7818609E-02  0.9717340E-01
        1   -1    0    0  501    0  0.00000000000E+00  0.00000000000E+00  0.38728946071E+03  0.38728946074E+03  0.50400001928E-02 0.  1.
       -1   -1    0    0    0  501  0.00000000000E+00  0.00000000000E+00 -0.31624400381E+03  0.31624400385E+03  0.50400001928E-02 0. -1.
    10030    2    1    2    0    0  0.00000000000E+00  0.00000000000E+00  0.71045456891E+02  0.70353346459E+03  0.69993705350E+03 0.  0.
        5    1    3    3  502    0 -0.20671439120E+03  0.21736312688E+03 -0.14562066318E+03  0.33347419091E+03  0.46999998093E+01 0. -1.
       -5    1    3    3    0  502  0.20671439120E+03 -0.21736312688E+03  0.21666612007E+03  0.37005927369E+03  0.46999998093E+01 0.  1.
</event>
<event>
 5   0  0.7013526E-04  0.6991647E+03  0.7818609E-02  0.9718662E-01
       -1   -1    0    0    0  501  0.00000000000E+00  0.00000000000E+00  0.26134309001E+03  0.26134309006E+03  0.50400001928E-02 0. -1.
        1   -1    0    0  501    0  0.00000000000E+00  0.00000000000E+00 -0.46761453881E+03  0.46761453884E+03  0.50400001928E-02 0.  1.
    10030    2    1    2    0    0  0.00000000000E+00  0.00000000000E+00 -0.20627144880E+03  0.72895762890E+03  0.69916472605E+03 0.  0.
        1    1    3    3  502    0  0.33150700716E+03  0.56189999070E+02 -0.20288715614E+03  0.39270524563E+03  0.50400001928E-02 0. -1.
       -1    1    3    3    0  502 -0.33150700716E+03 -0.56189999070E+02 -0.33842926587E+01  0.33625238327E+03  0.50400001928E-02 0.  1.
</event>
<event>
 5   0  0.1282546E-03  0.7005849E+03  0.7818609E-02  0.9716232E-01
        2   -1    0    0  501    0  0.00000000000E+00  0.00000000000E+00  0.63942498802E+03  0.63942498803E+03  0.25500000920E-02 0.  1.
       -2   -1    0    0    0  501  0.00000000000E+00  0.00000000000E+00 -0.19189867292E+03  0.19189867294E+03  0.25500000920E-02 0. -1.
    10030    2    1    2    0    0  0.00000000000E+00  0.00000000000E+00  0.44752631510E+03  0.83132366096E+03  0.70058491746E+03 0.  0.
        5    1    3    3  502    0 -0.16445665649E+03 -0.22457202079E+03  0.47605222216E+03  0.55147655671E+03  0.46999998093E+01 0.  1.
       -5    1    3    3    0  502  0.16445665649E+03  0.22457202079E+03 -0.28525907056E+02  0.27984710425E+03  0.46999998093E+01 0. -1.
</event>
<event>
 5   0  0.7574241E-04  0.7002049E+03  0.7818609E-02  0.9716882E-01
       -1   -1    0    0    0  501  0.00000000000E+00  0.00000000000E+00  0.19238667232E+03  0.19238667239E+03  0.50400001928E-02 0.  1.
        1   -1    0    0  501    0  0.00000000000E+00  0.00000000000E+00 -0.63711134965E+03  0.63711134967E+03  0.50400001928E-02 0. -1.
    10030    2    1    2    0    0  0.00000000000E+00  0.00000000000E+00 -0.44472467733E+03  0.82949802206E+03  0.70020491998E+03 0.  0.
        3    1    3    3  502    0  0.14393140375E+02  0.29248454977E+03  0.49465652135E+01  0.29288027085E+03  0.10100000352E+00 0. -1.
       -3    1    3    3    0  502 -0.14393140375E+02 -0.29248454977E+03 -0.44967124254E+03  0.53661775121E+03  0.10100000352E+00 0.  1.
</event>
<event>
 5   0  0.1282546E-03  0.7000242E+03  0.7818609E-02  0.9717191E-01
       -2   -1    0    0    0  501  0.00000000000E+00  0.00000000000E+00  0.27481632407E+03  0.27481632408E+03  0.25500000920E-02 0. -1.
        2   -1    0    0  501    0  0.00000000000E+00  0.00000000000E+00 -0.44578305873E+03  0.44578305873E+03  0.25500000920E-02 0.  1.
    10030    2    1    2    0    0  0.00000000000E+00  0.00000000000E+00 -0.17096673466E+03  0.72059938282E+03  0.70002417541E+03 0.  0.
        5    1    3    3  502    0 -0.29241498800E+03  0.18259529986E+03 -0.14757886436E+03  0.37503223853E+03  0.46999998093E+01 0. -1.
       -5    1    3    3    0  502  0.29241498800E+03 -0.18259529986E+03 -0.23387870299E+02  0.34556714429E+03  0.46999998093E+01 0.  1.
</event>
<event>
 5   0  0.7459843E-04  0.6999689E+03  0.7818609E-02  0.9717285E-01
       -1   -1    0    0    0  501  0.00000000000E+00  0.00000000000E+00  0.58134504209E+03  0.58134504212E+03  0.50400001928E-02 0. -1.
        1   -1    0    0  501    0  0.00000000000E+00  0.00000000000E+00 -0.21069949900E+03  0.21069949906E+03  0.50400001928E-02 0.  1.
    10030    2    1    2    0    0  0.00000000000E+00  0.00000000000E+00  0.37064554309E+03  0.79204454118E+03  0.69996888259E+03 0.  0.
        2    1    3    3  502    0  0.74396984791E+02 -0.32627776936E+03  0.30125489233E+03  0.45027392139E+03  0.25500000920E-02 0. -1.
       -2    1    3    3    0  502 -0.74396984791E+02  0.32627776936E+03  0.69390650767E+02  0.34177061978E+03  0.25500000920E-02 0.  1.
</event>
<event>
 5   0  0.1265562E-03  0.7000142E+03  0.7818609E-02  0.9717208E-01
       -2   -1    0    0    0  501  0.00000000000E+00  0.00000000000E+00  0.34115678245E+03  0.34115678246E+03  0.25500000920E-02 0. -1.
        2   -1    0    0  501    0  0.00000000000E+00  0.00000000000E+00 -0.35908698870E+03  0.35908698871E+03  0.25500000920E-02 0.  1.
    10030    2    1    2    0    0  0.00000000000E+00  0.00000000000E+00 -0.17930206250E+02  0.70024377117E+03  0.70001417612E+03 0.  0.
        1    1    3    3  502    0 -0.14543355840E+03  0.21475681740E+03  0.22613017283E+03  0.34410211510E+03  0.50400001928E-02 0. -1.
       -1    1    3    3    0  502  0.14543355840E+03 -0.21475681740E+03 -0.24406037908E+03  0.35614165607E+03  0.50400001928E-02 0.  1.
</event>
<event>
 5   0  0.7459843E-04  0.7000319E+03  0.7818609E-02  0.9717178E-01
        1   -1    0    0  501    0  0.00000000000E+00  0.00000000000E+00  0.68517046398E+03  0.68517046400E+03  0.50400001928E-02 0. -1.
       -1   -1    0    0    0  501  0.00000000000E+00  0.00000000000E+00 -0.17880389700E+03  0.17880389707E+03  0.50400001928E-02 0.  1.
    10030    2    1    2    0    0  0.00000000000E+00  0.00000000000E+00  0.50636656697E+03  0.86397436107E+03  0.70003185387E+03 0.  0.
        2    1    3    3  502    0  0.18243245423E+03  0.24094276634E+03  0.47110181759E+03  0.55970701224E+03  0.25500000920E-02 0. -1.
       -2    1    3    3    0  502 -0.18243245423E+03 -0.24094276634E+03  0.35264749382E+02  0.30426734883E+03  0.25500000920E-02 0.  1.
</event>
<event>
 5   0  0.4936000E-04  0.7001018E+03  0.7818609E-02  0.9717058E-01
       -3   -1    0    0    0  501  0.00000000000E+00  0.00000000000E+00  0.66312766293E+03  0.66312767062E+03  0.10100000352E+00 0. -1.
        3   -1    0    0  501    0  0.00000000000E+00  0.00000000000E+00 -0.18478434752E+03  0.18478437512E+03  0.10100000352E+00 0.  1.
    10030    2    1    2    0    0  0.00000000000E+00  0.00000000000E+00  0.47834331541E+03  0.84791204574E+03  0.70010178539E+03 0.  0.
        5    1    3    3  502    0  0.18707388738E+03 -0.25046436290E+03  0.48502823989E+02  0.31639160917E+03  0.46999998093E+01 0.  1.
       -5    1    3    3    0  502 -0.18707388738E+03  0.25046436290E+03  0.42984049142E+03  0.53152043656E+03  0.46999998093E+01 0. -1.
</event>
<event>
 5   0  0.1243087E-03  0.6999943E+03  0.7818609E-02  0.9717242E-01
       -2   -1    0    0    0  501  0.00000000000E+00  0.00000000000E+00  0.14847449846E+03  0.14847449848E+03  0.25500000920E-02 0.  1.
        2   -1    0    0  501    0  0.00000000000E+00  0.00000000000E+00 -0.82504418193E+03  0.82504418193E+03  0.25500000920E-02 0. -1.
    10030    2    1    2    0    0  0.00000000000E+00  0.00000000000E+00 -0.67656968346E+03  0.97351868042E+03  0.69999434607E+03 0.  0.
        4    1    3    3  502    0  0.25786928225E+03  0.17079107549E+03 -0.11048043696E+03  0.32844131598E+03  0.12699999809E+01 0.  1.
       -4    1    3    3    0  502 -0.25786928225E+03 -0.17079107549E+03 -0.56608924650E+03  0.64507736443E+03  0.12699999809E+01 0. -1.
</event>
<event>
 5   0  0.7572415E-04  0.6998955E+03  0.7818609E-02  0.9717411E-01
        1   -1    0    0  501    0  0.00000000000E+00  0.00000000000E+00  0.52989376302E+03  0.52989376305E+03  0.50400001928E-02 0.  1.
       -1   -1    0    0    0  501  0.00000000000E+00  0.00000000000E+00 -0.23110937423E+03  0.23110937429E+03  0.50400001928E-02 0. -1.
    10030    2    1    2    0    0  0.00000000000E+00  0.00000000000E+00  0.29878438879E+03  0.76100313734E+03  0.69989546652E+03 0.  0.
        4    1    3    3  502    0 -0.32433289612E+03 -0.27581027750E+02  0.96855365071E+01  0.32565006236E+03  0.12699999809E+01 0. -1.
       -4    1    3    3    0  502  0.32433289612E+03  0.27581027750E+02  0.28909885228E+03  0.43535307498E+03  0.12699999809E+01 0.  1.
</event>
<event>
 5   0  0.4936000E-04  0.6998736E+03  0.7818609E-02  0.9717448E-01
        4   -1    0    0  501    0  0.00000000000E+00  0.00000000000E+00  0.49712684700E+03  0.49712846922E+03  0.12699999809E+01 0.  1.
       -4   -1    0    0    0  501  0.00000000000E+00  0.00000000000E+00 -0.24632331770E+03  0.24632659162E+03  0.12699999809E+01 0. -1.
    10030    2    1    2    0    0  0.00000000000E+00  0.00000000000E+00  0.25080352931E+03  0.74345506085E+03  0.69987357228E+03 0.  0.
        1    1    3    3  502    0  0.29066737265E+02  0.34849167495E+03  0.13902335131E+03  0.37632275371E+03  0.50400001928E-02 0.  1.
       -1    1    3    3    0  502 -0.29066737265E+02 -0.34849167495E+03  0.11178017800E+03  0.36713230714E+03  0.50400001928E-02 0. -1.
</event>
<event>
 5   0  0.7574241E-04  0.7001392E+03  0.7818609E-02  0.9716994E-01
       -1   -1    0    0    0  501  0.00000000000E+00  0.00000000000E+00  0.38207375873E+03  0.38207375877E+03  0.50400001928E-02 0.  1.
        1   -1    0    0  501    0  0.00000000000E+00  0.00000000000E+00 -0.32074622360E+03  0.32074622364E+03  0.50400001928E-02 0. -1.
    10030    2    1    2    0    0  0.00000000000E+00  0.00000000000E+00  0.61327535138E+02  0.70281998240E+03  0.70013917266E+03 0.  0.
        3    1    3    3  502    0 -0.34313080507E+03  0.29474573833E+02 -0.32355629854E+02  0.34591096669E+03  0.10100000352E+00 0.  1.
       -3    1    3    3    0  502  0.34313080507E+03 -0.29474573833E+02  0.93683164992E+02  0.35690901571E+03  0.10100000352E+00 0. -1.
</event>
<event>
 5   0  0.7459843E-04  0.7023679E+03  0.7818609E-02  0.9713191E-01
       -1   -1    0    0    0  501  0.00000000000E+00  0.00000000000E+00  0.61125804488E+02  0.61125804696E+02  0.50400001928E-02 0. -1.
        1   -1    0    0  501    0  0.00000000000E+00  0.00000000000E+00 -0.20176448729E+04  0.20176448729E+04  0.50400001928E-02 0.  1.
    10030    2    1    2    0    0  0.00000000000E+00  0.00000000000E+00 -0.19565190684E+04  0.20787706776E+04  0.70236789860E+03 0.  0.
        2    1    3    3  502    0 -0.34982829367E+03 -0.21370591463E+02 -0.91250249254E+03  0.97749544046E+03  0.25500000920E-02 0. -1.
       -2    1    3    3    0  502  0.34982829367E+03  0.21370591463E+02 -0.10440165758E+04  0.11012752371E+04  0.25500000920E-02 0.  1.
</event>
<event>
 5   0  0.7013526E-04  0.7000020E+03  0.7818609E-02  0.9717229E-01
       -1   -1    0    0    0  501  0.00000000000E+00  0.00000000000E+00  0.51787726032E+03  0.51787726034E+03  0.50400001928E-02 0.  1.
        1   -1    0    0  501    0  0.00000000000E+00  0.00000000000E+00 -0.23654387667E+03  0.23654387672E+03  0.50400001928E-02 0. -1.
    10030    2    1    2    0    0  0.00000000000E+00  0.00000000000E+00  0.28133338365E+03  0.75442113706E+03  0.70000198521E+03 0.  0.
        1    1    3    3  502    0  0.82688550651E+01  0.22581961201E+02  0.51698581195E+03  0.51754482773E+03  0.50400001928E-02 0.  1.
       -1    1    3    3    0  502 -0.82688550651E+01 -0.22581961201E+02 -0.23565242829E+03  0.23687630933E+03  0.50400001928E-02 0. -1.
</event>
<event>
 5   0  0.7574241E-04  0.6999684E+03  0.7818609E-02  0.9717286E-01
        1   -1    0    0  501    0  0.00000000000E+00  0.00000000000E+00  0.33456876710E+03  0.33456876714E+03  0.50400001928E-02 0.  1.
       -1   -1    0    0    0  501  0.00000000000E+00  0.00000000000E+00 -0.36610989036E+03  0.36610989040E+03  0.50400001928E-02 0. -1.
    10030    2    1    2    0    0  0.00000000000E+00  0.00000000000E+00 -0.31541123264E+02  0.70067865753E+03  0.69996838405E+03 0.  0.
        3    1    3    3  502    0 -0.11878246723E+03  0.32300898721E+03  0.47893062802E+02  0.34747350403E+03  0.10100000352E+00 0.  1.
       -3    1    3    3    0  502  0.11878246723E+03 -0.32300898721E+03 -0.79434186066E+02  0.35320515350E+03  0.10100000352E+00 0. -1.
</event>
<event>
 5   0  0.7570633E-04  0.6998021E+03  0.7818609E-02  0.9717571E-01
        1   -1    0    0  501    0  0.00000000000E+00  0.00000000000E+00  0.35724791349E+03  0.35724791352E+03  0.50400001928E-02 0.  1.
       -1   -1    0    0    0  501  0.00000000000E+00  0.00000000000E+00 -0.34270526729E+03  0.34270526733E+03  0.50400001928E-02 0. -1.
    10030    2    1    2    0    0  0.00000000000E+00  0.00000000000E+00  0.14542646194E+02  0.69995318085E+03  0.69980209118E+03 0.  0.
        5    1    3    3  502    0 -0.27160243364E+01  0.94637419075E+02 -0.32961742035E+03  0.34297718827E+03  0.46999998093E+01 0. -1.
       -5    1    3    3    0  502  0.27160243364E+01 -0.94637419075E+02  0.34416006654E+03  0.35697599258E+03  0.46999998093E+01 0.  1.
</event>
<event>
 5   0  0.7570633E-04  0.6998691E+03  0.7818609E-02  0.9717456E-01
       -1   -1    0    0    0  501  0.00000000000E+00  0.00000000000E+00  0.70422789130E+02  0.70422789311E+02  0.50400001928E-02 0.  1.
        1   -1    0    0  501    0  0.00000000000E+00  0.00000000000E+00 -0.17388433960E+04  0.17388433960E+04  0.50400001928E-02 0. -1.
    10030    2    1    2    0    0  0.00000000000E+00  0.00000000000E+00 -0.16684206069E+04  0.18092661853E+04  0.69986913628E+03 0.  0.
        5    1    3    3  502    0  0.14900564281E+03  0.30385102087E+03 -0.60437922913E+03  0.69269363147E+03  0.46999998093E+01 0.  1.
       -5    1    3    3    0  502 -0.14900564281E+03 -0.30385102087E+03 -0.10640413777E+04  0.11165725539E+04  0.46999998093E+01 0. -1.
</event>
<event>
 5   0  0.1243087E-03  0.6997783E+03  0.7818609E-02  0.9717611E-01
        2   -1    0    0  501    0  0.00000000000E+00  0.00000000000E+00  0.87038140459E+03  0.87038140460E+03  0.25500000920E-02 0. -1.
       -2   -1    0    0    0  501  0.00000000000E+00  0.00000000000E+00 -0.14065377809E+03  0.14065377811E+03  0.25500000920E-02 0.  1.
    10030    2    1    2    0    0  0.00000000000E+00  0.00000000000E+00  0.72972762651E+03  0.10110351827E+04  0.69977834475E+03 0.  0.
        4    1    3    3  502    0  0.15082103054E+03  0.25882006954E+03  0.62607195764E+03  0.69404792392E+03  0.12699999809E+01 0. -1.
       -4    1    3    3    0  502 -0.15082103054E+03 -0.25882006954E+03  0.10365566886E+03  0.31698725879E+03  0.12699999809E+01 0.  1.
</event>
<event>
 5   0  0.7572415E-04  0.7002131E+03  0.7818609E-02  0.9716868E-01
       -1   -1    0    0    0  501  0.00000000000E+00  0.00000000000E+00  0.15926352306E+03  0.15926352314E+03  0.50400001928E-02 0. -1.
        1   -1    0    0  501    0  0.00000000000E+00  0.00000000000E+00 -0.76963377340E+03  0.76963377342E+03  0.50400001928E-02 0.  1.
    10030    2    1    2    0    0  0.00000000000E+00  0.00000000000E+00 -0.61037025034E+03  0.92889729655E+03  0.70021307117E+03 0.  0.
        4    1    3    3  502    0  0.84237100621E+01 -0.34777134261E+03 -0.35753272995E+03  0.49884579934E+03  0.12699999809E+01 0.  1.
       -4    1    3    3    0  502 -0.84237100621E+01  0.34777134261E+03 -0.25283752040E+03  0.43005149721E+03  0.12699999809E+01 0. -1.
</event>
<event>
 5   0  0.1224048E-03  0.7000406E+03  0.7818609E-02  0.9717163E-01
        2   -1    0    0  501    0  0.00000000000E+00  0.00000000000E+00  0.38078080690E+03  0.38078080691E+03  0.25500000920E-02 0. -1.
       -2   -1    0    0    0  501  0.00000000000E+00  0.00000000000E+00 -0.32174469929E+03  0.32174469930E+03  0.25500000920E-02 0.  1.
    10030    2    1    2    0    0  0.00000000000E+00  0.00000000000E+00  0.59036107614E+02  0.70252550621E+03  0.70004058802E+03 0.  0.
        3    1    3    3  502    0  0.40957911802E+02  0.33880859558E+03  0.10754609696E+03  0.35781977048E+03  0.10100000352E+00 0. -1.
       -3    1    3    3    0  502 -0.40957911802E+02 -0.33880859558E+03 -0.48509989349E+02  0.34470573573E+03  0.10100000352E+00 0.  1.
</event>
<event>
 5   0  0.1265562E-03  0.6998845E+03  0.7818609E-02  0.9717430E-01
        2   -1    0    0  501    0  0.00000000000E+00  0.00000000000E+00  0.61694071479E+03  0.61694071480E+03  0.25500000920E-02 0. -1.
       -2   -1    0    0    0  501  0.00000000000E+00  0.00000000000E+00 -0.19849489161E+03  0.19849489163E+03  0.25500000920E-02 0.  1.
    10030    2    1    2    0    0  0.00000000000E+00  0.00000000000E+00  0.41844582318E+03  0.81543560643E+03  0.69988450568E+03 0.  0.
        1    1    3    3  502    0 -0.16332468722E+03  0.83039543343E+02 -0.13814320354E+03  0.22946473351E+03  0.50400001928E-02 0.  1.
       -1    1    3    3    0  502  0.16332468722E+03 -0.83039543343E+02  0.55658902672E+03  0.58597087292E+03  0.50400001928E-02 0. -1.
</event>
<event>
 5   0  0.7572415E-04  0.6998492E+03  0.7818609E-02  0.9717490E-01
       -1   -1    0    0    0  501  0.00000000000E+00  0.00000000000E+00  0.14705792997E+03  0.14705793005E+03  0.50400001928E-02 0. -1.
        1   -1    0    0  501    0  0.00000000000E+00  0.00000000000E+00 -0.83264630093E+03  0.83264630095E+03  0.50400001928E-02 0.  1.
    10030    2    1    2    0    0  0.00000000000E+00  0.00000000000E+00 -0.68558837096E+03  0.97970423100E+03  0.69984924508E+03 0.  0.
        4    1    3    3  502    0 -0.29338113761E+03 -0.10671265752E+03 -0.12151788495E+03  0.33500491406E+03  0.12699999809E+01 0. -1.
       -4    1    3    3    0  502  0.29338113761E+03  0.10671265752E+03 -0.56407048601E+03  0.64469931695E+03  0.12699999809E+01 0.  1.
</event>
<event>
 5   0  0.1265562E-03  0.7001450E+03  0.7818609E-02  0.9716984E-01
        2   -1    0    0  501    0  0.00000000000E+00  0.00000000000E+00  0.13276818514E+04  0.13276818514E+04  0.25500000920E-02 0. -1.
       -2   -1    0    0    0  501  0.00000000000E+00  0.00000000000E+00 -0.92304300369E+02  0.92304300405E+02  0.25500000920E-02 0.  1.
    10030    2    1    2    0    0  0.00000000000E+00  0.00000000000E+00  0.12353775510E+04  0.14199861518E+04  0.70014496907E+03 0.  0.
        1    1    3    3  502    0 -0.51701596789E+02 -0.19856555119E+03  0.11929400259E+04  0.12104574502E+04  0.50400001928E-02 0. -1.
       -1    1    3    3    0  502  0.51701596789E+02  0.19856555119E+03  0.42437525067E+02  0.20952870158E+03  0.50400001928E-02 0.  1.
</event>
<event>
 5   0  0.1224048E-03  0.7004744E+03  0.7818609E-02  0.9716421E-01
       -2   -1    0    0    0  501  0.00000000000E+00  0.00000000000E+00  0.29042725931E+03  0.29042725932E+03  0.25500000920E-02 0.  1.
        2   -1    0    0  501    0  0.00000000000E+00  0.00000000000E+00 -0.42236428605E+03  0.42236428606E+03  0.25500000920E-02 0. -1.
    10030    2    1    2    0    0  0.00000000000E+00  0.00000000000E+00 -0.13193702674E+03  0.71279154538E+03  0.70047441648E+03 0.  0.
        3    1    3    3  502    0  0.18969538592E+02  0.42824518146E+02  0.28722594341E+03  0.29101981980E+03  0.10100000352E+00 0.  1.
       -3    1    3    3    0  502 -0.18969538592E+02 -0.42824518146E+02 -0.41916297015E+03  0.42177172558E+03  0.10100000352E+00 0. -1.
</event>
<event>
 5   0  0.7459843E-04  0.6998814E+03  0.7818609E-02  0.9717435E-01
        1   -1    0    0  501    0  0.00000000000E+00  0.00000000000E+00  0.14130713424E+03  0.14130713433E+03  0.50400001928E-02 0.  1.
       -1   -1    0    0    0  501  0.00000000000E+00  0.00000000000E+00 -0.86661222083E+03  0.86661222085E+03  0.50400001928E-02 0. -1.
    10030    2    1    2    0    0  0.00000000000E+00  0.00000000000E+00 -0.72530508660E+03  0.10079193552E+04  0.69988138844E+03 0.  0.
        2    1    3    3  502    0 -0.34046000299E+03 -0.72817438225E+02 -0.31187709504E+03  0.46742134671E+03  0.25500000920E-02 0. -1.
       -2    1    3    3    0  502  0.34046000299E+03  0.72817438225E+02 -0.41342799155E+03  0.54049800846E+03  0.25500000920E-02 0.  1.
</event>
<event>
 5   0  0.1224048E-03  0.6991540E+03  0.7818609E-02  0.9718680E-01
        2   -1    0    0  501    0  0.00000000000E+00  0.00000000000E+00  0.25356278504E+03  0.25356278506E+03  0.25500000920E-02 0.  1.
       -2   -1    0    0    0  501  0.00000000000E+00  0.00000000000E+00 -0.48194798320E+03  0.48194798321E+03  0.25500000920E-02 0. -1.
    10030    2    1    2    0    0  0.00000000000E+00  0.00000000000E+00 -0.22838519816E+03  0.73551076827E+03  0.69915398268E+03 0.  0.
        3    1    3    3  502    0 -0.34665447880E+03  0.17390360405E+02 -0.70407226258E+02  0.35415948387E+03  0.10100000352E+00 0. -1.
       -3    1    3    3    0  502  0.34665447880E+03 -0.17390360405E+02 -0.15797797190E+03  0.38135128440E+03  0.10100000352E+00 0.  1.
</event>
<event>
 5   0  0.7572415E-04  0.7001803E+03  0.7818609E-02  0.9716924E-01
       -1   -1    0    0    0  501  0.00000000000E+00  0.00000000000E+00  0.18860122158E+03  0.18860122165E+03  0.50400001928E-02 0.  1.
        1   -1    0    0  501    0  0.00000000000E+00  0.00000000000E+00 -0.64985330215E+03  0.64985330217E+03  0.50400001928E-02 0. -1.
    10030    2    1    2    0    0  0.00000000000E+00  0.00000000000E+00 -0.46125208057E+03  0.83845452382E+03  0.70018033869E+03 0.  0.
        4    1    3    3  502    0  0.83551482956E+02  0.13530509806E+03 -0.60410504155E+03  0.62468618841E+03  0.12699999809E+01 0. -1.
       -4    1    3    3    0  502 -0.83551482956E+02 -0.13530509806E+03  0.14285296098E+03  0.21376833541E+03  0.12699999809E+01 0.  1.
</event>
<event>
 5   0  0.4936000E-04  0.6998736E+03  0.7818609E-02  0.9717448E-01
       -4   -1    0    0    0  501  0.00000000000E+00  0.00000000000E+00  0.65828327733E+03  0.65828450241E+03  0.12699999809E+01 0. -1.
        4   -1    0    0  501    0  0.00000000000E+00  0.00000000000E+00 -0.18601934098E+03  0.18602367623E+03  0.12699999809E+01 0.  1.
    10030    2    1    2    0    0  0.00000000000E+00  0.00000000000E+00  0.47226393635E+03  0.84430817865E+03  0.69987361356E+03 0.  0.
        3    1    3    3  502    0 -0.29393985883E+03  0.17025845743E+03  0.33754746378E+03  0.47888086561E+03  0.10100000352E+00 0. -1.
       -3    1    3    3    0  502  0.29393985883E+03 -0.17025845743E+03  0.13471647257E+03  0.36542731304E+03  0.10100000352E+00 0.  1.
</event>
<event>
 5   0  0.7572415E-04  0.6999884E+03  0.7818609E-02  0.9717252E-01
       -1   -1    0    0    0  501  0.00000000000E+00  0.00000000000E+00  0.11540899550E+03  0.11540899561E+03  0.50400001928E-02 0. -1.
        1   -1    0    0  501    0  0.00000000000E+00  0.00000000000E+00 -0.10614072956E+04  0.10614072956E+04  0.50400001928E-02 0.  1.
    10030    2    1    2    0    0  0.00000000000E+00  0.00000000000E+00 -0.94599830006E+03  0.11768162912E+04  0.69998842809E+03 0.  0.
        4    1    3    3  502    0  0.31393493386E+02 -0.68415498851E+02 -0.10476333602E+04  0.10503349476E+04  0.12699999809E+01 0.  1.
       -4    1    3    3    0  502 -0.31393493386E+02  0.68415498851E+02  0.10163506015E+03  0.12648134353E+03  0.12699999809E+01 0. -1.
</event>
<event>
 5   0  0.1265562E-03  0.6997643E+03  0.7818609E-02  0.9717635E-01
        2   -1    0    0  501    0  0.00000000000E+00  0.00000000000E+00  0.73805606867E+02  0.73805606911E+02  0.25500000920E-02 0.  1.
       -2   -1    0    0    0  501  0.00000000000E+00  0.00000000000E+00 -0.16586481459E+04  0.16586481459E+04  0.25500000920E-02 0. -1.
    10030    2    1    2    0    0  0.00000000000E+00  0.00000000000E+00 -0.15848425390E+04  0.17324537528E+04  0.69976434040E+03 0.  0.
        1    1    3    3  502    0 -0.22771173617E+03  0.25948622148E+03 -0.65167657952E+03  0.73747413395E+03  0.50400001928E-02 0.  1.
       -1    1    3    3    0  502  0.22771173617E+03 -0.25948622148E+03 -0.93316595948E+03  0.99497961882E+03  0.50400001928E-02 0. -1.
</event>
<event>
 5   0  0.7013526E-04  0.7016965E+03  0.7818609E-02  0.9714335E-01
        1   -1    0    0  501    0  0.00000000000E+00  0.00000000000E+00  0.38613170536E+03  0.38613170539E+03  0.50400001928E-02 0. -1.
       -1   -1    0    0    0  501  0.00000000000E+00  0.00000000000E+00 -0.31878886546E+03  0.31878886550E+03  0.50400001928E-02 0.  1.
    10030    2    1    2    0    0  0.00000000000E+00  0.00000000000E+00  0.67342839904E+02  0.70492057089E+03  0.70169648223E+03 0.  0.
        1    1    3    3  502    0  0.22753898854E+03 -0.12699197365E+03  0.26968391301E+03  0.37500715412E+03  0.50400001928E-02 0. -1.
       -1    1    3    3    0  502 -0.22753898854E+03  0.12699197365E+03 -0.20234107311E+03  0.32991341677E+03  0.50400001928E-02 0.  1.
</event>
<event>
 5   0  0.7459843E-04  0.7000140E+03  0.7818609E-02  0.9717208E-01
        1   -1    0    0  501    0  0.00000000000E+00  0.00000000000E+00  0.75690257493E+03  0.75690257495E+03  0.50400001928E-02 0.  1.
       -1   -1    0    0    0  501  0.00000000000E+00  0.00000000000E+00 -0.16185028097E+03  0.16185028105E+03  0.50400001928E-02 0. -1.
    10030    2    1    2    0    0  0.00000000000E+00  0.00000000000E+00  0.59505229396E+03  0.91875285600E+03  0.70001398405E+03 0.  0.
        2    1    3    3  502    0  0.33603130298E+02 -0.24844530985E+03 -0.23026659917E+02  0.25176272445E+03  0.25500000920E-02 0. -1.
       -2    1    3    3    0  502 -0.33603130298E+02  0.24844530985E+03  0.61807895388E+03  0.66699013155E+03  0.25500000920E-02 0.  1.
</event>
<event>
 5   0  0.1222679E-03  0.6999043E+03  0.7818609E-02  0.9717396E-01
        2   -1    0    0  501    0  0.00000000000E+00  0.00000000000E+00  0.33281981944E+03  0.33281981945E+03  0.25500000920E-02 0. -1.
       -2   -1    0    0    0  501  0.00000000000E+00  0.00000000000E+00 -0.36796643328E+03  0.36796643329E+03  0.25500000920E-02 0.  1.
    10030    2    1    2    0    0  0.00000000000E+00  0.00000000000E+00 -0.35146613832E+02  0.70078625274E+03  0.69990434173E+03 0.  0.
        2    1    3    3  502    0 -0.33221485755E+03  0.30457274216E+02 -0.12340495321E+03  0.35570091314E+03  0.25500000920E-02 0.  1.
       -2    1    3    3    0  502  0.33221485755E+03 -0.30457274216E+02  0.88258339377E+02  0.34508533960E+03  0.25500000920E-02 0. -1.
</event>
<event>
 5   0  0.1222679E-03  0.6985491E+03  0.7818609E-02  0.9719717E-01
       -2   -1    0    0    0  501  0.00000000000E+00  0.00000000000E+00  0.12403862196E+03  0.12403862198E+03  0.25500000920E-02 0. -1.
        2   -1    0    0  501    0  0.00000000000E+00  0.00000000000E+00 -0.98350599821E+03  0.98350599822E+03  0.25500000920E-02 0.  1.
    10030    2    1    2    0    0  0.00000000000E+00  0.00000000000E+00 -0.85946737626E+03  0.11075446202E+04  0.69854914995E+03 0.  0.
        2    1    3    3  502    0  0.17744060166E+03 -0.13389009749E+03 -0.85687910145E+03  0.88524206849E+03  0.25500000920E-02 0.  1.
       -2    1    3    3    0  502 -0.17744060166E+03  0.13389009749E+03 -0.25882748108E+01  0.22230255171E+03  0.25500000920E-02 0. -1.
</event>
<event>
 5   0  0.4936000E-04  0.7001182E+03  0.7818609E-02  0.9717030E-01
        4   -1    0    0  501    0  0.00000000000E+00  0.00000000000E+00  0.44213915433E+03  0.44214097830E+03  0.12699999809E+01 0.  1.
       -4   -1    0    0    0  501  0.00000000000E+00  0.00000000000E+00 -0.27715178474E+03  0.27715469450E+03  0.12699999809E+01 0. -1.
    10030    2    1    2    0    0  0.00000000000E+00  0.00000000000E+00  0.16498736959E+03  0.71929567280E+03  0.70011815630E+03 0.  0.
        2    1    3    3  502    0 -0.27081741270E+03 -0.19791035974E+03  0.18539084471E+03  0.38324971862E+03  0.25500000920E-02 0. -1.
       -2    1    3    3    0  502  0.27081741270E+03  0.19791035974E+03 -0.20403475119E+02  0.33604595418E+03  0.25500000920E-02 0.  1.
</event>
<event>
 5   0  0.1265562E-03  0.7000588E+03  0.7818609E-02  0.9717132E-01
       -2   -1    0    0    0  501  0.00000000000E+00  0.00000000000E+00  0.14827755001E+03  0.14827755003E+03  0.25500000920E-02 0. -1.
        2   -1    0    0  501    0  0.00000000000E+00  0.00000000000E+00 -0.82629227283E+03  0.82629227283E+03  0.25500000920E-02 0.  1.
    10030    2    1    2    0    0  0.00000000000E+00  0.00000000000E+00 -0.67801472282E+03  0.97456982287E+03  0.70005883702E+03 0.  0.
        1    1    3    3  502    0 -0.16463343410E+02  0.33139601502E+03 -0.49419180013E+03  0.59524776000E+03  0.50400001928E-02 0.  1.
       -1    1    3    3    0  502  0.16463343410E+02 -0.33139601502E+03 -0.18382292269E+03  0.37932206287E+03  0.50400001928E-02 0. -1.
</event>
<event>
 5   0  0.7013526E-04  0.6999252E+03  0.7818609E-02  0.9717360E-01
        1   -1    0    0  501    0  0.00000000000E+00  0.00000000000E+00  0.25833537349E+03  0.25833537353E+03  0.50400001928E-02 0.  1.
       -1   -1    0    0    0  501  0.00000000000E+00  0.00000000000E+00 -0.47408853374E+03  0.47408853377E+03  0.50400001928E-02 0. -1.
    10030    2    1    2    0    0  0.00000000000E+00  0.00000000000E+00 -0.21575316025E+03  0.73242390730E+03  0.69992524874E+03 0.  0.
        1    1    3    3  502    0 -0.17193978351E+03  0.22040827395E+03 -0.32820136362E+03  0.43111394258E+03  0.50400001928E-02 0. -1.
       -1    1    3    3    0  502  0.17193978351E+03 -0.22040827395E+03  0.11244820336E+03  0.30130996473E+03  0.50400001928E-02 0.  1.
</event>
<event>
 5   0  0.1243087E-03  0.6999253E+03  0.7818609E-02  0.9717360E-01
       -2   -1    0    0    0  501  0.00000000000E+00  0.00000000000E+00  0.13828596825E+03  0.13828596827E+03  0.25500000920E-02 0.  1.
        2   -1    0    0  501    0  0.00000000000E+00  0.00000000000E+00 -0.88565641646E+03  0.88565641646E+03  0.25500000920E-02 0. -1.
    10030    2    1    2    0    0  0.00000000000E+00  0.00000000000E+00 -0.74737044820E+03  0.10239423847E+04  0.69992529630E+03 0.  0.
        4    1    3    3  502    0  0.24738947943E+03 -0.17766629677E+03 -0.62582499143E+03  0.69600675309E+03  0.12699999809E+01 0. -1.
       -4    1    3    3    0  502 -0.24738947943E+03  0.17766629677E+03 -0.12154545677E+03  0.32793563165E+03  0.12699999809E+01 0.  1.
</event>
<event>
 5   0  0.1282546E-03  0.6999377E+03  0.7818609E-02  0.9717339E-01
       -2   -1    0    0    0  501  0.00000000000E+00  0.00000000000E+00  0.86238303837E+02  0.86238303874E+02  0.25500000920E-02 0. -1.
        2   -1    0    0  501    0  0.00000000000E+00  0.00000000000E+00 -0.14202297315E+04  0.14202297316E+04  0.25500000920E-02 0.  1.
    10030    2    1    2    0    0  0.00000000000E+00  0.00000000000E+00 -0.13339914277E+04  0.15064680354E+04  0.69993772048E+03 0.  0.
        5    1    3    3  502    0 -0.34424109365E+03  0.11763493366E+02 -0.79994728802E+03  0.87096387063E+03  0.46999998093E+01 0. -1.
       -5    1    3    3    0  502  0.34424109365E+03 -0.11763493366E+02 -0.53404413969E+03  0.63550416479E+03  0.46999998093E+01 0.  1.
</event>
<event>
 5   0  0.1224048E-03  0.6989837E+03  0.7818609E-02  0.9718972E-01
        2   -1    0    0  501    0  0.00000000000E+00  0.00000000000E+00  0.54020111628E+03  0.54020111628E+03  0.25500000920E-02 0. -1.
       -2   -1    0    0    0  501  0.00000000000E+00  0.00000000000E+00 -0.22610937711E+03  0.22610937713E+03  0.25500000920E-02 0.  1.
    10030    2    1    2    0    0  0.00000000000E+00  0.00000000000E+00  0.31409173916E+03  0.76631049341E+03  0.69898365625E+03 0.  0.
        3    1    3    3  502    0 -0.32338259961E+03  0.88120311317E+02  0.26559290774E+03  0.42764599594E+03  0.10100000352E+00 0. -1.
       -3    1    3    3    0  502  0.32338259961E+03 -0.88120311317E+02  0.48498831427E+02  0.33866449748E+03  0.10100000352E+00 0.  1.
</event>
<event>
 5   0  0.7013526E-04  0.7002821E+03  0.7818609E-02  0.9716750E-01
       -1   -1    0    0    0  501  0.00000000000E+00  0.00000000000E+00  0.57465676778E+03  0.57465676780E+03  0.50400001928E-02 0. -1.
        1   -1    0    0  501    0  0.00000000000E+00  0.00000000000E+00 -0.21334257681E+03  0.21334257687E+03  0.50400001928E-02 0.  1.
    10030    2    1    2    0    0  0.00000000000E+00  0.00000000000E+00  0.36131419097E+03  0.78799934467E+03  0.70028210215E+03 0.  0.
        1    1    3    3  502    0  0.27116593851E+03  0.21676509436E+03  0.23198526994E+03  0.41753471453E+03  0.50400001928E-02 0.  1.
       -1    1    3    3    0  502 -0.27116593851E+03 -0.21676509436E+03  0.12932892102E+03  0.37046463013E+03  0.50400001928E-02 0. -1.
</event>
<event>
 5   0  0.4936000E-04  0.7000234E+03  0.7818609E-02  0.9717192E-01
        4   -1    0    0  501    0  0.00000000000E+00  0.00000000000E+00  0.20893038618E+03  0.20893424604E+03  0.12699999809E+01 0.  1.
       -4   -1    0    0    0  501  0.00000000000E+00  0.00000000000E+00 -0.58634894043E+03  0.58635031581E+03  0.12699999809E+01 0. -1.
    10030    2    1    2    0    0  0.00000000000E+00  0.00000000000E+00 -0.37741855425E+03  0.79528456185E+03  0.70002340620E+03 0.  0.
        1    1    3    3  502    0  0.19593188591E+03  0.85973262829E+02 -0.50340111301E+03  0.54698572783E+03  0.50400001928E-02 0. -1.
       -1    1    3    3    0  502 -0.19593188591E+03 -0.85973262829E+02  0.12598255876E+03  0.24829883402E+03  0.50400001928E-02 0.  1.
</event>
<event>
 5   0  0.7459843E-04  0.6998927E+03  0.7818609E-02  0.9717416E-01
       -1   -1    0    0    0  501  0.00000000000E+00  0.00000000000E+00  0.14337015268E+03  0.14337015277E+03  0.50400001928E-02 0. -1.
        1   -1    0    0  501    0  0.00000000000E+00  0.00000000000E+00 -0.85416970957E+03  0.85416970958E+03  0.50400001928E-02 0.  1.
    10030    2    1    2    0    0  0.00000000000E+00  0.00000000000E+00 -0.71079955689E+03  0.99753986235E+03  0.69989268242E+03 0.  0.
        2    1    3    3  502    0 -0.13585732524E+03  0.13307783104E+03 -0.77409010883E+03  0.79710878714E+03  0.25500000920E-02 0.  1.
       -2    1    3    3    0  502  0.13585732524E+03 -0.13307783104E+03  0.63290551946E+02  0.20043107521E+03  0.25500000920E-02 0. -1.
</event>
<event>
 5   0  0.1222679E-03  0.7000734E+03  0.7818609E-02  0.9717107E-01
       -2   -1    0    0    0  501  0.00000000000E+00  0.00000000000E+00  0.86167352545E+02  0.86167352583E+02  0.25500000920E-02 0.  1.
        2   -1    0    0  501    0  0.00000000000E+00  0.00000000000E+00 -0.14219503028E+04  0.14219503028E+04  0.25500000920E-02 0. -1.
    10030    2    1    2    0    0  0.00000000000E+00  0.00000000000E+00 -0.13357829502E+04  0.15081176554E+04  0.70007340493E+03 0.  0.
        2    1    3    3  502    0  0.21180455632E+03 -0.23380007629E+03 -0.34117209917E+03  0.46467412991E+03  0.25500000920E-02 0.  1.
       -2    1    3    3    0  502 -0.21180455632E+03  0.23380007629E+03 -0.99461085107E+03  0.10434435255E+04  0.25500000920E-02 0. -1.
</event>
<event>
 5   0  0.1243087E-03  0.6998908E+03  0.7818609E-02  0.9717419E-01
       -2   -1    0    0    0  501  0.00000000000E+00  0.00000000000E+00  0.56495958406E+03  0.56495958407E+03  0.25500000920E-02 0. -1.
        2   -1    0    0  501    0  0.00000000000E+00  0.00000000000E+00 -0.21676200392E+03  0.21676200393E+03  0.25500000920E-02 0.  1.
    10030    2    1    2    0    0  0.00000000000E+00  0.00000000000E+00  0.34819758015E+03  0.78172158800E+03  0.69989076742E+03 0.  0.
        4    1    3    3  502    0 -0.93026828842E+02  0.12704569937E+03  0.52315274171E+03  0.54633781186E+03  0.12699999809E+01 0. -1.
       -4    1    3    3    0  502  0.93026828842E+02 -0.12704569937E+03 -0.17495516156E+03  0.23538377614E+03  0.12699999809E+01 0.  1.
</event>
<event>
 5   0  0.1282546E-03  0.7001193E+03  0.7818609E-02  0.9717028E-01
        2   -1    0    0  501    0  0.00000000000E+00  0.00000000000E+00  0.71957766269E+02  0.71957766314E+02  0.25500000920E-02 0. -1.
       -2   -1    0    0    0  501  0.00000000000E+00  0.00000000000E+00 -0.17029677585E+04  0.17029677585E+04  0.25500000920E-02 0.  1.
    10030    2    1    2    0    0  0.00000000000E+00  0.00000000000E+00 -0.16310099922E+04  0.17749255248E+04  0.70011929261E+03 0.  0.
        5    1    3    3  502    0 -0.11269960376E+03  0.16173254670E+03 -0.82225162192E+02  0.21363914586E+03  0.46999998093E+01 0. -1.
       -5    1    3    3    0  502  0.11269960376E+03 -0.16173254670E+03 -0.15487848300E+04  0.15612863789E+04  0.46999998093E+01 0.  1.
</event>
<event>
 5   0  0.7572415E-04  0.6998125E+03  0.7818609E-02  0.9717553E-01
        1   -1    0    0  501    0  0.00000000000E+00  0.00000000000E+00  0.71687736063E+03  0.71687736065E+03  0.50400001928E-02 0.  1.
       -1   -1    0    0    0  501  0.00000000000E+00  0.00000000000E+00 -0.17078848121E+03  0.17078848128E+03  0.50400001928E-02 0. -1.
    10030    2    1    2    0    0  0.00000000000E+00  0.00000000000E+00  0.54608887943E+03  0.88766584194E+03  0.69981253397E+03 0.  0.
        4    1    3    3  502    0 -0.20780203728E+02  0.19813657684E+03 -0.91821280958E+02  0.21936882296E+03  0.12699999809E+01 0. -1.
       -4    1    3    3    0  502  0.20780203728E+02 -0.19813657684E+03  0.63791016038E+03  0.66829701897E+03  0.12699999809E+01 0.  1.
</event>
<event>
 5   0  0.7572415E-04  0.7000365E+03  0.7818609E-02  0.9717170E-01
        1   -1    0    0  501    0  0.00000000000E+00  0.00000000000E+00  0.38070111353E+03  0.38070111357E+03  0.50400001928E-02 0.  1.
       -1   -1    0    0    0  501  0.00000000000E+00  0.00000000000E+00 -0.32180829894E+03  0.32180829898E+03  0.50400001928E-02 0. -1.
    10030    2    1    2    0    0  0.00000000000E+00  0.00000000000E+00  0.58892814597E+02  0.70250941254E+03  0.70003650698E+03 0.  0.
        4    1    3    3  502    0  0.33705918220E+03 -0.28198035573E+02  0.11980415247E+03  0.35882958262E+03  0.12699999809E+01 0.  1.
       -4    1    3    3    0  502 -0.33705918220E+03  0.28198035573E+02 -0.60911337874E+02  0.34367982992E+03  0.12699999809E+01 0. -1.
</event>
<event>
 5   0  0.1222679E-03  0.7001184E+03  0.7818609E-02  0.9717030E-01
        2   -1    0    0  501    0  0.00000000000E+00  0.00000000000E+00  0.49737258965E+03  0.49737258966E+03  0.25500000920E-02 0. -1.
       -2   -1    0    0    0  501  0.00000000000E+00  0.00000000000E+00 -0.24637752602E+03  0.24637752603E+03  0.25500000920E-02 0.  1.
    10030    2    1    2    0    0  0.00000000000E+00  0.00000000000E+00  0.25099506363E+03  0.74375011569E+03  0.70011835616E+03 0.  0.
        2    1    3    3  502    0  0.32230831338E+03 -0.23374997560E+02 -0.17471984379E+02  0.32362680610E+03  0.25500000920E-02 0.  1.
       -2    1    3    3    0  502 -0.32230831338E+03  0.23374997560E+02  0.26846704801E+03  0.42012330959E+03  0.25500000920E-02 0. -1.
</event>
<event>
 5   0  0.1265562E-03  0.6999398E+03  0.7818609E-02  0.9717335E-01
       -2   -1    0    0    0  501  0.00000000000E+00  0.00000000000E+00  0.27330699669E+03  0.27330699670E+03  0.25500000920E-02 0. -1.
        2   -1    0    0  501    0  0.00000000000E+00  0.00000000000E+00 -0.44813679249E+03  0.44813679250E+03  0.25500000920E-02 0.  1.
    10030    2    1    2    0    0  0.00000000000E+00  0.00000000000E+00 -0.17482979580E+03  0.72144378920E+03  0.69993977132E+03 0.  0.
        1    1    3    3  502    0 -0.11451189141E+03  0.33061003675E+03 -0.95592834123E+02  0.36270368021E+03  0.50400001928E-02 0. -1.
       -1    1    3    3    0  502  0.11451189141E+03 -0.33061003675E+03 -0.79236961678E+02  0.35874010899E+03  0.50400001928E-02 0.  1.
</event>
<event>
 5   0  0.1265562E-03  0.6996972E+03  0.7818609E-02  0.9717750E-01
        2   -1    0    0  501    0  0.00000000000E+00  0.00000000000E+00  0.10891169598E+04  0.10891169598E+04  0.25500000920E-02 0. -1.
       -2   -1    0    0    0  501  0.00000000000E+00  0.00000000000E+00 -0.11237915490E+03  0.11237915493E+03  0.25500000920E-02 0.  1.
    10030    2    1    2    0    0  0.00000000000E+00  0.00000000000E+00  0.97673780493E+03  0.12014961148E+04  0.69969720179E+03 0.  0.
        1    1    3    3  502    0 -0.82204902811E+02  0.33964209111E+03  0.51708448610E+03  0.62409194986E+03  0.50400001928E-02 0.  1.
       -1    1    3    3    0  502  0.82204902811E+02 -0.33964209111E+03  0.45965331883E+03  0.57740416489E+03  0.50400001928E-02 0. -1.
</event>
<event>
 5   0  0.7459843E-04  0.6997584E+03  0.7818609E-02  0.9717645E-01
       -1   -1    0    0    0  501  0.00000000000E+00  0.00000000000E+00  0.12711114968E+03  0.12711114978E+03  0.50400001928E-02 0.  1.
        1   -1    0    0  501    0  0.00000000000E+00  0.00000000000E+00 -0.96305842972E+03  0.96305842973E+03  0.50400001928E-02 0. -1.
    10030    2    1    2    0    0  0.00000000000E+00  0.00000000000E+00 -0.83594728004E+03  0.10901695795E+04  0.69975842766E+03 0.  0.
        2    1    3    3  502    0 -0.17826473159E+03 -0.21927359075E+03 -0.73936008604E+03  0.79152546324E+03  0.25500000920E-02 0. -1.
       -2    1    3    3    0  502  0.17826473159E+03  0.21927359075E+03 -0.96587194003E+02  0.29864411627E+03  0.25500000920E-02 0.  1.
</event>
<event>
 5   0  0.1282546E-03  0.6999820E+03  0.7818609E-02  0.9717263E-01
        2   -1    0    0  501    0  0.00000000000E+00  0.00000000000E+00  0.11023933834E+04  0.11023933834E+04  0.25500000920E-02 0. -1.
       -2   -1    0    0    0  501  0.00000000000E+00  0.00000000000E+00 -0.11111612881E+03  0.11111612884E+03  0.25500000920E-02 0.  1.
    10030    2    1    2    0    0  0.00000000000E+00  0.00000000000E+00  0.99127725457E+03  0.12135095122E+04  0.69998195749E+03 0.  0.
        5    1    3    3  502    0 -0.15589965597E+03 -0.85045491441E+02  0.10184197068E+04  0.10337979626E+04  0.46999998093E+01 0. -1.
       -5    1    3    3    0  502  0.15589965597E+03  0.85045491441E+02 -0.27142452218E+02  0.17971154959E+03  0.46999998093E+01 0.  1.
</event>
<event>
 5   0  0.7572415E-04  0.6998678E+03  0.7818609E-02  0.9717458E-01
       -1   -1    0    0    0  501  0.00000000000E+00  0.00000000000E+00  0.79667158765E+02  0.79667158925E+02  0.50400001928E-02 0. -1.
        1   -1    0    0  501    0  0.00000000000E+00  0.00000000000E+00 -0.15370668418E+04  0.15370668418E+04  0.50400001928E-02 0.  1.
    10030    2    1    2    0    0  0.00000000000E+00  0.00000000000E+00 -0.14573996830E+04  0.16167340007E+04  0.69986783967E+03 0.  0.
        4    1    3    3  502    0  0.24095556000E+03 -0.23277924462E+03 -0.49532269149E+03  0.59798991649E+03  0.12699999809E+01 0.  1.
       -4    1    3    3    0  502 -0.24095556000E+03  0.23277924462E+03 -0.96207699150E+03  0.10187440842E+04  0.12699999809E+01 0. -1.
</event>
<event>
 5   0  0.7013526E-04  0.7000995E+03  0.7818609E-02  0.9717062E-01
       -1   -1    0    0    0  501  0.00000000000E+00  0.00000000000E+00  0.11728142074E+03  0.11728142084E+03  0.50400001928E-02 0. -1.
        1   -1    0    0  501    0  0.00000000000E+00  0.00000000000E+00 -0.10447931671E+04  0.10447931671E+04  0.50400001928E-02 0.  1.
    10030    2    1    2    0    0  0.00000000000E+00  0.00000000000E+00 -0.92751174634E+03  0.11620745879E+04  0.70009949887E+03 0.  0.
        1    1    3    3  502    0  0.10958631055E+03 -0.21054287436E+03 -0.36690272870E+02  0.24017418169E+03  0.50400001928E-02 0. -1.
       -1    1    3    3    0  502 -0.10958631055E+03  0.21054287436E+03 -0.89082147347E+03  0.92190040624E+03  0.50400001928E-02 0.  1.
</event>
<event>
 5   0  0.7013526E-04  0.6999835E+03  0.7818609E-02  0.9717260E-01
        1   -1    0    0  501    0  0.00000000000E+00  0.00000000000E+00  0.96793436223E+03  0.96793436224E+03  0.50400001928E-02 0.  1.
       -1   -1    0    0    0  501  0.00000000000E+00  0.00000000000E+00 -0.12655218924E+03  0.12655218934E+03  0.50400001928E-02 0. -1.
    10030    2    1    2    0    0  0.00000000000E+00  0.00000000000E+00  0.84138217298E+03  0.10944865516E+04  0.69998346450E+03 0.  0.
        1    1    3    3  502    0  0.25349421383E+03 -0.73256167544E+02  0.78020926591E+03  0.82362144287E+03  0.50400001928E-02 0.  1.
       -1    1    3    3    0  502 -0.25349421383E+03  0.73256167544E+02  0.61172907077E+02  0.27086510871E+03  0.50400001928E-02 0. -1.
</event>
<event>
 5   0  0.4936000E-04  0.6997804E+03  0.7818609E-02  0.9717608E-01
        4   -1    0    0  501    0  0.00000000000E+00  0.00000000000E+00  0.23630629318E+03  0.23630970589E+03  0.12699999809E+01 0.  1.
       -4   -1    0    0    0  501  0.00000000000E+00  0.00000000000E+00 -0.51806181761E+03  0.51806337427E+03  0.12699999809E+01 0. -1.
    10030    2    1    2    0    0  0.00000000000E+00  0.00000000000E+00 -0.28175552443E+03  0.75437308016E+03  0.69978037164E+03 0.  0.
        5    1    3    3  502    0 -0.14628107106E+03 -0.28166116625E+03  0.17813405908E+02  0.31791598222E+03  0.46999998093E+01 0.  1.
       -5    1    3    3    0  502  0.14628107106E+03  0.28166116625E+03 -0.29956893033E+03  0.43645709794E+03  0.46999998093E+01 0. -1.
</event>
<event>
 5   0  0.4936000E-04  0.7002522E+03  0.7818609E-02  0.9716801E-01
       -3   -1    0    0    0  501  0.00000000000E+00  0.00000000000E+00  0.49083959188E+03  0.49083960227E+03  0.10100000352E+00 0. -1.
        3   -1    0    0  501    0  0.00000000000E+00  0.00000000000E+00 -0.24975220364E+03  0.24975222406E+03  0.10100000352E+00 0.  1.
    10030    2    1    2    0    0  0.00000000000E+00  0.00000000000E+00  0.24108738824E+03  0.74059182634E+03  0.70025218634E+03 0.  0.
        1    1    3    3  502    0  0.19582124223E+03  0.11971194657E+03 -0.15909570085E+03  0.27926394524E+03  0.50400001928E-02 0.  1.
       -1    1    3    3    0  502 -0.19582124223E+03 -0.11971194657E+03  0.40018308908E+03  0.46132788109E+03  0.50400001928E-02 0. -1.
</event>
<event>
 5   0  0.7013526E-04  0.7005797E+03  0.7818609E-02  0.9716241E-01
        1   -1    0    0  501    0  0.00000000000E+00  0.00000000000E+00  0.47661627346E+03  0.47661627348E+03  0.50400001928E-02 0. -1.
       -1   -1    0    0    0  501  0.00000000000E+00  0.00000000000E+00 -0.25744606974E+03  0.25744606979E+03  0.50400001928E-02 0.  1.
    10030    2    1    2    0    0  0.00000000000E+00  0.00000000000E+00  0.21917020372E+03  0.73406234327E+03  0.70057972110E+03 0.  0.
        1    1    3    3  502    0  0.21874595293E+03  0.27133899381E+03  0.72862322287E+02  0.35606679081E+03  0.50400001928E-02 0.  1.
       -1    1    3    3    0  502 -0.21874595293E+03 -0.27133899381E+03  0.14630788143E+03  0.37799555246E+03  0.50400001928E-02 0. -1.
</event>
<event>
 5   0  0.1224048E-03  0.7002487E+03  0.7818609E-02  0.9716807E-01
        2   -1    0    0  501    0  0.00000000000E+00  0.00000000000E+00  0.62139067908E+03  0.62139067908E+03  0.25500000920E-02 0.  1.
       -2   -1    0    0    0  501  0.00000000000E+00  0.00000000000E+00 -0.19727854558E+03  0.19727854559E+03  0.25500000920E-02 0. -1.
    10030    2    1    2    0    0  0.00000000000E+00  0.00000000000E+00  0.42411213350E+03  0.81866922467E+03  0.70024866844E+03 0.  0.
        3    1    3    3  502    0 -0.30383390071E+03 -0.14773560236E+03  0.10461095983E+03  0.35367260361E+03  0.10100000352E+00 0. -1.
       -3    1    3    3    0  502  0.30383390071E+03  0.14773560236E+03  0.31950117367E+03  0.46499662107E+03  0.10100000352E+00 0.  1.
</event>
<event>
 5   0  0.7013526E-04  0.7000058E+03  0.7818609E-02  0.9717222E-01
       -1   -1    0    0    0  501  0.00000000000E+00  0.00000000000E+00  0.36479257152E+03  0.36479257156E+03  0.50400001928E-02 0. -1.
        1   -1    0    0  501    0  0.00000000000E+00  0.00000000000E+00 -0.33581286862E+03  0.33581286866E+03  0.50400001928E-02 0.  1.
    10030    2    1    2    0    0  0.00000000000E+00  0.00000000000E+00  0.28979702899E+02  0.70060544022E+03  0.70000582832E+03 0.  0.
        1    1    3    3  502    0  0.24292817206E+03 -0.20833269795E+03 -0.12735462122E+03  0.34443549379E+03  0.50400001928E-02 0.  1.
       -1    1    3    3    0  502 -0.24292817206E+03  0.20833269795E+03  0.15633432412E+03  0.35616994643E+03  0.50400001928E-02 0. -1.
</event>
<event>
 5   0  0.1243087E-03  0.7008889E+03  0.7818609E-02  0.9715713E-01
        2   -1    0    0  501    0  0.00000000000E+00  0.00000000000E+00  0.71107162805E+03  0.71107162805E+03  0.25500000920E-02 0. -1.
       -2   -1    0    0    0  501  0.00000000000E+00  0.00000000000E+00 -0.17271299917E+03  0.17271299919E+03  0.25500000920E-02 0.  1.
    10030    2    1    2    0    0  0.00000000000E+00  0.00000000000E+00  0.53835862887E+03  0.88378462725E+03  0.70088890280E+03 0.  0.
        4    1    3    3  502    0 -0.24469334071E+03  0.17592976245E+03  0.49468674288E+03  0.57926047577E+03  0.12699999809E+01 0. -1.
       -4    1    3    3    0  502  0.24469334071E+03 -0.17592976245E+03  0.43671885994E+02  0.30452415148E+03  0.12699999809E+01 0.  1.
</event>
<event>
 5   0  0.1224048E-03  0.6978337E+03  0.7818609E-02  0.9720944E-01
       -2   -1    0    0    0  501  0.00000000000E+00  0.00000000000E+00  0.54649134462E+03  0.54649134463E+03  0.25500000920E-02 0. -1.
        2   -1    0    0  501    0  0.00000000000E+00  0.00000000000E+00 -0.22277199646E+03  0.22277199648E+03  0.25500000920E-02 0.  1.
    10030    2    1    2    0    0  0.00000000000E+00  0.00000000000E+00  0.32371934816E+03  0.76926334110E+03  0.69783369910E+03 0.  0.
        3    1    3    3  502    0 -0.13920926661E+03  0.23779147866E+03  0.39782362929E+03  0.48392939305E+03  0.10100000352E+00 0. -1.
       -3    1    3    3    0  502  0.13920926661E+03 -0.23779147866E+03 -0.74104281129E+02  0.28533394806E+03  0.10100000352E+00 0.  1.
</event>
<event>
 5   0  0.1222679E-03  0.6990674E+03  0.7818609E-02  0.9718828E-01
       -2   -1    0    0    0  501  0.00000000000E+00  0.00000000000E+00  0.70505652416E+02  0.70505652462E+02  0.25500000920E-02 0.  1.
        2   -1    0    0  501    0  0.00000000000E+00  0.00000000000E+00 -0.17328227502E+04  0.17328227502E+04  0.25500000920E-02 0. -1.
    10030    2    1    2    0    0  0.00000000000E+00  0.00000000000E+00 -0.16623170978E+04  0.18033284027E+04  0.69906737464E+03 0.  0.
        2    1    3    3  502    0  0.21961262927E+03  0.72702094058E+02 -0.15070904368E+04  0.15247415801E+04  0.25500000920E-02 0. -1.
       -2    1    3    3    0  502 -0.21961262927E+03 -0.72702094058E+02 -0.15522666100E+03  0.27858682257E+03  0.25500000920E-02 0.  1.
</event>
<event>
 5   0  0.7570633E-04  0.6999794E+03  0.7818609E-02  0.9717267E-01
       -1   -1    0    0    0  501  0.00000000000E+00  0.00000000000E+00  0.10214117278E+03  0.10214117290E+03  0.50400001928E-02 0.  1.
        1   -1    0    0  501    0  0.00000000000E+00  0.00000000000E+00 -0.11992500156E+04  0.11992500156E+04  0.50400001928E-02 0. -1.
    10030    2    1    2    0    0  0.00000000000E+00  0.00000000000E+00 -0.10971088428E+04  0.13013911885E+04  0.69997943722E+03 0.  0.
        5    1    3    3  502    0  0.12509331542E+03 -0.26405589331E+03 -0.19046527345E+03  0.34881651730E+03  0.46999998093E+01 0.  1.
       -5    1    3    3    0  502 -0.12509331542E+03  0.26405589331E+03 -0.90664356938E+03  0.95257467122E+03  0.46999998093E+01 0. -1.
</event>
<event>
 5   0  0.7013526E-04  0.6999955E+03  0.7818609E-02  0.9717240E-01
       -1   -1    0    0    0  501  0.00000000000E+00  0.00000000000E+00  0.25171285524E+03  0.25171285529E+03  0.50400001928E-02 0. -1.
        1   -1    0    0  501    0  0.00000000000E+00  0.00000000000E+00 -0.48665941581E+03  0.48665941583E+03  0.50400001928E-02 0.  1.
    10030    2    1    2    0    0  0.00000000000E+00  0.00000000000E+00 -0.23494656056E+03  0.73837227113E+03  0.69999551745E+03 0.  0.
        1    1    3    3  502    0 -0.39634028355E+02  0.19335208154E+03 -0.42235681921E+03  0.46619863406E+03  0.50400001928E-02 0.  1.
       -1    1    3    3    0  502  0.39634028355E+02 -0.19335208154E+03  0.18741025865E+03  0.27217363707E+03  0.50400001928E-02 0. -1.
</event>
<event>
 5   0  0.1243087E-03  0.7019674E+03  0.7818609E-02  0.9713874E-01
       -2   -1    0    0    0  501  0.00000000000E+00  0.00000000000E+00  0.12657901938E+03  0.12657901941E+03  0.25500000920E-02 0.  1.
        2   -1    0    0  501    0  0.00000000000E+00  0.00000000000E+00 -0.97322264705E+03  0.97322264705E+03  0.25500000920E-02 0. -1.
    10030    2    1    2    0    0  0.00000000000E+00  0.00000000000E+00 -0.84664362766E+03  0.10998016665E+04  0.70196743036E+03 0.  0.
        4    1    3    3  502    0 -0.14498896129E+03 -0.83349819001E+02 -0.90678024396E+03  0.92207430013E+03  0.12699999809E+01 0. -1.
       -4    1    3    3    0  502  0.14498896129E+03  0.83349819001E+02  0.60136616292E+02  0.17772736633E+03  0.12699999809E+01 0.  1.
</event>
<event>
 5   0  0.1243087E-03  0.7000285E+03  0.7818609E-02  0.9717183E-01
        2   -1    0    0  501    0  0.00000000000E+00  0.00000000000E+00  0.15554759402E+04  0.15554759402E+04  0.25500000920E-02 0.  1.
       -2   -1    0    0    0  501  0.00000000000E+00  0.00000000000E+00 -0.78760453323E+02  0.78760453364E+02  0.25500000920E-02 0. -1.
    10030    2    1    2    0    0  0.00000000000E+00  0.00000000000E+00  0.14767154869E+04  0.16342363936E+04  0.70002854290E+03 0.  0.
        4    1    3    3  502    0  0.21663601293E+03 -0.24753903319E+03  0.10175427460E+04  0.10693930933E+04  0.12699999809E+01 0. -1.
       -4    1    3    3    0  502 -0.21663601293E+03  0.24753903319E+03  0.45917274088E+03  0.56484330032E+03  0.12699999809E+01 0.  1.
</event>
<event>
 5   0  0.1282546E-03  0.7000612E+03  0.7818609E-02  0.9717128E-01
        2   -1    0    0  501    0  0.00000000000E+00  0.00000000000E+00  0.53062543754E+03  0.53062543754E+03  0.25500000920E-02 0. -1.
       -2   -1    0    0    0  501  0.00000000000E+00  0.00000000000E+00 -0.23090002316E+03  0.23090002318E+03  0.25500000920E-02 0.  1.
    10030    2    1    2    0    0  0.00000000000E+00  0.00000000000E+00  0.29972541437E+03  0.76152546072E+03  0.70006121397E+03 0.  0.
        5    1    3    3  502    0  0.34451804994E+03 -0.37701539328E+02  0.96735776230E+02  0.35985273822E+03  0.46999998093E+01 0.  1.
       -5    1    3    3    0  502 -0.34451804994E+03  0.37701539328E+02  0.20298963814E+03  0.40167272250E+03  0.46999998093E+01 0. -1.
</event>
<event>
 5   0  0.1224048E-03  0.6998207E+03  0.7818609E-02  0.9717539E-01
       -2   -1    0    0    0  501  0.00000000000E+00  0.00000000000E+00  0.43933769488E+03  0.43933769488E+03  0.25500000920E-02 0. -1.
        2   -1    0    0  501    0  0.00000000000E+00  0.00000000000E+00 -0.27868594920E+03  0.27868594921E+03  0.25500000920E-02 0.  1.
    10030    2    1    2    0    0  0.00000000000E+00  0.00000000000E+00  0.16065174568E+03  0.71802364409E+03  0.69982066995E+03 0.  0.
        3    1    3    3  502    0 -0.34015129574E+03 -0.25594920441E+02  0.16032333489E+03  0.37691058072E+03  0.10100000352E+00 0.  1.
       -3    1    3    3    0  502  0.34015129574E+03  0.25594920441E+02  0.32841079109E+00  0.34111306337E+03  0.10100000352E+00 0. -1.
</event>
<event>
 5   0  0.4936000E-04  0.6999189E+03  0.7818609E-02  0.9717371E-01
        3   -1    0    0  501    0  0.00000000000E+00  0.00000000000E+00  0.15518481682E+03  0.15518484969E+03  0.10100000352E+00 0. -1.
       -3   -1    0    0    0  501  0.00000000000E+00  0.00000000000E+00 -0.78919833963E+03  0.78919834610E+03  0.10100000352E+00 0.  1.
    10030    2    1    2    0    0  0.00000000000E+00  0.00000000000E+00 -0.63401352281E+03  0.94438319579E+03  0.69991890486E+03 0.  0.
        3    1    3    3  502    0 -0.15472593724E+03 -0.19669152770E+03  0.13066693893E+02  0.25059613208E+03  0.10100000352E+00 0. -1.
       -3    1    3    3    0  502  0.15472593724E+03  0.19669152770E+03 -0.64708021670E+03  0.69378706371E+03  0.10100000352E+00 0.  1.
</event>
<event>
 5   0  0.1243087E-03  0.6998622E+03  0.7818609E-02  0.9717468E-01
       -2   -1    0    0    0  501  0.00000000000E+00  0.00000000000E+00  0.31981057661E+03  0.31981057662E+03  0.25500000920E-02 0. -1.
        2   -1    0    0  501    0  0.00000000000E+00  0.00000000000E+00 -0.38288840899E+03  0.38288840900E+03  0.25500000920E-02 0.  1.
    10030    2    1    2    0    0  0.00000000000E+00  0.00000000000E+00 -0.63077832375E+02  0.70269898562E+03  0.69986216604E+03 0.  0.
        4    1    3    3  502    0  0.31796750112E+03 -0.47437595884E+02 -0.17028911547E+03  0.36380441589E+03  0.12699999809E+01 0.  1.
       -4    1    3    3    0  502 -0.31796750112E+03  0.47437595884E+02  0.10721128310E+03  0.33889456973E+03  0.12699999809E+01 0. -1.
</event>
<event>
 5   0  0.4936000E-04  0.6999735E+03  0.7818609E-02  0.9717278E-01
        3   -1    0    0  501    0  0.00000000000E+00  0.00000000000E+00  0.55273545985E+03  0.55273546908E+03  0.10100000352E+00 0.  1.
       -3   -1    0    0    0  501  0.00000000000E+00  0.00000000000E+00 -0.22160818233E+03  0.22160820535E+03  0.10100000352E+00 0. -1.
    10030    2    1    2    0    0  0.00000000000E+00  0.00000000000E+00  0.33112727752E+03  0.77434367442E+03  0.69997346536E+03 0.  0.
        1    1    3    3  502    0 -0.15850983938E+03 -0.15525560047E+02 -0.17919577269E+03  0.23974473335E+03  0.50400001928E-02 0. -1.
       -1    1    3    3    0  502  0.15850983938E+03  0.15525560047E+02  0.51032305021E+03  0.53459894107E+03  0.50400001928E-02 0.  1.
</event>
<event>
 5   0  0.7570633E-04  0.6998040E+03  0.7818609E-02  0.9717567E-01
        1   -1    0    0  501    0  0.00000000000E+00  0.00000000000E+00  0.17034889951E+04  0.17034889951E+04  0.50400001928E-02 0. -1.
       -1   -1    0    0    0  501  0.00000000000E+00  0.00000000000E+00 -0.71870966157E+02  0.71870966334E+02  0.50400001928E-02 0.  1.
    10030    2    1    2    0    0  0.00000000000E+00  0.00000000000E+00  0.16316180290E+04  0.17753599615E+04  0.69980397278E+03 0.  0.
        5    1    3    3  502    0  0.28677509759E+02 -0.47314619552E+02 -0.60622574253E+02  0.82208632738E+02  0.46999998093E+01 0.  1.
       -5    1    3    3    0  502 -0.28677509759E+02  0.47314619552E+02  0.16922406032E+04  0.16931513287E+04  0.46999998093E+01 0. -1.
</event>
<event>
 5   0  0.7459843E-04  0.7003655E+03  0.7818609E-02  0.9716607E-01
        1   -1    0    0  501    0  0.00000000000E+00  0.00000000000E+00  0.19548616890E+03  0.19548616896E+03  0.50400001928E-02 0.  1.
       -1   -1    0    0    0  501  0.00000000000E+00  0.00000000000E+00 -0.62729742662E+03  0.62729742664E+03  0.50400001928E-02 0. -1.
    10030    2    1    2    0    0  0.00000000000E+00  0.00000000000E+00 -0.43181125772E+03  0.82278359560E+03  0.70036553520E+03 0.  0.
        2    1    3    3  502    0  0.15808318658E+03 -0.29218259109E+03 -0.85789772958E+02  0.34310471516E+03  0.25500000920E-02 0. -1.
       -2    1    3    3    0  502 -0.15808318658E+03  0.29218259109E+03 -0.34602148476E+03  0.47967888044E+03  0.25500000920E-02 0.  1.
</event>
<event>
 5   0  0.4936000E-04  0.7000330E+03  0.7818609E-02  0.9717176E-01
        3   -1    0    0  501    0  0.00000000000E+00  0.00000000000E+00  0.15465609357E+03  0.15465612655E+03  0.10100000352E+00 0.  1.
       -3   -1    0    0    0  501  0.00000000000E+00  0.00000000000E+00 -0.79215468106E+03  0.79215468750E+03  0.10100000352E+00 0. -1.
    10030    2    1    2    0    0  0.00000000000E+00  0.00000000000E+00 -0.63749858749E+03  0.94681081404E+03  0.70003304817E+03 0.  0.
        4    1    3    3  502    0 -0.20534919057E+03  0.23215045654E+03 -0.98791332242E+02  0.32530518712E+03  0.12699999809E+01 0.  1.
       -4    1    3    3    0  502  0.20534919057E+03 -0.23215045654E+03 -0.53870725525E+03  0.62150562692E+03  0.12699999809E+01 0. -1.
</event>
<event>
 5   0  0.1243087E-03  0.7007647E+03  0.7818609E-02  0.9715925E-01
       -2   -1    0    0    0  501  0.00000000000E+00  0.00000000000E+00  0.81810500356E+02  0.81810500396E+02  0.25500000920E-02 0. -1.
        2   -1    0    0  501    0  0.00000000000E+00  0.00000000000E+00 -0.15006361227E+04  0.15006361227E+04  0.25500000920E-02 0.  1.
    10030    2    1    2    0    0  0.00000000000E+00  0.00000000000E+00 -0.14188256224E+04  0.15824466231E+04  0.70076470256E+03 0.  0.
        4    1    3    3  502    0 -0.52202238010E+02 -0.55423002207E+02 -0.14817251545E+04  0.14836805011E+04  0.12699999809E+01 0.  1.
       -4    1    3    3    0  502  0.52202238010E+02  0.55423002207E+02  0.62899532130E+02  0.98766122072E+02  0.12699999809E+01 0. -1.
</event>
<event>
 5   0  0.1224048E-03  0.6998605E+03  0.7818609E-02  0.9717471E-01
        2   -1    0    0  501    0  0.00000000000E+00  0.00000000000E+00  0.10857791039E+04  0.10857791039E+04  0.25500000920E-02 0. -1.
       -2   -1    0    0    0  501  0.00000000000E+00  0.00000000000E+00 -0.11277723653E+03  0.11277723656E+03  0.25500000920E-02 0.  1.
    10030    2    1    2    0    0  0.00000000000E+00  0.00000000000E+00  0.97300186737E+03  0.11985563405E+04  0.69986046278E+03 0.  0.
        3    1    3    3  502    0 -0.94520107265E+02  0.10588827464E+02  0.10632183441E+04  0.10674640187E+04  0.10100000352E+00 0. -1.
       -3    1    3    3    0  502  0.94520107265E+02 -0.10588827464E+02 -0.90216476703E+02  0.13109232172E+03  0.10100000352E+00 0.  1.
</event>
<event>
 5   0  0.7570633E-04  0.6998354E+03  0.7818609E-02  0.9717514E-01
        1   -1    0    0  501    0  0.00000000000E+00  0.00000000000E+00  0.57604472066E+03  0.57604472068E+03  0.50400001928E-02 0.  1.
       -1   -1    0    0    0  501  0.00000000000E+00  0.00000000000E+00 -0.21255710357E+03  0.21255710363E+03  0.50400001928E-02 0. -1.
    10030    2    1    2    0    0  0.00000000000E+00  0.00000000000E+00  0.36348761708E+03  0.78860182431E+03  0.69983540175E+03 0.  0.
        5    1    3    3  502    0  0.24993457947E+03 -0.48672825475E+02  0.45214753287E+03  0.51893720182E+03  0.46999998093E+01 0.  1.
       -5    1    3    3    0  502 -0.24993457947E+03  0.48672825475E+02 -0.88659915789E+02  0.26966462249E+03  0.46999998093E+01 0. -1.
</event>
<event>
 5   0  0.1222679E-03  0.7014660E+03  0.7818609E-02  0.9714728E-01
        2   -1    0    0  501    0  0.00000000000E+00  0.00000000000E+00  0.24771212527E+03  0.24771212528E+03  0.25500000920E-02 0. -1.
       -2   -1    0    0    0  501  0.00000000000E+00  0.00000000000E+00 -0.49659921162E+03  0.49659921163E+03  0.25500000920E-02 0.  1.
    10030    2    1    2    0    0  0.00000000000E+00  0.00000000000E+00 -0.24888708635E+03  0.74431133691E+03  0.70146602519E+03 0.  0.
        2    1    3    3  502    0 -0.32028169511E+03 -0.14283803684E+03 -0.11857613473E+03  0.37019369082E+03  0.25500000920E-02 0. -1.
       -2    1    3    3    0  502  0.32028169511E+03  0.14283803684E+03 -0.13031095163E+03  0.37411764608E+03  0.25500000920E-02 0.  1.
</event>
<event>
 5   0  0.4936000E-04  0.6999651E+03  0.7818609E-02  0.9717292E-01
       -3   -1    0    0    0  501  0.00000000000E+00  0.00000000000E+00  0.10683731226E+04  0.10683731274E+04  0.10100000352E+00 0.  1.
        3   -1    0    0  501    0  0.00000000000E+00  0.00000000000E+00 -0.11464884482E+03  0.11464888930E+03  0.10100000352E+00 0. -1.
    10030    2    1    2    0    0  0.00000000000E+00  0.00000000000E+00  0.95372427781E+03  0.11830220167E+04  0.69996506621E+03 0.  0.
        3    1    3    3  502    0 -0.39236961014E+02  0.31917315562E+03  0.71029840306E+03  0.77970178528E+03  0.10100000352E+00 0.  1.
       -3    1    3    3    0  502  0.39236961014E+02 -0.31917315562E+03  0.24342587475E+03  0.40332023142E+03  0.10100000352E+00 0. -1.
</event>
<event>
 5   0  0.1243087E-03  0.6999534E+03  0.7818609E-02  0.9717312E-01
        2   -1    0    0  501    0  0.00000000000E+00  0.00000000000E+00  0.15041846446E+04  0.15041846446E+04  0.25500000920E-02 0. -1.
       -2   -1    0    0    0  501  0.00000000000E+00  0.00000000000E+00 -0.81428633417E+02  0.81428633457E+02  0.25500000920E-02 0.  1.
    10030    2    1    2    0    0  0.00000000000E+00  0.00000000000E+00  0.14227560112E+04  0.15856132781E+04  0.69995342716E+03 0.  0.
        4    1    3    3  502    0 -0.19016764846E+03  0.10627178048E+03  0.13318613831E+04  0.13495605887E+04  0.12699999809E+01 0. -1.
       -4    1    3    3    0  502  0.19016764846E+03 -0.10627178048E+03  0.90894628095E+02  0.23605268938E+03  0.12699999809E+01 0.  1.
</event>
<event>
 5   0  0.7013526E-04  0.6998236E+03  0.7818609E-02  0.9717534E-01
       -1   -1    0    0    0  501  0.00000000000E+00  0.00000000000E+00  0.22973637346E+03  0.22973637351E+03  0.50400001928E-02 0.  1.
        1   -1    0    0  501    0  0.00000000000E+00  0.00000000000E+00 -0.53295110647E+03  0.53295110650E+03  0.50400001928E-02 0. -1.
    10030    2    1    2    0    0  0.00000000000E+00  0.00000000000E+00 -0.30321473301E+03  0.76268748001E+03  0.69982356194E+03 0.  0.
        1    1    3    3  502    0 -0.23142421092E+03 -0.22442924754E+03 -0.33242218230E+01  0.32239215721E+03  0.50400001928E-02 0.  1.
       -1    1    3    3    0  502  0.23142421092E+03  0.22442924754E+03 -0.29989051119E+03  0.44029532280E+03  0.50400001928E-02 0. -1.
</event>
<event>
 5   0  0.1222679E-03  0.6990193E+03  0.7818609E-02  0.9718911E-01
        2   -1    0    0  501    0  0.00000000000E+00  0.00000000000E+00  0.88703181088E+03  0.88703181088E+03  0.25500000920E-02 0. -1.
       -2   -1    0    0    0  501  0.00000000000E+00  0.00000000000E+00 -0.13771433117E+03  0.13771433119E+03  0.25500000920E-02 0.  1.
    10030    2    1    2    0    0  0.00000000000E+00  0.00000000000E+00  0.74931747971E+03  0.10247461421E+04  0.69901929179E+03 0.  0.
        2    1    3    3  502    0  0.24266740836E+02 -0.22021143696E+02  0.88477486498E+03  0.88538148116E+03  0.25500000920E-02 0. -1.
       -2    1    3    3    0  502 -0.24266740836E+02  0.22021143696E+02 -0.13545738527E+03  0.13936466091E+03  0.25500000920E-02 0.  1.
</event>
<event>
 5   0  0.7570633E-04  0.7003982E+03  0.7818609E-02  0.9716551E-01
        1   -1    0    0  501    0  0.00000000000E+00  0.00000000000E+00  0.66417770829E+03  0.66417770831E+03  0.50400001928E-02 0. -1.
       -1   -1    0    0    0  501  0.00000000000E+00  0.00000000000E+00 -0.18464847996E+03  0.18464848002E+03  0.50400001928E-02 0.  1.
    10030    2    1    2    0    0  0.00000000000E+00  0.00000000000E+00  0.47952922833E+03  0.84882618833E+03  0.70039818473E+03 0.  0.
        5    1    3    3  502    0 -0.20262943327E+03 -0.67839100000E+02  0.57596357428E+03  0.61434270534E+03  0.46999998093E+01 0. -1.
       -5    1    3    3    0  502  0.20262943327E+03  0.67839100000E+02 -0.96434345946E+02  0.23448348299E+03  0.46999998093E+01 0.  1.
</event>
<event>
 5   0  0.4936000E-04  0.7005908E+03  0.7818609E-02  0.9716222E-01
       -3   -1    0    0    0  501  0.00000000000E+00  0.00000000000E+00  0.63039825096E+03  0.63039825905E+03  0.10100000352E+00 0. -1.
        3   -1    0    0  501    0  0.00000000000E+00  0.00000000000E+00 -0.19464975766E+03  0.19464978386E+03  0.10100000352E+00 0.  1.
    10030    2    1    2    0    0  0.00000000000E+00  0.00000000000E+00  0.43574849331E+03  0.82504804291E+03  0.70059083900E+03 0.  0.
        4    1    3    3  502    0  0.13950884502E+03  0.24821466521E+03 -0.22411814873E+02  0.28561712171E+03  0.12699999809E+01 0.  1.
       -4    1    3    3    0  502 -0.13950884502E+03 -0.24821466521E+03  0.45816030818E+03  0.53943092121E+03  0.12699999809E+01 0. -1.
</event>
<event>
 5   0  0.7013526E-04  0.6995111E+03  0.7818609E-02  0.9718069E-01
        1   -1    0    0  501    0  0.00000000000E+00  0.00000000000E+00  0.85059081368E+03  0.85059081370E+03  0.50400001928E-02 0.  1.
       -1   -1    0    0    0  501  0.00000000000E+00  0.00000000000E+00 -0.14381644367E+03  0.14381644376E+03  0.50400001928E-02 0. -1.
    10030    2    1    2    0    0  0.00000000000E+00  0.00000000000E+00  0.70677437001E+03  0.99440725745E+03  0.69951110325E+03 0.  0.
        1    1    3    3  502    0 -0.37128138536E+02 -0.31830509411E+03  0.55257163077E+03  0.63877385573E+03  0.50400001928E-02 0.  1.
       -1    1    3    3    0  502  0.37128138536E+02  0.31830509411E+03  0.15420273924E+03  0.35563340172E+03  0.50400001928E-02 0. -1.
</event>
<event>
 5   0  0.1282546E-03  0.6999306E+03  0.7818609E-02  0.9717351E-01
       -2   -1    0    0    0  501  0.00000000000E+00  0.00000000000E+00  0.14494629613E+03  0.14494629616E+03  0.25500000920E-02 0.  1.
        2   -1    0    0  501    0  0.00000000000E+00  0.00000000000E+00 -0.84497294664E+03  0.84497294665E+03  0.25500000920E-02 0. -1.
    10030    2    1    2    0    0  0.00000000000E+00  0.00000000000E+00 -0.70002665051E+03  0.98991924280E+03  0.69993056502E+03 0.  0.
        5    1    3    3  502    0 -0.15928971408E+03 -0.15999823654E+02 -0.79009898607E+03  0.80616853396E+03  0.46999998093E+01 0. -1.
       -5    1    3    3    0  502  0.15928971408E+03  0.15999823654E+02  0.90072335556E+02  0.18375070884E+03  0.46999998093E+01 0.  1.
</event>
<event>
 5   0  0.7570633E-04  0.6995672E+03  0.7818609E-02  0.9717973E-01
       -1   -1    0    0    0  501  0.00000000000E+00  0.00000000000E+00  0.83317308911E+03  0.83317308913E+03  0.50400001928E-02 0. -1.
        1   -1    0    0  501    0  0.00000000000E+00  0.00000000000E+00 -0.14684653254E+03  0.14684653263E+03  0.50400001928E-02 0.  1.
    10030    2    1    2    0    0  0.00000000000E+00  0.00000000000E+00  0.68632655657E+03  0.98001962175E+03  0.69956723535E+03 0.  0.
        5    1    3    3  502    0  0.26296239479E+03  0.75943384943E+02  0.64819126930E+03  0.70362676924E+03  0.46999998093E+01 0. -1.
       -5    1    3    3    0  502 -0.26296239479E+03 -0.75943384943E+02  0.38135287267E+02  0.27639285252E+03  0.46999998093E+01 0.  1.
</event>
<event>
 5   0  0.1224048E-03  0.6997657E+03  0.7818609E-02  0.9717633E-01
        2   -1    0    0  501    0  0.00000000000E+00  0.00000000000E+00  0.16469898312E+04  0.16469898312E+04  0.25500000920E-02 0. -1.
       -2   -1    0    0    0  501  0.00000000000E+00  0.00000000000E+00 -0.74328324634E+02  0.74328324677E+02  0.25500000920E-02 0.  1.
    10030    2    1    2    0    0  0.00000000000E+00  0.00000000000E+00  0.15726615065E+04  0.17213181558E+04  0.69976566043E+03 0.  0.
        3    1    3    3  502    0 -0.16854177848E+03 -0.22409968333E+03  0.27157538729E+03  0.39035906592E+03  0.10100000352E+00 0.  1.
       -3    1    3    3    0  502  0.16854177848E+03  0.22409968333E+03  0.13010861192E+04  0.13309590899E+04  0.10100000352E+00 0. -1.
</event>
<event>
 5   0  0.7013526E-04  0.7004571E+03  0.7818609E-02  0.9716451E-01
        1   -1    0    0  501    0  0.00000000000E+00  0.00000000000E+00  0.16257015794E+04  0.16257015794E+04  0.50400001928E-02 0.  1.
       -1   -1    0    0    0  501  0.00000000000E+00  0.00000000000E+00 -0.75450530632E+02  0.75450530800E+02  0.50400001928E-02 0. -1.
    10030    2    1    2    0    0  0.00000000000E+00  0.00000000000E+00  0.15502510487E+04  0.17011521102E+04  0.70045712777E+03 0.  0.
        1    1    3    3  502    0 -0.27605499285E+03  0.49779361940E+01  0.12984316566E+04  0.13274622050E+04  0.50400001928E-02 0.  1.
       -1    1    3    3    0  502  0.27605499285E+03 -0.49779361940E+01  0.25181939216E+03  0.37368990516E+03  0.50400001928E-02 0. -1.
</event>
<event>
 5   0  0.7574241E-04  0.7002461E+03  0.7818609E-02  0.9716811E-01
        1   -1    0    0  501    0  0.00000000000E+00  0.00000000000E+00  0.76668535048E+03  0.76668535049E+03  0.50400001928E-02 0. -1.
       -1   -1    0    0    0  501  0.00000000000E+00  0.00000000000E+00 -0.15989108357E+03  0.15989108365E+03  0.50400001928E-02 0.  1.
    10030    2    1    2    0    0  0.00000000000E+00  0.00000000000E+00  0.60679426691E+03  0.92657643414E+03  0.70024610385E+03 0.  0.
        3    1    3    3  502    0 -0.19862120214E+03  0.15978524542E+03 -0.14186789396E+02  0.25530958029E+03  0.10100000352E+00 0.  1.
       -3    1    3    3    0  502  0.19862120214E+03 -0.15978524542E+03  0.62098105631E+03  0.67126685385E+03  0.10100000352E+00 0. -1.
</event>
<event>
 5   0  0.1224048E-03  0.6999832E+03  0.7818609E-02  0.9717261E-01
        2   -1    0    0  501    0  0.00000000000E+00  0.00000000000E+00  0.54935996067E+03  0.54935996068E+03  0.25500000920E-02 0.  1.
       -2   -1    0    0    0  501  0.00000000000E+00  0.00000000000E+00 -0.22297607518E+03  0.22297607519E+03  0.25500000920E-02 0. -1.
    10030    2    1    2    0    0  0.00000000000E+00  0.00000000000E+00  0.32638388549E+03  0.77233603587E+03  0.69998322237E+03 0.  0.
        3    1    3    3  502    0 -0.94745809450E+02  0.15927698754E+03 -0.16439408426E+03  0.24773242079E+03  0.10100000352E+00 0. -1.
       -3    1    3    3    0  502  0.94745809450E+02 -0.15927698754E+03  0.49077796975E+03  0.52460361509E+03  0.10100000352E+00 0.  1.
</event>
<event>
 5   0  0.1282546E-03  0.6999314E+03  0.7818609E-02  0.9717350E-01
       -2   -1    0    0    0  501  0.00000000000E+00  0.00000000000E+00  0.29364445761E+03  0.29364445762E+03  0.25500000920E-02 0.  1.
        2   -1    0    0  501    0  0.00000000000E+00  0.00000000000E+00 -0.41708939878E+03  0.41708939879E+03  0.25500000920E-02 0. -1.
    10030    2    1    2    0    0  0.00000000000E+00  0.00000000000E+00 -0.12344494118E+03  0.71073385641E+03  0.69993139746E+03 0.  0.
        5    1    3    3  502    0 -0.45819756406E+02  0.90389656922E+02  0.27838588292E+03  0.29629466745E+03  0.46999998093E+01 0.  1.
       -5    1    3    3    0  502  0.45819756406E+02 -0.90389656922E+02 -0.40183082409E+03  0.41443918896E+03  0.46999998093E+01 0. -1.
</event>
<event>
 5   0  0.1282546E-03  0.7003057E+03  0.7818609E-02  0.9716710E-01
       -2   -1    0    0    0  501  0.00000000000E+00  0.00000000000E+00  0.17089149144E+03  0.17089149146E+03  0.25500000920E-02 0. -1.
        2   -1    0    0  501    0  0.00000000000E+00  0.00000000000E+00 -0.71745529669E+03  0.71745529669E+03  0.25500000920E-02 0.  1.
    10030    2    1    2    0    0  0.00000000000E+00  0.00000000000E+00 -0.54656380525E+03  0.88834678815E+03  0.70030566384E+03 0.  0.
        5    1    3    3  502    0  0.27466800134E+03  0.10745339890E+03 -0.51261157419E+03  0.59142324936E+03  0.46999998093E+01 0.  1.
       -5    1    3    3    0  502 -0.27466800134E+03 -0.10745339890E+03 -0.33952231055E+02  0.29692353879E+03  0.46999998093E+01 0. -1.
</event>
<event>
 5   0  0.7572415E-04  0.7002127E+03  0.7818609E-02  0.9716869E-01
        1   -1    0    0  501    0  0.00000000000E+00  0.00000000000E+00  0.16705256298E+04  0.16705256299E+04  0.50400001928E-02 0.  1.
       -1   -1    0    0    0  501  0.00000000000E+00  0.00000000000E+00 -0.73374775012E+02  0.73374775185E+02  0.50400001928E-02 0. -1.
    10030    2    1    2    0    0  0.00000000000E+00  0.00000000000E+00  0.15971508548E+04  0.17439004050E+04  0.70021266027E+03 0.  0.
        4    1    3    3  502    0  0.21813034029E+03  0.27035647769E+03  0.69003406656E+03  0.77254261779E+03  0.12699999809E+01 0. -1.
       -4    1    3    3    0  502 -0.21813034029E+03 -0.27035647769E+03  0.90711678827E+03  0.97135778725E+03  0.12699999809E+01 0.  1.
</event>
<event>
 5   0  0.7570633E-04  0.7000454E+03  0.7818609E-02  0.9717155E-01
       -1   -1    0    0    0  501  0.00000000000E+00  0.00000000000E+00  0.81685361250E+02  0.81685361406E+02  0.50400001928E-02 0. -1.
        1   -1    0    0  501    0  0.00000000000E+00  0.00000000000E+00 -0.14998513129E+04  0.14998513129E+04  0.50400001928E-02 0.  1.
    10030    2    1    2    0    0  0.00000000000E+00  0.00000000000E+00 -0.14181659517E+04  0.15815366743E+04  0.70004541694E+03 0.  0.
        5    1    3    3  502    0  0.12522387469E+03  0.21112272316E+02 -0.14458948692E+04  0.14514685010E+04  0.46999998093E+01 0.  1.
       -5    1    3    3    0  502 -0.12522387469E+03 -0.21112272316E+02  0.27728917516E+02  0.13006817327E+03  0.46999998093E+01 0. -1.
</event>
<event>
 5   0  0.7459843E-04  0.6998966E+03  0.7818609E-02  0.9717409E-01
        1   -1    0    0  501    0  0.00000000000E+00  0.00000000000E+00  0.91451407380E+03  0.91451407381E+03  0.50400001928E-02 0.  1.
       -1   -1    0    0    0  501  0.00000000000E+00  0.00000000000E+00 -0.13391134178E+03  0.13391134187E+03  0.50400001928E-02 0. -1.
    10030    2    1    2    0    0  0.00000000000E+00  0.00000000000E+00  0.78060273202E+03  0.10484254157E+04  0.69989658309E+03 0.  0.
        2    1    3    3  502    0 -0.31084201586E+03  0.31932282105E+02  0.15429886512E+03  0.34849758858E+03  0.25500000920E-02 0. -1.
       -2    1    3    3    0  502  0.31084201586E+03 -0.31932282105E+02  0.62630386690E+03  0.69992782711E+03  0.25500000920E-02 0.  1.
</event>
<event>
 5   0  0.7013526E-04  0.6997956E+03  0.7818609E-02  0.9717582E-01
        1   -1    0    0  501    0  0.00000000000E+00  0.00000000000E+00  0.59970928028E+03  0.59970928031E+03  0.50400001928E-02 0.  1.
       -1   -1    0    0    0  501  0.00000000000E+00  0.00000000000E+00 -0.20414639490E+03  0.20414639496E+03  0.50400001928E-02 0. -1.
    10030    2    1    2    0    0  0.00000000000E+00  0.00000000000E+00  0.39556288539E+03  0.80385567527E+03  0.69979564900E+03 0.  0.
        1    1    3    3  502    0  0.27370702444E+01  0.15611350317E+03 -0.16190965676E+03  0.22493033233E+03  0.50400001928E-02 0. -1.
       -1    1    3    3    0  502 -0.27370702444E+01 -0.15611350317E+03  0.55747254214E+03  0.57892534294E+03  0.50400001928E-02 0.  1.
</event>
<event>
 5   0  0.4936000E-04  0.7000806E+03  0.7818609E-02  0.9717094E-01
       -3   -1    0    0    0  501  0.00000000000E+00  0.00000000000E+00  0.98130456633E+02  0.98130508610E+02  0.10100000352E+00 0.  1.
        3   -1    0    0  501    0  0.00000000000E+00  0.00000000000E+00 -0.12486252435E+04  0.12486252476E+04  0.10100000352E+00 0. -1.
    10030    2    1    2    0    0  0.00000000000E+00  0.00000000000E+00 -0.11504947869E+04  0.13467557562E+04  0.70008057553E+03 0.  0.
        1    1    3    3  502    0 -0.72664475072E+02 -0.34182693446E+03 -0.61383810038E+03  0.70634481138E+03  0.50400001928E-02 0. -1.
       -1    1    3    3    0  502  0.72664475072E+02  0.34182693446E+03 -0.53665668649E+03  0.64041094482E+03  0.50400001928E-02 0.  1.
</event>
<event>
 5   0  0.7572415E-04  0.6998816E+03  0.7818609E-02  0.9717435E-01
       -1   -1    0    0    0  501  0.00000000000E+00  0.00000000000E+00  0.45297676831E+02  0.45297677111E+02  0.50400001928E-02 0. -1.
        1   -1    0    0  501    0  0.00000000000E+00  0.00000000000E+00 -0.27034179854E+04  0.27034179854E+04  0.50400001928E-02 0.  1.
    10030    2    1    2    0    0  0.00000000000E+00  0.00000000000E+00 -0.26581203086E+04  0.27487156625E+04  0.69988157465E+03 0.  0.
        4    1    3    3  502    0 -0.20084873456E+03 -0.99660113432E+01 -0.20430427467E+03  0.28667295845E+03  0.12699999809E+01 0. -1.
       -4    1    3    3    0  502  0.20084873456E+03  0.99660113432E+01 -0.24538160339E+04  0.24620427041E+04  0.12699999809E+01 0.  1.
</event>
<event>
 5   0  0.1224048E-03  0.7000369E+03  0.7818609E-02  0.9717169E-01
        2   -1    0    0  501    0  0.00000000000E+00  0.00000000000E+00  0.14238345881E+04  0.14238345881E+04  0.25500000920E-02 0. -1.
       -2   -1    0    0    0  501  0.00000000000E+00  0.00000000000E+00 -0.86044343676E+02  0.86044343713E+02  0.25500000920E-02 0.  1.
    10030    2    1    2    0    0  0.00000000000E+00  0.00000000000E+00  0.13377902444E+04  0.15098789318E+04  0.70003689236E+03 0.  0.
        3    1    3    3  502    0 -0.29706342322E+03  0.52728783228E+02  0.28617679820E+03  0.41584152273E+03  0.10100000352E+00 0. -1.
       -3    1    3    3    0  502  0.29706342322E+03 -0.52728783228E+02  0.10516134462E+04  0.10940374091E+04  0.10100000352E+00 0.  1.
</event>
<event>
 5   0  0.1282546E-03  0.6998233E+03  0.7818609E-02  0.9717534E-01
       -2   -1    0    0    0  501  0.00000000000E+00  0.00000000000E+00  0.52081121837E+02  0.52081121899E+02  0.25500000920E-02 0. -1.
        2   -1    0    0  501    0  0.00000000000E+00  0.00000000000E+00 -0.23509122629E+04  0.23509122629E+04  0.25500000920E-02 0.  1.
    10030    2    1    2    0    0  0.00000000000E+00  0.00000000000E+00 -0.22988311411E+04  0.24029933848E+04  0.69982325789E+03 0.  0.
        5    1    3    3  502    0 -0.26808851775E+03  0.12996252341E+03 -0.17793346883E+04  0.18041107876E+04  0.46999998093E+01 0.  1.
       -5    1    3    3    0  502  0.26808851775E+03 -0.12996252341E+03 -0.51949645282E+03  0.59888259728E+03  0.46999998093E+01 0. -1.
</event>
<event>
 5   0  0.1282546E-03  0.6998611E+03  0.7818609E-02  0.9717470E-01
       -2   -1    0    0    0  501  0.00000000000E+00  0.00000000000E+00  0.20706892873E+03  0.20706892874E+03  0.25500000920E-02 0.  1.
        2   -1    0    0  501    0  0.00000000000E+00  0.00000000000E+00 -0.59135572794E+03  0.59135572794E+03  0.25500000920E-02 0. -1.
    10030    2    1    2    0    0  0.00000000000E+00  0.00000000000E+00 -0.38428679921E+03  0.79842465669E+03  0.69986112077E+03 0.  0.
        5    1    3    3  502    0 -0.32234811931E+03 -0.13594508138E+03 -0.18493428148E+03  0.39574253454E+03  0.46999998093E+01 0.  1.
       -5    1    3    3    0  502  0.32234811931E+03  0.13594508138E+03 -0.19935251773E+03  0.40268212215E+03  0.46999998093E+01 0. -1.
</event>
<event>
 5   0  0.7013526E-04  0.6997546E+03  0.7818609E-02  0.9717652E-01
        1   -1    0    0  501    0  0.00000000000E+00  0.00000000000E+00  0.12261017135E+04  0.12261017135E+04  0.50400001928E-02 0.  1.
       -1   -1    0    0    0  501  0.00000000000E+00  0.00000000000E+00 -0.99840094284E+02  0.99840094411E+02  0.50400001928E-02 0. -1.
    10030    2    1    2    0    0  0.00000000000E+00  0.00000000000E+00  0.11262616192E+04  0.13259418079E+04  0.69975455917E+03 0.  0.
        1    1    3    3  502    0 -0.21418051964E+03 -0.51862525775E+02  0.48190138366E+02  0.22557771617E+03  0.50400001928E-02 0. -1.
       -1    1    3    3    0  502  0.21418051964E+03  0.51862525775E+02  0.10780714809E+04  0.11003640918E+04  0.50400001928E-02 0.  1.
</event>
<event>
 5   0  0.1265562E-03  0.6997962E+03  0.7818609E-02  0.9717581E-01
       -2   -1    0    0    0  501  0.00000000000E+00  0.00000000000E+00  0.18103724406E+03  0.18103724408E+03  0.25500000920E-02 0. -1.
        2   -1    0    0  501    0  0.00000000000E+00  0.00000000000E+00 -0.67626245104E+03  0.67626245105E+03  0.25500000920E-02 0.  1.
    10030    2    1    2    0    0  0.00000000000E+00  0.00000000000E+00 -0.49522520698E+03  0.85729969513E+03  0.69979622865E+03 0.  0.
        1    1    3    3  502    0  0.20882650522E+03 -0.26714651764E+03 -0.14185191275E+03  0.36755643967E+03  0.50400001928E-02 0.  1.
       -1    1    3    3    0  502 -0.20882650522E+03  0.26714651764E+03 -0.35337329423E+03  0.48974325546E+03  0.50400001928E-02 0. -1.
</event>
<event>
 5   0  0.1265562E-03  0.7015645E+03  0.7818609E-02  0.9714560E-01
       -2   -1    0    0    0  501  0.00000000000E+00  0.00000000000E+00  0.30368997467E+03  0.30368997468E+03  0.25500000920E-02 0.  1.
        2   -1    0    0  501    0  0.00000000000E+00  0.00000000000E+00 -0.40517695310E+03  0.40517695311E+03  0.25500000920E-02 0. -1.
    10030    2    1    2    0    0  0.00000000000E+00  0.00000000000E+00 -0.10148697843E+03  0.70886692778E+03  0.70156447638E+03 0.  0.
        1    1    3    3  502    0 -0.12176065358E+03  0.27171205161E+03  0.13664603318E+03  0.32760530240E+03  0.50400001928E-02 0.  1.
       -1    1    3    3    0  502  0.12176065358E+03 -0.27171205161E+03 -0.23813301161E+03  0.38126162539E+03  0.50400001928E-02 0. -1.
</event>
<event>
 5   0  0.7013526E-04  0.6987505E+03  0.7818609E-02  0.9719371E-01
        1   -1    0    0  501    0  0.00000000000E+00  0.00000000000E+00  0.38623110400E+03  0.38623110404E+03  0.50400001928E-02 0. -1.
       -1   -1    0    0    0  501  0.00000000000E+00  0.00000000000E+00 -0.31603633528E+03  0.31603633532E+03  0.50400001928E-02 0.  1.
    10030    2    1    2    0    0  0.00000000000E+00  0.00000000000E+00  0.70194768722E+02  0.70226743936E+03  0.69875049254E+03 0.  0.
        1    1    3    3  502    0 -0.19287964467E+03 -0.29126329776E+03  0.29953348748E+02  0.35061955033E+03  0.50400001928E-02 0. -1.
       -1    1    3    3    0  502  0.19287964467E+03  0.29126329776E+03  0.40241419974E+02  0.35164788903E+03  0.50400001928E-02 0.  1.
</event>
<event>
 5   0  0.1243087E-03  0.7000451E+03  0.7818609E-02  0.9717155E-01
        2   -1    0    0  501    0  0.00000000000E+00  0.00000000000E+00  0.28922312719E+03  0.28922312721E+03  0.25500000920E-02 0.  1.
       -2   -1    0    0    0  501  0.00000000000E+00  0.00000000000E+00 -0.42360304840E+03  0.42360304841E+03  0.25500000920E-02 0. -1.
    10030    2    1    2    0    0  0.00000000000E+00  0.00000000000E+00 -0.13437992120E+03  0.71282617561E+03  0.70004513670E+03 0.  0.
        4    1    3    3  502    0 -0.21583236307E+03  0.57006637041E+01  0.21333595462E+03  0.30352915667E+03  0.12699999809E+01 0.  1.
       -4    1    3    3    0  502  0.21583236307E+03 -0.57006637041E+01 -0.34771587583E+03  0.40929701894E+03  0.12699999809E+01 0. -1.
</event>
<event>
 5   0  0.7459843E-04  0.7009395E+03  0.7818609E-02  0.9715627E-01
       -1   -1    0    0    0  501  0.00000000000E+00  0.00000000000E+00  0.22469118187E+03  0.22469118192E+03  0.50400001928E-02 0.  1.
        1   -1    0    0  501    0  0.00000000000E+00  0.00000000000E+00 -0.54665722083E+03  0.54665722086E+03  0.50400001928E-02 0. -1.
    10030    2    1    2    0    0  0.00000000000E+00  0.00000000000E+00 -0.32196603897E+03  0.77134840278E+03  0.70093953250E+03 0.  0.
        2    1    3    3  502    0 -0.16023750993E+03 -0.22407744032E+03  0.77442207075E+02  0.28615389966E+03  0.25500000920E-02 0.  1.
       -2    1    3    3    0  502  0.16023750993E+03  0.22407744032E+03 -0.39940824604E+03  0.48519450312E+03  0.25500000920E-02 0. -1.
</event>
<event>
 5   0  0.1222679E-03  0.6998907E+03  0.7818609E-02  0.9717419E-01
        2   -1    0    0  501    0  0.00000000000E+00  0.00000000000E+00  0.72908239135E+03  0.72908239136E+03  0.25500000920E-02 0. -1.
       -2   -1    0    0    0  501  0.00000000000E+00  0.00000000000E+00 -0.16796697385E+03  0.16796697387E+03  0.25500000920E-02 0.  1.
    10030    2    1    2    0    0  0.00000000000E+00  0.00000000000E+00  0.56111541750E+03  0.89704936522E+03  0.69989074283E+03 0.  0.
        2    1    3    3  502    0  0.32998666664E+02  0.76277774514E+02 -0.15513432884E+03  0.17599395125E+03  0.25500000920E-02 0.  1.
       -2    1    3    3    0  502 -0.32998666664E+02 -0.76277774514E+02  0.71624974634E+03  0.72105541397E+03  0.25500000920E-02 0. -1.
</event>
<event>
 5   0  0.7013526E-04  0.7000059E+03  0.7818609E-02  0.9717222E-01
        1   -1    0    0  501    0  0.00000000000E+00  0.00000000000E+00  0.38424343211E+03  0.38424343214E+03  0.50400001928E-02 0. -1.
       -1   -1    0    0    0  501  0.00000000000E+00  0.00000000000E+00 -0.31881371641E+03  0.31881371645E+03  0.50400001928E-02 0.  1.
    10030    2    1    2    0    0  0.00000000000E+00  0.00000000000E+00  0.65429715704E+02  0.70305714859E+03  0.70000593318E+03 0.  0.
        1    1    3    3  502    0  0.20246827868E+03  0.98171016610E+02  0.30197131464E+03  0.37658681238E+03  0.50400001928E-02 0. -1.
       -1    1    3    3    0  502 -0.20246827868E+03 -0.98171016610E+02 -0.23654159893E+03  0.32647033621E+03  0.50400001928E-02 0.  1.
</event>
<event>
 5   0  0.1222679E-03  0.6999318E+03  0.7818609E-02  0.9717349E-01
       -2   -1    0    0    0  501  0.00000000000E+00  0.00000000000E+00  0.10721669054E+03  0.10721669057E+03  0.25500000920E-02 0. -1.
        2   -1    0    0  501    0  0.00000000000E+00  0.00000000000E+00 -0.11423232982E+04  0.11423232982E+04  0.25500000920E-02 0.  1.
    10030    2    1    2    0    0  0.00000000000E+00  0.00000000000E+00 -0.10351066076E+04  0.12495399887E+04  0.69993177833E+03 0.  0.
        2    1    3    3  502    0 -0.10446527567E+02  0.32299128634E+03 -0.27774936361E+03  0.42611877450E+03  0.25500000920E-02 0. -1.
       -2    1    3    3    0  502  0.10446527567E+02 -0.32299128634E+03 -0.75735724401E+03  0.82342121424E+03  0.25500000920E-02 0.  1.
</event>
<event>
 5   0  0.1282546E-03  0.7004920E+03  0.7818609E-02  0.9716391E-01
        2   -1    0    0  501    0  0.00000000000E+00  0.00000000000E+00  0.19606339851E+04  0.19606339851E+04  0.25500000920E-02 0.  1.
       -2   -1    0    0    0  501  0.00000000000E+00  0.00000000000E+00 -0.62567656817E+02  0.62567656869E+02  0.25500000920E-02 0. -1.
    10030    2    1    2    0    0  0.00000000000E+00  0.00000000000E+00  0.18980663283E+04  0.20232016420E+04  0.70049203957E+03 0.  0.
        5    1    3    3  502    0  0.15171275355E+03 -0.41516746801E+02  0.18527846241E+04  0.18594551227E+04  0.46999998093E+01 0.  1.
       -5    1    3    3    0  502 -0.15171275355E+03  0.41516746801E+02  0.45281704167E+02  0.16374651930E+03  0.46999998093E+01 0. -1.
</event>
<event>
 5   0  0.1282546E-03  0.6995701E+03  0.7818609E-02  0.9717968E-01
       -2   -1    0    0    0  501  0.00000000000E+00  0.00000000000E+00  0.21606837656E+03  0.21606837657E+03  0.25500000920E-02 0. -1.
        2   -1    0    0  501    0  0.00000000000E+00  0.00000000000E+00 -0.56625392845E+03  0.56625392846E+03  0.25500000920E-02 0.  1.
    10030    2    1    2    0    0  0.00000000000E+00  0.00000000000E+00 -0.35018555190E+03  0.78232230503E+03  0.69957005953E+03 0.  0.
        5    1    3    3  502    0 -0.11391331112E+03  0.28783807758E+03  0.69533047981E+01  0.30967311766E+03  0.46999998093E+01 0.  1.
       -5    1    3    3    0  502  0.11391331112E+03 -0.28783807758E+03 -0.35713885670E+03  0.47264918737E+03  0.46999998093E+01 0. -1.
</event>
<event>
 5   0  0.4936000E-04  0.7001343E+03  0.7818609E-02  0.9717003E-01
        4   -1    0    0  501    0  0.00000000000E+00  0.00000000000E+00  0.24974809678E+03  0.24975132581E+03  0.12699999809E+01 0. -1.
       -4   -1    0    0    0  501  0.00000000000E+00  0.00000000000E+00 -0.49067524624E+03  0.49067688979E+03  0.12699999809E+01 0.  1.
    10030    2    1    2    0    0  0.00000000000E+00  0.00000000000E+00 -0.24092714946E+03  0.74042821560E+03  0.70013430934E+03 0.  0.
        2    1    3    3  502    0  0.14527896686E+03  0.51112161013E+01  0.21632124253E+03  0.26062805436E+03  0.25500000920E-02 0. -1.
       -2    1    3    3    0  502 -0.14527896686E+03 -0.51112161013E+01 -0.45724839200E+03  0.47980016125E+03  0.25500000920E-02 0.  1.
</event>
<event>
 5   0  0.7013526E-04  0.6994552E+03  0.7818609E-02  0.9718164E-01
        1   -1    0    0  501    0  0.00000000000E+00  0.00000000000E+00  0.28205123749E+03  0.28205123753E+03  0.50400001928E-02 0.  1.
       -1   -1    0    0    0  501  0.00000000000E+00  0.00000000000E+00 -0.43364243080E+03  0.43364243083E+03  0.50400001928E-02 0. -1.
    10030    2    1    2    0    0  0.00000000000E+00  0.00000000000E+00 -0.15159119332E+03  0.71569366836E+03  0.69945517158E+03 0.  0.
        1    1    3    3  502    0  0.10465293808E+03 -0.81167524293E+02 -0.40699050154E+03  0.42799728132E+03  0.50400001928E-02 0. -1.
       -1    1    3    3    0  502 -0.10465293808E+03  0.81167524293E+02  0.25539930822E+03  0.28769638704E+03  0.50400001928E-02 0.  1.
</event>
<event>
 5   0  0.4936000E-04  0.6987902E+03  0.7818609E-02  0.9719303E-01
       -3   -1    0    0    0  501  0.00000000000E+00  0.00000000000E+00  0.86811439059E+02  0.86811497813E+02  0.10100000352E+00 0.  1.
        3   -1    0    0  501    0  0.00000000000E+00  0.00000000000E+00 -0.14062304807E+04  0.14062304843E+04  0.10100000352E+00 0. -1.
    10030    2    1    2    0    0  0.00000000000E+00  0.00000000000E+00 -0.13194190416E+04  0.14930419821E+04  0.69879020671E+03 0.  0.
        5    1    3    3  502    0  0.11444480599E+03 -0.47223164645E+02  0.38302308279E+02  0.12967959637E+03  0.46999998093E+01 0.  1.
       -5    1    3    3    0  502 -0.11444480599E+03  0.47223164645E+02 -0.13577213499E+04  0.13633623858E+04  0.46999998093E+01 0. -1.
</event>
<event>
 5   0  0.7013526E-04  0.6996764E+03  0.7818609E-02  0.9717786E-01
       -1   -1    0    0    0  501  0.00000000000E+00  0.00000000000E+00  0.42451070925E+03  0.42451070928E+03  0.50400001928E-02 0.  1.
        1   -1    0    0  501    0  0.00000000000E+00  0.00000000000E+00 -0.28830074660E+03  0.28830074664E+03  0.50400001928E-02 0. -1.
    10030    2    1    2    0    0  0.00000000000E+00  0.00000000000E+00  0.13620996265E+03  0.71281145592E+03  0.69967636645E+03 0.  0.
        1    1    3    3  502    0 -0.32380397615E+03 -0.12989608434E+03  0.94371684551E+02  0.36142498885E+03  0.50400001928E-02 0. -1.
       -1    1    3    3    0  502  0.32380397615E+03  0.12989608434E+03  0.41838278102E+02  0.35138646707E+03  0.50400001928E-02 0.  1.
</event>
<event>
 5   0  0.7574241E-04  0.7001701E+03  0.7818609E-02  0.9716941E-01
        1   -1    0    0  501    0  0.00000000000E+00  0.00000000000E+00  0.29836145331E+03  0.29836145335E+03  0.50400001928E-02 0.  1.
       -1   -1    0    0    0  501  0.00000000000E+00  0.00000000000E+00 -0.41077541254E+03  0.41077541257E+03  0.50400001928E-02 0. -1.
    10030    2    1    2    0    0  0.00000000000E+00  0.00000000000E+00 -0.11241395922E+03  0.70913686592E+03  0.70017011960E+03 0.  0.
        3    1    3    3  502    0 -0.13569038183E+03  0.13924010377E+03  0.23865690811E+03  0.30782595116E+03  0.10100000352E+00 0.  1.
       -3    1    3    3    0  502  0.13569038183E+03 -0.13924010377E+03 -0.35107086733E+03  0.40131091476E+03  0.10100000352E+00 0. -1.
</event>
<event>
 5   0  0.1265562E-03  0.7016179E+03  0.7818609E-02  0.9714469E-01
        2   -1    0    0  501    0  0.00000000000E+00  0.00000000000E+00  0.70679927199E+03  0.70679927200E+03  0.25500000920E-02 0.  1.
       -2   -1    0    0    0  501  0.00000000000E+00  0.00000000000E+00 -0.17411862105E+03  0.17411862107E+03  0.25500000920E-02 0. -1.
    10030    2    1    2    0    0  0.00000000000E+00  0.00000000000E+00  0.53268065094E+03  0.88091789307E+03  0.70161788635E+03 0.  0.
        1    1    3    3  502    0 -0.53215109993E+02 -0.18882399931E+03  0.63148928515E+03  0.66126021197E+03  0.50400001928E-02 0.  1.
       -1    1    3    3    0  502  0.53215109993E+02  0.18882399931E+03 -0.98808634210E+02  0.21965768110E+03  0.50400001928E-02 0. -1.
</event>
<event>
 5   0  0.7574241E-04  0.7009336E+03  0.7818609E-02  0.9715637E-01
        1   -1    0    0  501    0  0.00000000000E+00  0.00000000000E+00  0.12971750268E+04  0.12971750268E+04  0.50400001928E-02 0.  1.
       -1   -1    0    0    0  501  0.00000000000E+00  0.00000000000E+00 -0.94688064754E+02  0.94688064888E+02  0.50400001928E-02 0. -1.
    10030    2    1    2    0    0  0.00000000000E+00  0.00000000000E+00  0.12024869621E+04  0.13918630917E+04  0.70093364318E+03 0.  0.
        3    1    3    3  502    0 -0.53011383327E+02  0.13558847679E+02 -0.86153640166E+02  0.10206130034E+03  0.10100000352E+00 0. -1.
       -3    1    3    3    0  502  0.53011383327E+02 -0.13558847679E+02  0.12886406022E+04  0.12898017914E+04  0.10100000352E+00 0.  1.
</event>
<event>
 5   0  0.1265562E-03  0.6998710E+03  0.7818609E-02  0.9717453E-01
        2   -1    0    0  501    0  0.00000000000E+00  0.00000000000E+00  0.54558238700E+03  0.54558238701E+03  0.25500000920E-02 0.  1.
       -2   -1    0    0    0  501  0.00000000000E+00  0.00000000000E+00 -0.22444794610E+03  0.22444794612E+03  0.25500000920E-02 0. -1.
    10030    2    1    2    0    0  0.00000000000E+00  0.00000000000E+00  0.32113444090E+03  0.77003033313E+03  0.69987097725E+03 0.  0.
        1    1    3    3  502    0 -0.17875156480E+02  0.26004771852E+03 -0.96312587518E+02  0.27788568093E+03  0.50400001928E-02 0. -1.
       -1    1    3    3    0  502  0.17875156480E+02 -0.26004771852E+03  0.41744702842E+03  0.49214465220E+03  0.50400001928E-02 0.  1.
</event>
<event>
 5   0  0.1224048E-03  0.7004637E+03  0.7818609E-02  0.9716440E-01
        2   -1    0    0  501    0  0.00000000000E+00  0.00000000000E+00  0.10528348166E+04  0.10528348166E+04  0.25500000920E-02 0. -1.
       -2   -1    0    0    0  501  0.00000000000E+00  0.00000000000E+00 -0.11650673468E+03  0.11650673471E+03  0.25500000920E-02 0.  1.
    10030    2    1    2    0    0  0.00000000000E+00  0.00000000000E+00  0.93632808193E+03  0.11693415513E+04  0.70046369402E+03 0.  0.
        3    1    3    3  502    0 -0.83166036474E+02  0.78264599665E+02 -0.84551201933E+02  0.14209452183E+03  0.10100000352E+00 0.  1.
       -3    1    3    3    0  502  0.83166036474E+02 -0.78264599665E+02  0.10208792839E+04  0.10272470295E+04  0.10100000352E+00 0. -1.
</event>
<event>
 5   0  0.1222679E-03  0.7001073E+03  0.7818609E-02  0.9717049E-01
       -2   -1    0    0    0  501  0.00000000000E+00  0.00000000000E+00  0.15649231173E+03  0.15649231175E+03  0.25500000920E-02 0. -1.
        2   -1    0    0  501    0  0.00000000000E+00  0.00000000000E+00 -0.78302615698E+03  0.78302615699E+03  0.25500000920E-02 0.  1.
    10030    2    1    2    0    0  0.00000000000E+00  0.00000000000E+00 -0.62653384526E+03  0.93951846873E+03  0.70010734451E+03 0.  0.
        2    1    3    3  502    0 -0.17262233782E+03 -0.15505877349E+03  0.38460337979E+02  0.23520393779E+03  0.25500000920E-02 0. -1.
       -2    1    3    3    0  502  0.17262233782E+03  0.15505877349E+03 -0.66499418323E+03  0.70431453094E+03  0.25500000920E-02 0.  1.
</event>
<event>
 5   0  0.7459843E-04  0.7004132E+03  0.7818609E-02  0.9716526E-01
        1   -1    0    0  501    0  0.00000000000E+00  0.00000000000E+00  0.25544335988E+03  0.25544335993E+03  0.50400001928E-02 0. -1.
       -1   -1    0    0    0  501  0.00000000000E+00  0.00000000000E+00 -0.48012466359E+03  0.48012466362E+03  0.50400001928E-02 0.  1.
    10030    2    1    2    0    0  0.00000000000E+00  0.00000000000E+00 -0.22468130372E+03  0.73556802355E+03  0.70041318450E+03 0.  0.
        2    1    3    3  502    0 -0.28386484047E+03  0.19610049191E+03 -0.17543965973E+03  0.38705777966E+03  0.25500000920E-02 0.  1.
       -2    1    3    3    0  502  0.28386484047E+03 -0.19610049191E+03 -0.49241643984E+02  0.34851024388E+03  0.25500000920E-02 0. -1.
</event>
<event>
 5   0  0.1282546E-03  0.6998584E+03  0.7818609E-02  0.9717474E-01
        2   -1    0    0  501    0  0.00000000000E+00  0.00000000000E+00  0.12441120379E+04  0.12441120379E+04  0.25500000920E-02 0. -1.
       -2   -1    0    0    0  501  0.00000000000E+00  0.00000000000E+00 -0.98423981279E+02  0.98423981312E+02  0.25500000920E-02 0.  1.
    10030    2    1    2    0    0  0.00000000000E+00  0.00000000000E+00  0.11456880566E+04  0.13425360192E+04  0.69985844269E+03 0.  0.
        5    1    3    3  502    0  0.16800870717E+03  0.94600260612E+02  0.11329479673E+04  0.11492472848E+04  0.46999998093E+01 0. -1.
       -5    1    3    3    0  502 -0.16800870717E+03 -0.94600260612E+02  0.12740089350E+02  0.19328873445E+03  0.46999998093E+01 0.  1.
</event>
<event>
 5   0  0.7570633E-04  0.6994559E+03  0.7818609E-02  0.9718163E-01
       -1   -1    0    0    0  501  0.00000000000E+00  0.00000000000E+00  0.13645909012E+03  0.13645909021E+03  0.50400001928E-02 0. -1.
        1   -1    0    0  501    0  0.00000000000E+00  0.00000000000E+00 -0.89630989346E+03  0.89630989348E+03  0.50400001928E-02 0.  1.
    10030    2    1    2    0    0  0.00000000000E+00  0.00000000000E+00 -0.75985080334E+03  0.10327689837E+04  0.69945588162E+03 0.  0.
        5    1    3    3  502    0 -0.18187799593E+02 -0.34886914746E+03 -0.40313395210E+03  0.53345998110E+03  0.46999998093E+01 0.  1.
       -5    1    3    3    0  502  0.18187799593E+02  0.34886914746E+03 -0.35671685124E+03  0.49930900259E+03  0.46999998093E+01 0. -1.
</event>
<event>
 5   0  0.1282546E-03  0.6997817E+03  0.7818609E-02  0.9717606E-01
       -2   -1    0    0    0  501  0.00000000000E+00  0.00000000000E+00  0.26961525735E+03  0.26961525736E+03  0.25500000920E-02 0. -1.
        2   -1    0    0  501    0  0.00000000000E+00  0.00000000000E+00 -0.45406775826E+03  0.45406775827E+03  0.25500000920E-02 0.  1.
    10030    2    1    2    0    0  0.00000000000E+00  0.00000000000E+00 -0.18445250091E+03  0.72368301563E+03  0.69978166740E+03 0.  0.
        5    1    3    3  502    0  0.20765979554E+03  0.41159369378E+02 -0.38028044320E+03  0.43526082968E+03  0.46999998093E+01 0.  1.
       -5    1    3    3    0  502 -0.20765979554E+03 -0.41159369378E+02  0.19582794229E+03  0.28842218596E+03  0.46999998093E+01 0. -1.
</event>
<event>
 5   0  0.1265562E-03  0.6999354E+03  0.7818609E-02  0.9717343E-01
       -2   -1    0    0    0  501  0.00000000000E+00  0.00000000000E+00  0.12016112698E+03  0.12016112701E+03  0.25500000920E-02 0. -1.
        2   -1    0    0  501    0  0.00000000000E+00  0.00000000000E+00 -0.10192764294E+04  0.10192764294E+04  0.25500000920E-02 0.  1.
    10030    2    1    2    0    0  0.00000000000E+00  0.00000000000E+00 -0.89911530239E+03  0.11394375564E+04  0.69993543837E+03 0.  0.
        1    1    3    3  502    0 -0.19827589303E+03  0.17694520917E+03 -0.82026025550E+03  0.86223536438E+03  0.50400001928E-02 0.  1.
       -1    1    3    3    0  502  0.19827589303E+03 -0.17694520917E+03 -0.78855046887E+02  0.27720219200E+03  0.50400001928E-02 0. -1.
</event>
<event>
 5   0  0.1243087E-03  0.6999535E+03  0.7818609E-02  0.9717312E-01
       -2   -1    0    0    0  501  0.00000000000E+00  0.00000000000E+00  0.54135868149E+02  0.54135868209E+02  0.25500000920E-02 0. -1.
        2   -1    0    0  501    0  0.00000000000E+00  0.00000000000E+00 -0.22625241510E+04  0.22625241510E+04  0.25500000920E-02 0.  1.
    10030    2    1    2    0    0  0.00000000000E+00  0.00000000000E+00 -0.22083882829E+04  0.23166600192E+04  0.69995345329E+03 0.  0.
        4    1    3    3  502    0 -0.13782714121E+03 -0.72956589951E+02 -0.67221494137E+02  0.16982145638E+03  0.12699999809E+01 0. -1.
       -4    1    3    3    0  502  0.13782714121E+03  0.72956589951E+02 -0.21411667887E+04  0.21468385629E+04  0.12699999809E+01 0.  1.
</event>
<event>
 5   0  0.7459843E-04  0.6997295E+03  0.7818609E-02  0.9717695E-01
       -1   -1    0    0    0  501  0.00000000000E+00  0.00000000000E+00  0.18065938491E+03  0.18065938498E+03  0.50400001928E-02 0. -1.
        1   -1    0    0  501    0  0.00000000000E+00  0.00000000000E+00 -0.67754756359E+03  0.67754756361E+03  0.50400001928E-02 0.  1.
    10030    2    1    2    0    0  0.00000000000E+00  0.00000000000E+00 -0.49688817868E+03  0.85820694859E+03  0.69972945093E+03 0.  0.
        2    1    3    3  502    0  0.63520667859E+02 -0.19950656742E+03 -0.59222642876E+03  0.62814798306E+03  0.25500000920E-02 0.  1.
       -2    1    3    3    0  502 -0.63520667859E+02  0.19950656742E+03  0.95338250079E+02  0.23005896554E+03  0.25500000920E-02 0. -1.
</event>
<event>
 5   0  0.7459843E-04  0.6993886E+03  0.7818609E-02  0.9718278E-01
       -1   -1    0    0    0  501  0.00000000000E+00  0.00000000000E+00  0.28745459011E+03  0.28745459016E+03  0.50400001928E-02 0. -1.
        1   -1    0    0  501    0  0.00000000000E+00  0.00000000000E+00 -0.42541019748E+03  0.42541019751E+03  0.50400001928E-02 0.  1.
    10030    2    1    2    0    0  0.00000000000E+00  0.00000000000E+00 -0.13795560736E+03  0.71286478767E+03  0.69938863008E+03 0.  0.
        2    1    3    3  502    0 -0.21452441909E+03 -0.22890160532E+03 -0.22645212112E+03  0.38690726857E+03  0.25500000920E-02 0. -1.
       -2    1    3    3    0  502  0.21452441909E+03  0.22890160532E+03  0.88496513759E+02  0.32595751910E+03  0.25500000920E-02 0.  1.
</event>
<event>
 5   0  0.1282546E-03  0.6999954E+03  0.7818609E-02  0.9717240E-01
       -2   -1    0    0    0  501  0.00000000000E+00  0.00000000000E+00  0.82242965769E+02  0.82242965809E+02  0.25500000920E-02 0.  1.
        2   -1    0    0  501    0  0.00000000000E+00  0.00000000000E+00 -0.14894695091E+04  0.14894695091E+04  0.25500000920E-02 0. -1.
    10030    2    1    2    0    0  0.00000000000E+00  0.00000000000E+00 -0.14072265433E+04  0.15717124749E+04  0.69999539966E+03 0.  0.
        5    1    3    3  502    0 -0.29611370617E+03  0.93920152673E+02 -0.34176173098E+03  0.46187389277E+03  0.46999998093E+01 0.  1.
       -5    1    3    3    0  502  0.29611370617E+03 -0.93920152673E+02 -0.10654648124E+04  0.11098385822E+04  0.46999998093E+01 0. -1.
</event>
<event>
 5   0  0.1224048E-03  0.6996556E+03  0.7818609E-02  0.9717821E-01
       -2   -1    0    0    0  501  0.00000000000E+00  0.00000000000E+00  0.52866726369E+02  0.52866726430E+02  0.25500000920E-02 0.  1.
        2   -1    0    0  501    0  0.00000000000E+00  0.00000000000E+00 -0.23148680876E+04  0.23148680876E+04  0.25500000920E-02 0. -1.
    10030    2    1    2    0    0  0.00000000000E+00  0.00000000000E+00 -0.22620013612E+04  0.23677348140E+04  0.69965562340E+03 0.  0.
        3    1    3    3  502    0  0.92910471273E+02  0.14825790044E+02 -0.22712476819E+04  0.22731955927E+04  0.10100000352E+00 0. -1.
       -3    1    3    3    0  502 -0.92910471273E+02 -0.14825790044E+02  0.92463207133E+01  0.94539221333E+02  0.10100000352E+00 0.  1.
</event>
<event>
 5   0  0.7459843E-04  0.6999428E+03  0.7818609E-02  0.9717330E-01
       -1   -1    0    0    0  501  0.00000000000E+00  0.00000000000E+00  0.15144906838E+03  0.15144906847E+03  0.50400001928E-02 0. -1.
        1   -1    0    0  501    0  0.00000000000E+00  0.00000000000E+00 -0.80872053037E+03  0.80872053039E+03  0.50400001928E-02 0.  1.
    10030    2    1    2    0    0  0.00000000000E+00  0.00000000000E+00 -0.65727146199E+03  0.96016959885E+03  0.69994277181E+03 0.  0.
        2    1    3    3  502    0 -0.28838605898E+03  0.15711136386E+02 -0.57499038825E+02  0.29448174526E+03  0.25500000920E-02 0. -1.
       -2    1    3    3    0  502  0.28838605898E+03 -0.15711136386E+02 -0.59977242316E+03  0.66568785359E+03  0.25500000920E-02 0.  1.
</event>
<event>
 5   0  0.1243087E-03  0.7001982E+03  0.7818609E-02  0.9716893E-01
        2   -1    0    0  501    0  0.00000000000E+00  0.00000000000E+00  0.23844802849E+03  0.23844802850E+03  0.25500000920E-02 0.  1.
       -2   -1    0    0    0  501  0.00000000000E+00  0.00000000000E+00 -0.51402976840E+03  0.51402976840E+03  0.25500000920E-02 0. -1.
    10030    2    1    2    0    0  0.00000000000E+00  0.00000000000E+00 -0.27558173991E+03  0.75247779690E+03  0.70019821441E+03 0.  0.
        4    1    3    3  502    0  0.16142595376E+03 -0.16791396641E+03 -0.41867590924E+03  0.47910809693E+03  0.12699999809E+01 0. -1.
       -4    1    3    3    0  502 -0.16142595376E+03  0.16791396641E+03  0.14309416934E+03  0.27336969997E+03  0.12699999809E+01 0.  1.
</event>
<event>
 5   0  0.7459843E-04  0.6985508E+03  0.7818609E-02  0.9719714E-01
        1   -1    0    0  501    0  0.00000000000E+00  0.00000000000E+00  0.15177632012E+04  0.15177632012E+04  0.50400001928E-02 0.  1.
       -1   -1    0    0    0  501  0.00000000000E+00  0.00000000000E+00 -0.80377026032E+02  0.80377026190E+02  0.50400001928E-02 0. -1.
    10030    2    1    2    0    0  0.00000000000E+00  0.00000000000E+00  0.14373861751E+04  0.15981402274E+04  0.69855076398E+03 0.  0.
        2    1    3    3  502    0 -0.19670582405E+03  0.26608116903E+03  0.97448567025E+03  0.10291329804E+04  0.25500000920E-02 0. -1.
       -2    1    3    3    0  502  0.19670582405E+03 -0.26608116903E+03  0.46290050490E+03  0.56900724703E+03  0.25500000920E-02 0.  1.
</event>
<event>
 5   0  0.4936000E-04  0.7000302E+03  0.7818609E-02  0.9717181E-01
       -3   -1    0    0    0  501  0.00000000000E+00  0.00000000000E+00  0.53641614526E+03  0.53641615477E+03  0.10100000352E+00 0. -1.
        3   -1    0    0  501    0  0.00000000000E+00  0.00000000000E+00 -0.22838714728E+03  0.22838716961E+03  0.10100000352E+00 0.  1.
    10030    2    1    2    0    0  0.00000000000E+00  0.00000000000E+00  0.30802899798E+03  0.76480332439E+03  0.70003018606E+03 0.  0.
        3    1    3    3  502    0 -0.26479941652E+03  0.88747321826E+02 -0.76495507758E+02  0.28956241302E+03  0.10100000352E+00 0.  1.
       -3    1    3    3    0  502  0.26479941652E+03 -0.88747321826E+02  0.38452450574E+03  0.47524091137E+03  0.10100000352E+00 0. -1.
</event>
<event>
 5   0  0.7574241E-04  0.7005545E+03  0.7818609E-02  0.9716284E-01
       -1   -1    0    0    0  501  0.00000000000E+00  0.00000000000E+00  0.17616803023E+03  0.17616803030E+03  0.50400001928E-02 0.  1.
        1   -1    0    0  501    0  0.00000000000E+00  0.00000000000E+00 -0.69646098122E+03  0.69646098123E+03  0.50400001928E-02 0. -1.
    10030    2    1    2    0    0  0.00000000000E+00  0.00000000000E+00 -0.52029295098E+03  0.87262901154E+03  0.70055452103E+03 0.  0.
        3    1    3    3  502    0 -0.32886180319E+03  0.63339077789E+02 -0.13231206752E+03  0.36009501217E+03  0.10100000352E+00 0.  1.
       -3    1    3    3    0  502  0.32886180319E+03 -0.63339077789E+02 -0.38798088346E+03  0.51253399937E+03  0.10100000352E+00 0. -1.
</event>
<event>
 5   0  0.1265562E-03  0.6992890E+03  0.7818609E-02  0.9718449E-01
        2   -1    0    0  501    0  0.00000000000E+00  0.00000000000E+00  0.26564466924E+03  0.26564466925E+03  0.25500000920E-02 0.  1.
       -2   -1    0    0    0  501  0.00000000000E+00  0.00000000000E+00 -0.46020601968E+03  0.46020601969E+03  0.25500000920E-02 0. -1.
    10030    2    1    2    0    0  0.00000000000E+00  0.00000000000E+00 -0.19456135045E+03  0.72585068894E+03  0.69928899859E+03 0.  0.
        1    1    3    3  502    0  0.11525455351E+02 -0.27998932544E+03  0.11976573790E+03  0.30474692859E+03  0.50400001928E-02 0.  1.
       -1    1    3    3    0  502 -0.11525455351E+02  0.27998932544E+03 -0.31432708835E+03  0.42110376035E+03  0.50400001928E-02 0. -1.
</event>
<event>
 5   0  0.7459843E-04  0.7002176E+03  0.7818609E-02  0.9716860E-01
       -1   -1    0    0    0  501  0.00000000000E+00  0.00000000000E+00  0.15947131628E+03  0.15947131636E+03  0.50400001928E-02 0.  1.
        1   -1    0    0  501    0  0.00000000000E+00  0.00000000000E+00 -0.76864095203E+03  0.76864095204E+03  0.50400001928E-02 0. -1.
    10030    2    1    2    0    0  0.00000000000E+00  0.00000000000E+00 -0.60916963575E+03  0.92811226840E+03  0.70021763591E+03 0.  0.
        2    1    3    3  502    0  0.33131175433E+02 -0.29265249558E+03 -0.53679876959E+02  0.29937382510E+03  0.25500000920E-02 0. -1.
       -2    1    3    3    0  502 -0.33131175433E+02  0.29265249558E+03 -0.55548975879E+03  0.62873844330E+03  0.25500000920E-02 0.  1.
</event>
<event>
 5   0  0.1265562E-03  0.7000625E+03  0.7818609E-02  0.9717125E-01
       -2   -1    0    0    0  501  0.00000000000E+00  0.00000000000E+00  0.59661677497E+03  0.59661677498E+03  0.25500000920E-02 0.  1.
        2   -1    0    0  501    0  0.00000000000E+00  0.00000000000E+00 -0.20536110086E+03  0.20536110088E+03  0.25500000920E-02 0. -1.
    10030    2    1    2    0    0  0.00000000000E+00  0.00000000000E+00  0.39125567411E+03  0.80197787586E+03  0.70006250495E+03 0.  0.
        1    1    3    3  502    0 -0.24804686297E+03  0.24691103208E+03  0.20185769805E+03  0.40402825926E+03  0.50400001928E-02 0.  1.
       -1    1    3    3    0  502  0.24804686297E+03 -0.24691103208E+03  0.18939797606E+03  0.39794961660E+03  0.50400001928E-02 0. -1.
</event>
<event>
 5   0  0.4936000E-04  0.6973865E+03  0.7818609E-02  0.9721712E-01
       -3   -1    0    0    0  501  0.00000000000E+00  0.00000000000E+00  0.23741139996E+03  0.23741142144E+03  0.10100000352E+00 0. -1.
        3   -1    0    0  501    0  0.00000000000E+00  0.00000000000E+00 -0.51213614398E+03  0.51213615394E+03  0.10100000352E+00 0.  1.
    10030    2    1    2    0    0  0.00000000000E+00  0.00000000000E+00 -0.27472474402E+03  0.74954757539E+03  0.69738646588E+03 0.  0.
        5    1    3    3  502    0  0.23197348194E+03 -0.25693500738E+03 -0.92560218662E+02  0.35835286857E+03  0.46999998093E+01 0.  1.
       -5    1    3    3    0  502 -0.23197348194E+03  0.25693500738E+03 -0.18216452536E+03  0.39119470681E+03  0.46999998093E+01 0. -1.
</event>
<event>
 5   0  0.1224048E-03  0.7007077E+03  0.7818609E-02  0.9716023E-01
        2   -1    0    0  501    0  0.00000000000E+00  0.00000000000E+00  0.82639518000E+03  0.82639518000E+03  0.25500000920E-02 0.  1.
       -2   -1    0    0    0  501  0.00000000000E+00  0.00000000000E+00 -0.14853403974E+03  0.14853403976E+03  0.25500000920E-02 0. -1.
    10030    2    1    2    0    0  0.00000000000E+00  0.00000000000E+00  0.67786114026E+03  0.97492921976E+03  0.70070768376E+03 0.  0.
        3    1    3    3  502    0  0.30164768437E+03 -0.14418385377E+03  0.19322037747E+03  0.38615338098E+03  0.10100000352E+00 0. -1.
       -3    1    3    3    0  502 -0.30164768437E+03  0.14418385377E+03  0.48464076279E+03  0.58877583878E+03  0.10100000352E+00 0.  1.
</event>
<event>
 5   0  0.7013526E-04  0.7001956E+03  0.7818609E-02  0.9716898E-01
        1   -1    0    0  501    0  0.00000000000E+00  0.00000000000E+00  0.60953710645E+03  0.60953710647E+03  0.50400001928E-02 0. -1.
       -1   -1    0    0    0  501  0.00000000000E+00  0.00000000000E+00 -0.20108449338E+03  0.20108449344E+03  0.50400001928E-02 0.  1.
    10030    2    1    2    0    0  0.00000000000E+00  0.00000000000E+00  0.40845261307E+03  0.81062159991E+03  0.70019557348E+03 0.  0.
        1    1    3    3  502    0 -0.85219205864E+02  0.66103880955E+02 -0.18137268764E+03  0.21101679547E+03  0.50400001928E-02 0.  1.
       -1    1    3    3    0  502  0.85219205864E+02 -0.66103880955E+02  0.58982530071E+03  0.59960480444E+03  0.50400001928E-02 0. -1.
</event>
<event>
 5   0  0.7013526E-04  0.7001525E+03  0.7818609E-02  0.9716971E-01
        1   -1    0    0  501    0  0.00000000000E+00  0.00000000000E+00  0.15543682815E+04  0.15543682815E+04  0.50400001928E-02 0.  1.
       -1   -1    0    0    0  501  0.00000000000E+00  0.00000000000E+00 -0.78844486927E+02  0.78844487088E+02  0.50400001928E-02 0. -1.
    10030    2    1    2    0    0  0.00000000000E+00  0.00000000000E+00  0.14755237946E+04  0.16332127686E+04  0.70015246850E+03 0.  0.
        1    1    3    3  502    0 -0.45610232700E+02 -0.34547021955E+03  0.65957785983E+03  0.74597112487E+03  0.50400001928E-02 0.  1.
       -1    1    3    3    0  502  0.45610232700E+02  0.34547021955E+03  0.81594593473E+03  0.88724164372E+03  0.50400001928E-02 0. -1.
</event>
<event>
 5   0  0.1265562E-03  0.6993727E+03  0.7818609E-02  0.9718306E-01
        2   -1    0    0  501    0  0.00000000000E+00  0.00000000000E+00  0.65388992950E+03  0.65388992951E+03  0.25500000920E-02 0.  1.
       -2   -1    0    0    0  501  0.00000000000E+00  0.00000000000E+00 -0.18700478864E+03  0.18700478865E+03  0.25500000920E-02 0. -1.
    10030    2    1    2    0    0  0.00000000000E+00  0.00000000000E+00  0.46688514087E+03  0.84089471816E+03  0.69937271341E+03 0.  0.
        1    1    3    3  502    0 -0.33505138891E+03 -0.13167475814E+02  0.35275922287E+03  0.48669485818E+03  0.50400001928E-02 0.  1.
       -1    1    3    3    0  502  0.33505138891E+03  0.13167475814E+02  0.11412591799E+03  0.35419985998E+03  0.50400001928E-02 0. -1.
</event>
<event>
 5   0  0.7459843E-04  0.7002347E+03  0.7818609E-02  0.9716831E-01
        1   -1    0    0  501    0  0.00000000000E+00  0.00000000000E+00  0.34416887947E+03  0.34416887951E+03  0.50400001928E-02 0.  1.
       -1   -1    0    0    0  501  0.00000000000E+00  0.00000000000E+00 -0.35616862369E+03  0.35616862372E+03  0.50400001928E-02 0. -1.
    10030    2    1    2    0    0  0.00000000000E+00  0.00000000000E+00 -0.11999744220E+02  0.70033750323E+03  0.70023469249E+03 0.  0.
        2    1    3    3  502    0 -0.10649586800E+03 -0.31545778583E+03 -0.11430783807E+03  0.35202452527E+03  0.25500000920E-02 0.  1.
       -2    1    3    3    0  502  0.10649586800E+03  0.31545778583E+03  0.10230809385E+03  0.34831297796E+03  0.25500000920E-02 0. -1.
</event>
<event>
 5   0  0.7013526E-04  0.6988916E+03  0.7818609E-02  0.9719130E-01
        1   -1    0    0  501    0  0.00000000000E+00  0.00000000000E+00  0.22351174194E+04  0.22351174194E+04  0.50400001928E-02 0.  1.
       -1   -1    0    0    0  501  0.00000000000E+00  0.00000000000E+00 -0.54633539275E+02  0.54633539507E+02  0.50400001928E-02 0. -1.
    10030    2    1    2    0    0  0.00000000000E+00  0.00000000000E+00  0.21804838802E+04  0.22897509589E+04  0.69889162419E+03 0.  0.
        1    1    3    3  502    0 -0.23414003003E+03 -0.44542485565E+01  0.19399941372E+04  0.19540774412E+04  0.50400001928E-02 0.  1.
       -1    1    3    3    0  502  0.23414003003E+03  0.44542485565E+01  0.24048974297E+03  0.33567351771E+03  0.50400001928E-02 0. -1.
</event>
<event>
 5   0  0.1224048E-03  0.7002501E+03  0.7818609E-02  0.9716805E-01
        2   -1    0    0  501    0  0.00000000000E+00  0.00000000000E+00  0.89415875467E+03  0.89415875468E+03  0.25500000920E-02 0. -1.
       -2   -1    0    0    0  501  0.00000000000E+00  0.00000000000E+00 -0.13709819864E+03  0.13709819867E+03  0.25500000920E-02 0.  1.
    10030    2    1    2    0    0  0.00000000000E+00  0.00000000000E+00  0.75706055603E+03  0.10312569533E+04  0.70025011126E+03 0.  0.
        3    1    3    3  502    0  0.74590847247E+02  0.12594788003E+03  0.84693364224E+03  0.85949012068E+03  0.10100000352E+00 0. -1.
       -3    1    3    3    0  502 -0.74590847247E+02 -0.12594788003E+03 -0.89873086212E+02  0.17176683267E+03  0.10100000352E+00 0.  1.
</event>
<event>
 5   0  0.7572415E-04  0.6999511E+03  0.7818609E-02  0.9717316E-01
        1   -1    0    0  501    0  0.00000000000E+00  0.00000000000E+00  0.21538106072E+03  0.21538106078E+03  0.50400001928E-02 0. -1.
       -1   -1    0    0    0  501  0.00000000000E+00  0.00000000000E+00 -0.56867993090E+03  0.56867993093E+03  0.50400001928E-02 0.  1.
    10030    2    1    2    0    0  0.00000000000E+00  0.00000000000E+00 -0.35329887018E+03  0.78406099170E+03  0.69995110332E+03 0.  0.
        4    1    3    3  502    0  0.51649575738E+02  0.34594254229E+03 -0.18977749710E+03  0.39794601712E+03  0.12699999809E+01 0.  1.
       -4    1    3    3    0  502 -0.51649575738E+02 -0.34594254229E+03 -0.16352137309E+03  0.38611497458E+03  0.12699999809E+01 0. -1.
</event>
<event>
 5   0  0.7572415E-04  0.7002838E+03  0.7818609E-02  0.9716747E-01
        1   -1    0    0  501    0  0.00000000000E+00  0.00000000000E+00  0.31665177592E+03  0.31665177596E+03  0.50400001928E-02 0.  1.
       -1   -1    0    0    0  501  0.00000000000E+00  0.00000000000E+00 -0.38717408046E+03  0.38717408049E+03  0.50400001928E-02 0. -1.
    10030    2    1    2    0    0  0.00000000000E+00  0.00000000000E+00 -0.70522304547E+02  0.70382585645E+03  0.70028382872E+03 0.  0.
        4    1    3    3  502    0  0.59511938263E+02 -0.33136846445E+03 -0.13192984947E+03  0.36159898798E+03  0.12699999809E+01 0. -1.
       -4    1    3    3    0  502 -0.59511938263E+02  0.33136846445E+03  0.61407544920E+02  0.34222686847E+03  0.12699999809E+01 0.  1.
</event>
<event>
 5   0  0.7572415E-04  0.6999364E+03  0.7818609E-02  0.9717341E-01
       -1   -1    0    0    0  501  0.00000000000E+00  0.00000000000E+00  0.25196995834E+03  0.25196995839E+03  0.50400001928E-02 0. -1.
        1   -1    0    0  501    0  0.00000000000E+00  0.00000000000E+00 -0.48608072715E+03  0.48608072717E+03  0.50400001928E-02 0.  1.
    10030    2    1    2    0    0  0.00000000000E+00  0.00000000000E+00 -0.23411076881E+03  0.73805068556E+03  0.69993639881E+03 0.  0.
        4    1    3    3  502    0  0.24508923968E+03 -0.42298804863E+02 -0.37667000068E+03  0.45137548295E+03  0.12699999809E+01 0.  1.
       -4    1    3    3    0  502 -0.24508923968E+03  0.42298804863E+02  0.14255923187E+03  0.28667520261E+03  0.12699999809E+01 0. -1.
</event>
<event>
 5   0  0.1222679E-03  0.6998842E+03  0.7818609E-02  0.9717430E-01
        2   -1    0    0  501    0  0.00000000000E+00  0.00000000000E+00  0.15000671963E+04  0.15000671963E+04  0.25500000920E-02 0.  1.
       -2   -1    0    0    0  501  0.00000000000E+00  0.00000000000E+00 -0.81635993283E+02  0.81635993322E+02  0.25500000920E-02 0. -1.
    10030    2    1    2    0    0  0.00000000000E+00  0.00000000000E+00  0.14184312031E+04  0.15817031897E+04  0.69988420641E+03 0.  0.
        2    1    3    3  502    0  0.26234296121E+02 -0.15708889814E+03  0.50161232056E+01  0.15934340811E+03  0.25500000920E-02 0. -1.
       -2    1    3    3    0  502 -0.26234296121E+02  0.15708889814E+03  0.14134150798E+04  0.14223597815E+04  0.25500000920E-02 0.  1.
</event>
<event>
 5   0  0.1243087E-03  0.7000793E+03  0.7818609E-02  0.9717097E-01
        2   -1    0    0  501    0  0.00000000000E+00  0.00000000000E+00  0.31986560166E+03  0.31986560167E+03  0.25500000920E-02 0.  1.
       -2   -1    0    0    0  501  0.00000000000E+00  0.00000000000E+00 -0.38306010914E+03  0.38306010915E+03  0.25500000920E-02 0. -1.
    10030    2    1    2    0    0  0.00000000000E+00  0.00000000000E+00 -0.63194507480E+02  0.70292571081E+03  0.70007928776E+03 0.  0.
        4    1    3    3  502    0  0.29669137646E+03  0.16939101337E+03  0.44916590781E+02  0.34458409902E+03  0.12699999809E+01 0. -1.
       -4    1    3    3    0  502 -0.29669137646E+03 -0.16939101337E+03 -0.10811109826E+03  0.35834161179E+03  0.12699999809E+01 0.  1.
</event>
<event>
 5   0  0.1224048E-03  0.6997132E+03  0.7818609E-02  0.9717723E-01
       -2   -1    0    0    0  501  0.00000000000E+00  0.00000000000E+00  0.79851508707E+02  0.79851508748E+02  0.25500000920E-02 0.  1.
        2   -1    0    0  501    0  0.00000000000E+00  0.00000000000E+00 -0.15328405248E+04  0.15328405248E+04  0.25500000920E-02 0. -1.
    10030    2    1    2    0    0  0.00000000000E+00  0.00000000000E+00 -0.14529890161E+04  0.16126920335E+04  0.69971316565E+03 0.  0.
        3    1    3    3  502    0 -0.74723244355E+02  0.16375883281E+03 -0.14179281042E+04  0.14293077476E+04  0.10100000352E+00 0. -1.
       -3    1    3    3    0  502  0.74723244355E+02 -0.16375883281E+03 -0.35060911867E+02  0.18338428589E+03  0.10100000352E+00 0.  1.
</event>
<event>
 5   0  0.7574241E-04  0.6999540E+03  0.7818609E-02  0.9717311E-01
       -1   -1    0    0    0  501  0.00000000000E+00  0.00000000000E+00  0.16989248864E+03  0.16989248871E+03  0.50400001928E-02 0.  1.
        1   -1    0    0  501    0  0.00000000000E+00  0.00000000000E+00 -0.72094951936E+03  0.72094951937E+03  0.50400001928E-02 0. -1.
    10030    2    1    2    0    0  0.00000000000E+00  0.00000000000E+00 -0.55105703072E+03  0.89084200809E+03  0.69995402154E+03 0.  0.
        3    1    3    3  502    0  0.77635900519E+01  0.24211751716E+03  0.45949156313E+02  0.24656135263E+03  0.10100000352E+00 0.  1.
       -3    1    3    3    0  502 -0.77635900519E+01 -0.24211751716E+03 -0.59700618703E+03  0.64428065546E+03  0.10100000352E+00 0. -1.
</event>
<event>
 5   0  0.1282546E-03  0.7009049E+03  0.7818609E-02  0.9715686E-01
       -2   -1    0    0    0  501  0.00000000000E+00  0.00000000000E+00  0.13062561077E+03  0.13062561079E+03  0.25500000920E-02 0.  1.
        2   -1    0    0  501    0  0.00000000000E+00  0.00000000000E+00 -0.94022093015E+03  0.94022093015E+03  0.25500000920E-02 0. -1.
    10030    2    1    2    0    0  0.00000000000E+00  0.00000000000E+00 -0.80959531938E+03  0.10708465409E+04  0.70090493870E+03 0.  0.
        5    1    3    3  502    0 -0.66630587719E+02  0.28605218396E+03 -0.69680187884E+03  0.75618809533E+03  0.46999998093E+01 0. -1.
       -5    1    3    3    0  502  0.66630587719E+02 -0.28605218396E+03 -0.11279344055E+03  0.31465844562E+03  0.46999998093E+01 0.  1.
</event>
<event>
 5   0  0.4936000E-04  0.6998273E+03  0.7818609E-02  0.9717528E-01
       -3   -1    0    0    0  501  0.00000000000E+00  0.00000000000E+00  0.14399873043E+03  0.14399876585E+03  0.10100000352E+00 0. -1.
        3   -1    0    0  501    0  0.00000000000E+00  0.00000000000E+00 -0.85028218643E+03  0.85028219242E+03  0.10100000352E+00 0.  1.
    10030    2    1    2    0    0  0.00000000000E+00  0.00000000000E+00 -0.70628345599E+03  0.99428095828E+03  0.69982733855E+03 0.  0.
        1    1    3    3  502    0 -0.14961506056E+03  0.31023979811E+03 -0.26548954792E+03  0.43487710765E+03  0.50400001928E-02 0. -1.
       -1    1    3    3    0  502  0.14961506056E+03 -0.31023979811E+03 -0.44079390807E+03  0.55940385063E+03  0.50400001928E-02 0.  1.
</event>
<event>
 5   0  0.1222679E-03  0.6998854E+03  0.7818609E-02  0.9717428E-01
       -2   -1    0    0    0  501  0.00000000000E+00  0.00000000000E+00  0.28078032058E+03  0.28078032059E+03  0.25500000920E-02 0. -1.
        2   -1    0    0  501    0  0.00000000000E+00  0.00000000000E+00 -0.43614124835E+03  0.43614124836E+03  0.25500000920E-02 0.  1.
    10030    2    1    2    0    0  0.00000000000E+00  0.00000000000E+00 -0.15536092778E+03  0.71692156895E+03  0.69988536071E+03 0.  0.
        2    1    3    3  502    0  0.18187067581E+03  0.12866263249E+03  0.19875674812E+03  0.29855528910E+03  0.25500000920E-02 0. -1.
       -2    1    3    3    0  502 -0.18187067581E+03 -0.12866263249E+03 -0.35411767590E+03  0.41836627984E+03  0.25500000920E-02 0.  1.
</event>
<event>
 5   0  0.7574241E-04  0.6999500E+03  0.7818609E-02  0.9717318E-01
        1   -1    0    0  501    0  0.00000000000E+00  0.00000000000E+00  0.26182468213E+03  0.26182468218E+03  0.50400001928E-02 0.  1.
       -1   -1    0    0    0  501  0.00000000000E+00  0.00000000000E+00 -0.46780343856E+03  0.46780343859E+03  0.50400001928E-02 0. -1.
    10030    2    1    2    0    0  0.00000000000E+00  0.00000000000E+00 -0.20597875643E+03  0.72962812077E+03  0.69994996001E+03 0.  0.
        3    1    3    3  502    0  0.11559731676E+02 -0.17864706348E+03 -0.41646272670E+03  0.45330962224E+03  0.10100000352E+00 0. -1.
       -3    1    3    3    0  502 -0.11559731676E+02  0.17864706348E+03  0.21048397027E+03  0.27631849853E+03  0.10100000352E+00 0.  1.
</event>
<event>
 5   0  0.1282546E-03  0.6999366E+03  0.7818609E-02  0.9717341E-01
        2   -1    0    0  501    0  0.00000000000E+00  0.00000000000E+00  0.29630315064E+03  0.29630315065E+03  0.25500000920E-02 0. -1.
       -2   -1    0    0    0  501  0.00000000000E+00  0.00000000000E+00 -0.41335307030E+03  0.41335307031E+03  0.25500000920E-02 0.  1.
    10030    2    1    2    0    0  0.00000000000E+00  0.00000000000E+00 -0.11704991966E+03  0.70965622096E+03  0.69993661731E+03 0.  0.
        5    1    3    3  502    0  0.22280594926E+02 -0.34874101436E+03 -0.77192782609E+02  0.35790716072E+03  0.46999998093E+01 0.  1.
       -5    1    3    3    0  502 -0.22280594926E+02  0.34874101436E+03 -0.39857137054E+02  0.35174906024E+03  0.46999998093E+01 0. -1.
</event>
<event>
 5   0  0.7570633E-04  0.7000233E+03  0.7818609E-02  0.9717192E-01
       -1   -1    0    0    0  501  0.00000000000E+00  0.00000000000E+00  0.39734138668E+03  0.39734138671E+03  0.50400001928E-02 0.  1.
        1   -1    0    0  501    0  0.00000000000E+00  0.00000000000E+00 -0.30831960258E+03  0.30831960262E+03  0.50400001928E-02 0. -1.
    10030    2    1    2    0    0  0.00000000000E+00  0.00000000000E+00  0.89021784097E+02  0.70566098933E+03  0.70002325234E+03 0.  0.
        5    1    3    3  502    0  0.24662136751E+03 -0.24620632321E+03  0.77119455657E+02  0.35694418743E+03  0.46999998093E+01 0.  1.
       -5    1    3    3    0  502 -0.24662136751E+03  0.24620632321E+03  0.11902328440E+02  0.34871680189E+03  0.46999998093E+01 0. -1.
</event>
<event>
 5   0  0.1282546E-03  0.6999175E+03  0.7818609E-02  0.9717373E-01
        2   -1    0    0  501    0  0.00000000000E+00  0.00000000000E+00  0.93759297448E+02  0.93759297483E+02  0.25500000920E-02 0.  1.
       -2   -1    0    0    0  501  0.00000000000E+00  0.00000000000E+00 -0.13062290400E+04  0.13062290400E+04  0.25500000920E-02 0. -1.
    10030    2    1    2    0    0  0.00000000000E+00  0.00000000000E+00 -0.12124697426E+04  0.13999883375E+04  0.69991747263E+03 0.  0.
        5    1    3    3  502    0  0.31676099306E+03  0.10365177258E+03 -0.81949810697E+03  0.88469229340E+03  0.46999998093E+01 0.  1.
       -5    1    3    3    0  502 -0.31676099306E+03 -0.10365177258E+03 -0.39297163559E+03  0.51529604410E+03  0.46999998093E+01 0. -1.
</event>
<event>
 5   0  0.1265562E-03  0.7000659E+03  0.7818609E-02  0.9717120E-01
        2   -1    0    0  501    0  0.00000000000E+00  0.00000000000E+00  0.66956884964E+03  0.66956884965E+03  0.25500000920E-02 0. -1.
       -2   -1    0    0    0  501  0.00000000000E+00  0.00000000000E+00 -0.18298798112E+03  0.18298798114E+03  0.25500000920E-02 0.  1.
    10030    2    1    2    0    0  0.00000000000E+00  0.00000000000E+00  0.48658086852E+03  0.85255683079E+03  0.70006585984E+03 0.  0.
        1    1    3    3  502    0 -0.29504802300E+03 -0.15905987060E+03  0.36610162683E+03  0.49637060700E+03  0.50400001928E-02 0.  1.
       -1    1    3    3    0  502  0.29504802300E+03  0.15905987060E+03  0.12047924169E+03  0.35618622378E+03  0.50400001928E-02 0. -1.
</event>
<event>
 5   0  0.1243087E-03  0.6998576E+03  0.7818609E-02  0.9717476E-01
       -2   -1    0    0    0  501  0.00000000000E+00  0.00000000000E+00  0.31821621550E+03  0.31821621551E+03  0.25500000920E-02 0. -1.
        2   -1    0    0  501    0  0.00000000000E+00  0.00000000000E+00 -0.38480172823E+03  0.38480172824E+03  0.25500000920E-02 0.  1.
    10030    2    1    2    0    0  0.00000000000E+00  0.00000000000E+00 -0.66585512734E+02  0.70301794374E+03  0.69985755602E+03 0.  0.
        4    1    3    3  502    0 -0.29456073875E+03  0.60828740231E+02  0.14635098512E+03  0.33449422745E+03  0.12699999809E+01 0. -1.
       -4    1    3    3    0  502  0.29456073875E+03 -0.60828740231E+02 -0.21293649786E+03  0.36852371629E+03  0.12699999809E+01 0.  1.
</event>
<event>
 5   0  0.7574241E-04  0.6998772E+03  0.7818609E-02  0.9717442E-01
       -1   -1    0    0    0  501  0.00000000000E+00  0.00000000000E+00  0.94039274059E+03  0.94039274061E+03  0.50400001928E-02 0.  1.
        1   -1    0    0  501    0  0.00000000000E+00  0.00000000000E+00 -0.13021903488E+03  0.13021903498E+03  0.50400001928E-02 0. -1.
    10030    2    1    2    0    0  0.00000000000E+00  0.00000000000E+00  0.81017370572E+03  0.10706117756E+04  0.69987723251E+03 0.  0.
        3    1    3    3  502    0 -0.25810859425E+02  0.25467581692E+02  0.93751122347E+03  0.93821218416E+03  0.10100000352E+00 0.  1.
       -3    1    3    3    0  502  0.25810859425E+02 -0.25467581692E+02 -0.12733751775E+03  0.13239959142E+03  0.10100000352E+00 0. -1.
</event>
<event>
 5   0  0.7572415E-04  0.6999780E+03  0.7818609E-02  0.9717270E-01
       -1   -1    0    0    0  501  0.00000000000E+00  0.00000000000E+00  0.20728849051E+03  0.20728849057E+03  0.50400001928E-02 0. -1.
        1   -1    0    0  501    0  0.00000000000E+00  0.00000000000E+00 -0.59092665082E+03  0.59092665084E+03  0.50400001928E-02 0.  1.
    10030    2    1    2    0    0  0.00000000000E+00  0.00000000000E+00 -0.38363816031E+03  0.79821514142E+03  0.69997798104E+03 0.  0.
        4    1    3    3  502    0  0.91377430143E+01 -0.25496731770E+03  0.81384996416E+02  0.26780022775E+03  0.12699999809E+01 0. -1.
       -4    1    3    3    0  502 -0.91377430143E+01  0.25496731770E+03 -0.46502315673E+03  0.53041491366E+03  0.12699999809E+01 0.  1.
</event>
<event>
 5   0  0.1265562E-03  0.7002733E+03  0.7818609E-02  0.9716765E-01
        2   -1    0    0  501    0  0.00000000000E+00  0.00000000000E+00  0.28785804064E+03  0.28785804066E+03  0.25500000920E-02 0. -1.
       -2   -1    0    0    0  501  0.00000000000E+00  0.00000000000E+00 -0.42588939282E+03  0.42588939283E+03  0.25500000920E-02 0.  1.
    10030    2    1    2    0    0  0.00000000000E+00  0.00000000000E+00 -0.13803135217E+03  0.71374743348E+03  0.70027333565E+03 0.  0.
        1    1    3    3  502    0 -0.19541311239E+03 -0.28897303672E+03 -0.38370808787E+02  0.35094731719E+03  0.50400001928E-02 0.  1.
       -1    1    3    3    0  502  0.19541311239E+03  0.28897303672E+03 -0.99660543387E+02  0.36280011629E+03  0.50400001928E-02 0. -1.
</event>
<event>
 5   0  0.7572415E-04  0.7004872E+03  0.7818609E-02  0.9716399E-01
        1   -1    0    0  501    0  0.00000000000E+00  0.00000000000E+00  0.26064254606E+03  0.26064254611E+03  0.50400001928E-02 0. -1.
       -1   -1    0    0    0  501  0.00000000000E+00  0.00000000000E+00 -0.47064674738E+03  0.47064674741E+03  0.50400001928E-02 0.  1.
    10030    2    1    2    0    0  0.00000000000E+00  0.00000000000E+00 -0.21000420132E+03  0.73128929351E+03  0.70048716350E+03 0.  0.
        4    1    3    3  502    0 -0.23014809255E+03 -0.43873642321E+02  0.16678367355E+03  0.28759597990E+03  0.12699999809E+01 0. -1.
       -4    1    3    3    0  502  0.23014809255E+03  0.43873642321E+02 -0.37678787487E+03  0.44369331361E+03  0.12699999809E+01 0.  1.
</event>
<event>
 5   0  0.1243087E-03  0.6999318E+03  0.7818609E-02  0.9717349E-01
       -2   -1    0    0    0  501  0.00000000000E+00  0.00000000000E+00  0.10863499349E+03  0.10863499352E+03  0.25500000920E-02 0. -1.
        2   -1    0    0  501    0  0.00000000000E+00  0.00000000000E+00 -0.11274094368E+04  0.11274094368E+04  0.25500000920E-02 0.  1.
    10030    2    1    2    0    0  0.00000000000E+00  0.00000000000E+00 -0.10187744433E+04  0.12360444303E+04  0.69993175910E+03 0.  0.
        4    1    3    3  502    0 -0.38426673897E+02 -0.28263117500E+03 -0.86747690122E+03  0.91316744214E+03  0.12699999809E+01 0.  1.
       -4    1    3    3    0  502  0.38426673897E+02  0.28263117500E+03 -0.15129754207E+03  0.32287698816E+03  0.12699999809E+01 0. -1.
</event>
<event>
 5   0  0.1282546E-03  0.6991477E+03  0.7818609E-02  0.9718691E-01
        2   -1    0    0  501    0  0.00000000000E+00  0.00000000000E+00  0.39642698199E+03  0.39642698200E+03  0.25500000920E-02 0.  1.
       -2   -1    0    0    0  501  0.00000000000E+00  0.00000000000E+00 -0.30825818175E+03  0.30825818176E+03  0.25500000920E-02 0. -1.
    10030    2    1    2    0    0  0.00000000000E+00  0.00000000000E+00  0.88168800241E+02  0.70468516376E+03  0.69914765442E+03 0.  0.
        5    1    3    3  502    0 -0.12429456221E+03 -0.31889596604E+03  0.11561121431E+03  0.36129187401E+03  0.46999998093E+01 0.  1.
       -5    1    3    3    0  502  0.12429456221E+03  0.31889596604E+03 -0.27442414068E+02  0.34339328975E+03  0.46999998093E+01 0. -1.
</event>
<event>
 5   0  0.1282546E-03  0.7003231E+03  0.7818609E-02  0.9716680E-01
       -2   -1    0    0    0  501  0.00000000000E+00  0.00000000000E+00  0.30862414140E+03  0.30862414141E+03  0.25500000920E-02 0.  1.
        2   -1    0    0  501    0  0.00000000000E+00  0.00000000000E+00 -0.39728943919E+03  0.39728943920E+03  0.25500000920E-02 0. -1.
    10030    2    1    2    0    0  0.00000000000E+00  0.00000000000E+00 -0.88665297792E+02  0.70591358062E+03  0.70032310276E+03 0.  0.
        5    1    3    3  502    0  0.10630497677E+03 -0.69217737366E+02 -0.37327986343E+03  0.39427374969E+03  0.46999998093E+01 0. -1.
       -5    1    3    3    0  502 -0.10630497677E+03  0.69217737366E+02  0.28461456564E+03  0.31163983093E+03  0.46999998093E+01 0.  1.
</event>
<event>
 5   0  0.7459843E-04  0.7004365E+03  0.7818609E-02  0.9716486E-01
        1   -1    0    0  501    0  0.00000000000E+00  0.00000000000E+00  0.48660217861E+03  0.48660217864E+03  0.50400001928E-02 0. -1.
       -1   -1    0    0    0  501  0.00000000000E+00  0.00000000000E+00 -0.25205971952E+03  0.25205971957E+03  0.50400001928E-02 0.  1.
    10030    2    1    2    0    0  0.00000000000E+00  0.00000000000E+00  0.23454245909E+03  0.73866189821E+03  0.70043646018E+03 0.  0.
        2    1    3    3  502    0 -0.25533926857E+03  0.23950063623E+03  0.10704067647E+03  0.36608250881E+03  0.25500000920E-02 0. -1.
       -2    1    3    3    0  502  0.25533926857E+03 -0.23950063623E+03  0.12750178262E+03  0.37257938940E+03  0.25500000920E-02 0.  1.
</event>
<event>
 5   0  0.7572415E-04  0.7004541E+03  0.7818609E-02  0.9716456E-01
        1   -1    0    0  501    0  0.00000000000E+00  0.00000000000E+00  0.22846517736E+03  0.22846517742E+03  0.50400001928E-02 0.  1.
       -1   -1    0    0    0  501  0.00000000000E+00  0.00000000000E+00 -0.53688270526E+03  0.53688270529E+03  0.50400001928E-02 0. -1.
    10030    2    1    2    0    0  0.00000000000E+00  0.00000000000E+00 -0.30841752790E+03  0.76534788271E+03  0.70045414557E+03 0.  0.
        4    1    3    3  502    0  0.17740864977E+03 -0.24005081578E+03  0.45954676739E+02  0.30201269573E+03  0.12699999809E+01 0.  1.
       -4    1    3    3    0  502 -0.17740864977E+03  0.24005081578E+03 -0.35437220464E+03  0.46333518698E+03  0.12699999809E+01 0. -1.
</event>
<event>
 5   0  0.4936000E-04  0.6998539E+03  0.7818609E-02  0.9717482E-01
        3   -1    0    0  501    0  0.00000000000E+00  0.00000000000E+00  0.18663924619E+03  0.18663927351E+03  0.10100000352E+00 0. -1.
       -3   -1    0    0    0  501  0.00000000000E+00  0.00000000000E+00 -0.65607233535E+03  0.65607234312E+03  0.10100000352E+00 0.  1.
    10030    2    1    2    0    0  0.00000000000E+00  0.00000000000E+00 -0.46943308916E+03  0.84271161664E+03  0.69985387304E+03 0.  0.
        4    1    3    3  502    0 -0.16359653131E+03  0.26685800950E+03 -0.46355713510E+02  0.31642927703E+03  0.12699999809E+01 0.  1.
       -4    1    3    3    0  502  0.16359653131E+03 -0.26685800950E+03 -0.42307737565E+03  0.52628233960E+03  0.12699999809E+01 0. -1.
</event>
<event>
 5   0  0.7013526E-04  0.6997281E+03  0.7818609E-02  0.9717697E-01
       -1   -1    0    0    0  501  0.00000000000E+00  0.00000000000E+00  0.10148642256E+03  0.10148642268E+03  0.50400001928E-02 0. -1.
        1   -1    0    0  501    0  0.00000000000E+00  0.00000000000E+00 -0.12061203257E+04  0.12061203257E+04  0.50400001928E-02 0.  1.
    10030    2    1    2    0    0  0.00000000000E+00  0.00000000000E+00 -0.11046339031E+04  0.13076067484E+04  0.69972805323E+03 0.  0.
        1    1    3    3  502    0  0.12770914374E+03 -0.30398376788E+03 -0.77095966436E+03  0.83850734083E+03  0.50400001928E-02 0.  1.
       -1    1    3    3    0  502 -0.12770914374E+03  0.30398376788E+03 -0.33367423879E+03  0.46909940757E+03  0.50400001928E-02 0. -1.
</event>
<event>
 5   0  0.1282546E-03  0.6998887E+03  0.7818609E-02  0.9717423E-01
       -2   -1    0    0    0  501  0.00000000000E+00  0.00000000000E+00  0.51678548391E+03  0.51678548392E+03  0.25500000920E-02 0.  1.
        2   -1    0    0  501    0  0.00000000000E+00  0.00000000000E+00 -0.23696687324E+03  0.23696687326E+03  0.25500000920E-02 0. -1.
    10030    2    1    2    0    0  0.00000000000E+00  0.00000000000E+00  0.27981861067E+03  0.75375235717E+03  0.69988867763E+03 0.  0.
        5    1    3    3  502    0  0.20339843765E+03 -0.28455543479E+03  0.12934463922E+03  0.37295421381E+03  0.46999998093E+01 0.  1.
       -5    1    3    3    0  502 -0.20339843765E+03  0.28455543479E+03  0.15047397144E+03  0.38079814336E+03  0.46999998093E+01 0. -1.
</event>
<event>
 5   0  0.1243087E-03  0.7002271E+03  0.7818609E-02  0.9716844E-01
        2   -1    0    0  501    0  0.00000000000E+00  0.00000000000E+00  0.72700829926E+03  0.72700829926E+03  0.25500000920E-02 0. -1.
       -2   -1    0    0    0  501  0.00000000000E+00  0.00000000000E+00 -0.16860809217E+03  0.16860809219E+03  0.25500000920E-02 0.  1.
    10030    2    1    2    0    0  0.00000000000E+00  0.00000000000E+00  0.55840020709E+03  0.89561639145E+03  0.70022705557E+03 0.  0.
        4    1    3    3  502    0  0.12208496440E+03  0.66327965345E+02  0.69023441997E+03  0.70408046765E+03  0.12699999809E+01 0. -1.
       -4    1    3    3    0  502 -0.12208496440E+03 -0.66327965345E+02 -0.13183421288E+03  0.19153592380E+03  0.12699999809E+01 0.  1.
</event>
<event>
 5   0  0.1265562E-03  0.6998959E+03  0.7818609E-02  0.9717410E-01
        2   -1    0    0  501    0  0.00000000000E+00  0.00000000000E+00  0.22534860511E+03  0.22534860512E+03  0.25500000920E-02 0. -1.
       -2   -1    0    0    0  501  0.00000000000E+00  0.00000000000E+00 -0.54344049317E+03  0.54344049318E+03  0.25500000920E-02 0.  1.
    10030    2    1    2    0    0  0.00000000000E+00  0.00000000000E+00 -0.31809188806E+03  0.76878909830E+03  0.69989586969E+03 0.  0.
        1    1    3    3  502    0 -0.66272668584E+02 -0.29076533484E+03 -0.36017332625E+03  0.46761241591E+03  0.50400001928E-02 0.  1.
       -1    1    3    3    0  502  0.66272668584E+02  0.29076533484E+03  0.42081438183E+02  0.30117668239E+03  0.50400001928E-02 0. -1.
</event>
<event>
 5   0  0.1265562E-03  0.6992693E+03  0.7818609E-02  0.9718483E-01
       -2   -1    0    0    0  501  0.00000000000E+00  0.00000000000E+00  0.16351833965E+03  0.16351833967E+03  0.25500000920E-02 0.  1.
        2   -1    0    0  501    0  0.00000000000E+00  0.00000000000E+00 -0.74758834543E+03  0.74758834543E+03  0.25500000920E-02 0. -1.
    10030    2    1    2    0    0  0.00000000000E+00  0.00000000000E+00 -0.58407000577E+03  0.91110668511E+03  0.69926934725E+03 0.  0.
        1    1    3    3  502    0  0.20251061688E+03  0.11062370682E+03 -0.63428029853E+03  0.67495159203E+03  0.50400001928E-02 0. -1.
       -1    1    3    3    0  502 -0.20251061688E+03 -0.11062370682E+03  0.50210292758E+02  0.23615509307E+03  0.50400001928E-02 0.  1.
</event>
<event>
 5   0  0.7459843E-04  0.7008353E+03  0.7818609E-02  0.9715805E-01
        1   -1    0    0  501    0  0.00000000000E+00  0.00000000000E+00  0.11477836321E+03  0.11477836332E+03  0.50400001928E-02 0. -1.
       -1   -1    0    0    0  501  0.00000000000E+00  0.00000000000E+00 -0.10698229897E+04  0.10698229897E+04  0.50400001928E-02 0.  1.
    10030    2    1    2    0    0  0.00000000000E+00  0.00000000000E+00 -0.95504462649E+03  0.11846013530E+04  0.70083530662E+03 0.  0.
        2    1    3    3  502    0 -0.95004853136E+01 -0.86171415650E+02 -0.10514102976E+04  0.10549783818E+04  0.25500000920E-02 0.  1.
       -2    1    3    3    0  502  0.95004853136E+01  0.86171415650E+02  0.96365671122E+02  0.12962297124E+03  0.25500000920E-02 0. -1.
</event>
<event>
 5   0  0.7570633E-04  0.7000499E+03  0.7818609E-02  0.9717147E-01
        1   -1    0    0  501    0  0.00000000000E+00  0.00000000000E+00  0.87947475321E+03  0.87947475322E+03  0.50400001928E-02 0.  1.
       -1   -1    0    0    0  501  0.00000000000E+00  0.00000000000E+00 -0.13930752499E+03  0.13930752508E+03  0.50400001928E-02 0. -1.
    10030    2    1    2    0    0  0.00000000000E+00  0.00000000000E+00  0.74016722822E+03  0.10187822783E+04  0.70004985884E+03 0.  0.
        5    1    3    3  502    0 -0.25982795106E+03  0.19979107533E+03  0.54872614959E+03  0.63917878186E+03  0.46999998093E+01 0. -1.
       -5    1    3    3    0  502  0.25982795106E+03 -0.19979107533E+03  0.19144107863E+03  0.37960349645E+03  0.46999998093E+01 0.  1.
</event>
<event>
 5   0  0.1282546E-03  0.6999054E+03  0.7818609E-02  0.9717394E-01
       -2   -1    0    0    0  501  0.00000000000E+00  0.00000000000E+00  0.89791195216E+03  0.89791195217E+03  0.25500000920E-02 0.  1.
        2   -1    0    0  501    0  0.00000000000E+00  0.00000000000E+00 -0.13639076290E+03  0.13639076292E+03  0.25500000920E-02 0. -1.
    10030    2    1    2    0    0  0.00000000000E+00  0.00000000000E+00  0.76152118927E+03  0.10343027151E+04  0.69990541128E+03 0.  0.
        5    1    3    3  502    0  0.19651432846E+03 -0.59781016682E+02 -0.37878103087E+02  0.20892221504E+03  0.46999998093E+01 0. -1.
       -5    1    3    3    0  502 -0.19651432846E+03  0.59781016682E+02  0.79939929235E+03  0.82538050005E+03  0.46999998093E+01 0.  1.
</event>
<event>
 5   0  0.7572415E-04  0.6999363E+03  0.7818609E-02  0.9717341E-01
       -1   -1    0    0    0  501  0.00000000000E+00  0.00000000000E+00  0.42356944396E+03  0.42356944399E+03  0.50400001928E-02 0.  1.
        1   -1    0    0  501    0  0.00000000000E+00  0.00000000000E+00 -0.28915614471E+03  0.28915614475E+03  0.50400001928E-02 0. -1.
    10030    2    1    2    0    0  0.00000000000E+00  0.00000000000E+00  0.13441329925E+03  0.71272558874E+03  0.69993630412E+03 0.  0.
        4    1    3    3  502    0  0.20721230442E+03 -0.18941267153E+03 -0.14556591132E+03  0.31623590352E+03  0.12699999809E+01 0.  1.
       -4    1    3    3    0  502 -0.20721230442E+03  0.18941267153E+03  0.27997921057E+03  0.39648968522E+03  0.12699999809E+01 0. -1.
</event>
<event>
 5   0  0.1222679E-03  0.6999700E+03  0.7818609E-02  0.9717284E-01
       -2   -1    0    0    0  501  0.00000000000E+00  0.00000000000E+00  0.31688330141E+03  0.31688330142E+03  0.25500000920E-02 0.  1.
        2   -1    0    0  501    0  0.00000000000E+00  0.00000000000E+00 -0.38654450636E+03  0.38654450637E+03  0.25500000920E-02 0. -1.
    10030    2    1    2    0    0  0.00000000000E+00  0.00000000000E+00 -0.69661204952E+02  0.70342780778E+03  0.69996999742E+03 0.  0.
        2    1    3    3  502    0  0.21864090926E+03  0.27311043497E+03 -0.24966697247E+02  0.35073707085E+03  0.25500000920E-02 0. -1.
       -2    1    3    3    0  502 -0.21864090926E+03 -0.27311043497E+03 -0.44694507704E+02  0.35269073693E+03  0.25500000920E-02 0.  1.
</event>
<event>
 5   0  0.7013526E-04  0.6979039E+03  0.7818609E-02  0.9720824E-01
       -1   -1    0    0    0  501  0.00000000000E+00  0.00000000000E+00  0.53075576605E+03  0.53075576608E+03  0.50400001928E-02 0. -1.
        1   -1    0    0  501    0  0.00000000000E+00  0.00000000000E+00 -0.22942275611E+03  0.22942275616E+03  0.50400001928E-02 0.  1.
    10030    2    1    2    0    0  0.00000000000E+00  0.00000000000E+00  0.30133300995E+03  0.76017852224E+03  0.69790386357E+03 0.  0.
        1    1    3    3  502    0  0.59846130252E+02 -0.34372308622E+03  0.14374912784E+03  0.37734722881E+03  0.50400001928E-02 0.  1.
       -1    1    3    3    0  502 -0.59846130252E+02  0.34372308622E+03  0.15758388210E+03  0.38283129343E+03  0.50400001928E-02 0. -1.
</event>
<event>
 5   0  0.1224048E-03  0.6999510E+03  0.7818609E-02  0.9717316E-01
        2   -1    0    0  501    0  0.00000000000E+00  0.00000000000E+00  0.70137640370E+03  0.70137640371E+03  0.25500000920E-02 0.  1.
       -2   -1    0    0    0  501  0.00000000000E+00  0.00000000000E+00 -0.17463211505E+03  0.17463211507E+03  0.25500000920E-02 0. -1.
    10030    2    1    2    0    0  0.00000000000E+00  0.00000000000E+00  0.52674428865E+03  0.87600851878E+03  0.69995098353E+03 0.  0.
        3    1    3    3  502    0 -0.20038311975E+03  0.42653595574E+02 -0.91740317735E+02  0.22447498746E+03  0.10100000352E+00 0. -1.
       -3    1    3    3    0  502  0.20038311975E+03 -0.42653595574E+02  0.61848460638E+03  0.65153353132E+03  0.10100000352E+00 0.  1.
</event>
<event>
 5   0  0.1282546E-03  0.7003462E+03  0.7818609E-02  0.9716640E-01
       -2   -1    0    0    0  501  0.00000000000E+00  0.00000000000E+00  0.81391778890E+02  0.81391778930E+02  0.25500000920E-02 0. -1.
        2   -1    0    0  501    0  0.00000000000E+00  0.00000000000E+00 -0.15065549840E+04  0.15065549840E+04  0.25500000920E-02 0.  1.
    10030    2    1    2    0    0  0.00000000000E+00  0.00000000000E+00 -0.14251632051E+04  0.15879467629E+04  0.70034617205E+03 0.  0.
        5    1    3    3  502    0 -0.65146437539E+02 -0.26105808300E+03 -0.12206136683E+04  0.12499260771E+04  0.46999998093E+01 0.  1.
       -5    1    3    3    0  502  0.65146437539E+02  0.26105808300E+03 -0.20454953680E+03  0.33802068580E+03  0.46999998093E+01 0. -1.
</event>
<event>
 5   0  0.7013526E-04  0.7040474E+03  0.7818609E-02  0.9710335E-01
        1   -1    0    0  501    0  0.00000000000E+00  0.00000000000E+00  0.22639356884E+03  0.22639356890E+03  0.50400001928E-02 0. -1.
       -1   -1    0    0    0  501  0.00000000000E+00  0.00000000000E+00 -0.54736844580E+03  0.54736844582E+03  0.50400001928E-02 0.  1.
    10030    2    1    2    0    0  0.00000000000E+00  0.00000000000E+00 -0.32097487695E+03  0.77376201472E+03  0.70404743007E+03 0.  0.
        1    1    3    3  502    0 -0.25092225144E+03 -0.17976702410E+03  0.25511826174E+02  0.30972409096E+03  0.50400001928E-02 0. -1.
       -1    1    3    3    0  502  0.25092225144E+03  0.17976702410E+03 -0.34648670313E+03  0.46403792376E+03  0.50400001928E-02 0.  1.
</event>
<event>
 5   0  0.7572415E-04  0.7000846E+03  0.7818609E-02  0.9717087E-01
        1   -1    0    0  501    0  0.00000000000E+00  0.00000000000E+00  0.45895582836E+03  0.45895582839E+03  0.50400001928E-02 0.  1.
       -1   -1    0    0    0  501  0.00000000000E+00  0.00000000000E+00 -0.26697475534E+03  0.26697475538E+03  0.50400001928E-02 0. -1.
    10030    2    1    2    0    0  0.00000000000E+00  0.00000000000E+00  0.19198107302E+03  0.72593058377E+03  0.70008462350E+03 0.  0.
        4    1    3    3  502    0  0.14076949854E+03 -0.86558439301E+02  0.41595939570E+03  0.44758490469E+03  0.12699999809E+01 0.  1.
       -4    1    3    3    0  502 -0.14076949854E+03  0.86558439301E+02 -0.22397832268E+03  0.27834567908E+03  0.12699999809E+01 0. -1.
</event>
<event>
 5   0  0.7570633E-04  0.6990612E+03  0.7818609E-02  0.9718839E-01
        1   -1    0    0  501    0  0.00000000000E+00  0.00000000000E+00  0.39876977951E+03  0.39876977954E+03  0.50400001928E-02 0.  1.
       -1   -1    0    0    0  501  0.00000000000E+00  0.00000000000E+00 -0.30637132553E+03  0.30637132557E+03  0.50400001928E-02 0. -1.
    10030    2    1    2    0    0  0.00000000000E+00  0.00000000000E+00  0.92398453977E+02  0.70514110511E+03  0.69906115886E+03 0.  0.
        5    1    3    3  502    0  0.24609106492E+03 -0.93211062977E+02 -0.18580207674E+03  0.32217016655E+03  0.46999998093E+01 0. -1.
       -5    1    3    3    0  502 -0.24609106492E+03  0.93211062977E+02  0.27820053072E+03  0.38297093856E+03  0.46999998093E+01 0.  1.
</event>
<event>
 5   0  0.7570633E-04  0.7000540E+03  0.7818609E-02  0.9717140E-01
       -1   -1    0    0    0  501  0.00000000000E+00  0.00000000000E+00  0.37970160304E+03  0.37970160307E+03  0.50400001928E-02 0.  1.
        1   -1    0    0  501    0  0.00000000000E+00  0.00000000000E+00 -0.32267155859E+03  0.32267155863E+03  0.50400001928E-02 0. -1.
    10030    2    1    2    0    0  0.00000000000E+00  0.00000000000E+00  0.57030044449E+02  0.70237316170E+03  0.70005402099E+03 0.  0.
        5    1    3    3  502    0  0.37687164395E+02  0.21192747123E+03  0.30540616705E+03  0.37366909464E+03  0.46999998093E+01 0. -1.
       -5    1    3    3    0  502 -0.37687164395E+02 -0.21192747123E+03 -0.24837612260E+03  0.32870406705E+03  0.46999998093E+01 0.  1.
</event>
<event>
 5   0  0.1282546E-03  0.6999070E+03  0.7818609E-02  0.9717391E-01
       -2   -1    0    0    0  501  0.00000000000E+00  0.00000000000E+00  0.32671444148E+03  0.32671444149E+03  0.25500000920E-02 0.  1.
        2   -1    0    0  501    0  0.00000000000E+00  0.00000000000E+00 -0.37484555479E+03  0.37484555480E+03  0.25500000920E-02 0. -1.
    10030    2    1    2    0    0  0.00000000000E+00  0.00000000000E+00 -0.48131113314E+02  0.70155999629E+03  0.69990701120E+03 0.  0.
        5    1    3    3  502    0  0.99218385809E+02 -0.13115148576E+03 -0.33366451660E+03  0.37202029506E+03  0.46999998093E+01 0. -1.
       -5    1    3    3    0  502 -0.99218385809E+02  0.13115148576E+03  0.28553340328E+03  0.32953970123E+03  0.46999998093E+01 0.  1.
</event>
<event>
 5   0  0.1282546E-03  0.7001038E+03  0.7818609E-02  0.9717055E-01
        2   -1    0    0  501    0  0.00000000000E+00  0.00000000000E+00  0.49618897477E+03  0.49618897478E+03  0.25500000920E-02 0. -1.
       -2   -1    0    0    0  501  0.00000000000E+00  0.00000000000E+00 -0.24695496149E+03  0.24695496150E+03  0.25500000920E-02 0.  1.
    10030    2    1    2    0    0  0.00000000000E+00  0.00000000000E+00  0.24923401328E+03  0.74314393628E+03  0.70010378992E+03 0.  0.
        5    1    3    3  502    0 -0.29665141822E+03 -0.82971823250E+02 -0.51817719862E+02  0.31239966945E+03  0.46999998093E+01 0.  1.
       -5    1    3    3    0  502  0.29665141822E+03  0.82971823250E+02  0.30105173314E+03  0.43074426683E+03  0.46999998093E+01 0. -1.
</event>
<event>
 5   0  0.1224048E-03  0.7003390E+03  0.7818609E-02  0.9716653E-01
        2   -1    0    0  501    0  0.00000000000E+00  0.00000000000E+00  0.84434033515E+03  0.84434033515E+03  0.25500000920E-02 0.  1.
       -2   -1    0    0    0  501  0.00000000000E+00  0.00000000000E+00 -0.14522425325E+03  0.14522425327E+03  0.25500000920E-02 0. -1.
    10030    2    1    2    0    0  0.00000000000E+00  0.00000000000E+00  0.69911608190E+03  0.98956458843E+03  0.70033904553E+03 0.  0.
        3    1    3    3  502    0  0.20045460946E+03  0.26711879953E+03  0.49831853409E+03  0.59987988392E+03  0.10100000352E+00 0.  1.
       -3    1    3    3    0  502 -0.20045460946E+03 -0.26711879953E+03  0.20079754781E+03  0.38968470450E+03  0.10100000352E+00 0. -1.
</event>
<event>
 5   0  0.1282546E-03  0.7002709E+03  0.7818609E-02  0.9716769E-01
        2   -1    0    0  501    0  0.00000000000E+00  0.00000000000E+00  0.10733187998E+04  0.10733187998E+04  0.25500000920E-02 0. -1.
       -2   -1    0    0    0  501  0.00000000000E+00  0.00000000000E+00 -0.11422033314E+03  0.11422033317E+03  0.25500000920E-02 0.  1.
    10030    2    1    2    0    0  0.00000000000E+00  0.00000000000E+00  0.95909846668E+03  0.11875391330E+04  0.70027089301E+03 0.  0.
        5    1    3    3  502    0 -0.15184124563E+03 -0.22493860991E+03  0.85462870710E+03  0.89669697173E+03  0.46999998093E+01 0. -1.
       -5    1    3    3    0  502  0.15184124563E+03  0.22493860991E+03  0.10446975958E+03  0.29084216126E+03  0.46999998093E+01 0.  1.
</event>
<event>
 5   0  0.7459843E-04  0.6993415E+03  0.7818609E-02  0.9718359E-01
       -1   -1    0    0    0  501  0.00000000000E+00  0.00000000000E+00  0.72098554189E+03  0.72098554191E+03  0.50400001928E-02 0.  1.
        1   -1    0    0  501    0  0.00000000000E+00  0.00000000000E+00 -0.16958681611E+03  0.16958681618E+03  0.50400001928E-02 0. -1.
    10030    2    1    2    0    0  0.00000000000E+00  0.00000000000E+00  0.55139872578E+03  0.89057235809E+03  0.69934152615E+03 0.  0.
        2    1    3    3  502    0  0.11616965457E+03 -0.32441293492E+03  0.20003382947E+03  0.39843779179E+03  0.25500000920E-02 0.  1.
       -2    1    3    3    0  502 -0.11616965457E+03  0.32441293492E+03  0.35136489631E+03  0.49213456630E+03  0.25500000920E-02 0. -1.
</event>
<event>
 5   0  0.1224048E-03  0.6999802E+03  0.7818609E-02  0.9717266E-01
        2   -1    0    0  501    0  0.00000000000E+00  0.00000000000E+00  0.60227483718E+03  0.60227483719E+03  0.25500000920E-02 0.  1.
       -2   -1    0    0    0  501  0.00000000000E+00  0.00000000000E+00 -0.20338400947E+03  0.20338400948E+03  0.25500000920E-02 0. -1.
    10030    2    1    2    0    0  0.00000000000E+00  0.00000000000E+00  0.39889082771E+03  0.80565884667E+03  0.69998020314E+03 0.  0.
        3    1    3    3  502    0  0.12568811736E+03 -0.23654707927E+03  0.45871113132E+03  0.53119481902E+03  0.10100000352E+00 0.  1.
       -3    1    3    3    0  502 -0.12568811736E+03  0.23654707927E+03 -0.59820303604E+02  0.27446402766E+03  0.10100000352E+00 0. -1.
</event>
<event>
 5   0  0.1243087E-03  0.7001198E+03  0.7818609E-02  0.9717027E-01
       -2   -1    0    0    0  501  0.00000000000E+00  0.00000000000E+00  0.53921133451E+02  0.53921133511E+02  0.25500000920E-02 0. -1.
        2   -1    0    0  501    0  0.00000000000E+00  0.00000000000E+00 -0.22726145066E+04  0.22726145066E+04  0.25500000920E-02 0.  1.
    10030    2    1    2    0    0  0.00000000000E+00  0.00000000000E+00 -0.22186933732E+04  0.23265356401E+04  0.70011984736E+03 0.  0.
        4    1    3    3  502    0 -0.69397891620E+02 -0.34269109643E+03 -0.10530425174E+04  0.11095735268E+04  0.12699999809E+01 0.  1.
       -4    1    3    3    0  502  0.69397891620E+02  0.34269109643E+03 -0.11656508557E+04  0.12169621133E+04  0.12699999809E+01 0. -1.
</event>
<event>
 5   0  0.1224048E-03  0.6999857E+03  0.7818609E-02  0.9717257E-01
        2   -1    0    0  501    0  0.00000000000E+00  0.00000000000E+00  0.86910374612E+02  0.86910374649E+02  0.25500000920E-02 0.  1.
       -2   -1    0    0    0  501  0.00000000000E+00  0.00000000000E+00 -0.14094405955E+04  0.14094405955E+04  0.25500000920E-02 0. -1.
    10030    2    1    2    0    0  0.00000000000E+00  0.00000000000E+00 -0.13225302209E+04  0.14963509702E+04  0.69998574323E+03 0.  0.
        3    1    3    3  502    0 -0.28107148905E+03 -0.33726657276E+02 -0.11012152295E+04  0.11370196398E+04  0.10100000352E+00 0. -1.
       -3    1    3    3    0  502  0.28107148905E+03  0.33726657276E+02 -0.22131499137E+03  0.35933133035E+03  0.10100000352E+00 0.  1.
</event>
<event>
 5   0  0.4936000E-04  0.7005696E+03  0.7818609E-02  0.9716259E-01
        4   -1    0    0  501    0  0.00000000000E+00  0.00000000000E+00  0.91402085709E+02  0.91410908385E+02  0.12699999809E+01 0.  1.
       -4   -1    0    0    0  501  0.00000000000E+00  0.00000000000E+00 -0.13423401676E+04  0.13423407683E+04  0.12699999809E+01 0. -1.
    10030    2    1    2    0    0  0.00000000000E+00  0.00000000000E+00 -0.12509380819E+04  0.14337516767E+04  0.70056961530E+03 0.  0.
        5    1    3    3  502    0 -0.13596022936E+03 -0.11689355739E+03 -0.97050771792E+01  0.17962618475E+03  0.46999998093E+01 0.  1.
       -5    1    3    3    0  502  0.13596022936E+03  0.11689355739E+03 -0.12412330047E+04  0.12541254920E+04  0.46999998093E+01 0. -1.
</event>
<event>
 5   0  0.1222679E-03  0.7002783E+03  0.7818609E-02  0.9716756E-01
        2   -1    0    0  501    0  0.00000000000E+00  0.00000000000E+00  0.25825893956E+03  0.25825893958E+03  0.25500000920E-02 0. -1.
       -2   -1    0    0    0  501  0.00000000000E+00  0.00000000000E+00 -0.47470739508E+03  0.47470739508E+03  0.25500000920E-02 0.  1.
    10030    2    1    2    0    0  0.00000000000E+00  0.00000000000E+00 -0.21644845551E+03  0.73296633466E+03  0.70027831171E+03 0.  0.
        2    1    3    3  502    0  0.31530019910E+03 -0.59239898434E+02  0.38586570595E+02  0.32312923816E+03  0.25500000920E-02 0.  1.
       -2    1    3    3    0  502 -0.31530019910E+03  0.59239898434E+02 -0.25503502611E+03  0.40983709650E+03  0.25500000920E-02 0. -1.
</event>
<event>
 5   0  0.7572415E-04  0.6999123E+03  0.7818609E-02  0.9717382E-01
       -1   -1    0    0    0  501  0.00000000000E+00  0.00000000000E+00  0.13655656806E+03  0.13655656815E+03  0.50400001928E-02 0. -1.
        1   -1    0    0  501    0  0.00000000000E+00  0.00000000000E+00 -0.89683946038E+03  0.89683946040E+03  0.50400001928E-02 0.  1.
    10030    2    1    2    0    0  0.00000000000E+00  0.00000000000E+00 -0.76028289232E+03  0.10333960285E+04  0.69991233413E+03 0.  0.
        4    1    3    3  502    0  0.10997473519E+03 -0.31431560025E+03 -0.53901735573E+03  0.63358508632E+03  0.12699999809E+01 0.  1.
       -4    1    3    3    0  502 -0.10997473519E+03  0.31431560025E+03 -0.22126553660E+03  0.39981094222E+03  0.12699999809E+01 0. -1.
</event>
<event>
 5   0  0.7459843E-04  0.7003179E+03  0.7818609E-02  0.9716689E-01
       -1   -1    0    0    0  501  0.00000000000E+00  0.00000000000E+00  0.90332916745E+02  0.90332916886E+02  0.50400001928E-02 0. -1.
        1   -1    0    0  501    0  0.00000000000E+00  0.00000000000E+00 -0.13573267360E+04  0.13573267360E+04  0.50400001928E-02 0.  1.
    10030    2    1    2    0    0  0.00000000000E+00  0.00000000000E+00 -0.12669938192E+04  0.14476596529E+04  0.70031787967E+03 0.  0.
        2    1    3    3  502    0 -0.16912024969E+03 -0.23567840411E+03 -0.10389175897E+04  0.10786545913E+04  0.25500000920E-02 0.  1.
       -2    1    3    3    0  502  0.16912024969E+03  0.23567840411E+03 -0.22807622951E+03  0.36900506161E+03  0.25500000920E-02 0. -1.
</event>
<event>
 5   0  0.1243087E-03  0.7001257E+03  0.7818609E-02  0.9717017E-01
        2   -1    0    0  501    0  0.00000000000E+00  0.00000000000E+00  0.19207226138E+03  0.19207226139E+03  0.25500000920E-02 0. -1.
       -2   -1    0    0    0  501  0.00000000000E+00  0.00000000000E+00 -0.63800992097E+03  0.63800992097E+03  0.25500000920E-02 0.  1.
    10030    2    1    2    0    0  0.00000000000E+00  0.00000000000E+00 -0.44593765959E+03  0.83008218237E+03  0.70012572674E+03 0.  0.
        4    1    3    3  502    0  0.69647655988E+02 -0.17656685968E+03  0.12576383431E+03  0.22769454724E+03  0.12699999809E+01 0. -1.
       -4    1    3    3    0  502 -0.69647655988E+02  0.17656685968E+03 -0.57170149390E+03  0.60238763513E+03  0.12699999809E+01 0.  1.
</event>
<event>
 5   0  0.7574241E-04  0.7001477E+03  0.7818609E-02  0.9716980E-01
       -1   -1    0    0    0  501  0.00000000000E+00  0.00000000000E+00  0.12503621203E+03  0.12503621214E+03  0.50400001928E-02 0.  1.
        1   -1    0    0  501    0  0.00000000000E+00  0.00000000000E+00 -0.98012976485E+03  0.98012976486E+03  0.50400001928E-02 0. -1.
    10030    2    1    2    0    0  0.00000000000E+00  0.00000000000E+00 -0.85509355282E+03  0.11051659770E+04  0.70014773630E+03 0.  0.
        3    1    3    3  502    0  0.29300657187E+03 -0.15095898989E+03 -0.61371478525E+03  0.69662566391E+03  0.10100000352E+00 0. -1.
       -3    1    3    3    0  502 -0.29300657187E+03  0.15095898989E+03 -0.24137876757E+03  0.40854031309E+03  0.10100000352E+00 0.  1.
</event>
<event>
 5   0  0.4936000E-04  0.6998918E+03  0.7818609E-02  0.9717417E-01
        4   -1    0    0  501    0  0.00000000000E+00  0.00000000000E+00  0.23813573465E+03  0.23813912114E+03  0.12699999809E+01 0.  1.
       -4   -1    0    0    0  501  0.00000000000E+00  0.00000000000E+00 -0.51424570613E+03  0.51424727435E+03  0.12699999809E+01 0. -1.
    10030    2    1    2    0    0  0.00000000000E+00  0.00000000000E+00 -0.27610997149E+03  0.75238639548E+03  0.69989182861E+03 0.  0.
        1    1    3    3  502    0 -0.43181233031E+02 -0.33449484081E+03 -0.23838645567E+03  0.41301273550E+03  0.50400001928E-02 0. -1.
       -1    1    3    3    0  502  0.43181233031E+02  0.33449484081E+03 -0.37723515819E+02  0.33937365998E+03  0.50400001928E-02 0.  1.
</event>
<event>
 5   0  0.1224048E-03  0.6999649E+03  0.7818609E-02  0.9717292E-01
       -2   -1    0    0    0  501  0.00000000000E+00  0.00000000000E+00  0.49881391091E+03  0.49881391091E+03  0.25500000920E-02 0.  1.
        2   -1    0    0  501    0  0.00000000000E+00  0.00000000000E+00 -0.24555790605E+03  0.24555790606E+03  0.25500000920E-02 0. -1.
    10030    2    1    2    0    0  0.00000000000E+00  0.00000000000E+00  0.25325600486E+03  0.74437181698E+03  0.69996485477E+03 0.  0.
        3    1    3    3  502    0  0.31880456973E+03 -0.44501190404E+02 -0.19458775440E+02  0.32248312168E+03  0.10100000352E+00 0. -1.
       -3    1    3    3    0  502 -0.31880456973E+03  0.44501190404E+02  0.27271478030E+03  0.42188869530E+03  0.10100000352E+00 0.  1.
</event>
<event>
 5   0  0.1224048E-03  0.7002171E+03  0.7818609E-02  0.9716861E-01
       -2   -1    0    0    0  501  0.00000000000E+00  0.00000000000E+00  0.37231724339E+03  0.37231724340E+03  0.25500000920E-02 0.  1.
        2   -1    0    0  501    0  0.00000000000E+00  0.00000000000E+00 -0.32922457904E+03  0.32922457905E+03  0.25500000920E-02 0. -1.
    10030    2    1    2    0    0  0.00000000000E+00  0.00000000000E+00  0.43092664346E+02  0.70154182244E+03  0.70021707414E+03 0.  0.
        3    1    3    3  502    0  0.16312859302E+03 -0.25384116368E+03  0.19944832463E+03  0.36169865723E+03  0.10100000352E+00 0.  1.
       -3    1    3    3    0  502 -0.16312859302E+03  0.25384116368E+03 -0.15635566029E+03  0.33984316522E+03  0.10100000352E+00 0. -1.
</event>
<event>
 5   0  0.1243087E-03  0.7002205E+03  0.7818609E-02  0.9716855E-01
        2   -1    0    0  501    0  0.00000000000E+00  0.00000000000E+00  0.27810100701E+03  0.27810100703E+03  0.25500000920E-02 0.  1.
       -2   -1    0    0    0  501  0.00000000000E+00  0.00000000000E+00 -0.44076502035E+03  0.44076502035E+03  0.25500000920E-02 0. -1.
    10030    2    1    2    0    0  0.00000000000E+00  0.00000000000E+00 -0.16266401333E+03  0.71886602738E+03  0.70022052533E+03 0.  0.
        4    1    3    3  502    0  0.87708204743E+02  0.32399949107E+03  0.20853247986E+02  0.33631067518E+03  0.12699999809E+01 0.  1.
       -4    1    3    3    0  502 -0.87708204743E+02 -0.32399949107E+03 -0.18351726132E+03  0.38255535220E+03  0.12699999809E+01 0. -1.
</event>
<event>
 5   0  0.7013526E-04  0.7002044E+03  0.7818609E-02  0.9716883E-01
        1   -1    0    0  501    0  0.00000000000E+00  0.00000000000E+00  0.15098417100E+04  0.15098417101E+04  0.50400001928E-02 0.  1.
       -1   -1    0    0    0  501  0.00000000000E+00  0.00000000000E+00 -0.81181722415E+02  0.81181722571E+02  0.50400001928E-02 0. -1.
    10030    2    1    2    0    0  0.00000000000E+00  0.00000000000E+00  0.14286599876E+04  0.15910234326E+04  0.70020440080E+03 0.  0.
        1    1    3    3  502    0 -0.26308298251E+02 -0.33328848968E+03  0.95044715878E+03  0.10075331982E+04  0.50400001928E-02 0.  1.
       -1    1    3    3    0  502  0.26308298251E+02  0.33328848968E+03  0.47821282885E+03  0.58349023438E+03  0.50400001928E-02 0. -1.
</event>
<event>
 5   0  0.1243087E-03  0.7002865E+03  0.7818609E-02  0.9716742E-01
       -2   -1    0    0    0  501  0.00000000000E+00  0.00000000000E+00  0.21794689024E+03  0.21794689025E+03  0.25500000920E-02 0. -1.
        2   -1    0    0  501    0  0.00000000000E+00  0.00000000000E+00 -0.56252366331E+03  0.56252366331E+03  0.25500000920E-02 0.  1.
    10030    2    1    2    0    0  0.00000000000E+00  0.00000000000E+00 -0.34457677307E+03  0.78047055356E+03  0.70028646456E+03 0.  0.
        4    1    3    3  502    0  0.32756078204E+03  0.11899604686E+03 -0.20996028160E+03  0.40686737133E+03  0.12699999809E+01 0. -1.
       -4    1    3    3    0  502 -0.32756078204E+03 -0.11899604686E+03 -0.13461649147E+03  0.37360318224E+03  0.12699999809E+01 0.  1.
</event>
<event>
 5   0  0.7013526E-04  0.7032630E+03  0.7818609E-02  0.9711668E-01
        1   -1    0    0  501    0  0.00000000000E+00  0.00000000000E+00  0.12257184197E+03  0.12257184208E+03  0.50400001928E-02 0.  1.
       -1   -1    0    0    0  501  0.00000000000E+00  0.00000000000E+00 -0.10087528860E+04  0.10087528860E+04  0.50400001928E-02 0. -1.
    10030    2    1    2    0    0  0.00000000000E+00  0.00000000000E+00 -0.88618104402E+03  0.11313247281E+04  0.70326296475E+03 0.  0.
        1    1    3    3  502    0 -0.17452812497E+03 -0.19326912381E+03 -0.82320103021E+03  0.86340775813E+03  0.50400001928E-02 0. -1.
       -1    1    3    3    0  502  0.17452812497E+03  0.19326912381E+03 -0.62980013808E+02  0.26791696995E+03  0.50400001928E-02 0.  1.
</event>
<event>
 5   0  0.1224048E-03  0.7046119E+03  0.7818609E-02  0.9709378E-01
       -2   -1    0    0    0  501  0.00000000000E+00  0.00000000000E+00  0.15440129196E+03  0.15440129198E+03  0.25500000920E-02 0.  1.
        2   -1    0    0  501    0  0.00000000000E+00  0.00000000000E+00 -0.80387581798E+03  0.80387581798E+03  0.25500000920E-02 0. -1.
    10030    2    1    2    0    0  0.00000000000E+00  0.00000000000E+00 -0.64947452602E+03  0.95827710997E+03  0.70461185027E+03 0.  0.
        3    1    3    3  502    0 -0.33910770483E+02  0.23938689301E+03 -0.67323740004E+03  0.71533532830E+03  0.10100000352E+00 0. -1.
       -3    1    3    3    0  502  0.33910770483E+02 -0.23938689301E+03  0.23762874019E+02  0.24294178167E+03  0.10100000352E+00 0.  1.
</event>
<event>
 5   0  0.1224048E-03  0.7000425E+03  0.7818609E-02  0.9717159E-01
       -2   -1    0    0    0  501  0.00000000000E+00  0.00000000000E+00  0.18683701195E+03  0.18683701197E+03  0.25500000920E-02 0. -1.
        2   -1    0    0  501    0  0.00000000000E+00  0.00000000000E+00 -0.65573134133E+03  0.65573134134E+03  0.25500000920E-02 0.  1.
    10030    2    1    2    0    0  0.00000000000E+00  0.00000000000E+00 -0.46889432938E+03  0.84256835330E+03  0.70004252575E+03 0.  0.
        3    1    3    3  502    0 -0.91678727090E+02  0.19385086693E+03 -0.56741438141E+03  0.60658242477E+03  0.10100000352E+00 0.  1.
       -3    1    3    3    0  502  0.91678727090E+02 -0.19385086693E+03  0.98520052028E+02  0.23598592853E+03  0.10100000352E+00 0. -1.
</event>
<event>
 5   0  0.7572415E-04  0.7017988E+03  0.7818609E-02  0.9714161E-01
       -1   -1    0    0    0  501  0.00000000000E+00  0.00000000000E+00  0.39707919346E+03  0.39707919349E+03  0.50400001928E-02 0. -1.
        1   -1    0    0  501    0  0.00000000000E+00  0.00000000000E+00 -0.31009023909E+03  0.31009023913E+03  0.50400001928E-02 0.  1.
    10030    2    1    2    0    0  0.00000000000E+00  0.00000000000E+00  0.86988954373E+02  0.70716943262E+03  0.70179878045E+03 0.  0.
        4    1    3    3  502    0 -0.23186154552E+03  0.82960363799E+02 -0.20839163144E+03  0.32260019096E+03  0.12699999809E+01 0.  1.
       -4    1    3    3    0  502  0.23186154552E+03 -0.82960363799E+02  0.29538058582E+03  0.38456924166E+03  0.12699999809E+01 0. -1.
</event>
<event>
 5   0  0.7013526E-04  0.7001844E+03  0.7818609E-02  0.9716917E-01
       -1   -1    0    0    0  501  0.00000000000E+00  0.00000000000E+00  0.11938348397E+03  0.11938348408E+03  0.50400001928E-02 0.  1.
        1   -1    0    0  501    0  0.00000000000E+00  0.00000000000E+00 -0.10266457782E+04  0.10266457782E+04  0.50400001928E-02 0. -1.
    10030    2    1    2    0    0  0.00000000000E+00  0.00000000000E+00 -0.90726229421E+03  0.11460292623E+04  0.70018440392E+03 0.  0.
        1    1    3    3  502    0 -0.14388912006E+03  0.12692401060E+03  0.25663169610E+02  0.19357784387E+03  0.50400001928E-02 0.  1.
       -1    1    3    3    0  502  0.14388912006E+03 -0.12692401060E+03 -0.93292546382E+03  0.95245141840E+03  0.50400001928E-02 0. -1.
</event>
<event>
 5   0  0.1265562E-03  0.6998334E+03  0.7818609E-02  0.9717517E-01
        2   -1    0    0  501    0  0.00000000000E+00  0.00000000000E+00  0.58159101913E+03  0.58159101914E+03  0.25500000920E-02 0. -1.
       -2   -1    0    0    0  501  0.00000000000E+00  0.00000000000E+00 -0.21052885088E+03  0.21052885090E+03  0.25500000920E-02 0.  1.
    10030    2    1    2    0    0  0.00000000000E+00  0.00000000000E+00  0.37106216825E+03  0.79211987004E+03  0.69983337717E+03 0.  0.
        1    1    3    3  502    0  0.13919340577E+02 -0.23044855086E+03 -0.11209114172E+03  0.25664120230E+03  0.50400001928E-02 0.  1.
       -1    1    3    3    0  502 -0.13919340577E+02  0.23044855086E+03  0.48315330998E+03  0.53547866774E+03  0.50400001928E-02 0. -1.
</event>
<event>
 5   0  0.7459843E-04  0.6999768E+03  0.7818609E-02  0.9717272E-01
       -1   -1    0    0    0  501  0.00000000000E+00  0.00000000000E+00  0.33599598674E+03  0.33599598678E+03  0.50400001928E-02 0. -1.
        1   -1    0    0  501    0  0.00000000000E+00  0.00000000000E+00 -0.36456349076E+03  0.36456349079E+03  0.50400001928E-02 0.  1.
    10030    2    1    2    0    0  0.00000000000E+00  0.00000000000E+00 -0.28567504015E+02  0.70055947757E+03  0.69997677056E+03 0.  0.
        2    1    3    3  502    0 -0.85744182247E+02 -0.10734043191E+03 -0.33644896617E+03  0.36341703311E+03  0.25500000920E-02 0.  1.
       -2    1    3    3    0  502  0.85744182247E+02  0.10734043191E+03  0.30788146215E+03  0.33714244446E+03  0.25500000920E-02 0. -1.
</event>
<event>
 5   0  0.1282546E-03  0.6999634E+03  0.7818609E-02  0.9717295E-01
       -2   -1    0    0    0  501  0.00000000000E+00  0.00000000000E+00  0.11480673070E+03  0.11480673072E+03  0.25500000920E-02 0. -1.
        2   -1    0    0  501    0  0.00000000000E+00  0.00000000000E+00 -0.10668990958E+04  0.10668990958E+04  0.25500000920E-02 0.  1.
    10030    2    1    2    0    0  0.00000000000E+00  0.00000000000E+00 -0.95209236514E+03  0.11817058266E+04  0.69996341960E+03 0.  0.
        5    1    3    3  502    0  0.33202035786E+02  0.15123750881E+03  0.53775816137E+02  0.16397892441E+03  0.46999998093E+01 0. -1.
       -5    1    3    3    0  502 -0.33202035786E+02 -0.15123750881E+03 -0.10058681813E+04  0.10177269021E+04  0.46999998093E+01 0.  1.
</event>
<event>
 5   0  0.7459843E-04  0.7000007E+03  0.7818609E-02  0.9717231E-01
       -1   -1    0    0    0  501  0.00000000000E+00  0.00000000000E+00  0.28224951236E+03  0.28224951241E+03  0.50400001928E-02 0.  1.
        1   -1    0    0  501    0  0.00000000000E+00  0.00000000000E+00 -0.43401407748E+03  0.43401407751E+03  0.50400001928E-02 0. -1.
    10030    2    1    2    0    0  0.00000000000E+00  0.00000000000E+00 -0.15176456512E+03  0.71626358992E+03  0.70000074787E+03 0.  0.
        2    1    3    3  502    0  0.23098771011E+03 -0.23937459173E+03  0.35479767448E+02  0.33453599402E+03  0.25500000920E-02 0.  1.
       -2    1    3    3    0  502 -0.23098771011E+03  0.23937459173E+03 -0.18724433257E+03  0.38172759590E+03  0.25500000920E-02 0. -1.
</event>
<event>
 5   0  0.7570633E-04  0.7002174E+03  0.7818609E-02  0.9716860E-01
        1   -1    0    0  501    0  0.00000000000E+00  0.00000000000E+00  0.18874538020E+03  0.18874538027E+03  0.50400001928E-02 0.  1.
       -1   -1    0    0    0  501  0.00000000000E+00  0.00000000000E+00 -0.64942571347E+03  0.64942571349E+03  0.50400001928E-02 0. -1.
    10030    2    1    2    0    0  0.00000000000E+00  0.00000000000E+00 -0.46068033327E+03  0.83817109376E+03  0.70021740406E+03 0.  0.
        5    1    3    3  502    0 -0.31492582391E+03 -0.13622694365E+02 -0.48054861840E+02  0.31889686752E+03  0.46999998093E+01 0.  1.
       -5    1    3    3    0  502  0.31492582391E+03  0.13622694365E+02 -0.41262547143E+03  0.51927422624E+03  0.46999998093E+01 0. -1.
</event>
<event>
 5   0  0.7013526E-04  0.7000989E+03  0.7818609E-02  0.9717063E-01
        1   -1    0    0  501    0  0.00000000000E+00  0.00000000000E+00  0.11075421561E+04  0.11075421561E+04  0.50400001928E-02 0.  1.
       -1   -1    0    0    0  501  0.00000000000E+00  0.00000000000E+00 -0.11063652109E+03  0.11063652121E+03  0.50400001928E-02 0. -1.
    10030    2    1    2    0    0  0.00000000000E+00  0.00000000000E+00  0.99690563496E+03  0.12181786773E+04  0.70009888213E+03 0.  0.
        1    1    3    3  502    0 -0.14027498896E+03  0.67685914693E+02 -0.47023234901E+02  0.16269492992E+03  0.50400001928E-02 0. -1.
       -1    1    3    3    0  502  0.14027498896E+03 -0.67685914693E+02  0.10439288699E+04  0.10554837474E+04  0.50400001928E-02 0.  1.
</event>
<event>
 5   0  0.1282546E-03  0.6989820E+03  0.7818609E-02  0.9718975E-01
       -2   -1    0    0    0  501  0.00000000000E+00  0.00000000000E+00  0.14117741869E+03  0.14117741871E+03  0.25500000920E-02 0. -1.
        2   -1    0    0  501    0  0.00000000000E+00  0.00000000000E+00 -0.86518045771E+03  0.86518045771E+03  0.25500000920E-02 0.  1.
    10030    2    1    2    0    0  0.00000000000E+00  0.00000000000E+00 -0.72400303902E+03  0.10063578764E+04  0.69898195608E+03 0.  0.
        5    1    3    3  502    0  0.66704691657E+02 -0.16584233526E+03  0.70327399997E+02  0.19214897669E+03  0.46999998093E+01 0. -1.
       -5    1    3    3    0  502 -0.66704691657E+02  0.16584233526E+03 -0.79433043901E+03  0.81420889973E+03  0.46999998093E+01 0.  1.
</event>
<event>
 5   0  0.7459843E-04  0.7001899E+03  0.7818609E-02  0.9716908E-01
        1   -1    0    0  501    0  0.00000000000E+00  0.00000000000E+00  0.39479441702E+03  0.39479441705E+03  0.50400001928E-02 0. -1.
       -1   -1    0    0    0  501  0.00000000000E+00  0.00000000000E+00 -0.31045644706E+03  0.31045644710E+03  0.50400001928E-02 0.  1.
    10030    2    1    2    0    0  0.00000000000E+00  0.00000000000E+00  0.84337969961E+02  0.70525086415E+03  0.70018989439E+03 0.  0.
        2    1    3    3  502    0  0.14766855409E+03  0.12248473843E+03  0.33713026334E+03  0.38789860464E+03  0.25500000920E-02 0. -1.
       -2    1    3    3    0  502 -0.14766855409E+03 -0.12248473843E+03 -0.25279229338E+03  0.31735225951E+03  0.25500000920E-02 0.  1.
</event>
<event>
 5   0  0.7574241E-04  0.7003504E+03  0.7818609E-02  0.9716633E-01
        1   -1    0    0  501    0  0.00000000000E+00  0.00000000000E+00  0.82909590034E+03  0.82909590036E+03  0.50400001928E-02 0. -1.
       -1   -1    0    0    0  501  0.00000000000E+00  0.00000000000E+00 -0.14789926644E+03  0.14789926652E+03  0.50400001928E-02 0.  1.
    10030    2    1    2    0    0  0.00000000000E+00  0.00000000000E+00  0.68119663391E+03  0.97699516688E+03  0.70035041377E+03 0.  0.
        3    1    3    3  502    0  0.57178319815E+02  0.10923663622E+03  0.79781381040E+03  0.80728488727E+03  0.10100000352E+00 0. -1.
       -3    1    3    3    0  502 -0.57178319815E+02 -0.10923663622E+03 -0.11661717649E+03  0.16971027961E+03  0.10100000352E+00 0.  1.
</event>
<event>
 5   0  0.1224048E-03  0.7000069E+03  0.7818609E-02  0.9717220E-01
       -2   -1    0    0    0  501  0.00000000000E+00  0.00000000000E+00  0.27843778240E+03  0.27843778241E+03  0.25500000920E-02 0. -1.
        2   -1    0    0  501    0  0.00000000000E+00  0.00000000000E+00 -0.43996334477E+03  0.43996334478E+03  0.25500000920E-02 0.  1.
    10030    2    1    2    0    0  0.00000000000E+00  0.00000000000E+00 -0.16152556237E+03  0.71840112718E+03  0.70000690871E+03 0.  0.
        3    1    3    3  502    0 -0.78075476163E+02 -0.16166300800E+02 -0.43051901098E+03  0.43783987744E+03  0.10100000352E+00 0.  1.
       -3    1    3    3    0  502  0.78075476163E+02  0.16166300800E+02  0.26899344861E+03  0.28056124974E+03  0.10100000352E+00 0. -1.
</event>
<event>
 5   0  0.1282546E-03  0.7001646E+03  0.7818609E-02  0.9716951E-01
       -2   -1    0    0    0  501  0.00000000000E+00  0.00000000000E+00  0.25864299601E+03  0.25864299602E+03  0.25500000920E-02 0.  1.
        2   -1    0    0  501    0  0.00000000000E+00  0.00000000000E+00 -0.47384858315E+03  0.47384858315E+03  0.25500000920E-02 0. -1.
    10030    2    1    2    0    0  0.00000000000E+00  0.00000000000E+00 -0.21520558714E+03  0.73249157917E+03  0.70016460124E+03 0.  0.
        5    1    3    3  502    0 -0.52898264757E+02  0.24842462898E+03  0.14439731147E+03  0.29220830969E+03  0.46999998093E+01 0.  1.
       -5    1    3    3    0  502  0.52898264757E+02 -0.24842462898E+03 -0.35960289861E+03  0.44028326948E+03  0.46999998093E+01 0. -1.
</event>
<event>
 5   0  0.1265562E-03  0.7002053E+03  0.7818609E-02  0.9716881E-01
        2   -1    0    0  501    0  0.00000000000E+00  0.00000000000E+00  0.56906131294E+03  0.56906131294E+03  0.25500000920E-02 0. -1.
       -2   -1    0    0    0  501  0.00000000000E+00  0.00000000000E+00 -0.21539309236E+03  0.21539309238E+03  0.25500000920E-02 0.  1.
    10030    2    1    2    0    0  0.00000000000E+00  0.00000000000E+00  0.35366822057E+03  0.78445440532E+03  0.70020532973E+03 0.  0.
        1    1    3    3  502    0  0.55159637762E+02 -0.12458301330E+03 -0.18447293053E+03  0.22933332720E+03  0.50400001928E-02 0.  1.
       -1    1    3    3    0  502 -0.55159637762E+02  0.12458301330E+03  0.53814115110E+03  0.55512107812E+03  0.50400001928E-02 0. -1.
</event>
<event>
 5   0  0.7572415E-04  0.7000157E+03  0.7818609E-02  0.9717205E-01
       -1   -1    0    0    0  501  0.00000000000E+00  0.00000000000E+00  0.30177401092E+03  0.30177401096E+03  0.50400001928E-02 0. -1.
        1   -1    0    0  501    0  0.00000000000E+00  0.00000000000E+00 -0.40595113938E+03  0.40595113941E+03  0.50400001928E-02 0.  1.
    10030    2    1    2    0    0  0.00000000000E+00  0.00000000000E+00 -0.10417712846E+03  0.70772515037E+03  0.70001572437E+03 0.  0.
        4    1    3    3  502    0 -0.11762969404E+03  0.32866969542E+03 -0.26444336256E+02  0.35008774532E+03  0.12699999809E+01 0. -1.
       -4    1    3    3    0  502  0.11762969404E+03 -0.32866969542E+03 -0.77732792201E+02  0.35763740505E+03  0.12699999809E+01 0.  1.
</event>
<event>
 5   0  0.7574241E-04  0.7013872E+03  0.7818609E-02  0.9714863E-01
        1   -1    0    0  501    0  0.00000000000E+00  0.00000000000E+00  0.16249751239E+03  0.16249751247E+03  0.50400001928E-02 0. -1.
       -1   -1    0    0    0  501  0.00000000000E+00  0.00000000000E+00 -0.75684842251E+03  0.75684842252E+03  0.50400001928E-02 0.  1.
    10030    2    1    2    0    0  0.00000000000E+00  0.00000000000E+00 -0.59435091012E+03  0.91934593499E+03  0.70138715687E+03 0.  0.
        3    1    3    3  502    0 -0.10303312754E+03 -0.17047284293E+03 -0.67550262282E+03  0.70425891488E+03  0.10100000352E+00 0.  1.
       -3    1    3    3    0  502  0.10303312754E+03  0.17047284293E+03  0.81151712701E+02  0.21508702011E+03  0.10100000352E+00 0. -1.
</event>
<event>
 5   0  0.7013526E-04  0.6997297E+03  0.7818609E-02  0.9717694E-01
        1   -1    0    0  501    0  0.00000000000E+00  0.00000000000E+00  0.70655124375E+03  0.70655124376E+03  0.50400001928E-02 0. -1.
       -1   -1    0    0    0  501  0.00000000000E+00  0.00000000000E+00 -0.17324352611E+03  0.17324352619E+03  0.50400001928E-02 0.  1.
    10030    2    1    2    0    0  0.00000000000E+00  0.00000000000E+00  0.53330771763E+03  0.87979476995E+03  0.69972974465E+03 0.  0.
        1    1    3    3  502    0 -0.95436628377E+02 -0.20343338018E+03  0.60382635620E+03  0.64428220422E+03  0.50400001928E-02 0. -1.
       -1    1    3    3    0  502  0.95436628377E+02  0.20343338018E+03 -0.70518638565E+02  0.23551256573E+03  0.50400001928E-02 0.  1.
</event>
<event>
 5   0  0.1222679E-03  0.7000726E+03  0.7818609E-02  0.9717108E-01
       -2   -1    0    0    0  501  0.00000000000E+00  0.00000000000E+00  0.10611926335E+03  0.10611926338E+03  0.25500000920E-02 0.  1.
        2   -1    0    0  501    0  0.00000000000E+00  0.00000000000E+00 -0.11546010196E+04  0.11546010196E+04  0.25500000920E-02 0. -1.
    10030    2    1    2    0    0  0.00000000000E+00  0.00000000000E+00 -0.10484817563E+04  0.12607202830E+04  0.70007259534E+03 0.  0.
        2    1    3    3  502    0 -0.26918374724E+02 -0.26931904490E+03 -0.12451855207E+03  0.29792988548E+03  0.25500000920E-02 0.  1.
       -2    1    3    3    0  502  0.26918374724E+02  0.26931904490E+03 -0.92396320418E+03  0.96279039751E+03  0.25500000920E-02 0. -1.
</event>
<event>
 5   0  0.7013526E-04  0.6996660E+03  0.7818609E-02  0.9717804E-01
       -1   -1    0    0    0  501  0.00000000000E+00  0.00000000000E+00  0.64555567263E+03  0.64555567265E+03  0.50400001928E-02 0. -1.
        1   -1    0    0  501    0  0.00000000000E+00  0.00000000000E+00 -0.18957794246E+03  0.18957794252E+03  0.50400001928E-02 0.  1.
    10030    2    1    2    0    0  0.00000000000E+00  0.00000000000E+00  0.45597773018E+03  0.83513361518E+03  0.69966596657E+03 0.  0.
        1    1    3    3  502    0 -0.30741764688E+03 -0.45829280635E+02  0.41962744677E+03  0.52220027450E+03  0.50400001928E-02 0. -1.
       -1    1    3    3    0  502  0.30741764688E+03  0.45829280635E+02  0.36350283407E+02  0.31293334068E+03  0.50400001928E-02 0.  1.
</event>
<event>
 5   0  0.4936000E-04  0.7007590E+03  0.7818609E-02  0.9715935E-01
        4   -1    0    0  501    0  0.00000000000E+00  0.00000000000E+00  0.12774230896E+04  0.12774237209E+04  0.12699999809E+01 0. -1.
       -4   -1    0    0    0  501  0.00000000000E+00  0.00000000000E+00 -0.96099408520E+02  0.96107799985E+02  0.12699999809E+01 0.  1.
    10030    2    1    2    0    0  0.00000000000E+00  0.00000000000E+00  0.11813236811E+04  0.13735315209E+04  0.70075901665E+03 0.  0.
        1    1    3    3  502    0  0.34893353149E+03  0.14243115508E+02  0.64638845993E+03  0.73469416554E+03  0.50400001928E-02 0. -1.
       -1    1    3    3    0  502 -0.34893353149E+03 -0.14243115508E+02  0.53493522116E+03  0.63883735536E+03  0.50400001928E-02 0.  1.
</event>
<event>
 5   0  0.7572415E-04  0.7007342E+03  0.7818609E-02  0.9715978E-01
        1   -1    0    0  501    0  0.00000000000E+00  0.00000000000E+00  0.69612038213E+03  0.69612038215E+03  0.50400001928E-02 0.  1.
       -1   -1    0    0    0  501  0.00000000000E+00  0.00000000000E+00 -0.17634462937E+03  0.17634462944E+03  0.50400001928E-02 0. -1.
    10030    2    1    2    0    0  0.00000000000E+00  0.00000000000E+00  0.51977575276E+03  0.87246501159E+03  0.70073416022E+03 0.  0.
        4    1    3    3  502    0 -0.20061733637E+03 -0.27674213192E+03  0.35570150108E+03  0.49331399129E+03  0.12699999809E+01 0.  1.
       -4    1    3    3    0  502  0.20061733637E+03  0.27674213192E+03  0.16407425168E+03  0.37915102030E+03  0.12699999809E+01 0. -1.
</event>
<event>
 5   0  0.1265562E-03  0.7001818E+03  0.7818609E-02  0.9716921E-01
       -2   -1    0    0    0  501  0.00000000000E+00  0.00000000000E+00  0.74290758118E+02  0.74290758162E+02  0.25500000920E-02 0. -1.
        2   -1    0    0  501    0  0.00000000000E+00  0.00000000000E+00 -0.16497829950E+04  0.16497829950E+04  0.25500000920E-02 0.  1.
    10030    2    1    2    0    0  0.00000000000E+00  0.00000000000E+00 -0.15754922369E+04  0.17240737532E+04  0.70018177489E+03 0.  0.
        1    1    3    3  502    0  0.22779586721E+03 -0.23735833554E+03 -0.49294842215E+03  0.59264498943E+03  0.50400001928E-02 0. -1.
       -1    1    3    3    0  502 -0.22779586721E+03  0.23735833554E+03 -0.10825438148E+04  0.11314287638E+04  0.50400001928E-02 0.  1.
</event>
<event>
 5   0  0.1224048E-03  0.6998627E+03  0.7818609E-02  0.9717467E-01
       -2   -1    0    0    0  501  0.00000000000E+00  0.00000000000E+00  0.18677839066E+03  0.18677839068E+03  0.25500000920E-02 0. -1.
        2   -1    0    0  501    0  0.00000000000E+00  0.00000000000E+00 -0.65560027438E+03  0.65560027439E+03  0.25500000920E-02 0.  1.
    10030    2    1    2    0    0  0.00000000000E+00  0.00000000000E+00 -0.46882188373E+03  0.84237866506E+03  0.69986274132E+03 0.  0.
        3    1    3    3  502    0 -0.13265413525E+03 -0.31719831164E+03 -0.31278652165E+03  0.46480889281E+03  0.10100000352E+00 0.  1.
       -3    1    3    3    0  502  0.13265413525E+03  0.31719831164E+03 -0.15603536207E+03  0.37756977225E+03  0.10100000352E+00 0. -1.
</event>
<event>
 5   0  0.7459843E-04  0.6999641E+03  0.7818609E-02  0.9717294E-01
        1   -1    0    0  501    0  0.00000000000E+00  0.00000000000E+00  0.92968331210E+03  0.92968331211E+03  0.50400001928E-02 0.  1.
       -1   -1    0    0    0  501  0.00000000000E+00  0.00000000000E+00 -0.13175176801E+03  0.13175176811E+03  0.50400001928E-02 0. -1.
    10030    2    1    2    0    0  0.00000000000E+00  0.00000000000E+00  0.79793154408E+03  0.10614350802E+04  0.69996405656E+03 0.  0.
        2    1    3    3  502    0  0.30374930442E+03 -0.11817423793E+03  0.20560887543E+03  0.38536190796E+03  0.25500000920E-02 0. -1.
       -2    1    3    3    0  502 -0.30374930442E+03  0.11817423793E+03  0.59232266865E+03  0.67607317226E+03  0.25500000920E-02 0.  1.
</event>
<event>
 5   0  0.4936000E-04  0.7000820E+03  0.7818609E-02  0.9717092E-01
        3   -1    0    0  501    0  0.00000000000E+00  0.00000000000E+00  0.26574069122E+03  0.26574071041E+03  0.10100000352E+00 0.  1.
       -3   -1    0    0    0  501  0.00000000000E+00  0.00000000000E+00 -0.46108362013E+03  0.46108363119E+03  0.10100000352E+00 0. -1.
    10030    2    1    2    0    0  0.00000000000E+00  0.00000000000E+00 -0.19534292891E+03  0.72682434160E+03  0.70008196925E+03 0.  0.
        2    1    3    3  502    0  0.16788953544E+03 -0.29365057864E+03 -0.19117355437E+03  0.38854200074E+03  0.25500000920E-02 0. -1.
       -2    1    3    3    0  502 -0.16788953544E+03  0.29365057864E+03 -0.41693745486E+01  0.33828234086E+03  0.25500000920E-02 0.  1.
</event>
<event>
 5   0  0.7570633E-04  0.7000364E+03  0.7818609E-02  0.9717170E-01
       -1   -1    0    0    0  501  0.00000000000E+00  0.00000000000E+00  0.16715594600E+03  0.16715594608E+03  0.50400001928E-02 0.  1.
        1   -1    0    0  501    0  0.00000000000E+00  0.00000000000E+00 -0.73292473836E+03  0.73292473838E+03  0.50400001928E-02 0. -1.
    10030    2    1    2    0    0  0.00000000000E+00  0.00000000000E+00 -0.56576879236E+03  0.90008068445E+03  0.70003636486E+03 0.  0.
        5    1    3    3  502    0  0.64728108214E+02  0.16455770740E+03 -0.67122236312E+03  0.69414012837E+03  0.46999998093E+01 0. -1.
       -5    1    3    3    0  502 -0.64728108214E+02 -0.16455770740E+03  0.10545357076E+03  0.20594055609E+03  0.46999998093E+01 0.  1.
</event>
<event>
 5   0  0.1282546E-03  0.6998515E+03  0.7818609E-02  0.9717486E-01
       -2   -1    0    0    0  501  0.00000000000E+00  0.00000000000E+00  0.14308689458E+03  0.14308689460E+03  0.25500000920E-02 0. -1.
        2   -1    0    0  501    0  0.00000000000E+00  0.00000000000E+00 -0.85575997751E+03  0.85575997751E+03  0.25500000920E-02 0.  1.
    10030    2    1    2    0    0  0.00000000000E+00  0.00000000000E+00 -0.71267308293E+03  0.99884687212E+03  0.69985152055E+03 0.  0.
        5    1    3    3  502    0  0.91249254768E+02  0.24256549516E+03 -0.20827409860E+02  0.26003906810E+03  0.46999998093E+01 0. -1.
       -5    1    3    3    0  502 -0.91249254768E+02 -0.24256549516E+03 -0.69184567307E+03  0.73880780402E+03  0.46999998093E+01 0.  1.
</event>
<event>
 5   0  0.1265562E-03  0.7011060E+03  0.7818609E-02  0.9715343E-01
       -2   -1    0    0    0  501  0.00000000000E+00  0.00000000000E+00  0.14311988335E+03  0.14311988337E+03  0.25500000920E-02 0. -1.
        2   -1    0    0  501    0  0.00000000000E+00  0.00000000000E+00 -0.85863257573E+03  0.85863257573E+03  0.25500000920E-02 0.  1.
    10030    2    1    2    0    0  0.00000000000E+00  0.00000000000E+00 -0.71551269238E+03  0.10017524591E+04  0.70110596658E+03 0.  0.
        1    1    3    3  502    0  0.18264810530E+03 -0.68453967093E+02 -0.77393513866E+03  0.79813650139E+03  0.50400001928E-02 0.  1.
       -1    1    3    3    0  502 -0.18264810530E+03  0.68453967093E+02  0.58422446278E+02  0.20361595771E+03  0.50400001928E-02 0. -1.
</event>
<event>
 5   0  0.7570633E-04  0.7000879E+03  0.7818609E-02  0.9717082E-01
       -1   -1    0    0    0  501  0.00000000000E+00  0.00000000000E+00  0.13462044829E+03  0.13462044838E+03  0.50400001928E-02 0. -1.
        1   -1    0    0  501    0  0.00000000000E+00  0.00000000000E+00 -0.91019420151E+03  0.91019420153E+03  0.50400001928E-02 0.  1.
    10030    2    1    2    0    0  0.00000000000E+00  0.00000000000E+00 -0.77557375322E+03  0.10448146499E+04  0.70008785590E+03 0.  0.
        5    1    3    3  502    0  0.12809459258E+03 -0.15747031456E+03 -0.81332789503E+03  0.83828961550E+03  0.46999998093E+01 0.  1.
       -5    1    3    3    0  502 -0.12809459258E+03  0.15747031456E+03  0.37754141809E+02  0.20652503441E+03  0.46999998093E+01 0. -1.
</event>
<event>
 5   0  0.7459843E-04  0.6999552E+03  0.7818609E-02  0.9717309E-01
       -1   -1    0    0    0  501  0.00000000000E+00  0.00000000000E+00  0.13368900290E+03  0.13368900300E+03  0.50400001928E-02 0. -1.
        1   -1    0    0  501    0  0.00000000000E+00  0.00000000000E+00 -0.91618835354E+03  0.91618835355E+03  0.50400001928E-02 0.  1.
    10030    2    1    2    0    0  0.00000000000E+00  0.00000000000E+00 -0.78249935064E+03  0.10498773566E+04  0.69995516289E+03 0.  0.
        2    1    3    3  502    0 -0.31720779422E+03 -0.14623822023E+03 -0.42403952830E+03  0.54937776014E+03  0.25500000920E-02 0. -1.
       -2    1    3    3    0  502  0.31720779422E+03  0.14623822023E+03 -0.35845982233E+03  0.50049959641E+03  0.25500000920E-02 0.  1.
</event>
<event>
 5   0  0.1243087E-03  0.6999971E+03  0.7818609E-02  0.9717237E-01
        2   -1    0    0  501    0  0.00000000000E+00  0.00000000000E+00  0.13139407636E+03  0.13139407638E+03  0.25500000920E-02 0.  1.
       -2   -1    0    0    0  501  0.00000000000E+00  0.00000000000E+00 -0.93230208228E+03  0.93230208229E+03  0.25500000920E-02 0. -1.
    10030    2    1    2    0    0  0.00000000000E+00  0.00000000000E+00 -0.80090800592E+03  0.10636961587E+04  0.69999706000E+03 0.  0.
        4    1    3    3  502    0  0.12824382104E+03  0.17145570882E+03  0.20261269068E+02  0.21507131293E+03  0.12699999809E+01 0.  1.
       -4    1    3    3    0  502 -0.12824382104E+03 -0.17145570882E+03 -0.82116927499E+03  0.84862484574E+03  0.12699999809E+01 0. -1.
</event>
<event>
 5   0  0.1224048E-03  0.7014221E+03  0.7818609E-02  0.9714803E-01
        2   -1    0    0  501    0  0.00000000000E+00  0.00000000000E+00  0.94355792226E+03  0.94355792226E+03  0.25500000920E-02 0.  1.
       -2   -1    0    0    0  501  0.00000000000E+00  0.00000000000E+00 -0.13035577845E+03  0.13035577848E+03  0.25500000920E-02 0. -1.
    10030    2    1    2    0    0  0.00000000000E+00  0.00000000000E+00  0.81320214381E+03  0.10739137007E+04  0.70142206263E+03 0.  0.
        3    1    3    3  502    0 -0.61523305691E+02  0.34236551308E+03  0.47505392188E+03  0.58879155954E+03  0.10100000352E+00 0. -1.
       -3    1    3    3    0  502  0.61523305691E+02 -0.34236551308E+03  0.33814822193E+03  0.48512214120E+03  0.10100000352E+00 0.  1.
</event>
<event>
 5   0  0.1282546E-03  0.6999289E+03  0.7818609E-02  0.9717354E-01
       -2   -1    0    0    0  501  0.00000000000E+00  0.00000000000E+00  0.35965014472E+03  0.35965014473E+03  0.25500000920E-02 0.  1.
        2   -1    0    0  501    0  0.00000000000E+00  0.00000000000E+00 -0.34053955940E+03  0.34053955941E+03  0.25500000920E-02 0. -1.
    10030    2    1    2    0    0  0.00000000000E+00  0.00000000000E+00  0.19110585322E+02  0.70018970414E+03  0.69992885875E+03 0.  0.
        5    1    3    3  502    0  0.20423164122E+03  0.21421226943E+03  0.19632128675E+03  0.35519233843E+03  0.46999998093E+01 0.  1.
       -5    1    3    3    0  502 -0.20423164122E+03 -0.21421226943E+03 -0.17721070143E+03  0.34499736571E+03  0.46999998093E+01 0. -1.
</event>
<event>
 5   0  0.1282546E-03  0.7005468E+03  0.7818609E-02  0.9716298E-01
       -2   -1    0    0    0  501  0.00000000000E+00  0.00000000000E+00  0.11415488143E+03  0.11415488146E+03  0.25500000920E-02 0. -1.
        2   -1    0    0  501    0  0.00000000000E+00  0.00000000000E+00 -0.10747804762E+04  0.10747804763E+04  0.25500000920E-02 0.  1.
    10030    2    1    2    0    0  0.00000000000E+00  0.00000000000E+00 -0.96062559482E+03  0.11889353577E+04  0.70054675176E+03 0.  0.
        5    1    3    3  502    0  0.14555094545E+03  0.27087136564E+03 -0.19575236645E+03  0.36455102992E+03  0.46999998093E+01 0. -1.
       -5    1    3    3    0  502 -0.14555094545E+03 -0.27087136564E+03 -0.76487322837E+03  0.82438432780E+03  0.46999998093E+01 0.  1.
</event>
<event>
 5   0  0.1282546E-03  0.6997433E+03  0.7818609E-02  0.9717671E-01
        2   -1    0    0  501    0  0.00000000000E+00  0.00000000000E+00  0.62089065723E+03  0.62089065724E+03  0.25500000920E-02 0. -1.
       -2   -1    0    0    0  501  0.00000000000E+00  0.00000000000E+00 -0.19715253781E+03  0.19715253783E+03  0.25500000920E-02 0.  1.
    10030    2    1    2    0    0  0.00000000000E+00  0.00000000000E+00  0.42373811943E+03  0.81804319507E+03  0.69974329231E+03 0.  0.
        5    1    3    3  502    0 -0.37150910631E+02  0.16255650425E+03 -0.14766882430E+03  0.22278460204E+03  0.46999998093E+01 0.  1.
       -5    1    3    3    0  502  0.37150910631E+02 -0.16255650425E+03  0.57140694373E+03  0.59525859303E+03  0.46999998093E+01 0. -1.
</event>
<event>
 5   0  0.7570633E-04  0.6999414E+03  0.7818609E-02  0.9717332E-01
       -1   -1    0    0    0  501  0.00000000000E+00  0.00000000000E+00  0.14718169660E+03  0.14718169669E+03  0.50400001928E-02 0.  1.
        1   -1    0    0  501    0  0.00000000000E+00  0.00000000000E+00 -0.83216520969E+03  0.83216520970E+03  0.50400001928E-02 0. -1.
    10030    2    1    2    0    0  0.00000000000E+00  0.00000000000E+00 -0.68498351308E+03  0.97934690639E+03  0.69994139030E+03 0.  0.
        5    1    3    3  502    0 -0.97302700251E+02 -0.28177663951E+03 -0.59893403481E+03  0.66903658951E+03  0.46999998093E+01 0. -1.
       -5    1    3    3    0  502  0.97302700251E+02  0.28177663951E+03 -0.86049478271E+02  0.31031031688E+03  0.46999998093E+01 0.  1.
</event>
<event>
 5   0  0.1265562E-03  0.7002812E+03  0.7818609E-02  0.9716751E-01
       -2   -1    0    0    0  501  0.00000000000E+00  0.00000000000E+00  0.23992878574E+03  0.23992878575E+03  0.25500000920E-02 0.  1.
        2   -1    0    0  501    0  0.00000000000E+00  0.00000000000E+00 -0.51097849994E+03  0.51097849995E+03  0.25500000920E-02 0. -1.
    10030    2    1    2    0    0  0.00000000000E+00  0.00000000000E+00 -0.27104971420E+03  0.75090728570E+03  0.70028123218E+03 0.  0.
        1    1    3    3  502    0 -0.25663166911E+03  0.23750375721E+03 -0.15502182377E+03  0.38249132559E+03  0.50400001928E-02 0.  1.
       -1    1    3    3    0  502  0.25663166911E+03 -0.23750375721E+03 -0.11602789043E+03  0.36841596011E+03  0.50400001928E-02 0. -1.
</event>
<event>
 5   0  0.7459843E-04  0.7002648E+03  0.7818609E-02  0.9716779E-01
        1   -1    0    0  501    0  0.00000000000E+00  0.00000000000E+00  0.97785284881E+03  0.97785284882E+03  0.50400001928E-02 0. -1.
       -1   -1    0    0    0  501  0.00000000000E+00  0.00000000000E+00 -0.12536926256E+03  0.12536926266E+03  0.50400001928E-02 0.  1.
    10030    2    1    2    0    0  0.00000000000E+00  0.00000000000E+00  0.85248358625E+03  0.11032221115E+04  0.70026478024E+03 0.  0.
        2    1    3    3  502    0  0.35611663119E+02  0.19657670990E+03  0.87925036038E+03  0.90166057342E+03  0.25500000920E-02 0. -1.
       -2    1    3    3    0  502 -0.35611663119E+02 -0.19657670990E+03 -0.26766774127E+02  0.20156153807E+03  0.25500000920E-02 0.  1.
</event>
<event>
 5   0  0.7459843E-04  0.7002208E+03  0.7818609E-02  0.9716855E-01
        1   -1    0    0  501    0  0.00000000000E+00  0.00000000000E+00  0.85623487437E+02  0.85623487586E+02  0.50400001928E-02 0.  1.
       -1   -1    0    0    0  501  0.00000000000E+00  0.00000000000E+00 -0.14315850445E+04  0.14315850445E+04  0.50400001928E-02 0. -1.
    10030    2    1    2    0    0  0.00000000000E+00  0.00000000000E+00 -0.13459615571E+04  0.15172085321E+04  0.70022083429E+03 0.  0.
        2    1    3    3  502    0 -0.28307444967E+03  0.13597343251E+02 -0.22754865720E+03  0.36344796491E+03  0.25500000920E-02 0.  1.
       -2    1    3    3    0  502  0.28307444967E+03 -0.13597343251E+02 -0.11184128999E+04  0.11537605672E+04  0.25500000920E-02 0. -1.
</event>
<event>
 5   0  0.7574241E-04  0.6996906E+03  0.7818609E-02  0.9717761E-01
       -1   -1    0    0    0  501  0.00000000000E+00  0.00000000000E+00  0.32173366408E+03  0.32173366412E+03  0.50400001928E-02 0. -1.
        1   -1    0    0  501    0  0.00000000000E+00  0.00000000000E+00 -0.38041319748E+03  0.38041319752E+03  0.50400001928E-02 0.  1.
    10030    2    1    2    0    0  0.00000000000E+00  0.00000000000E+00 -0.58679533401E+02  0.70214686164E+03  0.69969059424E+03 0.  0.
        3    1    3    3  502    0 -0.32478618115E+02  0.34796681085E+03 -0.13284864773E+02  0.34973169705E+03  0.10100000352E+00 0.  1.
       -3    1    3    3    0  502  0.32478618115E+02 -0.34796681085E+03 -0.45394668628E+02  0.35241516459E+03  0.10100000352E+00 0. -1.
</event>
<event>
 5   0  0.1265562E-03  0.7001084E+03  0.7818609E-02  0.9717047E-01
        2   -1    0    0  501    0  0.00000000000E+00  0.00000000000E+00  0.50891515393E+03  0.50891515394E+03  0.25500000920E-02 0.  1.
       -2   -1    0    0    0  501  0.00000000000E+00  0.00000000000E+00 -0.24078266644E+03  0.24078266645E+03  0.25500000920E-02 0. -1.
    10030    2    1    2    0    0  0.00000000000E+00  0.00000000000E+00  0.26813248749E+03  0.74969782040E+03  0.70010841379E+03 0.  0.
        1    1    3    3  502    0  0.40051007524E+00  0.22993578937E+03  0.41670746675E+03  0.47593669801E+03  0.50400001928E-02 0.  1.
       -1    1    3    3    0  502 -0.40051007524E+00 -0.22993578937E+03 -0.14857497926E+03  0.27376112238E+03  0.50400001928E-02 0. -1.
</event>
<event>
 5   0  0.7572415E-04  0.7001850E+03  0.7818609E-02  0.9716916E-01
        1   -1    0    0  501    0  0.00000000000E+00  0.00000000000E+00  0.30587475812E+03  0.30587475816E+03  0.50400001928E-02 0. -1.
       -1   -1    0    0    0  501  0.00000000000E+00  0.00000000000E+00 -0.40070239640E+03  0.40070239644E+03  0.50400001928E-02 0.  1.
    10030    2    1    2    0    0  0.00000000000E+00  0.00000000000E+00 -0.94827638283E+02  0.70657715460E+03  0.70018497158E+03 0.  0.
        4    1    3    3  502    0  0.87653714046E+02 -0.26572827167E+03 -0.25973530923E+03  0.38178361897E+03  0.12699999809E+01 0. -1.
       -4    1    3    3    0  502 -0.87653714046E+02  0.26572827167E+03  0.16490767095E+03  0.32479353563E+03  0.12699999809E+01 0.  1.
</event>
<event>
 5   0  0.7572415E-04  0.6999767E+03  0.7818609E-02  0.9717272E-01
       -1   -1    0    0    0  501  0.00000000000E+00  0.00000000000E+00  0.17493841543E+03  0.17493841550E+03  0.50400001928E-02 0.  1.
        1   -1    0    0  501    0  0.00000000000E+00  0.00000000000E+00 -0.70019983507E+03  0.70019983509E+03  0.50400001928E-02 0. -1.
    10030    2    1    2    0    0  0.00000000000E+00  0.00000000000E+00 -0.52526141965E+03  0.87513825059E+03  0.69997671295E+03 0.  0.
        4    1    3    3  502    0 -0.34796293206E+03 -0.22723856559E+02 -0.30004736071E+03  0.46002674630E+03  0.12699999809E+01 0. -1.
       -4    1    3    3    0  502  0.34796293206E+03  0.22723856559E+02 -0.22521405894E+03  0.41511150429E+03  0.12699999809E+01 0.  1.
</event>
<event>
 5   0  0.7570633E-04  0.6996626E+03  0.7818609E-02  0.9717809E-01
       -1   -1    0    0    0  501  0.00000000000E+00  0.00000000000E+00  0.12606254250E+04  0.12606254250E+04  0.50400001928E-02 0. -1.
        1   -1    0    0  501    0  0.00000000000E+00  0.00000000000E+00 -0.97080331358E+02  0.97080331489E+02  0.50400001928E-02 0.  1.
    10030    2    1    2    0    0  0.00000000000E+00  0.00000000000E+00  0.11635450936E+04  0.13577057565E+04  0.69966258746E+03 0.  0.
        5    1    3    3  502    0  0.67389543598E+02  0.23335172746E+03  0.10702486472E+04  0.10974737519E+04  0.46999998093E+01 0. -1.
       -5    1    3    3    0  502 -0.67389543598E+02 -0.23335172746E+03  0.93296446437E+02  0.26023200459E+03  0.46999998093E+01 0.  1.
</event>
<event>
 5   0  0.1222679E-03  0.6999450E+03  0.7818609E-02  0.9717326E-01
       -2   -1    0    0    0  501  0.00000000000E+00  0.00000000000E+00  0.18761571758E+03  0.18761571760E+03  0.25500000920E-02 0.  1.
        2   -1    0    0  501    0  0.00000000000E+00  0.00000000000E+00 -0.65282770091E+03  0.65282770092E+03  0.25500000920E-02 0. -1.
    10030    2    1    2    0    0  0.00000000000E+00  0.00000000000E+00 -0.46521198333E+03  0.84044341852E+03  0.69994496234E+03 0.  0.
        2    1    3    3  502    0 -0.19541568886E+02 -0.30238523314E+03 -0.44286038487E+03  0.53660415823E+03  0.25500000920E-02 0.  1.
       -2    1    3    3    0  502  0.19541568886E+02  0.30238523314E+03 -0.22351598459E+02  0.30383926029E+03  0.25500000920E-02 0. -1.
</event>
<event>
 5   0  0.1243087E-03  0.6995147E+03  0.7818609E-02  0.9718062E-01
       -2   -1    0    0    0  501  0.00000000000E+00  0.00000000000E+00  0.11588964520E+03  0.11588964523E+03  0.25500000920E-02 0. -1.
        2   -1    0    0  501    0  0.00000000000E+00  0.00000000000E+00 -0.10555750086E+04  0.10555750086E+04  0.25500000920E-02 0.  1.
    10030    2    1    2    0    0  0.00000000000E+00  0.00000000000E+00 -0.93968536339E+03  0.11714646538E+04  0.69951472679E+03 0.  0.
        4    1    3    3  502    0  0.42053889289E+01  0.25114129541E+03 -0.87744444822E+03  0.91268834120E+03  0.12699999809E+01 0.  1.
       -4    1    3    3    0  502 -0.42053889289E+01 -0.25114129541E+03 -0.62240915174E+02  0.25877631263E+03  0.12699999809E+01 0. -1.
</event>
<event>
 5   0  0.1282546E-03  0.7001337E+03  0.7818609E-02  0.9717004E-01
       -2   -1    0    0    0  501  0.00000000000E+00  0.00000000000E+00  0.20636936359E+03  0.20636936360E+03  0.25500000920E-02 0.  1.
        2   -1    0    0  501    0  0.00000000000E+00  0.00000000000E+00 -0.59382266721E+03  0.59382266721E+03  0.25500000920E-02 0. -1.
    10030    2    1    2    0    0  0.00000000000E+00  0.00000000000E+00 -0.38745330362E+03  0.80019203081E+03  0.70013371844E+03 0.  0.
        5    1    3    3  502    0  0.14606960814E+02 -0.17765399245E+03 -0.53802705383E+03  0.56680640874E+03  0.46999998093E+01 0. -1.
       -5    1    3    3    0  502 -0.14606960814E+02  0.17765399245E+03  0.15057375021E+03  0.23338562207E+03  0.46999998093E+01 0.  1.
</event>
<event>
 5   0  0.1224048E-03  0.7000850E+03  0.7818609E-02  0.9717087E-01
        2   -1    0    0  501    0  0.00000000000E+00  0.00000000000E+00  0.12159256296E+04  0.12159256296E+04  0.25500000920E-02 0. -1.
       -2   -1    0    0    0  501  0.00000000000E+00  0.00000000000E+00 -0.10077075019E+03  0.10077075022E+03  0.25500000920E-02 0.  1.
    10030    2    1    2    0    0  0.00000000000E+00  0.00000000000E+00  0.11151548794E+04  0.13166963799E+04  0.70008496026E+03 0.  0.
        3    1    3    3  502    0 -0.61458062139E+02 -0.28704222391E+03  0.91620463818E+03  0.96208174337E+03  0.10100000352E+00 0. -1.
       -3    1    3    3    0  502  0.61458062139E+02  0.28704222391E+03  0.19895024127E+03  0.35461463649E+03  0.10100000352E+00 0.  1.
</event>
<event>
 5   0  0.1282546E-03  0.6999164E+03  0.7818609E-02  0.9717375E-01
       -2   -1    0    0    0  501  0.00000000000E+00  0.00000000000E+00  0.87115456293E+02  0.87115456331E+02  0.25500000920E-02 0. -1.
        2   -1    0    0  501    0  0.00000000000E+00  0.00000000000E+00 -0.14058440651E+04  0.14058440651E+04  0.25500000920E-02 0.  1.
    10030    2    1    2    0    0  0.00000000000E+00  0.00000000000E+00 -0.13187286088E+04  0.14929595215E+04  0.69991641569E+03 0.  0.
        5    1    3    3  502    0  0.42322735666E+02 -0.20499470919E+03 -0.12575124062E+04  0.12748229628E+04  0.46999998093E+01 0.  1.
       -5    1    3    3    0  502 -0.42322735666E+02  0.20499470919E+03 -0.61216202600E+02  0.21813655862E+03  0.46999998093E+01 0. -1.
</event>
<event>
 5   0  0.1222679E-03  0.7000574E+03  0.7818609E-02  0.9717134E-01
       -2   -1    0    0    0  501  0.00000000000E+00  0.00000000000E+00  0.46523494320E+02  0.46523494390E+02  0.25500000920E-02 0. -1.
        2   -1    0    0  501    0  0.00000000000E+00  0.00000000000E+00 -0.26335099369E+04  0.26335099369E+04  0.25500000920E-02 0.  1.
    10030    2    1    2    0    0  0.00000000000E+00  0.00000000000E+00 -0.25869864426E+04  0.26800334313E+04  0.70005738247E+03 0.  0.
        2    1    3    3  502    0  0.33021397947E+03  0.10485245036E+03 -0.11026616607E+04  0.11558105582E+04  0.25500000920E-02 0.  1.
       -2    1    3    3    0  502 -0.33021397947E+03 -0.10485245036E+03 -0.14843247820E+04  0.15242228731E+04  0.25500000920E-02 0. -1.
</event>
<event>
 5   0  0.7013526E-04  0.7007131E+03  0.7818609E-02  0.9716014E-01
        1   -1    0    0  501    0  0.00000000000E+00  0.00000000000E+00  0.44882585310E+03  0.44882585313E+03  0.50400001928E-02 0. -1.
       -1   -1    0    0    0  501  0.00000000000E+00  0.00000000000E+00 -0.27349071407E+03  0.27349071411E+03  0.50400001928E-02 0.  1.
    10030    2    1    2    0    0  0.00000000000E+00  0.00000000000E+00  0.17533513903E+03  0.72231656724E+03  0.70071307418E+03 0.  0.
        1    1    3    3  502    0 -0.94372403470E+02 -0.33138807688E+02 -0.25846041786E+03  0.27713916854E+03  0.50400001928E-02 0.  1.
       -1    1    3    3    0  502  0.94372403470E+02  0.33138807688E+02  0.43379555689E+03  0.44517739870E+03  0.50400001928E-02 0. -1.
</event>
<event>
 5   0  0.7572415E-04  0.7000641E+03  0.7818609E-02  0.9717123E-01
       -1   -1    0    0    0  501  0.00000000000E+00  0.00000000000E+00  0.17890685566E+03  0.17890685573E+03  0.50400001928E-02 0.  1.
        1   -1    0    0  501    0  0.00000000000E+00  0.00000000000E+00 -0.68483920167E+03  0.68483920168E+03  0.50400001928E-02 0. -1.
    10030    2    1    2    0    0  0.00000000000E+00  0.00000000000E+00 -0.50593234600E+03  0.86374605742E+03  0.70006407776E+03 0.  0.
        4    1    3    3  502    0 -0.29643150355E+03  0.14436425980E+02 -0.48193939874E+03  0.56599226465E+03  0.12699999809E+01 0. -1.
       -4    1    3    3    0  502  0.29643150355E+03 -0.14436425980E+02 -0.23992947267E+02  0.29775379277E+03  0.12699999809E+01 0.  1.
</event>
<event>
 5   0  0.1243087E-03  0.7000429E+03  0.7818609E-02  0.9717159E-01
        2   -1    0    0  501    0  0.00000000000E+00  0.00000000000E+00  0.16464984122E+04  0.16464984122E+04  0.25500000920E-02 0. -1.
       -2   -1    0    0    0  501  0.00000000000E+00  0.00000000000E+00 -0.74409436386E+02  0.74409436429E+02  0.25500000920E-02 0.  1.
    10030    2    1    2    0    0  0.00000000000E+00  0.00000000000E+00  0.15720889758E+04  0.17209078487E+04  0.70004290984E+03 0.  0.
        4    1    3    3  502    0 -0.63828137884E+02 -0.12208733259E+03 -0.49520310695E+01  0.13786037674E+03  0.12699999809E+01 0.  1.
       -4    1    3    3    0  502  0.63828137884E+02  0.12208733259E+03  0.15770410069E+04  0.15830474719E+04  0.12699999809E+01 0. -1.
</event>
<event>
 5   0  0.1243087E-03  0.7002776E+03  0.7818609E-02  0.9716757E-01
        2   -1    0    0  501    0  0.00000000000E+00  0.00000000000E+00  0.11443240254E+04  0.11443240254E+04  0.25500000920E-02 0.  1.
       -2   -1    0    0    0  501  0.00000000000E+00  0.00000000000E+00 -0.10713503596E+03  0.10713503599E+03  0.25500000920E-02 0. -1.
    10030    2    1    2    0    0  0.00000000000E+00  0.00000000000E+00  0.10371889894E+04  0.12514590614E+04  0.70027764675E+03 0.  0.
        4    1    3    3  502    0 -0.73818499649E+02 -0.23624612998E+03  0.96118048023E+03  0.99253762311E+03  0.12699999809E+01 0.  1.
       -4    1    3    3    0  502  0.73818499649E+02  0.23624612998E+03  0.76008509182E+02  0.25892143826E+03  0.12699999809E+01 0. -1.
</event>
<event>
 5   0  0.7459843E-04  0.7000971E+03  0.7818609E-02  0.9717066E-01
       -1   -1    0    0    0  501  0.00000000000E+00  0.00000000000E+00  0.12025969849E+03  0.12025969860E+03  0.50400001928E-02 0. -1.
        1   -1    0    0  501    0  0.00000000000E+00  0.00000000000E+00 -0.10189116035E+04  0.10189116035E+04  0.50400001928E-02 0.  1.
    10030    2    1    2    0    0  0.00000000000E+00  0.00000000000E+00 -0.89865190498E+03  0.11391713021E+04  0.70009714265E+03 0.  0.
        2    1    3    3  502    0  0.26168770793E+03  0.20201283428E+03 -0.26206543094E+03  0.42186245602E+03  0.25500000920E-02 0.  1.
       -2    1    3    3    0  502 -0.26168770793E+03 -0.20201283428E+03 -0.63658647403E+03  0.71730884605E+03  0.25500000920E-02 0. -1.
</event>
<event>
 5   0  0.4936000E-04  0.6998283E+03  0.7818609E-02  0.9717526E-01
       -4   -1    0    0    0  501  0.00000000000E+00  0.00000000000E+00  0.11945922942E+04  0.11945929693E+04  0.12699999809E+01 0.  1.
        4   -1    0    0  501    0  0.00000000000E+00  0.00000000000E+00 -0.10249049699E+03  0.10249836522E+03  0.12699999809E+01 0. -1.
    10030    2    1    2    0    0  0.00000000000E+00  0.00000000000E+00  0.10921017972E+04  0.12970913345E+04  0.69982826077E+03 0.  0.
        3    1    3    3  502    0  0.67374376175E+02  0.31829787886E+03  0.30734477722E+03  0.44756415019E+03  0.10100000352E+00 0. -1.
       -3    1    3    3    0  502 -0.67374376175E+02 -0.31829787886E+03  0.78475701999E+03  0.84952718431E+03  0.10100000352E+00 0.  1.
</event>
<event>
 5   0  0.1222679E-03  0.7002961E+03  0.7818609E-02  0.9716726E-01
       -2   -1    0    0    0  501  0.00000000000E+00  0.00000000000E+00  0.30964883127E+03  0.30964883128E+03  0.25500000920E-02 0. -1.
        2   -1    0    0  501    0  0.00000000000E+00  0.00000000000E+00 -0.39594419770E+03  0.39594419771E+03  0.25500000920E-02 0.  1.
    10030    2    1    2    0    0  0.00000000000E+00  0.00000000000E+00 -0.86295366433E+02  0.70559302899E+03  0.70029610330E+03 0.  0.
        2    1    3    3  502    0  0.13492272401E+03  0.32295500310E+03 -0.53202270922E+02  0.35402620965E+03  0.25500000920E-02 0.  1.
       -2    1    3    3    0  502 -0.13492272401E+03 -0.32295500310E+03 -0.33093095511E+02  0.35156681934E+03  0.25500000920E-02 0. -1.
</event>
<event>
 5   0  0.1224048E-03  0.6999685E+03  0.7818609E-02  0.9717286E-01
       -2   -1    0    0    0  501  0.00000000000E+00  0.00000000000E+00  0.59253908521E+03  0.59253908522E+03  0.25500000920E-02 0.  1.
        2   -1    0    0  501    0  0.00000000000E+00  0.00000000000E+00 -0.20671882718E+03  0.20671882720E+03  0.25500000920E-02 0. -1.
    10030    2    1    2    0    0  0.00000000000E+00  0.00000000000E+00  0.38582025803E+03  0.79925791241E+03  0.69996852719E+03 0.  0.
        3    1    3    3  502    0 -0.30349137427E+03 -0.14851607429E+02 -0.53950733719E+01  0.30390245396E+03  0.10100000352E+00 0. -1.
       -3    1    3    3    0  502  0.30349137427E+03  0.14851607429E+02  0.39121533140E+03  0.49535545846E+03  0.10100000352E+00 0.  1.
</event>
<event>
 5   0  0.4936000E-04  0.6998691E+03  0.7818609E-02  0.9717456E-01
        3   -1    0    0  501    0  0.00000000000E+00  0.00000000000E+00  0.28552808200E+03  0.28552809986E+03  0.10100000352E+00 0. -1.
       -3   -1    0    0    0  501  0.00000000000E+00  0.00000000000E+00 -0.42886917445E+03  0.42886918634E+03  0.10100000352E+00 0.  1.
    10030    2    1    2    0    0  0.00000000000E+00  0.00000000000E+00 -0.14334109245E+03  0.71439728620E+03  0.69986914044E+03 0.  0.
        5    1    3    3  502    0  0.17711596004E+03 -0.64787726857E+02 -0.37251663187E+03  0.41756226347E+03  0.46999998093E+01 0.  1.
       -5    1    3    3    0  502 -0.17711596004E+03  0.64787726857E+02  0.22917553942E+03  0.29683502273E+03  0.46999998093E+01 0. -1.
</event>
<event>
 5   0  0.4936000E-04  0.6996837E+03  0.7818609E-02  0.9717773E-01
       -3   -1    0    0    0  501  0.00000000000E+00  0.00000000000E+00  0.54861854594E+03  0.54861855524E+03  0.10100000352E+00 0. -1.
        3   -1    0    0  501    0  0.00000000000E+00  0.00000000000E+00 -0.22308634546E+03  0.22308636832E+03  0.10100000352E+00 0.  1.
    10030    2    1    2    0    0  0.00000000000E+00  0.00000000000E+00  0.32553220048E+03  0.77170492356E+03  0.69968369675E+03 0.  0.
        1    1    3    3  502    0 -0.28629210785E+03 -0.11579556122E+03  0.34405548896E+03  0.46232668377E+03  0.50400001928E-02 0. -1.
       -1    1    3    3    0  502  0.28629210785E+03  0.11579556122E+03 -0.18523288476E+02  0.30937823979E+03  0.50400001928E-02 0.  1.
</event>
<event>
 5   0  0.1222679E-03  0.6998689E+03  0.7818609E-02  0.9717456E-01
       -2   -1    0    0    0  501  0.00000000000E+00  0.00000000000E+00  0.34326727673E+03  0.34326727674E+03  0.25500000920E-02 0. -1.
        2   -1    0    0  501    0  0.00000000000E+00  0.00000000000E+00 -0.35673114723E+03  0.35673114723E+03  0.25500000920E-02 0.  1.
    10030    2    1    2    0    0  0.00000000000E+00  0.00000000000E+00 -0.13463870493E+02  0.69999842398E+03  0.69986892899E+03 0.  0.
        2    1    3    3  502    0  0.20634374409E+03 -0.51835876075E+02  0.27114933011E+03  0.34465440371E+03  0.25500000920E-02 0. -1.
       -2    1    3    3    0  502 -0.20634374409E+03  0.51835876075E+02 -0.28461320060E+03  0.35534402026E+03  0.25500000920E-02 0.  1.
</event>
<event>
 5   0  0.1265562E-03  0.7000526E+03  0.7818609E-02  0.9717142E-01
        2   -1    0    0  501    0  0.00000000000E+00  0.00000000000E+00  0.48488776824E+03  0.48488776825E+03  0.25500000920E-02 0. -1.
       -2   -1    0    0    0  501  0.00000000000E+00  0.00000000000E+00 -0.25267373471E+03  0.25267373472E+03  0.25500000920E-02 0.  1.
    10030    2    1    2    0    0  0.00000000000E+00  0.00000000000E+00  0.23221403353E+03  0.73756150297E+03  0.70005257895E+03 0.  0.
        1    1    3    3  502    0 -0.34366841761E+03  0.18935997365E+02  0.18317175945E+03  0.38989543052E+03  0.50400001928E-02 0.  1.
       -1    1    3    3    0  502  0.34366841761E+03 -0.18935997365E+02  0.49042274084E+02  0.34766607244E+03  0.50400001928E-02 0. -1.
</event>
<event>
 5   0  0.7574241E-04  0.7000056E+03  0.7818609E-02  0.9717223E-01
       -1   -1    0    0    0  501  0.00000000000E+00  0.00000000000E+00  0.17526456807E+03  0.17526456814E+03  0.50400001928E-02 0.  1.
        1   -1    0    0  501    0  0.00000000000E+00  0.00000000000E+00 -0.69895453587E+03  0.69895453589E+03  0.50400001928E-02 0. -1.
    10030    2    1    2    0    0  0.00000000000E+00  0.00000000000E+00 -0.52368996780E+03  0.87421910403E+03  0.70000561389E+03 0.  0.
        3    1    3    3  502    0  0.13680974887E+03 -0.26370969055E+02  0.13913827176E+03  0.19690557194E+03  0.10100000352E+00 0.  1.
       -3    1    3    3    0  502 -0.13680974887E+03  0.26370969055E+02 -0.66282823956E+03  0.67731353209E+03  0.10100000352E+00 0. -1.
</event>
<event>
 5   0  0.1282546E-03  0.7000694E+03  0.7818609E-02  0.9717114E-01
       -2   -1    0    0    0  501  0.00000000000E+00  0.00000000000E+00  0.34141399133E+03  0.34141399134E+03  0.25500000920E-02 0. -1.
        2   -1    0    0  501    0  0.00000000000E+00  0.00000000000E+00 -0.35887305347E+03  0.35887305348E+03  0.25500000920E-02 0.  1.
    10030    2    1    2    0    0  0.00000000000E+00  0.00000000000E+00 -0.17459062137E+02  0.70028704483E+03  0.70006937249E+03 0.  0.
        5    1    3    3  502    0 -0.34772075552E+03  0.31394175049E+02  0.15912931903E+02  0.34952915393E+03  0.46999998093E+01 0. -1.
       -5    1    3    3    0  502  0.34772075552E+03 -0.31394175049E+02 -0.33371994040E+02  0.35075789090E+03  0.46999998093E+01 0.  1.
</event>
<event>
 5   0  0.1243087E-03  0.7001965E+03  0.7818609E-02  0.9716896E-01
        2   -1    0    0  501    0  0.00000000000E+00  0.00000000000E+00  0.78880206878E+03  0.78880206878E+03  0.25500000920E-02 0. -1.
       -2   -1    0    0    0  501  0.00000000000E+00  0.00000000000E+00 -0.15538599905E+03  0.15538599907E+03  0.25500000920E-02 0.  1.
    10030    2    1    2    0    0  0.00000000000E+00  0.00000000000E+00  0.63341606973E+03  0.94418806785E+03  0.70019653675E+03 0.  0.
        4    1    3    3  502    0 -0.51126739649E+02  0.72295665652E+01  0.78363602194E+03  0.78533638520E+03  0.12699999809E+01 0. -1.
       -4    1    3    3    0  502  0.51126739649E+02 -0.72295665652E+01 -0.15021995221E+03  0.15885168265E+03  0.12699999809E+01 0.  1.
</event>
<event>
 5   0  0.1222679E-03  0.6999488E+03  0.7818609E-02  0.9717320E-01
        2   -1    0    0  501    0  0.00000000000E+00  0.00000000000E+00  0.16866635353E+04  0.16866635353E+04  0.25500000920E-02 0.  1.
       -2   -1    0    0    0  501  0.00000000000E+00  0.00000000000E+00 -0.72617971088E+02  0.72617971133E+02  0.25500000920E-02 0. -1.
    10030    2    1    2    0    0  0.00000000000E+00  0.00000000000E+00  0.16140455642E+04  0.17592815065E+04  0.69994880923E+03 0.  0.
        2    1    3    3  502    0  0.27400568631E+02 -0.14423222538E+03  0.16055241455E+04  0.16122225367E+04  0.25500000920E-02 0.  1.
       -2    1    3    3    0  502 -0.27400568631E+02  0.14423222538E+03  0.85214187104E+01  0.14705896975E+03  0.25500000920E-02 0. -1.
</event>
<event>
 5   0  0.7574241E-04  0.7000035E+03  0.7818609E-02  0.9717226E-01
        1   -1    0    0  501    0  0.00000000000E+00  0.00000000000E+00  0.26011468575E+03  0.26011468580E+03  0.50400001928E-02 0.  1.
       -1   -1    0    0    0  501  0.00000000000E+00  0.00000000000E+00 -0.47095075484E+03  0.47095075487E+03  0.50400001928E-02 0. -1.
    10030    2    1    2    0    0  0.00000000000E+00  0.00000000000E+00 -0.21083606909E+03  0.73106544067E+03  0.70000345036E+03 0.  0.
        3    1    3    3  502    0  0.12222371675E+03 -0.13036837031E+03 -0.41971502454E+03  0.45617459480E+03  0.10100000352E+00 0. -1.
       -3    1    3    3    0  502 -0.12222371675E+03  0.13036837031E+03  0.20887895545E+03  0.27489084587E+03  0.10100000352E+00 0.  1.
</event>
<event>
 5   0  0.7570633E-04  0.6997125E+03  0.7818609E-02  0.9717724E-01
        1   -1    0    0  501    0  0.00000000000E+00  0.00000000000E+00  0.13156166309E+04  0.13156166309E+04  0.50400001928E-02 0. -1.
       -1   -1    0    0    0  501  0.00000000000E+00  0.00000000000E+00 -0.93035749017E+02  0.93035749154E+02  0.50400001928E-02 0.  1.
    10030    2    1    2    0    0  0.00000000000E+00  0.00000000000E+00  0.12225808819E+04  0.14086523801E+04  0.69971245174E+03 0.  0.
        5    1    3    3  502    0  0.13543223499E+03  0.25278717555E+03  0.10146020132E+04  0.10543635908E+04  0.46999998093E+01 0. -1.
       -5    1    3    3    0  502 -0.13543223499E+03 -0.25278717555E+03  0.20797886871E+03  0.35428878930E+03  0.46999998093E+01 0.  1.
</event>
<event>
 5   0  0.1265562E-03  0.7001061E+03  0.7818609E-02  0.9717051E-01
        2   -1    0    0  501    0  0.00000000000E+00  0.00000000000E+00  0.15295011147E+03  0.15295011150E+03  0.25500000920E-02 0.  1.
       -2   -1    0    0    0  501  0.00000000000E+00  0.00000000000E+00 -0.80115757406E+03  0.80115757406E+03  0.25500000920E-02 0. -1.
    10030    2    1    2    0    0  0.00000000000E+00  0.00000000000E+00 -0.64820746258E+03  0.95410768556E+03  0.70010610702E+03 0.  0.
        1    1    3    3  502    0  0.12484251712E+03  0.25697148415E+03 -0.59977161773E+03  0.66433876238E+03  0.50400001928E-02 0. -1.
       -1    1    3    3    0  502 -0.12484251712E+03 -0.25697148415E+03 -0.48435844854E+02  0.28976892317E+03  0.50400001928E-02 0.  1.
</event>
<event>
 5   0  0.1282546E-03  0.6998093E+03  0.7818609E-02  0.9717558E-01
        2   -1    0    0  501    0  0.00000000000E+00  0.00000000000E+00  0.10477716507E+04  0.10477716507E+04  0.25500000920E-02 0. -1.
       -2   -1    0    0    0  501  0.00000000000E+00  0.00000000000E+00 -0.11685108485E+03  0.11685108488E+03  0.25500000920E-02 0.  1.
    10030    2    1    2    0    0  0.00000000000E+00  0.00000000000E+00  0.93092056584E+03  0.11646227356E+04  0.69980927137E+03 0.  0.
        5    1    3    3  502    0  0.20756213840E+03  0.27143085315E+03  0.59060121980E+03  0.68234056025E+03  0.46999998093E+01 0. -1.
       -5    1    3    3    0  502 -0.20756213840E+03 -0.27143085315E+03  0.34031934604E+03  0.48228217532E+03  0.46999998093E+01 0.  1.
</event>
<event>
 5   0  0.1282546E-03  0.7005872E+03  0.7818609E-02  0.9716229E-01
       -2   -1    0    0    0  501  0.00000000000E+00  0.00000000000E+00  0.14021364776E+03  0.14021364779E+03  0.25500000920E-02 0. -1.
        2   -1    0    0  501    0  0.00000000000E+00  0.00000000000E+00 -0.87513302013E+03  0.87513302013E+03  0.25500000920E-02 0.  1.
    10030    2    1    2    0    0  0.00000000000E+00  0.00000000000E+00 -0.73491937237E+03  0.10153466679E+04  0.70058716244E+03 0.  0.
        5    1    3    3  502    0  0.26617146216E+03 -0.22364757030E+03 -0.30566494603E+03  0.46294560393E+03  0.46999998093E+01 0.  1.
       -5    1    3    3    0  502 -0.26617146216E+03  0.22364757030E+03 -0.42925442634E+03  0.55240106399E+03  0.46999998093E+01 0. -1.
</event>
<event>
 5   0  0.7572415E-04  0.6996138E+03  0.7818609E-02  0.9717893E-01
        1   -1    0    0  501    0  0.00000000000E+00  0.00000000000E+00  0.26232900604E+03  0.26232900609E+03  0.50400001928E-02 0.  1.
       -1   -1    0    0    0  501  0.00000000000E+00  0.00000000000E+00 -0.46645577697E+03  0.46645577700E+03  0.50400001928E-02 0. -1.
    10030    2    1    2    0    0  0.00000000000E+00  0.00000000000E+00 -0.20412677093E+03  0.72878478308E+03  0.69961383737E+03 0.  0.
        4    1    3    3  502    0  0.70237518523E+02 -0.17505650864E+02 -0.45856618624E+03  0.46424596593E+03  0.12699999809E+01 0. -1.
       -4    1    3    3    0  502 -0.70237518523E+02  0.17505650864E+02  0.25443941530E+03  0.26453881715E+03  0.12699999809E+01 0.  1.
</event>
<event>
 5   0  0.7572415E-04  0.7000307E+03  0.7818609E-02  0.9717180E-01
        1   -1    0    0  501    0  0.00000000000E+00  0.00000000000E+00  0.10654891201E+03  0.10654891213E+03  0.50400001928E-02 0. -1.
       -1   -1    0    0    0  501  0.00000000000E+00  0.00000000000E+00 -0.11498074078E+04  0.11498074079E+04  0.50400001928E-02 0.  1.
    10030    2    1    2    0    0  0.00000000000E+00  0.00000000000E+00 -0.10432584958E+04  0.12563563200E+04  0.70003065194E+03 0.  0.
        4    1    3    3  502    0 -0.11119427519E+03  0.31653105293E+03 -0.70067897907E+03  0.77685823604E+03  0.12699999809E+01 0.  1.
       -4    1    3    3    0  502  0.11119427519E+03 -0.31653105293E+03 -0.34257951676E+03  0.47949808394E+03  0.12699999809E+01 0. -1.
</event>
<event>
 5   0  0.7459843E-04  0.6998403E+03  0.7818609E-02  0.9717505E-01
       -1   -1    0    0    0  501  0.00000000000E+00  0.00000000000E+00  0.25164930558E+03  0.25164930563E+03  0.50400001928E-02 0. -1.
        1   -1    0    0  501    0  0.00000000000E+00  0.00000000000E+00 -0.48656642469E+03  0.48656642471E+03  0.50400001928E-02 0.  1.
    10030    2    1    2    0    0  0.00000000000E+00  0.00000000000E+00 -0.23491711910E+03  0.73821573034E+03  0.69984027583E+03 0.  0.
        2    1    3    3  502    0  0.27627206324E+03 -0.11004062262E+03  0.77068816062E+02  0.30720480786E+03  0.25500000920E-02 0. -1.
       -2    1    3    3    0  502 -0.27627206324E+03  0.11004062262E+03 -0.31198593517E+03  0.43101092249E+03  0.25500000920E-02 0.  1.
</event>
<event>
 5   0  0.1265562E-03  0.6995516E+03  0.7818609E-02  0.9717999E-01
       -2   -1    0    0    0  501  0.00000000000E+00  0.00000000000E+00  0.30711299630E+03  0.30711299631E+03  0.25500000920E-02 0. -1.
        2   -1    0    0  501    0  0.00000000000E+00  0.00000000000E+00 -0.39836515331E+03  0.39836515332E+03  0.25500000920E-02 0.  1.
    10030    2    1    2    0    0  0.00000000000E+00  0.00000000000E+00 -0.91252157006E+02  0.70547814963E+03  0.69955161600E+03 0.  0.
        1    1    3    3  502    0  0.62270860728E+02 -0.30837729195E+03 -0.19979007221E+03  0.37267987237E+03  0.50400001928E-02 0.  1.
       -1    1    3    3    0  502 -0.62270860728E+02  0.30837729195E+03  0.10853791521E+03  0.33279827727E+03  0.50400001928E-02 0. -1.
</event>
<event>
 5   0  0.1282546E-03  0.6998538E+03  0.7818609E-02  0.9717482E-01
        2   -1    0    0  501    0  0.00000000000E+00  0.00000000000E+00  0.15036420465E+04  0.15036420465E+04  0.25500000920E-02 0.  1.
       -2   -1    0    0    0  501  0.00000000000E+00  0.00000000000E+00 -0.81434833507E+02  0.81434833547E+02  0.25500000920E-02 0. -1.
    10030    2    1    2    0    0  0.00000000000E+00  0.00000000000E+00  0.14222072130E+04  0.15850768801E+04  0.69985381258E+03 0.  0.
        5    1    3    3  502    0 -0.16733357013E+03  0.20910345908E+03  0.20112094255E+03  0.33495746570E+03  0.46999998093E+01 0. -1.
       -5    1    3    3    0  502  0.16733357013E+03 -0.20910345908E+03  0.12210862705E+04  0.12501194144E+04  0.46999998093E+01 0.  1.
</event>
<event>
 5   0  0.1224048E-03  0.6999090E+03  0.7818609E-02  0.9717388E-01
        2   -1    0    0  501    0  0.00000000000E+00  0.00000000000E+00  0.40245165947E+03  0.40245165948E+03  0.25500000920E-02 0.  1.
       -2   -1    0    0    0  501  0.00000000000E+00  0.00000000000E+00 -0.30430522084E+03  0.30430522085E+03  0.25500000920E-02 0. -1.
    10030    2    1    2    0    0  0.00000000000E+00  0.00000000000E+00  0.98146438632E+02  0.70675688033E+03  0.69990896871E+03 0.  0.
        3    1    3    3  502    0 -0.32048894369E+03  0.12768525861E+03 -0.10250560649E+02  0.34514022149E+03  0.10100000352E+00 0. -1.
       -3    1    3    3    0  502  0.32048894369E+03 -0.12768525861E+03  0.10839699928E+03  0.36161665884E+03  0.10100000352E+00 0.  1.
</event>
<event>
 5   0  0.7572415E-04  0.7000044E+03  0.7818609E-02  0.9717225E-01
       -1   -1    0    0    0  501  0.00000000000E+00  0.00000000000E+00  0.73160075069E+02  0.73160075243E+02  0.50400001928E-02 0. -1.
        1   -1    0    0  501    0  0.00000000000E+00  0.00000000000E+00 -0.16744313659E+04  0.16744313659E+04  0.50400001928E-02 0.  1.
    10030    2    1    2    0    0  0.00000000000E+00  0.00000000000E+00 -0.16012712908E+04  0.17475914411E+04  0.70000435594E+03 0.  0.
        4    1    3    3  502    0 -0.62571902560E+02  0.15830778765E+03 -0.37153107981E+02  0.17423709408E+03  0.12699999809E+01 0. -1.
       -4    1    3    3    0  502  0.62571902560E+02 -0.15830778765E+03 -0.15641181828E+04  0.15733543470E+04  0.12699999809E+01 0.  1.
</event>
<event>
 5   0  0.1265562E-03  0.7000762E+03  0.7818609E-02  0.9717102E-01
        2   -1    0    0  501    0  0.00000000000E+00  0.00000000000E+00  0.27378431958E+03  0.27378431959E+03  0.25500000920E-02 0. -1.
       -2   -1    0    0    0  501  0.00000000000E+00  0.00000000000E+00 -0.44752988759E+03  0.44752988760E+03  0.25500000920E-02 0.  1.
    10030    2    1    2    0    0  0.00000000000E+00  0.00000000000E+00 -0.17374556801E+03  0.72131420719E+03  0.70007618377E+03 0.  0.
        1    1    3    3  502    0 -0.15630488081E+03  0.20703157819E+03 -0.32902027635E+03  0.41898404791E+03  0.50400001928E-02 0.  1.
       -1    1    3    3    0  502  0.15630488081E+03 -0.20703157819E+03  0.15527470833E+03  0.30233015927E+03  0.50400001928E-02 0. -1.
</event>
<event>
 5   0  0.7572415E-04  0.6988502E+03  0.7818609E-02  0.9719200E-01
        1   -1    0    0  501    0  0.00000000000E+00  0.00000000000E+00  0.26306355033E+03  0.26306355038E+03  0.50400001928E-02 0.  1.
       -1   -1    0    0    0  501  0.00000000000E+00  0.00000000000E+00 -0.46413844895E+03  0.46413844898E+03  0.50400001928E-02 0. -1.
    10030    2    1    2    0    0  0.00000000000E+00  0.00000000000E+00 -0.20107489862E+03  0.72720199936E+03  0.69885022216E+03 0.  0.
        4    1    3    3  502    0 -0.23466767144E+03 -0.88630394992E+02 -0.35365904518E+03  0.43359035515E+03  0.12699999809E+01 0. -1.
       -4    1    3    3    0  502  0.23466767144E+03  0.88630394992E+02  0.15258414657E+03  0.29361164421E+03  0.12699999809E+01 0.  1.
</event>
<event>
 5   0  0.1224048E-03  0.6998579E+03  0.7818609E-02  0.9717475E-01
       -2   -1    0    0    0  501  0.00000000000E+00  0.00000000000E+00  0.25654099873E+03  0.25654099875E+03  0.25500000920E-02 0. -1.
        2   -1    0    0  501    0  0.00000000000E+00  0.00000000000E+00 -0.47731273088E+03  0.47731273089E+03  0.25500000920E-02 0.  1.
    10030    2    1    2    0    0  0.00000000000E+00  0.00000000000E+00 -0.22077173215E+03  0.73385372964E+03  0.69985794186E+03 0.  0.
        3    1    3    3  502    0  0.15737646925E+03 -0.10400327211E+03 -0.41943328746E+03  0.45990034411E+03  0.10100000352E+00 0.  1.
       -3    1    3    3    0  502 -0.15737646925E+03  0.10400327211E+03  0.19866155531E+03  0.27395338553E+03  0.10100000352E+00 0. -1.
</event>
<event>
 5   0  0.1243087E-03  0.7002388E+03  0.7818609E-02  0.9716824E-01
        2   -1    0    0  501    0  0.00000000000E+00  0.00000000000E+00  0.19944087038E+03  0.19944087040E+03  0.25500000920E-02 0. -1.
       -2   -1    0    0    0  501  0.00000000000E+00  0.00000000000E+00 -0.61463619518E+03  0.61463619518E+03  0.25500000920E-02 0.  1.
    10030    2    1    2    0    0  0.00000000000E+00  0.00000000000E+00 -0.41519532480E+03  0.81407706558E+03  0.70023875283E+03 0.  0.
        4    1    3    3  502    0  0.29232703792E+03  0.19267666744E+03 -0.20946124863E+03  0.40798899844E+03  0.12699999809E+01 0. -1.
       -4    1    3    3    0  502 -0.29232703792E+03 -0.19267666744E+03 -0.20573407617E+03  0.40608806714E+03  0.12699999809E+01 0.  1.
</event>
<event>
 5   0  0.7013526E-04  0.7003390E+03  0.7818609E-02  0.9716653E-01
       -1   -1    0    0    0  501  0.00000000000E+00  0.00000000000E+00  0.34184707689E+03  0.34184707692E+03  0.50400001928E-02 0.  1.
        1   -1    0    0  501    0  0.00000000000E+00  0.00000000000E+00 -0.35869452189E+03  0.35869452193E+03  0.50400001928E-02 0. -1.
    10030    2    1    2    0    0  0.00000000000E+00  0.00000000000E+00 -0.16847445005E+02  0.70054159885E+03  0.70033898600E+03 0.  0.
        1    1    3    3  502    0 -0.26301599403E+03  0.10247403509E+03 -0.21570416606E+03  0.35525572235E+03  0.50400001928E-02 0. -1.
       -1    1    3    3    0  502  0.26301599403E+03 -0.10247403509E+03  0.19885672105E+03  0.34528587650E+03  0.50400001928E-02 0.  1.
</event>
<event>
 5   0  0.1265562E-03  0.6999613E+03  0.7818609E-02  0.9717298E-01
       -2   -1    0    0    0  501  0.00000000000E+00  0.00000000000E+00  0.12089308642E+03  0.12089308644E+03  0.25500000920E-02 0. -1.
        2   -1    0    0  501    0  0.00000000000E+00  0.00000000000E+00 -0.10131799165E+04  0.10131799165E+04  0.25500000920E-02 0.  1.
    10030    2    1    2    0    0  0.00000000000E+00  0.00000000000E+00 -0.89228683006E+03  0.11340730029E+04  0.69996127669E+03 0.  0.
        1    1    3    3  502    0  0.50584457932E+02 -0.19486246322E+03  0.17685818028E+02  0.20209640061E+03  0.50400001928E-02 0. -1.
       -1    1    3    3    0  502 -0.50584457932E+02  0.19486246322E+03 -0.90997264809E+03  0.93197660231E+03  0.50400001928E-02 0.  1.
</event>
<event>
 5   0  0.7574241E-04  0.6997434E+03  0.7818609E-02  0.9717671E-01
        1   -1    0    0  501    0  0.00000000000E+00  0.00000000000E+00  0.17098174475E+03  0.17098174483E+03  0.50400001928E-02 0. -1.
       -1   -1    0    0    0  501  0.00000000000E+00  0.00000000000E+00 -0.71592566545E+03  0.71592566547E+03  0.50400001928E-02 0.  1.
    10030    2    1    2    0    0  0.00000000000E+00  0.00000000000E+00 -0.54494392070E+03  0.88690741030E+03  0.69974343707E+03 0.  0.
        3    1    3    3  502    0 -0.54381838614E+01  0.33801668847E+03 -0.15822080846E+03  0.37325418947E+03  0.10100000352E+00 0. -1.
       -3    1    3    3    0  502  0.54381838614E+01 -0.33801668847E+03 -0.38672311224E+03  0.51365322083E+03  0.10100000352E+00 0.  1.
</event>
<event>
 5   0  0.7570633E-04  0.6982281E+03  0.7818609E-02  0.9720267E-01
        1   -1    0    0  501    0  0.00000000000E+00  0.00000000000E+00  0.12440265014E+04  0.12440265014E+04  0.50400001928E-02 0. -1.
       -1   -1    0    0    0  501  0.00000000000E+00  0.00000000000E+00 -0.97972677932E+02  0.97972678062E+02  0.50400001928E-02 0.  1.
    10030    2    1    2    0    0  0.00000000000E+00  0.00000000000E+00  0.11460538235E+04  0.13419991795E+04  0.69822806548E+03 0.  0.
        5    1    3    3  502    0 -0.15390364210E+03 -0.24220251775E+03  0.95506719889E+03  0.99725815868E+03  0.46999998093E+01 0. -1.
       -5    1    3    3    0  502  0.15390364210E+03  0.24220251775E+03  0.19098662459E+03  0.34474102081E+03  0.46999998093E+01 0.  1.
</event>
<event>
 5   0  0.7572415E-04  0.7000545E+03  0.7818609E-02  0.9717139E-01
       -1   -1    0    0    0  501  0.00000000000E+00  0.00000000000E+00  0.10478243695E+03  0.10478243707E+03  0.50400001928E-02 0.  1.
        1   -1    0    0  501    0  0.00000000000E+00  0.00000000000E+00 -0.11692710715E+04  0.11692710715E+04  0.50400001928E-02 0. -1.
    10030    2    1    2    0    0  0.00000000000E+00  0.00000000000E+00 -0.10644886345E+04  0.12740535086E+04  0.70005449047E+03 0.  0.
        4    1    3    3  502    0 -0.10798869375E+03 -0.33294224526E+03 -0.53645889181E+03  0.64054808731E+03  0.12699999809E+01 0. -1.
       -4    1    3    3    0  502  0.10798869375E+03  0.33294224526E+03 -0.52802974271E+03  0.63350542124E+03  0.12699999809E+01 0.  1.
</event>
<event>
 5   0  0.7574241E-04  0.7003548E+03  0.7818609E-02  0.9716626E-01
        1   -1    0    0  501    0  0.00000000000E+00  0.00000000000E+00  0.91925116428E+03  0.91925116429E+03  0.50400001928E-02 0.  1.
       -1   -1    0    0    0  501  0.00000000000E+00  0.00000000000E+00 -0.13339575430E+03  0.13339575440E+03  0.50400001928E-02 0. -1.
    10030    2    1    2    0    0  0.00000000000E+00  0.00000000000E+00  0.78585540997E+03  0.10526469187E+04  0.70035477441E+03 0.  0.
        3    1    3    3  502    0 -0.32919500789E+03 -0.56549719135E+02  0.23488201268E+03  0.40833416957E+03  0.10100000352E+00 0. -1.
       -3    1    3    3    0  502  0.32919500789E+03  0.56549719135E+02  0.55097339729E+03  0.64431274912E+03  0.10100000352E+00 0.  1.
</event>
<event>
 5   0  0.7574241E-04  0.6997432E+03  0.7818609E-02  0.9717672E-01
       -1   -1    0    0    0  501  0.00000000000E+00  0.00000000000E+00  0.20219193598E+03  0.20219193604E+03  0.50400001928E-02 0.  1.
        1   -1    0    0  501    0  0.00000000000E+00  0.00000000000E+00 -0.60541545943E+03  0.60541545945E+03  0.50400001928E-02 0. -1.
    10030    2    1    2    0    0  0.00000000000E+00  0.00000000000E+00 -0.40322352346E+03  0.80760739549E+03  0.69974316387E+03 0.  0.
        3    1    3    3  502    0 -0.20589619038E+03  0.23744111237E+03 -0.24163229105E+02  0.31520690807E+03  0.10100000352E+00 0.  1.
       -3    1    3    3    0  502  0.20589619038E+03 -0.23744111237E+03 -0.37906029435E+03  0.49240048742E+03  0.10100000352E+00 0. -1.
</event>
<event>
 5   0  0.7572415E-04  0.6999540E+03  0.7818609E-02  0.9717311E-01
       -1   -1    0    0    0  501  0.00000000000E+00  0.00000000000E+00  0.84547915566E+03  0.84547915568E+03  0.50400001928E-02 0.  1.
        1   -1    0    0  501    0  0.00000000000E+00  0.00000000000E+00 -0.14486922698E+03  0.14486922707E+03  0.50400001928E-02 0. -1.
    10030    2    1    2    0    0  0.00000000000E+00  0.00000000000E+00  0.70060992868E+03  0.99034838274E+03  0.69995403208E+03 0.  0.
        4    1    3    3  502    0 -0.13776860682E+03  0.13389807118E+03  0.76419780332E+03  0.78797765069E+03  0.12699999809E+01 0.  1.
       -4    1    3    3    0  502  0.13776860682E+03 -0.13389807118E+03 -0.63587874634E+02  0.20237073205E+03  0.12699999809E+01 0. -1.
</event>
<event>
 5   0  0.7574241E-04  0.7003424E+03  0.7818609E-02  0.9716647E-01
        1   -1    0    0  501    0  0.00000000000E+00  0.00000000000E+00  0.12809425622E+03  0.12809425631E+03  0.50400001928E-02 0.  1.
       -1   -1    0    0    0  501  0.00000000000E+00  0.00000000000E+00 -0.95726289782E+03  0.95726289783E+03  0.50400001928E-02 0. -1.
    10030    2    1    2    0    0  0.00000000000E+00  0.00000000000E+00 -0.82916864160E+03  0.10853571541E+04  0.70034242756E+03 0.  0.
        3    1    3    3  502    0  0.28223730318E+03  0.15764340014E+00 -0.73580553668E+03  0.78807849746E+03  0.10100000352E+00 0. -1.
       -3    1    3    3    0  502 -0.28223730318E+03 -0.15764340014E+00 -0.93363104923E+02  0.29727865668E+03  0.10100000352E+00 0.  1.
</event>
<event>
 5   0  0.7013526E-04  0.6997495E+03  0.7818609E-02  0.9717661E-01
       -1   -1    0    0    0  501  0.00000000000E+00  0.00000000000E+00  0.43746803170E+03  0.43746803173E+03  0.50400001928E-02 0.  1.
        1   -1    0    0  501    0  0.00000000000E+00  0.00000000000E+00 -0.27982004714E+03  0.27982004718E+03  0.50400001928E-02 0. -1.
    10030    2    1    2    0    0  0.00000000000E+00  0.00000000000E+00  0.15764798457E+03  0.71728807891E+03  0.69974945596E+03 0.  0.
        1    1    3    3  502    0 -0.23871452445E+03  0.25280946023E+02 -0.18209173441E+03  0.30129910419E+03  0.50400001928E-02 0. -1.
       -1    1    3    3    0  502  0.23871452445E+03 -0.25280946023E+02  0.33973971898E+03  0.41598897473E+03  0.50400001928E-02 0.  1.
</event>
<event>
 5   0  0.7570633E-04  0.7000721E+03  0.7818609E-02  0.9717109E-01
        1   -1    0    0  501    0  0.00000000000E+00  0.00000000000E+00  0.82151704854E+03  0.82151704856E+03  0.50400001928E-02 0. -1.
       -1   -1    0    0    0  501  0.00000000000E+00  0.00000000000E+00 -0.14914509087E+03  0.14914509096E+03  0.50400001928E-02 0.  1.
    10030    2    1    2    0    0  0.00000000000E+00  0.00000000000E+00  0.67237195767E+03  0.97066213951E+03  0.70007209602E+03 0.  0.
        5    1    3    3  502    0  0.16914159701E+03  0.37159185069E+01 -0.88641813222E+02  0.19105535569E+03  0.46999998093E+01 0.  1.
       -5    1    3    3    0  502 -0.16914159701E+03 -0.37159185069E+01  0.76101377089E+03  0.77960678382E+03  0.46999998093E+01 0. -1.
</event>
<event>
 5   0  0.1224048E-03  0.7000532E+03  0.7818609E-02  0.9717141E-01
        2   -1    0    0  501    0  0.00000000000E+00  0.00000000000E+00  0.65778470234E+03  0.65778470234E+03  0.25500000920E-02 0. -1.
       -2   -1    0    0    0  501  0.00000000000E+00  0.00000000000E+00 -0.18625946135E+03  0.18625946137E+03  0.25500000920E-02 0.  1.
    10030    2    1    2    0    0  0.00000000000E+00  0.00000000000E+00  0.47152524098E+03  0.84404416371E+03  0.70005321042E+03 0.  0.
        3    1    3    3  502    0 -0.11743766156E+03 -0.18089630067E+02  0.63272404935E+03  0.64378456947E+03  0.10100000352E+00 0. -1.
       -3    1    3    3    0  502  0.11743766156E+03  0.18089630067E+02 -0.16119880836E+03  0.20025959424E+03  0.10100000352E+00 0.  1.
</event>
<event>
 5   0  0.1222679E-03  0.7002976E+03  0.7818609E-02  0.9716723E-01
       -2   -1    0    0    0  501  0.00000000000E+00  0.00000000000E+00  0.17004992056E+03  0.17004992058E+03  0.25500000920E-02 0. -1.
        2   -1    0    0  501    0  0.00000000000E+00  0.00000000000E+00 -0.72098941314E+03  0.72098941315E+03  0.25500000920E-02 0.  1.
    10030    2    1    2    0    0  0.00000000000E+00  0.00000000000E+00 -0.55093949258E+03  0.89103933373E+03  0.70029762942E+03 0.  0.
        2    1    3    3  502    0 -0.12278417275E+03 -0.61989198769E+02  0.13423726619E+03  0.19219328158E+03  0.25500000920E-02 0. -1.
       -2    1    3    3    0  502  0.12278417275E+03  0.61989198769E+02 -0.68517675877E+03  0.69884605216E+03  0.25500000920E-02 0.  1.
</event>
<event>
 5   0  0.7570633E-04  0.6997146E+03  0.7818609E-02  0.9717720E-01
        1   -1    0    0  501    0  0.00000000000E+00  0.00000000000E+00  0.18496115696E+03  0.18496115703E+03  0.50400001928E-02 0. -1.
       -1   -1    0    0    0  501  0.00000000000E+00  0.00000000000E+00 -0.66176131465E+03  0.66176131467E+03  0.50400001928E-02 0.  1.
    10030    2    1    2    0    0  0.00000000000E+00  0.00000000000E+00 -0.47680015769E+03  0.84672247170E+03  0.69971462305E+03 0.  0.
        5    1    3    3  502    0  0.88297894165E+02 -0.24791192520E+03  0.40503511919E+02  0.26630708824E+03  0.46999998093E+01 0. -1.
       -5    1    3    3    0  502 -0.88297894165E+02  0.24791192520E+03 -0.51730366961E+03  0.58041538346E+03  0.46999998093E+01 0.  1.
</event>
<event>
 5   0  0.1224048E-03  0.6997936E+03  0.7818609E-02  0.9717585E-01
       -2   -1    0    0    0  501  0.00000000000E+00  0.00000000000E+00  0.30381569868E+03  0.30381569869E+03  0.25500000920E-02 0.  1.
        2   -1    0    0  501    0  0.00000000000E+00  0.00000000000E+00 -0.40296718295E+03  0.40296718296E+03  0.25500000920E-02 0. -1.
    10030    2    1    2    0    0  0.00000000000E+00  0.00000000000E+00 -0.99151484278E+02  0.70678288165E+03  0.69979355881E+03 0.  0.
        3    1    3    3  502    0  0.30752750337E+03  0.12299186274E+03 -0.16351910699E+03  0.36937605794E+03  0.10100000352E+00 0. -1.
       -3    1    3    3    0  502 -0.30752750337E+03 -0.12299186274E+03  0.64367622714E+02  0.33740682371E+03  0.10100000352E+00 0.  1.
</event>
<event>
 5   0  0.1265562E-03  0.7002678E+03  0.7818609E-02  0.9716774E-01
       -2   -1    0    0    0  501  0.00000000000E+00  0.00000000000E+00  0.22280648727E+03  0.22280648728E+03  0.25500000920E-02 0.  1.
        2   -1    0    0  501    0  0.00000000000E+00  0.00000000000E+00 -0.55022525632E+03  0.55022525633E+03  0.25500000920E-02 0. -1.
    10030    2    1    2    0    0  0.00000000000E+00  0.00000000000E+00 -0.32741876905E+03  0.77303174360E+03  0.70026782469E+03 0.  0.
        1    1    3    3  502    0  0.14383199102E+03 -0.16687057029E+03 -0.46412739832E+03  0.51375837781E+03  0.50400001928E-02 0. -1.
       -1    1    3    3    0  502 -0.14383199102E+03  0.16687057029E+03  0.13670862927E+03  0.25927336580E+03  0.50400001928E-02 0.  1.
</event>
<event>
 5   0  0.1243087E-03  0.7003013E+03  0.7818609E-02  0.9716717E-01
       -2   -1    0    0    0  501  0.00000000000E+00  0.00000000000E+00  0.11967089931E+03  0.11967089934E+03  0.25500000920E-02 0. -1.
        2   -1    0    0  501    0  0.00000000000E+00  0.00000000000E+00 -0.10245219265E+04  0.10245219265E+04  0.25500000920E-02 0.  1.
    10030    2    1    2    0    0  0.00000000000E+00  0.00000000000E+00 -0.90485102717E+03  0.11441928258E+04  0.70030125039E+03 0.  0.
        4    1    3    3  502    0  0.21847494661E+03 -0.15049210476E+03 -0.79044545675E+02  0.27681912685E+03  0.12699999809E+01 0. -1.
       -4    1    3    3    0  502 -0.21847494661E+03  0.15049210476E+03 -0.82580648150E+03  0.86737369897E+03  0.12699999809E+01 0.  1.
</event>
<event>
 5   0  0.1222679E-03  0.6994096E+03  0.7818609E-02  0.9718242E-01
       -2   -1    0    0    0  501  0.00000000000E+00  0.00000000000E+00  0.83516188246E+02  0.83516188284E+02  0.25500000920E-02 0.  1.
        2   -1    0    0  501    0  0.00000000000E+00  0.00000000000E+00 -0.14643084408E+04  0.14643084408E+04  0.25500000920E-02 0. -1.
    10030    2    1    2    0    0  0.00000000000E+00  0.00000000000E+00 -0.13807922526E+04  0.15478246291E+04  0.69940963512E+03 0.  0.
        2    1    3    3  502    0  0.23535010653E+02 -0.34889908623E+03 -0.69703168891E+03  0.77983180523E+03  0.25500000920E-02 0. -1.
       -2    1    3    3    0  502 -0.23535010653E+02  0.34889908623E+03 -0.68376056366E+03  0.76799282387E+03  0.25500000920E-02 0.  1.
</event>
<event>
 5   0  0.7570633E-04  0.7004892E+03  0.7818609E-02  0.9716396E-01
        1   -1    0    0  501    0  0.00000000000E+00  0.00000000000E+00  0.34668720606E+03  0.34668720610E+03  0.50400001928E-02 0. -1.
       -1   -1    0    0    0  501  0.00000000000E+00  0.00000000000E+00 -0.35383853514E+03  0.35383853517E+03  0.50400001928E-02 0.  1.
    10030    2    1    2    0    0  0.00000000000E+00  0.00000000000E+00 -0.71513290725E+01  0.70052574127E+03  0.70048923809E+03 0.  0.
        5    1    3    3  502    0  0.65595672546E+02  0.30850113376E+03 -0.15581191722E+03  0.35181697704E+03  0.46999998093E+01 0.  1.
       -5    1    3    3    0  502 -0.65595672546E+02 -0.30850113376E+03  0.14866058815E+03  0.34870876423E+03  0.46999998093E+01 0. -1.
</event>
<event>
 5   0  0.1222679E-03  0.6999605E+03  0.7818609E-02  0.9717300E-01
        2   -1    0    0  501    0  0.00000000000E+00  0.00000000000E+00  0.32255418888E+03  0.32255418889E+03  0.25500000920E-02 0.  1.
       -2   -1    0    0    0  501  0.00000000000E+00  0.00000000000E+00 -0.37973824802E+03  0.37973824803E+03  0.25500000920E-02 0. -1.
    10030    2    1    2    0    0  0.00000000000E+00  0.00000000000E+00 -0.57184059144E+02  0.70229243692E+03  0.69996046341E+03 0.  0.
        2    1    3    3  502    0 -0.60198175716E+02  0.71163748016E+02 -0.36705558851E+03  0.37870556433E+03  0.25500000920E-02 0. -1.
       -2    1    3    3    0  502  0.60198175716E+02 -0.71163748016E+02  0.30987152937E+03  0.32358687259E+03  0.25500000920E-02 0.  1.
</event>
<event>
 5   0  0.7570633E-04  0.7015620E+03  0.7818609E-02  0.9714565E-01
       -1   -1    0    0    0  501  0.00000000000E+00  0.00000000000E+00  0.88241981810E+02  0.88241981954E+02  0.50400001928E-02 0. -1.
        1   -1    0    0  501    0  0.00000000000E+00  0.00000000000E+00 -0.13944304890E+04  0.13944304890E+04  0.50400001928E-02 0.  1.
    10030    2    1    2    0    0  0.00000000000E+00  0.00000000000E+00 -0.13061885072E+04  0.14826724709E+04  0.70156199999E+03 0.  0.
        5    1    3    3  502    0 -0.34491078858E+03 -0.29882365071E+02 -0.77206150082E+03  0.84614269416E+03  0.46999998093E+01 0.  1.
       -5    1    3    3    0  502  0.34491078858E+03  0.29882365071E+02 -0.53412700633E+03  0.63652977677E+03  0.46999998093E+01 0. -1.
</event>
<event>
 5   0  0.7459843E-04  0.7001684E+03  0.7818609E-02  0.9716944E-01
        1   -1    0    0  501    0  0.00000000000E+00  0.00000000000E+00  0.11225601192E+04  0.11225601192E+04  0.50400001928E-02 0. -1.
       -1   -1    0    0    0  501  0.00000000000E+00  0.00000000000E+00 -0.10917808225E+03  0.10917808237E+03  0.50400001928E-02 0.  1.
    10030    2    1    2    0    0  0.00000000000E+00  0.00000000000E+00  0.10133820369E+04  0.12317382016E+04  0.70016844003E+03 0.  0.
        2    1    3    3  502    0 -0.12724623143E+03  0.23947692799E+03  0.89617928274E+03  0.93631090417E+03  0.25500000920E-02 0. -1.
       -2    1    3    3    0  502  0.12724623143E+03 -0.23947692799E+03  0.11720275421E+03  0.29542729741E+03  0.25500000920E-02 0.  1.
</event>
<event>
 5   0  0.7459843E-04  0.7003344E+03  0.7818609E-02  0.9716661E-01
        1   -1    0    0  501    0  0.00000000000E+00  0.00000000000E+00  0.30184757223E+03  0.30184757227E+03  0.50400001928E-02 0.  1.
       -1   -1    0    0    0  501  0.00000000000E+00  0.00000000000E+00 -0.40622177131E+03  0.40622177134E+03  0.50400001928E-02 0. -1.
    10030    2    1    2    0    0  0.00000000000E+00  0.00000000000E+00 -0.10437419908E+03  0.70806934361E+03  0.70033436438E+03 0.  0.
        2    1    3    3  502    0 -0.14106747093E+03  0.21211453782E+03  0.19072561376E+03  0.31822769877E+03  0.25500000920E-02 0.  1.
       -2    1    3    3    0  502  0.14106747093E+03 -0.21211453782E+03 -0.29509981285E+03  0.38984164485E+03  0.25500000920E-02 0. -1.
</event>
<event>
 5   0  0.7459843E-04  0.7007006E+03  0.7818609E-02  0.9716035E-01
        1   -1    0    0  501    0  0.00000000000E+00  0.00000000000E+00  0.42512631212E+03  0.42512631215E+03  0.50400001928E-02 0.  1.
       -1   -1    0    0    0  501  0.00000000000E+00  0.00000000000E+00 -0.28872677582E+03  0.28872677586E+03  0.50400001928E-02 0. -1.
    10030    2    1    2    0    0  0.00000000000E+00  0.00000000000E+00  0.13639953631E+03  0.71385308801E+03  0.70070064775E+03 0.  0.
        2    1    3    3  502    0  0.24871581255E+03  0.16403101700E+03  0.25599544015E+03  0.39280961716E+03  0.25500000920E-02 0.  1.
       -2    1    3    3    0  502 -0.24871581255E+03 -0.16403101700E+03 -0.11959590384E+03  0.32104347085E+03  0.25500000920E-02 0. -1.
</event>
<event>
 5   0  0.1265562E-03  0.7001399E+03  0.7818609E-02  0.9716993E-01
       -2   -1    0    0    0  501  0.00000000000E+00  0.00000000000E+00  0.25712206877E+03  0.25712206878E+03  0.25500000920E-02 0.  1.
        2   -1    0    0  501    0  0.00000000000E+00  0.00000000000E+00 -0.47661791631E+03  0.47661791632E+03  0.25500000920E-02 0. -1.
    10030    2    1    2    0    0  0.00000000000E+00  0.00000000000E+00 -0.21949584755E+03  0.73373998510E+03  0.70013994219E+03 0.  0.
        1    1    3    3  502    0  0.29992759035E+02 -0.11435625587E+03  0.23556782274E+03  0.26356994895E+03  0.50400001928E-02 0.  1.
       -1    1    3    3    0  502 -0.29992759035E+02  0.11435625587E+03 -0.45506367029E+03  0.47017003615E+03  0.50400001928E-02 0. -1.
</event>
<event>
 5   0  0.1243087E-03  0.6999226E+03  0.7818609E-02  0.9717365E-01
       -2   -1    0    0    0  501  0.00000000000E+00  0.00000000000E+00  0.49150685500E+02  0.49150685567E+02  0.25500000920E-02 0. -1.
        2   -1    0    0  501    0  0.00000000000E+00  0.00000000000E+00 -0.24917843866E+04  0.24917843866E+04  0.25500000920E-02 0.  1.
    10030    2    1    2    0    0  0.00000000000E+00  0.00000000000E+00 -0.24426337011E+04  0.25409350721E+04  0.69992259802E+03 0.  0.
        4    1    3    3  502    0 -0.53586071945E+02 -0.16879175297E+02 -0.24752977954E+04  0.24759356135E+04  0.12699999809E+01 0.  1.
       -4    1    3    3    0  502  0.53586071945E+02  0.16879175297E+02  0.32664094291E+02  0.64999458621E+02  0.12699999809E+01 0. -1.
</event>
<event>
 5   0  0.7574241E-04  0.6999734E+03  0.7818609E-02  0.9717278E-01
       -1   -1    0    0    0  501  0.00000000000E+00  0.00000000000E+00  0.94652061127E+03  0.94652061128E+03  0.50400001928E-02 0. -1.
        1   -1    0    0  501    0  0.00000000000E+00  0.00000000000E+00 -0.12941154988E+03  0.12941154997E+03  0.50400001928E-02 0.  1.
    10030    2    1    2    0    0  0.00000000000E+00  0.00000000000E+00  0.81710906139E+03  0.10759321613E+04  0.69997342622E+03 0.  0.
        3    1    3    3  502    0  0.54516205447E+01 -0.26058445508E+03  0.49527269611E+02  0.26530536940E+03  0.10100000352E+00 0.  1.
       -3    1    3    3    0  502 -0.54516205447E+01  0.26058445508E+03  0.76758179178E+03  0.81062679185E+03  0.10100000352E+00 0. -1.
</event>
<event>
 5   0  0.1224048E-03  0.6998879E+03  0.7818609E-02  0.9717424E-01
        2   -1    0    0  501    0  0.00000000000E+00  0.00000000000E+00  0.79466502564E+03  0.79466502564E+03  0.25500000920E-02 0.  1.
       -2   -1    0    0    0  501  0.00000000000E+00  0.00000000000E+00 -0.15410362277E+03  0.15410362279E+03  0.25500000920E-02 0. -1.
    10030    2    1    2    0    0  0.00000000000E+00  0.00000000000E+00  0.64056140287E+03  0.94876864843E+03  0.69988787488E+03 0.  0.
        3    1    3    3  502    0  0.37195476465E+01 -0.31754348399E+03  0.51957270966E+03  0.60893637606E+03  0.10100000352E+00 0.  1.
       -3    1    3    3    0  502 -0.37195476465E+01  0.31754348399E+03  0.12098869321E+03  0.33983227237E+03  0.10100000352E+00 0. -1.
</event>
<event>
 5   0  0.7574241E-04  0.6998834E+03  0.7818609E-02  0.9717432E-01
        1   -1    0    0  501    0  0.00000000000E+00  0.00000000000E+00  0.54669338962E+03  0.54669338964E+03  0.50400001928E-02 0.  1.
       -1   -1    0    0    0  501  0.00000000000E+00  0.00000000000E+00 -0.22399979221E+03  0.22399979227E+03  0.50400001928E-02 0. -1.
    10030    2    1    2    0    0  0.00000000000E+00  0.00000000000E+00  0.32269359741E+03  0.77069318191E+03  0.69988343517E+03 0.  0.
        3    1    3    3  502    0 -0.11949814968E+02 -0.52948246701E+02  0.54202951483E+03  0.54474059887E+03  0.10100000352E+00 0.  1.
       -3    1    3    3    0  502  0.11949814968E+02  0.52948246701E+02 -0.21933591743E+03  0.22595258304E+03  0.10100000352E+00 0. -1.
</event>
<event>
 5   0  0.7459843E-04  0.6995535E+03  0.7818609E-02  0.9717996E-01
       -1   -1    0    0    0  501  0.00000000000E+00  0.00000000000E+00  0.17863859647E+03  0.17863859654E+03  0.50400001928E-02 0. -1.
        1   -1    0    0  501    0  0.00000000000E+00  0.00000000000E+00 -0.68486746529E+03  0.68486746531E+03  0.50400001928E-02 0.  1.
    10030    2    1    2    0    0  0.00000000000E+00  0.00000000000E+00 -0.50622886882E+03  0.86350606185E+03  0.69955346560E+03 0.  0.
        2    1    3    3  502    0 -0.21371212440E+03  0.27395835170E+03 -0.30276167455E+03  0.46085863577E+03  0.25500000920E-02 0.  1.
       -2    1    3    3    0  502  0.21371212440E+03 -0.27395835170E+03 -0.20346719426E+03  0.40264742608E+03  0.25500000920E-02 0. -1.
</event>
<event>
 5   0  0.1222679E-03  0.7000317E+03  0.7818609E-02  0.9717178E-01
       -2   -1    0    0    0  501  0.00000000000E+00  0.00000000000E+00  0.15811189867E+04  0.15811189867E+04  0.25500000920E-02 0.  1.
        2   -1    0    0  501    0  0.00000000000E+00  0.00000000000E+00 -0.77483797364E+02  0.77483797406E+02  0.25500000920E-02 0. -1.
    10030    2    1    2    0    0  0.00000000000E+00  0.00000000000E+00  0.15036351893E+04  0.16586027841E+04  0.70003172274E+03 0.  0.
        2    1    3    3  502    0  0.15870582179E+03  0.21103119664E+03  0.12961924155E+04  0.13228138501E+04  0.25500000920E-02 0.  1.
       -2    1    3    3    0  502 -0.15870582179E+03 -0.21103119664E+03  0.20744277383E+03  0.33578893407E+03  0.25500000920E-02 0. -1.
</event>
<event>
 5   0  0.7570633E-04  0.6999007E+03  0.7818609E-02  0.9717402E-01
       -1   -1    0    0    0  501  0.00000000000E+00  0.00000000000E+00  0.39344046273E+03  0.39344046276E+03  0.50400001928E-02 0.  1.
        1   -1    0    0  501    0  0.00000000000E+00  0.00000000000E+00 -0.31126756954E+03  0.31126756958E+03  0.50400001928E-02 0. -1.
    10030    2    1    2    0    0  0.00000000000E+00  0.00000000000E+00  0.82172893186E+02  0.70470803234E+03  0.69990072615E+03 0.  0.
        5    1    3    3  502    0 -0.17719364435E+03  0.25508548986E+03 -0.12119431595E+03  0.33343117273E+03  0.46999998093E+01 0. -1.
       -5    1    3    3    0  502  0.17719364435E+03 -0.25508548986E+03  0.20336720913E+03  0.37127685961E+03  0.46999998093E+01 0.  1.
</event>
<event>
 5   0  0.7013526E-04  0.7003529E+03  0.7818609E-02  0.9716629E-01
       -1   -1    0    0    0  501  0.00000000000E+00  0.00000000000E+00  0.11975681567E+03  0.11975681578E+03  0.50400001928E-02 0.  1.
        1   -1    0    0  501    0  0.00000000000E+00  0.00000000000E+00 -0.10239377925E+04  0.10239377925E+04  0.50400001928E-02 0. -1.
    10030    2    1    2    0    0  0.00000000000E+00  0.00000000000E+00 -0.90418097678E+03  0.11436946083E+04  0.70035285261E+03 0.  0.
        1    1    3    3  502    0  0.31290621278E+03  0.13276612474E+03 -0.31462121900E+03  0.46316698214E+03  0.50400001928E-02 0. -1.
       -1    1    3    3    0  502 -0.31290621278E+03 -0.13276612474E+03 -0.58955975778E+03  0.68052762611E+03  0.50400001928E-02 0.  1.
</event>
<event>
 5   0  0.1243087E-03  0.6998164E+03  0.7818609E-02  0.9717546E-01
        2   -1    0    0  501    0  0.00000000000E+00  0.00000000000E+00  0.94407081935E+03  0.94407081935E+03  0.25500000920E-02 0. -1.
       -2   -1    0    0    0  501  0.00000000000E+00  0.00000000000E+00 -0.12968915631E+03  0.12968915633E+03  0.25500000920E-02 0.  1.
    10030    2    1    2    0    0  0.00000000000E+00  0.00000000000E+00  0.81438166304E+03  0.10737599757E+04  0.69981639898E+03 0.  0.
        4    1    3    3  502    0 -0.13198724154E+03 -0.31994615709E+03  0.32823598555E+03  0.47699753718E+03  0.12699999809E+01 0.  1.
       -4    1    3    3    0  502  0.13198724154E+03  0.31994615709E+03  0.48614567749E+03  0.59676243850E+03  0.12699999809E+01 0. -1.
</event>
<event>
 5   0  0.7013526E-04  0.6999925E+03  0.7818609E-02  0.9717245E-01
        1   -1    0    0  501    0  0.00000000000E+00  0.00000000000E+00  0.89910703585E+03  0.89910703586E+03  0.50400001928E-02 0.  1.
       -1   -1    0    0    0  501  0.00000000000E+00  0.00000000000E+00 -0.13624335961E+03  0.13624335970E+03  0.50400001928E-02 0. -1.
    10030    2    1    2    0    0  0.00000000000E+00  0.00000000000E+00  0.76286367624E+03  0.10353503956E+04  0.69999246643E+03 0.  0.
        1    1    3    3  502    0 -0.10256448007E+03 -0.29282197003E+03  0.62099470124E+03  0.69418916565E+03  0.50400001928E-02 0.  1.
       -1    1    3    3    0  502  0.10256448007E+03  0.29282197003E+03  0.14186897500E+03  0.34116122992E+03  0.50400001928E-02 0. -1.
</event>
<event>
 5   0  0.1243087E-03  0.6999690E+03  0.7818609E-02  0.9717285E-01
        2   -1    0    0  501    0  0.00000000000E+00  0.00000000000E+00  0.10727538106E+03  0.10727538109E+03  0.25500000920E-02 0.  1.
       -2   -1    0    0    0  501  0.00000000000E+00  0.00000000000E+00 -0.11418199080E+04  0.11418199080E+04  0.25500000920E-02 0. -1.
    10030    2    1    2    0    0  0.00000000000E+00  0.00000000000E+00 -0.10345445269E+04  0.12490952891E+04  0.69996904432E+03 0.  0.
        4    1    3    3  502    0  0.16474919583E+03  0.14086299853E+02  0.33172698997E+02  0.16864982131E+03  0.12699999809E+01 0.  1.
       -4    1    3    3    0  502 -0.16474919583E+03 -0.14086299853E+02 -0.10677172259E+04  0.10804454678E+04  0.12699999809E+01 0. -1.
</event>
<event>
 5   0  0.1282546E-03  0.7001662E+03  0.7818609E-02  0.9716948E-01
       -2   -1    0    0    0  501  0.00000000000E+00  0.00000000000E+00  0.65856332068E+02  0.65856332117E+02  0.25500000920E-02 0.  1.
        2   -1    0    0  501    0  0.00000000000E+00  0.00000000000E+00 -0.18609930463E+04  0.18609930463E+04  0.25500000920E-02 0. -1.
    10030    2    1    2    0    0  0.00000000000E+00  0.00000000000E+00 -0.17951367142E+04  0.19268493784E+04  0.70016619764E+03 0.  0.
        5    1    3    3  502    0  0.19622278189E+03 -0.16237477813E+03 -0.23670629118E+03  0.34773683582E+03  0.46999998093E+01 0.  1.
       -5    1    3    3    0  502 -0.19622278189E+03  0.16237477813E+03 -0.15584304230E+04  0.15791125426E+04  0.46999998093E+01 0. -1.
</event>
<event>
 5   0  0.7572415E-04  0.7001434E+03  0.7818609E-02  0.9716987E-01
        1   -1    0    0  501    0  0.00000000000E+00  0.00000000000E+00  0.16430841070E+04  0.16430841070E+04  0.50400001928E-02 0.  1.
       -1   -1    0    0    0  501  0.00000000000E+00  0.00000000000E+00 -0.74585465549E+02  0.74585465720E+02  0.50400001928E-02 0. -1.
    10030    2    1    2    0    0  0.00000000000E+00  0.00000000000E+00  0.15684986415E+04  0.17176695727E+04  0.70014339448E+03 0.  0.
        4    1    3    3  502    0  0.30357516181E+03 -0.12427712799E+03  0.48432366446E+03  0.58495615927E+03  0.12699999809E+01 0. -1.
       -4    1    3    3    0  502 -0.30357516181E+03  0.12427712799E+03  0.10841749770E+04  0.11327134135E+04  0.12699999809E+01 0.  1.
</event>
<event>
 5   0  0.1282546E-03  0.7001985E+03  0.7818609E-02  0.9716893E-01
       -2   -1    0    0    0  501  0.00000000000E+00  0.00000000000E+00  0.26170573484E+03  0.26170573486E+03  0.25500000920E-02 0. -1.
        2   -1    0    0  501    0  0.00000000000E+00  0.00000000000E+00 -0.46834846915E+03  0.46834846916E+03  0.25500000920E-02 0.  1.
    10030    2    1    2    0    0  0.00000000000E+00  0.00000000000E+00 -0.20664273431E+03  0.73005420401E+03  0.70019848697E+03 0.  0.
        5    1    3    3  502    0 -0.28086679833E+03 -0.14078882306E+03 -0.26430609885E+03  0.41059402698E+03  0.46999998093E+01 0.  1.
       -5    1    3    3    0  502  0.28086679833E+03  0.14078882306E+03  0.57663364538E+02  0.31946017704E+03  0.46999998093E+01 0. -1.
</event>
<event>
 5   0  0.4936000E-04  0.6994892E+03  0.7818609E-02  0.9718106E-01
       -4   -1    0    0    0  501  0.00000000000E+00  0.00000000000E+00  0.25377784140E+03  0.25378101916E+03  0.12699999809E+01 0. -1.
        4   -1    0    0  501    0  0.00000000000E+00  0.00000000000E+00 -0.48199444609E+03  0.48199611924E+03  0.12699999809E+01 0.  1.
    10030    2    1    2    0    0  0.00000000000E+00  0.00000000000E+00 -0.22821660469E+03  0.73577713840E+03  0.69948922704E+03 0.  0.
        3    1    3    3  502    0  0.16671897144E+03 -0.10027843940E+03  0.19160707706E+03  0.27306457666E+03  0.10100000352E+00 0. -1.
       -3    1    3    3    0  502 -0.16671897144E+03  0.10027843940E+03 -0.41982368174E+03  0.46271256175E+03  0.10100000352E+00 0.  1.
</event>
<event>
 5   0  0.4936000E-04  0.7000972E+03  0.7818609E-02  0.9717066E-01
       -3   -1    0    0    0  501  0.00000000000E+00  0.00000000000E+00  0.38564612664E+03  0.38564613987E+03  0.10100000352E+00 0. -1.
        3   -1    0    0  501    0  0.00000000000E+00  0.00000000000E+00 -0.31773691791E+03  0.31773693397E+03  0.10100000352E+00 0.  1.
    10030    2    1    2    0    0  0.00000000000E+00  0.00000000000E+00  0.67909208727E+02  0.70338307383E+03  0.70009719891E+03 0.  0.
        5    1    3    3  502    0  0.14003116679E+03 -0.18680968690E+02 -0.28778931895E+03  0.32062827131E+03  0.46999998093E+01 0.  1.
       -5    1    3    3    0  502 -0.14003116679E+03  0.18680968690E+02  0.35569852768E+03  0.38275480252E+03  0.46999998093E+01 0. -1.
</event>
<event>
 5   0  0.1222679E-03  0.7002026E+03  0.7818609E-02  0.9716886E-01
        2   -1    0    0  501    0  0.00000000000E+00  0.00000000000E+00  0.17664496176E+04  0.17664496176E+04  0.25500000920E-02 0. -1.
       -2   -1    0    0    0  501  0.00000000000E+00  0.00000000000E+00 -0.69388296337E+02  0.69388296383E+02  0.25500000920E-02 0.  1.
    10030    2    1    2    0    0  0.00000000000E+00  0.00000000000E+00  0.16970613213E+04  0.18358379140E+04  0.70020262660E+03 0.  0.
        2    1    3    3  502    0  0.22244449842E+03 -0.25960815690E+03  0.65070600813E+03  0.73504847393E+03  0.25500000920E-02 0.  1.
       -2    1    3    3    0  502 -0.22244449842E+03  0.25960815690E+03  0.10463553131E+04  0.11007894400E+04  0.25500000920E-02 0. -1.
</event>
<event>
 5   0  0.7574241E-04  0.7008569E+03  0.7818609E-02  0.9715768E-01
       -1   -1    0    0    0  501  0.00000000000E+00  0.00000000000E+00  0.32350553585E+03  0.32350553589E+03  0.50400001928E-02 0.  1.
        1   -1    0    0  501    0  0.00000000000E+00  0.00000000000E+00 -0.37959199222E+03  0.37959199225E+03  0.50400001928E-02 0. -1.
    10030    2    1    2    0    0  0.00000000000E+00  0.00000000000E+00 -0.56086456369E+02  0.70309752814E+03  0.70085693511E+03 0.  0.
        3    1    3    3  502    0  0.14355289262E+03  0.28117327259E+02  0.29141173172E+03  0.32606567537E+03  0.10100000352E+00 0.  1.
       -3    1    3    3    0  502 -0.14355289262E+03 -0.28117327259E+02 -0.34749818809E+03  0.37703185276E+03  0.10100000352E+00 0. -1.
</event>
</LesHouchesEvents>
