<LesHouchesEvents version="3.0">
<header>
<!--
#*********************************************************************
#                                                                    *
#                        MadGraph5_aMC@NLO                           *
#                                                                    *
#                           Going Beyond                             *
#                                                                    *
#                   http://madgraph.hep.uiuc.edu                     *
#                   http://madgraph.phys.ucl.ac.be                   *
#                   http://amcatnlo.cern.ch                          *
#                                                                    *
#                     The MadGraph5_aMC@NLO team                     *
#                                                                    *
#....................................................................*
#                                                                    *
# This file contains all the information necessary to reproduce      *
# the events generated:                                              *
#                                                                    *
# 1. software version                                                *
# 2. proc_card          : code generation info including model       *
# 3. param_card         : model primary parameters in the LH format  *
# 4. run_card           : running parameters (collider and cuts)     *
# 5. pythia_card        : present only if pythia has been run        *
# 6. pgs_card           : present only if pgs has been run           *
# 7. delphes_cards      : present only if delphes has been run       *
#                                                                    *
#                                                                    *
#*********************************************************************
-->
<MGVersion>
#5.2.2.3
</MGVersion>
<MG5ProcCard>
#************************************************************
#*                     MadGraph5_aMC@NLO                    *
#*                                                          *
#*                *                       *                 *
#*                  *        * *        *                   *
#*                    * * * * 5 * * * *                     *
#*                  *        * *        *                   *
#*                *                       *                 *
#*                                                          *
#*                                                          *
#*         VERSION 2.2.3                 2015-02-10         *
#*                                                          *
#*    The MadGraph5_aMC@NLO Development Team - Find us at   *
#*    https://server06.fynu.ucl.ac.be/projects/madgraph     *
#*                                                          *
#************************************************************
#*                                                          *
#*               Command File for MadGraph5_aMC@NLO         *
#*                                                          *
#*     run as ./bin/mg5_aMC  filename                       *
#*                                                          *
#************************************************************
set group_subprocesses Auto
set ignore_six_quark_processes False
set loop_optimized_output True
set gauge unitary
set complex_mass_scheme False
import model sm
define p = g u c d s u~ c~ d~ s~
define j = g u c d s u~ c~ d~ s~
define l+ = e+ mu+
define l- = e- mu-
define vl = ve vm vt
define vl~ = ve~ vm~ vt~
import model Zprime_UFO
generate p p > zph, zph > j j
add process p p > zph, zph > b b~
output Dijet_signal
</MG5ProcCard>
<MGProcCard>
#*********************************************************************
#                        MadGraph/MadEvent                           *
#                   http://madgraph.hep.uiuc.edu                     *
#                                                                    *
#                          proc_card.dat                             *
#*********************************************************************
#                                                                    *
#            This Files is generated by MADGRAPH 5                   *
#                                                                    *
# WARNING: This Files is generated for MADEVENT (compatibility issue)*
#          This files is NOT a valid MG4 proc_card.dat               *
#          Running this in MG4 will NEVER reproduce the result of MG5*
#                                                                    *
#*********************************************************************
#*********************************************************************
# Process(es) requested : mg2 input                                  *
#*********************************************************************
# Begin PROCESS # This is TAG. Do not modify this line
p p > zph , zph > j j           #Process
# Be carefull the coupling are here in MG5 convention
          
end_coup           # End the couplings input

done               # this tells MG there are no more procs
# End PROCESS  # This is TAG. Do not modify this line
#*********************************************************************
# Model information                                                  *
#*********************************************************************
# Begin MODEL  # This is TAG. Do not modify this line
Zprime_UFO
# End   MODEL  # This is TAG. Do not modify this line
#*********************************************************************
# Start multiparticle definitions                                    *
#*********************************************************************
# Begin MULTIPARTICLES # This is TAG. Do not modify this line

# End  MULTIPARTICLES # This is TAG. Do not modify this line
</MGProcCard>
<MGRunCard>
#*********************************************************************
#                       MadGraph5_aMC@NLO                            *
#                                                                    *
#                     run_card.dat MadEvent                          *
#                                                                    *
#  This file is used to set the parameters of the run.               *
#                                                                    *
#  Some notation/conventions:                                        *
#                                                                    *
#   Lines starting with a '# ' are info or comments                  *
#                                                                    *
#   mind the format:   value    = variable     ! comment             *
#*********************************************************************
#
#*******************                                                 
# Running parameters
#*******************                                                 
#                                                                    
#*********************************************************************
# Tag name for the run (one word)                                    *
#*********************************************************************
  tag_1     = run_tag ! name of the run 
#*********************************************************************
# Run to generate the grid pack                                      *
#*********************************************************************
  .false.     = gridpack  !True = setting up the grid pack
#*********************************************************************
# Number of events and rnd seed                                      *
# Warning: Do not generate more than 1M events in a single run       *
# If you want to run Pythia, avoid more than 50k events in a run.    *
#*********************************************************************
  2000 = nevents ! Number of unweighted events requested 
 2775 = iseed   ! rnd seed (0=assigned automatically=default))
#*********************************************************************
# Collider type and energy                                           *
# lpp: 0=No PDF, 1=proton, -1=antiproton, 2=photon from proton,      *
#                                         3=photon from electron     *
#*********************************************************************
        1     = lpp1    ! beam 1 type 
        1     = lpp2    ! beam 2 type
     4000     = ebeam1  ! beam 1 total energy in GeV
     4000     = ebeam2  ! beam 2 total energy in GeV
#*********************************************************************
# Beam polarization from -100 (left-handed) to 100 (right-handed)    *
#*********************************************************************
        0     = polbeam1 ! beam polarization for beam 1
        0     = polbeam2 ! beam polarization for beam 2
#*********************************************************************
# PDF CHOICE: this automatically fixes also alpha_s and its evol.    *
#*********************************************************************
 'nn23lo1'    = pdlabel     ! PDF set                                     
 230000    = lhaid     ! if pdlabel=lhapdf, this is the lhapdf number
#*********************************************************************
# Renormalization and factorization scales                           *
#*********************************************************************
 F        = fixed_ren_scale  ! if .true. use fixed ren scale
 F        = fixed_fac_scale  ! if .true. use fixed fac scale
 91.1880  = scale            ! fixed ren scale
 91.1880  = dsqrt_q2fact1    ! fixed fact scale for pdf1
 91.1880  = dsqrt_q2fact2    ! fixed fact scale for pdf2
 1        = scalefact        ! scale factor for event-by-event scales
#*********************************************************************
# Matching - Warning! ickkw > 1 is still beta
#*********************************************************************
 0        = ickkw            ! 0 no matching, 1 MLM, 2 CKKW matching
 1        = highestmult      ! for ickkw=2, highest mult group
 1        = ktscheme         ! for ickkw=1, 1 Durham kT, 2 Pythia pTE
 1        = alpsfact         ! scale factor for QCD emission vx
 F        = chcluster        ! cluster only according to channel diag
 T        = pdfwgt           ! for ickkw=1, perform pdf reweighting
 5        = asrwgtflavor     ! highest quark flavor for a_s reweight
 T        = clusinfo         ! include clustering tag in output
 3.0      = lhe_version       ! Change the way clustering information pass to shower.        
#*********************************************************************
#**********************************************************
#
#**********************************************************
# Automatic ptj and mjj cuts if xqcut > 0
# (turn off for VBF and single top processes)
#**********************************************************
   T  = auto_ptj_mjj  ! Automatic setting of ptj and mjj
#**********************************************************
#                                                                    
#**********************************
# BW cutoff (M+/-bwcutoff*Gamma)
#**********************************
  15  = bwcutoff      ! (M+/-bwcutoff*Gamma)
#**********************************************************
# Apply pt/E/eta/dr/mij cuts on decay products or not
# (note that etmiss/ptll/ptheavy/ht/sorted cuts always apply)
#**********************************************************
   T  = cut_decays    ! Cut decay products 
#*************************************************************
# Number of helicities to sum per event (0 = all helicities)
# 0 gives more stable result, but longer run time (needed for
# long decay chains e.g.).
# Use >=2 if most helicities contribute, e.g. pure QCD.
#*************************************************************
   0  = nhel          ! Number of helicities used per event
#*******************                                                 
# Standard Cuts
#*******************                                                 
#                                                                    
#*********************************************************************
# Minimum and maximum pt's (for max, -1 means no cut)                *
#*********************************************************************
 20  = ptj       ! minimum pt for the jets 
  0  = ptb       ! minimum pt for the b 
 10  = pta       ! minimum pt for the photons 
 10  = ptl       ! minimum pt for the charged leptons 
  0  = misset    ! minimum missing Et (sum of neutrino's momenta)
  0  = ptheavy   ! minimum pt for one heavy final state
 1.0 = ptonium   ! minimum pt for the quarkonium states
 -1  = ptjmax    ! maximum pt for the jets
 -1  = ptbmax    ! maximum pt for the b
 -1  = ptamax    ! maximum pt for the photons
 -1  = ptlmax    ! maximum pt for the charged leptons
 -1  = missetmax ! maximum missing Et (sum of neutrino's momenta)
#*********************************************************************
# Minimum and maximum E's (in the center of mass frame)              *
#*********************************************************************
  0  = ej     ! minimum E for the jets 
  0  = eb     ! minimum E for the b 
  0  = ea     ! minimum E for the photons 
  0  = el     ! minimum E for the charged leptons 
 -1   = ejmax ! maximum E for the jets
 -1   = ebmax ! maximum E for the b
 -1   = eamax ! maximum E for the photons
 -1   = elmax ! maximum E for the charged leptons
#*********************************************************************
# Maximum and minimum absolute rapidity (for max, -1 means no cut)   *
#*********************************************************************
   5  = etaj    ! max rap for the jets 
  -1  = etab    ! max rap for the b
 2.5  = etaa    ! max rap for the photons 
 2.5  = etal    ! max rap for the charged leptons 
 0.6  = etaonium ! max rap for the quarkonium states
   0  = etajmin ! min rap for the jets
   0  = etabmin ! min rap for the b
   0  = etaamin ! min rap for the photons
   0  = etalmin ! main rap for the charged leptons
#*********************************************************************
# Minimum and maximum DeltaR distance                                *
#*********************************************************************
 0.4 = drjj    ! min distance between jets 
 0   = drbb    ! min distance between b's 
 0.4 = drll    ! min distance between leptons 
 0.4 = draa    ! min distance between gammas 
 0   = drbj    ! min distance between b and jet 
 0.4 = draj    ! min distance between gamma and jet 
 0.4 = drjl    ! min distance between jet and lepton 
 0   = drab    ! min distance between gamma and b 
 0   = drbl    ! min distance between b and lepton 
 0.4 = dral    ! min distance between gamma and lepton 
 -1  = drjjmax ! max distance between jets
 -1  = drbbmax ! max distance between b's
 -1  = drllmax ! max distance between leptons
 -1  = draamax ! max distance between gammas
 -1  = drbjmax ! max distance between b and jet
 -1  = drajmax ! max distance between gamma and jet
 -1  = drjlmax ! max distance between jet and lepton
 -1  = drabmax ! max distance between gamma and b
 -1  = drblmax ! max distance between b and lepton
 -1  = dralmax ! maxdistance between gamma and lepton
#*********************************************************************
# Minimum and maximum invariant mass for pairs                       *
# WARNING: for four lepton final state mmll cut require to have      *
#          different lepton masses for each flavor!                  *           
#*********************************************************************
 0   = mmjj    ! min invariant mass of a jet pair 
 0   = mmbb    ! min invariant mass of a b pair 
 0   = mmaa    ! min invariant mass of gamma gamma pair
 0   = mmll    ! min invariant mass of l+l- (same flavour) lepton pair
 -1  = mmjjmax ! max invariant mass of a jet pair
 -1  = mmbbmax ! max invariant mass of a b pair
 -1  = mmaamax ! max invariant mass of gamma gamma pair
 -1  = mmllmax ! max invariant mass of l+l- (same flavour) lepton pair
#*********************************************************************
# Minimum and maximum invariant mass for all letpons                 *
#*********************************************************************
 0   = mmnl    ! min invariant mass for all letpons (l+- and vl) 
 -1  = mmnlmax ! max invariant mass for all letpons (l+- and vl) 
#*********************************************************************
# Minimum and maximum pt for 4-momenta sum of leptons                *
#*********************************************************************
 0   = ptllmin  ! Minimum pt for 4-momenta sum of leptons(l and vl)
 -1  = ptllmax  ! Maximum pt for 4-momenta sum of leptons(l and vl)
#*********************************************************************
# Inclusive cuts                                                     *
#*********************************************************************
 0  = xptj ! minimum pt for at least one jet  
 0  = xptb ! minimum pt for at least one b 
 0  = xpta ! minimum pt for at least one photon 
 0  = xptl ! minimum pt for at least one charged lepton 
#*********************************************************************
# Control the pt's of the jets sorted by pt                          *
#*********************************************************************
 0   = ptj1min ! minimum pt for the leading jet in pt
 0   = ptj2min ! minimum pt for the second jet in pt
 0   = ptj3min ! minimum pt for the third jet in pt
 0   = ptj4min ! minimum pt for the fourth jet in pt
 -1  = ptj1max ! maximum pt for the leading jet in pt 
 -1  = ptj2max ! maximum pt for the second jet in pt
 -1  = ptj3max ! maximum pt for the third jet in pt
 -1  = ptj4max ! maximum pt for the fourth jet in pt
 0   = cutuse  ! reject event if fails any (0) / all (1) jet pt cuts
#*********************************************************************
# Control the pt's of leptons sorted by pt                           *
#*********************************************************************
 0   = ptl1min ! minimum pt for the leading lepton in pt
 0   = ptl2min ! minimum pt for the second lepton in pt
 0   = ptl3min ! minimum pt for the third lepton in pt
 0   = ptl4min ! minimum pt for the fourth lepton in pt
 -1  = ptl1max ! maximum pt for the leading lepton in pt 
 -1  = ptl2max ! maximum pt for the second lepton in pt
 -1  = ptl3max ! maximum pt for the third lepton in pt
 -1  = ptl4max ! maximum pt for the fourth lepton in pt
#*********************************************************************
# Control the Ht(k)=Sum of k leading jets                            *
#*********************************************************************
 0   = htjmin ! minimum jet HT=Sum(jet pt)
 -1  = htjmax ! maximum jet HT=Sum(jet pt)
 0   = ihtmin  !inclusive Ht for all partons (including b)
 -1  = ihtmax  !inclusive Ht for all partons (including b)
 0   = ht2min ! minimum Ht for the two leading jets
 0   = ht3min ! minimum Ht for the three leading jets
 0   = ht4min ! minimum Ht for the four leading jets
 -1  = ht2max ! maximum Ht for the two leading jets
 -1  = ht3max ! maximum Ht for the three leading jets
 -1  = ht4max ! maximum Ht for the four leading jets
#***********************************************************************
# Photon-isolation cuts, according to hep-ph/9801442                   *
# When ptgmin=0, all the other parameters are ignored                  *
# When ptgmin>0, pta and draj are not going to be used                 *
#***********************************************************************
   0 = ptgmin ! Min photon transverse momentum
 0.4 = R0gamma ! Radius of isolation code
 1.0 = xn ! n parameter of eq.(3.4) in hep-ph/9801442
 1.0 = epsgamma ! epsilon_gamma parameter of eq.(3.4) in hep-ph/9801442
 .true. = isoEM ! isolate photons from EM energy (photons and leptons)
#*********************************************************************
# WBF cuts                                                           *
#*********************************************************************
 0   = xetamin ! minimum rapidity for two jets in the WBF case  
 0   = deltaeta ! minimum rapidity for two jets in the WBF case 
#*********************************************************************
# KT DURHAM CUT                                                      *
#*********************************************************************
 -1    =  ktdurham        
 0.4  =  dparameter 
#*********************************************************************
# maximal pdg code for quark to be considered as a light jet         *
# (otherwise b cuts are applied)                                     *
#*********************************************************************
 4 = maxjetflavor    ! Maximum jet pdg code
#*********************************************************************
# Jet measure cuts                                                   *
#*********************************************************************
 0   = xqcut   ! minimum kt jet measure between partons
#*********************************************************************
#
#*********************************************************************
# Store info for systematics studies                                 *
# WARNING: If use_syst is T, matched Pythia output is                *
#          meaningful ONLY if plotted taking matchscale              *
#          reweighting into account!                                 *
#*********************************************************************
   F  = use_syst      ! Enable systematics studies
#
#**************************************
# Parameter of the systematics study
#  will be used by SysCalc (if installed)
#**************************************                                  
#
0.5 1 2 = sys_scalefact  # factorization/renormalization scale factor
0.5 1 2 = sys_alpsfact  # \alpha_s emission scale factors
30 50 = sys_matchscale # variation of merging scale
# PDF sets and number of members (0 or none for all members).
CT10nlo.LHgrid = sys_pdf # matching scales
# MSTW2008nlo68cl.LHgrid 1  = sys_pdf
</MGRunCard>
<slha>
######################################################################
## PARAM_CARD AUTOMATICALY GENERATED BY MG5 FOLLOWING UFO MODEL   ####
######################################################################
##                                                                  ##
##  Width set on Auto will be computed following the information    ##
##        present in the decay.py files of the model.               ##
##        See  arXiv:1402.1178 for more details.                    ##
##                                                                  ##
######################################################################

###################################
## INFORMATION FOR CKMBLOCK
###################################
Block ckmblock 
    1 2.277360e-01 # cabi 

###################################
## INFORMATION FOR FRBLOCK
###################################
Block frblock 
    1 1.600000e+00 # gz 

###################################
## INFORMATION FOR MASS
###################################
Block mass 
    1 5.040000e-03 # MD 
    2 2.550000e-03 # MU 
    3 1.010000e-01 # MS 
    4 1.270000e+00 # MC 
    5 4.700000e+00 # MB 
    6 1.720000e+02 # MT 
   11 5.110000e-04 # Me 
   13 1.056600e-01 # MM 
   15 1.777000e+00 # MTA 
   23 9.118760e+01 # MZ 
   25 1.200000e+02 # MH 
  10030 6.000000e+02 # MZph 
  10031 3.000000e+02 # MZpl 
## Dependent parameters, given by model restrictions.
## Those values should be edited following the 
## analytical expression. MG5 ignores those values 
## but they are important for interfacing the output of MG5
## to external program such as Pythia.
  12 0.000000 # ve : 0.0 
  14 0.000000 # vm : 0.0 
  16 0.000000 # vt : 0.0 
  21 0.000000 # g : 0.0 
  22 0.000000 # a : 0.0 
  24 79.824360 # w+ : cmath.sqrt(MZ__exp__2/2. + cmath.sqrt(MZ__exp__4/4. - (aEW*cmath.pi*MZ__exp__2)/(Gf*sqrt__2))) 

###################################
## INFORMATION FOR SMINPUTS
###################################
Block sminputs 
    1 1.279000e+02 # aEWM1 
    2 1.166370e-05 # Gf 
    3 1.184000e-01 # aS 

###################################
## INFORMATION FOR YUKAWA
###################################
Block yukawa 
    1 5.040000e-03 # ymdo 
    2 2.550000e-03 # ymup 
    3 1.010000e-01 # yms 
    4 1.270000e+00 # ymc 
    5 4.700000e+00 # ymb 
    6 1.720000e+02 # ymt 
   11 5.110000e-04 # yme 
   13 1.056600e-01 # ymm 
   15 1.777000e+00 # ymtau 

###################################
## INFORMATION FOR DECAY
###################################
DECAY   6 1.508336e+00 # WT 
DECAY  23 2.495200e+00 # WZ 
DECAY  24 2.085000e+00 # WW 
DECAY  25 5.753088e-03 # WH 
## Dependent parameters, given by model restrictions.
## Those values should be edited following the 
## analytical expression. MG5 ignores those values 
## but they are important for interfacing the output of MG5
## to external program such as Pythia.
DECAY  1 0.000000 # d : 0.0 
DECAY  2 0.000000 # u : 0.0 
DECAY  3 0.000000 # s : 0.0 
DECAY  4 0.000000 # c : 0.0 
DECAY  5 0.000000 # b : 0.0 
DECAY  11 0.000000 # e- : 0.0 
DECAY  12 0.000000 # ve : 0.0 
DECAY  13 0.000000 # mu- : 0.0 
DECAY  14 0.000000 # vm : 0.0 
DECAY  15 0.000000 # ta- : 0.0 
DECAY  16 0.000000 # vt : 0.0 
DECAY  21 0.000000 # g : 0.0 
DECAY  22 0.000000 # a : 0.0 
DECAY  10030 0.308725 # zph : (gz__exp__2*MZph*(5 + cmath.sqrt(1 - (4*MT__exp__2)/MZph__exp__2)))/(144.*cmath.pi) 
DECAY  10031 0.132629 # zpl : (5*gz__exp__2*MZpl)/(144.*cmath.pi) 
#===========================================================
# QUANTUM NUMBERS OF NEW STATE(S) (NON SM PDG CODE)
#===========================================================

Block QNUMBERS 10030  # zph 
        1 0  # 3 times electric charge
        2 3  # number of spin states (2S+1)
        3 1  # colour rep (1: singlet, 3: triplet, 8: octet)
        4 0  # Particle/Antiparticle distinction (0=own anti)
Block QNUMBERS 10031  # zpl 
        1 0  # 3 times electric charge
        2 3  # number of spin states (2S+1)
        3 1  # colour rep (1: singlet, 3: triplet, 8: octet)
        4 0  # Particle/Antiparticle distinction (0=own anti)
</slha>
## END BANNER##
<MGGenerationInfo>
#  Number of Events        :         4229
#  Integrated weight (pb)  :  0.49364E+02
#  Max wgt                 :  0.15326E-01
#  Average wgt             :  0.11673E-01
</MGGenerationInfo>
</header>
<init>
     2212     2212  0.40000000000E+04  0.40000000000E+04 0 0  247000  247000 2   1
  0.49324860030E+02  0.89360091511E-01  0.15325710000E-01   0
</init>
<event>
 5   0  0.1532571E-01  0.5971844E+03  0.7818609E-02  0.9911265E-01
        2   -1    0    0  501    0  0.00000000000E+00  0.00000000000E+00  0.10016172474E+04  0.10016172474E+04  0.25500000920E-02 0.  1.
       -2   -1    0    0    0  501  0.00000000000E+00  0.00000000000E+00 -0.89013358440E+02  0.89013358477E+02  0.25500000920E-02 0. -1.
    10030    2    1    2    0    0  0.00000000000E+00  0.00000000000E+00  0.91260388895E+03  0.10906306059E+04  0.59718444415E+03 0.  0.
        1    1    3    3  502    0 -0.13743138883E+03 -0.23443110314E+02 -0.25922221595E+02  0.14180595070E+03  0.50400001928E-02 0. -1.
       -1    1    3    3    0  502  0.13743138883E+03  0.23443110314E+02  0.93852611055E+03  0.94882465517E+03  0.50400001928E-02 0.  1.
</event>
<event>
 5   0  0.6170500E-02  0.5999295E+03  0.7818609E-02  0.9905552E-01
        3   -1    0    0  501    0  0.00000000000E+00  0.00000000000E+00  0.72938138082E+03  0.72938138781E+03  0.10100000352E+00 0.  1.
       -3   -1    0    0    0  501  0.00000000000E+00  0.00000000000E+00 -0.12336322629E+03  0.12336326764E+03  0.10100000352E+00 0. -1.
    10030    2    1    2    0    0  0.00000000000E+00  0.00000000000E+00  0.60601815453E+03  0.85274465545E+03  0.59992953235E+03 0.  0.
        4    1    3    3  502    0  0.10702219368E+03 -0.14701362496E+03 -0.36080886373E+02  0.18539201473E+03  0.12699999809E+01 0. -1.
       -4    1    3    3    0  502 -0.10702219368E+03  0.14701362496E+03  0.64209904090E+03  0.66735264073E+03  0.12699999809E+01 0.  1.
</event>
<event>
 5   0  0.1532571E-01  0.6062348E+03  0.7818609E-02  0.9892555E-01
       -2   -1    0    0    0  501  0.00000000000E+00  0.00000000000E+00  0.64590571384E+02  0.64590571434E+02  0.25500000920E-02 0.  1.
        2   -1    0    0  501    0  0.00000000000E+00  0.00000000000E+00 -0.14225009759E+04  0.14225009759E+04  0.25500000920E-02 0. -1.
    10030    2    1    2    0    0  0.00000000000E+00  0.00000000000E+00 -0.13579104045E+04  0.14870915473E+04  0.60623477586E+03 0.  0.
        1    1    3    3  502    0 -0.11934640133E+03 -0.27725663613E+03 -0.74681702153E+03  0.80551255078E+03  0.50400001928E-02 0. -1.
       -1    1    3    3    0  502  0.11934640133E+03  0.27725663613E+03 -0.61109338297E+03  0.68157899654E+03  0.50400001928E-02 0.  1.
</event>
<event>
 5   0  0.1513339E-01  0.5517634E+03  0.7818609E-02  0.1001087E+00
        2   -1    0    0  501    0  0.00000000000E+00  0.00000000000E+00  0.42173545053E+03  0.42173545054E+03  0.25500000920E-02 0. -1.
       -2   -1    0    0    0  501  0.00000000000E+00  0.00000000000E+00 -0.18047024291E+03  0.18047024292E+03  0.25500000920E-02 0.  1.
    10030    2    1    2    0    0  0.00000000000E+00  0.00000000000E+00  0.24126520763E+03  0.60220569346E+03  0.55176335220E+03 0.  0.
        3    1    3    3  502    0  0.18729150696E+02 -0.21119965250E+03  0.31327558834E+03  0.37828253826E+03  0.10100000352E+00 0. -1.
       -3    1    3    3    0  502 -0.18729150696E+02  0.21119965250E+03 -0.72010380715E+02  0.22392315520E+03  0.10100000352E+00 0.  1.
</event>
<event>
 5   0  0.1532571E-01  0.5918088E+03  0.7818609E-02  0.9922548E-01
       -2   -1    0    0    0  501  0.00000000000E+00  0.00000000000E+00  0.11129780699E+03  0.11129780702E+03  0.25500000920E-02 0.  1.
        2   -1    0    0  501    0  0.00000000000E+00  0.00000000000E+00 -0.78671272657E+03  0.78671272658E+03  0.25500000920E-02 0. -1.
    10030    2    1    2    0    0  0.00000000000E+00  0.00000000000E+00 -0.67541491958E+03  0.89801053359E+03  0.59180875699E+03 0.  0.
        1    1    3    3  502    0 -0.75848110472E+02 -0.18187869417E+03 -0.27550361763E+01  0.19707964254E+03  0.50400001928E-02 0.  1.
       -1    1    3    3    0  502  0.75848110472E+02  0.18187869417E+03 -0.67265988341E+03  0.70093089105E+03  0.50400001928E-02 0. -1.
</event>
<event>
 5   0  0.1513339E-01  0.6130883E+03  0.7818609E-02  0.9878618E-01
       -2   -1    0    0    0  501  0.00000000000E+00  0.00000000000E+00  0.10595754884E+04  0.10595754884E+04  0.25500000920E-02 0.  1.
        2   -1    0    0  501    0  0.00000000000E+00  0.00000000000E+00 -0.88685811549E+02  0.88685811586E+02  0.25500000920E-02 0. -1.
    10030    2    1    2    0    0  0.00000000000E+00  0.00000000000E+00  0.97088967684E+03  0.11482613000E+04  0.61308828763E+03 0.  0.
        3    1    3    3  502    0  0.82428992080E+02  0.15739489043E+03  0.95330451001E+03  0.96972016029E+03  0.10100000352E+00 0.  1.
       -3    1    3    3    0  502 -0.82428992080E+02 -0.15739489043E+03  0.17585166830E+02  0.17854113969E+03  0.10100000352E+00 0. -1.
</event>
<event>
 5   0  0.9177281E-02  0.5804669E+03  0.7818609E-02  0.9946781E-01
        1   -1    0    0  501    0  0.00000000000E+00  0.00000000000E+00  0.65174859017E+03  0.65174859019E+03  0.50400001928E-02 0. -1.
       -1   -1    0    0    0  501  0.00000000000E+00  0.00000000000E+00 -0.12924530517E+03  0.12924530527E+03  0.50400001928E-02 0.  1.
    10030    2    1    2    0    0  0.00000000000E+00  0.00000000000E+00  0.52250328500E+03  0.78099389546E+03  0.58046686548E+03 0.  0.
        1    1    3    3  502    0  0.15472962161E+03  0.23616566013E+03  0.17079551082E+03  0.32997966812E+03  0.50400001928E-02 0. -1.
       -1    1    3    3    0  502 -0.15472962161E+03 -0.23616566013E+03  0.35170777417E+03  0.45101422735E+03  0.50400001928E-02 0.  1.
</event>
<event>
 5   0  0.8860626E-02  0.5493185E+03  0.7818609E-02  0.1001652E+00
        1   -1    0    0  501    0  0.00000000000E+00  0.00000000000E+00  0.41812218198E+03  0.41812218201E+03  0.50400001928E-02 0. -1.
       -1   -1    0    0    0  501  0.00000000000E+00  0.00000000000E+00 -0.18042021494E+03  0.18042021501E+03  0.50400001928E-02 0.  1.
    10030    2    1    2    0    0  0.00000000000E+00  0.00000000000E+00  0.23770196705E+03  0.59854239702E+03  0.54931846491E+03 0.  0.
        3    1    3    3  502    0 -0.16951917223E+03  0.21365612585E+03  0.83510105730E+02  0.28523610891E+03  0.10100000352E+00 0. -1.
       -3    1    3    3    0  502  0.16951917223E+03 -0.21365612585E+03  0.15419186132E+03  0.31330628810E+03  0.10100000352E+00 0.  1.
</event>
<event>
 5   0  0.1532571E-01  0.5982576E+03  0.7818609E-02  0.9909028E-01
       -2   -1    0    0    0  501  0.00000000000E+00  0.00000000000E+00  0.41073989885E+03  0.41073989886E+03  0.25500000920E-02 0. -1.
        2   -1    0    0  501    0  0.00000000000E+00  0.00000000000E+00 -0.21784595951E+03  0.21784595953E+03  0.25500000920E-02 0.  1.
    10030    2    1    2    0    0  0.00000000000E+00  0.00000000000E+00  0.19289393934E+03  0.62858585839E+03  0.59825756120E+03 0.  0.
        1    1    3    3  502    0  0.22876799491E+02  0.27924287980E+03 -0.13641002573E+02  0.28051026871E+03  0.50400001928E-02 0.  1.
       -1    1    3    3    0  502 -0.22876799491E+02 -0.27924287980E+03  0.20653494192E+03  0.34807558968E+03  0.50400001928E-02 0. -1.
</event>
<event>
 5   0  0.6170500E-02  0.6053302E+03  0.7818609E-02  0.9894409E-01
       -4   -1    0    0    0  501  0.00000000000E+00  0.00000000000E+00  0.34616636213E+03  0.34616869178E+03  0.12699999809E+01 0. -1.
        4   -1    0    0  501    0  0.00000000000E+00  0.00000000000E+00 -0.26462571311E+03  0.26462876060E+03  0.12699999809E+01 0.  1.
    10030    2    1    2    0    0  0.00000000000E+00  0.00000000000E+00  0.81540649018E+02  0.61079745238E+03  0.60533019948E+03 0.  0.
        4    1    3    3  502    0  0.65976794663E+02 -0.14346410635E+03 -0.21976643311E+03  0.27061741493E+03  0.12699999809E+01 0.  1.
       -4    1    3    3    0  502 -0.65976794663E+02  0.14346410635E+03  0.30130708212E+03  0.34018003745E+03  0.12699999809E+01 0. -1.
</event>
<event>
 5   0  0.1532571E-01  0.5973458E+03  0.7818609E-02  0.9910928E-01
        2   -1    0    0  501    0  0.00000000000E+00  0.00000000000E+00  0.86758257957E+03  0.86758257957E+03  0.25500000920E-02 0. -1.
       -2   -1    0    0    0  501  0.00000000000E+00  0.00000000000E+00 -0.10282076005E+03  0.10282076008E+03  0.25500000920E-02 0.  1.
    10030    2    1    2    0    0  0.00000000000E+00  0.00000000000E+00  0.76476181952E+03  0.97040333966E+03  0.59734579686E+03 0.  0.
        1    1    3    3  502    0  0.27603989224E+03 -0.11403694307E+03  0.38521975795E+03  0.48743892791E+03  0.50400001928E-02 0.  1.
       -1    1    3    3    0  502 -0.27603989224E+03  0.11403694307E+03  0.37954206156E+03  0.48296441175E+03  0.50400001928E-02 0. -1.
</event>
<event>
 5   0  0.1488510E-01  0.5621101E+03  0.7818609E-02  0.9987291E-01
        2   -1    0    0  501    0  0.00000000000E+00  0.00000000000E+00  0.15850976268E+04  0.15850976268E+04  0.25500000920E-02 0.  1.
       -2   -1    0    0    0  501  0.00000000000E+00  0.00000000000E+00 -0.49834118062E+02  0.49834118127E+02  0.25500000920E-02 0. -1.
    10030    2    1    2    0    0  0.00000000000E+00  0.00000000000E+00  0.15352635087E+04  0.16349317449E+04  0.56211010425E+03 0.  0.
        5    1    3    3  502    0 -0.23410103592E+03  0.89397467288E+02  0.39772208624E+03  0.47010653054E+03  0.46999998093E+01 0.  1.
       -5    1    3    3    0  502  0.23410103592E+03 -0.89397467288E+02  0.11375414225E+04  0.11648252143E+04  0.46999998093E+01 0. -1.
</event>
<event>
 5   0  0.1488510E-01  0.5968979E+03  0.7818609E-02  0.9911863E-01
       -2   -1    0    0    0  501  0.00000000000E+00  0.00000000000E+00  0.62157723633E+02  0.62157723685E+02  0.25500000920E-02 0. -1.
        2   -1    0    0  501    0  0.00000000000E+00  0.00000000000E+00 -0.14329958724E+04  0.14329958724E+04  0.25500000920E-02 0.  1.
    10030    2    1    2    0    0  0.00000000000E+00  0.00000000000E+00 -0.13708381488E+04  0.14951535961E+04  0.59689785204E+03 0.  0.
        5    1    3    3  502    0 -0.51492730620E+02 -0.50791620414E+02  0.39776973660E+02  0.82677612706E+02  0.46999998093E+01 0. -1.
       -5    1    3    3    0  502  0.51492730620E+02  0.50791620414E+02 -0.14106151224E+04  0.14124759834E+04  0.46999998093E+01 0.  1.
</event>
<event>
 5   0  0.8860626E-02  0.6104202E+03  0.7818609E-02  0.9884020E-01
        1   -1    0    0  501    0  0.00000000000E+00  0.00000000000E+00  0.22300648494E+04  0.22300648495E+04  0.50400001928E-02 0.  1.
       -1   -1    0    0    0  501  0.00000000000E+00  0.00000000000E+00 -0.41771527471E+02  0.41771527775E+02  0.50400001928E-02 0. -1.
    10030    2    1    2    0    0  0.00000000000E+00  0.00000000000E+00  0.21882933220E+04  0.22718363772E+04  0.61042023385E+03 0.  0.
        3    1    3    3  502    0  0.11716317325E+03  0.22337589635E+03  0.17336959288E+04  0.17519490814E+04  0.10100000352E+00 0.  1.
       -3    1    3    3    0  502 -0.11716317325E+03 -0.22337589635E+03  0.45459739322E+03  0.51988729582E+03  0.10100000352E+00 0. -1.
</event>
<event>
 5   0  0.9497860E-02  0.4122748E+03  0.7818609E-02  0.1039610E+00
       -1   -1    0    0    0  501  0.00000000000E+00  0.00000000000E+00  0.10531232496E+03  0.10531232508E+03  0.50400001928E-02 0.  1.
        1   -1    0    0  501    0  0.00000000000E+00  0.00000000000E+00 -0.40349156350E+03  0.40349156353E+03  0.50400001928E-02 0. -1.
    10030    2    1    2    0    0  0.00000000000E+00  0.00000000000E+00 -0.29817923854E+03  0.50880388860E+03  0.41227483401E+03 0.  0.
        5    1    3    3  502    0  0.17083895307E+03 -0.10981790894E+03 -0.19227780133E+03  0.27971193019E+03  0.46999998093E+01 0. -1.
       -5    1    3    3    0  502 -0.17083895307E+03  0.10981790894E+03 -0.10590143721E+03  0.22909195841E+03  0.46999998093E+01 0.  1.
</event>
<event>
 5   0  0.6170500E-02  0.6000726E+03  0.7818609E-02  0.9905256E-01
       -3   -1    0    0    0  501  0.00000000000E+00  0.00000000000E+00  0.36874174260E+03  0.36874175643E+03  0.10100000352E+00 0.  1.
        3   -1    0    0  501    0  0.00000000000E+00  0.00000000000E+00 -0.24413227859E+03  0.24413229948E+03  0.10100000352E+00 0. -1.
    10030    2    1    2    0    0  0.00000000000E+00  0.00000000000E+00  0.12460946400E+03  0.61287405591E+03  0.60007257052E+03 0.  0.
        3    1    3    3  502    0  0.15200361838E+03  0.16011977248E+03 -0.14520022333E+03  0.26424715059E+03  0.10100000352E+00 0. -1.
       -3    1    3    3    0  502 -0.15200361838E+03 -0.16011977248E+03  0.26980968733E+03  0.34862690532E+03  0.10100000352E+00 0.  1.
</event>
<event>
 5   0  0.9177281E-02  0.5990761E+03  0.7818609E-02  0.9907325E-01
       -1   -1    0    0    0  501  0.00000000000E+00  0.00000000000E+00  0.16925147326E+03  0.16925147334E+03  0.50400001928E-02 0.  1.
        1   -1    0    0  501    0  0.00000000000E+00  0.00000000000E+00 -0.53011675061E+03  0.53011675063E+03  0.50400001928E-02 0. -1.
    10030    2    1    2    0    0  0.00000000000E+00  0.00000000000E+00 -0.36086527735E+03  0.69936822397E+03  0.59907609225E+03 0.  0.
        1    1    3    3  502    0  0.11989775588E+03 -0.22968231875E+03 -0.49570768912E+01  0.25914091156E+03  0.50400001928E-02 0.  1.
       -1    1    3    3    0  502 -0.11989775588E+03  0.22968231875E+03 -0.35590820046E+03  0.44022731241E+03  0.50400001928E-02 0. -1.
</event>
<event>
 5   0  0.8860626E-02  0.6537359E+03  0.7818609E-02  0.9799794E-01
        1   -1    0    0  501    0  0.00000000000E+00  0.00000000000E+00  0.50931719277E+03  0.50931719279E+03  0.50400001928E-02 0.  1.
       -1   -1    0    0    0  501  0.00000000000E+00  0.00000000000E+00 -0.20977623608E+03  0.20977623614E+03  0.50400001928E-02 0. -1.
    10030    2    1    2    0    0  0.00000000000E+00  0.00000000000E+00  0.29954095669E+03  0.71909342894E+03  0.65373586012E+03 0.  0.
        3    1    3    3  502    0 -0.81870014677E+02  0.11311423198E+03  0.47485949487E+03  0.49496371468E+03  0.10100000352E+00 0.  1.
       -3    1    3    3    0  502  0.81870014677E+02 -0.11311423198E+03 -0.17531853819E+03  0.22412971426E+03  0.10100000352E+00 0. -1.
</event>
<event>
 5   0  0.8860626E-02  0.5947734E+03  0.7818609E-02  0.9916309E-01
       -1   -1    0    0    0  501  0.00000000000E+00  0.00000000000E+00  0.13482661125E+03  0.13482661134E+03  0.50400001928E-02 0. -1.
        1   -1    0    0  501    0  0.00000000000E+00  0.00000000000E+00 -0.65594509425E+03  0.65594509427E+03  0.50400001928E-02 0.  1.
    10030    2    1    2    0    0  0.00000000000E+00  0.00000000000E+00 -0.52111848300E+03  0.79077170561E+03  0.59477341658E+03 0.  0.
        3    1    3    3  502    0 -0.15507095716E+03 -0.57123783583E+02  0.68157790993E+02  0.17876135790E+03  0.10100000352E+00 0. -1.
       -3    1    3    3    0  502  0.15507095716E+03  0.57123783583E+02 -0.58927627399E+03  0.61201034771E+03  0.10100000352E+00 0.  1.
</event>
<event>
 5   0  0.1532571E-01  0.5896423E+03  0.7818609E-02  0.9927131E-01
        2   -1    0    0  501    0  0.00000000000E+00  0.00000000000E+00  0.58503505504E+03  0.58503505505E+03  0.25500000920E-02 0.  1.
       -2   -1    0    0    0  501  0.00000000000E+00  0.00000000000E+00 -0.14857146430E+03  0.14857146432E+03  0.25500000920E-02 0. -1.
    10030    2    1    2    0    0  0.00000000000E+00  0.00000000000E+00  0.43646359074E+03  0.73360651937E+03  0.58964231465E+03 0.  0.
        1    1    3    3  502    0  0.22293210648E+01  0.11057125677E+03 -0.12178590896E+03  0.16450769084E+03  0.50400001928E-02 0. -1.
       -1    1    3    3    0  502 -0.22293210648E+01 -0.11057125677E+03  0.55824949970E+03  0.56909882854E+03  0.50400001928E-02 0.  1.
</event>
<event>
 5   0  0.9411028E-02  0.5789933E+03  0.7818609E-02  0.9949973E-01
        1   -1    0    0  501    0  0.00000000000E+00  0.00000000000E+00  0.84699304822E+03  0.84699304823E+03  0.50400001928E-02 0.  1.
       -1   -1    0    0    0  501  0.00000000000E+00  0.00000000000E+00 -0.98948063643E+02  0.98948063771E+02  0.50400001928E-02 0. -1.
    10030    2    1    2    0    0  0.00000000000E+00  0.00000000000E+00  0.74804498457E+03  0.94594111200E+03  0.57899334057E+03 0.  0.
        4    1    3    3  502    0 -0.17083708987E+03 -0.22763503880E+03  0.46053029868E+03  0.54138044946E+03  0.12699999809E+01 0.  1.
       -4    1    3    3    0  502  0.17083708987E+03  0.22763503880E+03  0.28751468590E+03  0.40456066254E+03  0.12699999809E+01 0. -1.
</event>
<event>
 5   0  0.9177281E-02  0.6048701E+03  0.7818609E-02  0.9895353E-01
       -1   -1    0    0    0  501  0.00000000000E+00  0.00000000000E+00  0.24599176119E+03  0.24599176124E+03  0.50400001928E-02 0. -1.
        1   -1    0    0  501    0  0.00000000000E+00  0.00000000000E+00 -0.37182938769E+03  0.37182938772E+03  0.50400001928E-02 0.  1.
    10030    2    1    2    0    0  0.00000000000E+00  0.00000000000E+00 -0.12583762650E+03  0.61782114896E+03  0.60487012148E+03 0.  0.
        1    1    3    3  502    0  0.19383522279E+03 -0.22874101025E+03 -0.22415992190E+02  0.30066097202E+03  0.50400001928E-02 0.  1.
       -1    1    3    3    0  502 -0.19383522279E+03  0.22874101025E+03 -0.10342163431E+03  0.31716017694E+03  0.50400001928E-02 0. -1.
</event>
<event>
 5   0  0.1502642E-01  0.6137446E+03  0.7818609E-02  0.9877294E-01
       -2   -1    0    0    0  501  0.00000000000E+00  0.00000000000E+00  0.13434528507E+03  0.13434528510E+03  0.25500000920E-02 0. -1.
        2   -1    0    0  501    0  0.00000000000E+00  0.00000000000E+00 -0.70095964648E+03  0.70095964648E+03  0.25500000920E-02 0.  1.
    10030    2    1    2    0    0  0.00000000000E+00  0.00000000000E+00 -0.56661436141E+03  0.83530493158E+03  0.61374464900E+03 0.  0.
        2    1    3    3  502    0  0.26798408351E+02 -0.39266071667E+02 -0.69591763969E+03  0.69753949014E+03  0.25500000920E-02 0.  1.
       -2    1    3    3    0  502 -0.26798408351E+02  0.39266071667E+02  0.12930327828E+03  0.13776544144E+03  0.25500000920E-02 0. -1.
</event>
<event>
 5   0  0.8860626E-02  0.6025352E+03  0.7818609E-02  0.9900160E-01
        1   -1    0    0  501    0  0.00000000000E+00  0.00000000000E+00  0.52379873860E+03  0.52379873863E+03  0.50400001928E-02 0. -1.
       -1   -1    0    0    0  501  0.00000000000E+00  0.00000000000E+00 -0.17327680852E+03  0.17327680860E+03  0.50400001928E-02 0.  1.
    10030    2    1    2    0    0  0.00000000000E+00  0.00000000000E+00  0.35052193008E+03  0.69707554722E+03  0.60253522309E+03 0.  0.
        3    1    3    3  502    0  0.14045809324E+03 -0.15620263589E+03  0.42509449111E+03  0.47416566302E+03  0.10100000352E+00 0. -1.
       -3    1    3    3    0  502 -0.14045809324E+03  0.15620263589E+03 -0.74572561022E+02  0.22290988420E+03  0.10100000352E+00 0.  1.
</event>
<event>
 5   0  0.9497860E-02  0.6058598E+03  0.7818609E-02  0.9893323E-01
       -1   -1    0    0    0  501  0.00000000000E+00  0.00000000000E+00  0.14872123031E+03  0.14872123040E+03  0.50400001928E-02 0. -1.
        1   -1    0    0  501    0  0.00000000000E+00  0.00000000000E+00 -0.61703722687E+03  0.61703722689E+03  0.50400001928E-02 0.  1.
    10030    2    1    2    0    0  0.00000000000E+00  0.00000000000E+00 -0.46831599656E+03  0.76575845729E+03  0.60585983715E+03 0.  0.
        5    1    3    3  502    0  0.17675853267E+03 -0.63353546504E+02 -0.53455434198E+03  0.56659305084E+03  0.46999998093E+01 0.  1.
       -5    1    3    3    0  502 -0.17675853267E+03  0.63353546504E+02  0.66238345422E+02  0.19916540645E+03  0.46999998093E+01 0. -1.
</event>
<event>
 5   0  0.1513339E-01  0.6013407E+03  0.7818609E-02  0.9902628E-01
       -2   -1    0    0    0  501  0.00000000000E+00  0.00000000000E+00  0.36301000554E+03  0.36301000555E+03  0.25500000920E-02 0. -1.
        2   -1    0    0  501    0  0.00000000000E+00  0.00000000000E+00 -0.24903627482E+03  0.24903627484E+03  0.25500000920E-02 0.  1.
    10030    2    1    2    0    0  0.00000000000E+00  0.00000000000E+00  0.11397373072E+03  0.61204628039E+03  0.60134070047E+03 0.  0.
        3    1    3    3  502    0 -0.82204068864E+02  0.18045864608E+03 -0.17304517518E+03  0.26318714774E+03  0.10100000352E+00 0.  1.
       -3    1    3    3    0  502  0.82204068864E+02 -0.18045864608E+03  0.28701890590E+03  0.34885913264E+03  0.10100000352E+00 0. -1.
</event>
<event>
 5   0  0.9411028E-02  0.6704692E+03  0.7818609E-02  0.9769111E-01
        1   -1    0    0  501    0  0.00000000000E+00  0.00000000000E+00  0.14001186658E+03  0.14001186667E+03  0.50400001928E-02 0. -1.
       -1   -1    0    0    0  501  0.00000000000E+00  0.00000000000E+00 -0.80266224558E+03  0.80266224560E+03  0.50400001928E-02 0.  1.
    10030    2    1    2    0    0  0.00000000000E+00  0.00000000000E+00 -0.66265037900E+03  0.94267411227E+03  0.67046920672E+03 0.  0.
        4    1    3    3  502    0  0.68998371936E+02 -0.31978375247E+03 -0.43424342085E+03  0.54368316613E+03  0.12699999809E+01 0. -1.
       -4    1    3    3    0  502 -0.68998371936E+02  0.31978375247E+03 -0.22840695815E+03  0.39899094614E+03  0.12699999809E+01 0.  1.
</event>
<event>
 5   0  0.1502642E-01  0.5941554E+03  0.7818609E-02  0.9917606E-01
        2   -1    0    0  501    0  0.00000000000E+00  0.00000000000E+00  0.10406017383E+04  0.10406017383E+04  0.25500000920E-02 0. -1.
       -2   -1    0    0    0  501  0.00000000000E+00  0.00000000000E+00 -0.84811657003E+02  0.84811657041E+02  0.25500000920E-02 0.  1.
    10030    2    1    2    0    0  0.00000000000E+00  0.00000000000E+00  0.95579008126E+03  0.11254133953E+04  0.59415539289E+03 0.  0.
        2    1    3    3  502    0  0.15615029320E+03 -0.11242656561E+02 -0.33624322335E+00  0.15655486086E+03  0.25500000920E-02 0.  1.
       -2    1    3    3    0  502 -0.15615029320E+03  0.11242656561E+02  0.95612632448E+03  0.96885853445E+03  0.25500000920E-02 0. -1.
</event>
<event>
 5   0  0.9420349E-02  0.6334868E+03  0.7818609E-02  0.9838268E-01
        1   -1    0    0  501    0  0.00000000000E+00  0.00000000000E+00  0.22621551974E+03  0.22621551979E+03  0.50400001928E-02 0.  1.
       -1   -1    0    0    0  501  0.00000000000E+00  0.00000000000E+00 -0.44349904814E+03  0.44349904817E+03  0.50400001928E-02 0. -1.
    10030    2    1    2    0    0  0.00000000000E+00  0.00000000000E+00 -0.21728352840E+03  0.66971456796E+03  0.63348675663E+03 0.  0.
        2    1    3    3  502    0  0.42296573847E+02  0.26973543355E+03 -0.27838600140E+03  0.38992944240E+03  0.25500000920E-02 0. -1.
       -2    1    3    3    0  502 -0.42296573847E+02 -0.26973543355E+03  0.61102472998E+02  0.27978512556E+03  0.25500000920E-02 0.  1.
</event>
<event>
 5   0  0.1513339E-01  0.5777558E+03  0.7818609E-02  0.9952661E-01
       -2   -1    0    0    0  501  0.00000000000E+00  0.00000000000E+00  0.13127288774E+03  0.13127288777E+03  0.25500000920E-02 0.  1.
        2   -1    0    0  501    0  0.00000000000E+00  0.00000000000E+00 -0.63570208320E+03  0.63570208321E+03  0.25500000920E-02 0. -1.
    10030    2    1    2    0    0  0.00000000000E+00  0.00000000000E+00 -0.50442919546E+03  0.76697497098E+03  0.57775582461E+03 0.  0.
        3    1    3    3  502    0  0.10264915097E+03  0.63140076651E+02 -0.60073748012E+03  0.61270633071E+03  0.10100000352E+00 0. -1.
       -3    1    3    3    0  502 -0.10264915097E+03 -0.63140076651E+02  0.96308284656E+02  0.15426864026E+03  0.10100000352E+00 0.  1.
</event>
<event>
 5   0  0.1488510E-01  0.5899582E+03  0.7818609E-02  0.9926461E-01
        2   -1    0    0  501    0  0.00000000000E+00  0.00000000000E+00  0.91241222552E+03  0.91241222552E+03  0.25500000920E-02 0. -1.
       -2   -1    0    0    0  501  0.00000000000E+00  0.00000000000E+00 -0.95365531781E+02  0.95365531815E+02  0.25500000920E-02 0.  1.
    10030    2    1    2    0    0  0.00000000000E+00  0.00000000000E+00  0.81704669374E+03  0.10077777573E+04  0.58995822601E+03 0.  0.
        5    1    3    3  502    0 -0.92908403021E+02 -0.18366145836E+03  0.76938668752E+03  0.79645556534E+03  0.46999998093E+01 0. -1.
       -5    1    3    3    0  502  0.92908403021E+02  0.18366145836E+03  0.47660006224E+02  0.21132219200E+03  0.46999998093E+01 0.  1.
</event>
<event>
 5   0  0.9420349E-02  0.5941852E+03  0.7818609E-02  0.9917544E-01
       -1   -1    0    0    0  501  0.00000000000E+00  0.00000000000E+00  0.20616025115E+03  0.20616025121E+03  0.50400001928E-02 0. -1.
        1   -1    0    0  501    0  0.00000000000E+00  0.00000000000E+00 -0.42813304691E+03  0.42813304694E+03  0.50400001928E-02 0.  1.
    10030    2    1    2    0    0  0.00000000000E+00  0.00000000000E+00 -0.22197279576E+03  0.63429329815E+03  0.59418521188E+03 0.  0.
        2    1    3    3  502    0 -0.48997874684E+02 -0.39766612106E+02  0.19892338908E+03  0.20869281227E+03  0.25500000920E-02 0. -1.
       -2    1    3    3    0  502  0.48997874684E+02  0.39766612106E+02 -0.42089618484E+03  0.42560048588E+03  0.25500000920E-02 0.  1.
</event>
<event>
 5   0  0.1513339E-01  0.5980868E+03  0.7818609E-02  0.9909383E-01
        2   -1    0    0  501    0  0.00000000000E+00  0.00000000000E+00  0.94679044986E+03  0.94679044986E+03  0.25500000920E-02 0. -1.
       -2   -1    0    0    0  501  0.00000000000E+00  0.00000000000E+00 -0.94452733050E+02  0.94452733084E+02  0.25500000920E-02 0.  1.
    10030    2    1    2    0    0  0.00000000000E+00  0.00000000000E+00  0.85233771681E+03  0.10412431829E+04  0.59808676840E+03 0.  0.
        3    1    3    3  502    0  0.12978142884E+03 -0.11457326883E+03  0.85067923668E+03  0.86811602170E+03  0.10100000352E+00 0. -1.
       -3    1    3    3    0  502 -0.12978142884E+03  0.11457326883E+03  0.16584801217E+01  0.17312716124E+03  0.10100000352E+00 0.  1.
</event>
<event>
 5   0  0.1532571E-01  0.6164117E+03  0.7818609E-02  0.9871930E-01
        2   -1    0    0  501    0  0.00000000000E+00  0.00000000000E+00  0.16895320382E+04  0.16895320382E+04  0.25500000920E-02 0. -1.
       -2   -1    0    0    0  501  0.00000000000E+00  0.00000000000E+00 -0.56223171213E+02  0.56223171270E+02  0.25500000920E-02 0.  1.
    10030    2    1    2    0    0  0.00000000000E+00  0.00000000000E+00  0.16333088670E+04  0.17457552095E+04  0.61641171016E+03 0.  0.
        1    1    3    3  502    0 -0.19384070429E+03  0.66411108856E+02  0.16461211746E+03  0.26283417445E+03  0.50400001928E-02 0.  1.
       -1    1    3    3    0  502  0.19384070429E+03 -0.66411108856E+02  0.14686967495E+04  0.14829210350E+04  0.50400001928E-02 0. -1.
</event>
<event>
 5   0  0.8860626E-02  0.6094436E+03  0.7818609E-02  0.9886005E-01
       -1   -1    0    0    0  501  0.00000000000E+00  0.00000000000E+00  0.21223637860E+03  0.21223637866E+03  0.50400001928E-02 0. -1.
        1   -1    0    0  501    0  0.00000000000E+00  0.00000000000E+00 -0.43750920957E+03  0.43750920960E+03  0.50400001928E-02 0.  1.
    10030    2    1    2    0    0  0.00000000000E+00  0.00000000000E+00 -0.22527283097E+03  0.64974558825E+03  0.60944358318E+03 0.  0.
        3    1    3    3  502    0  0.20452201454E+03 -0.83644639893E+02  0.11107214047E+03  0.24731095974E+03  0.10100000352E+00 0. -1.
       -3    1    3    3    0  502 -0.20452201454E+03  0.83644639893E+02 -0.33634497144E+03  0.40243462852E+03  0.10100000352E+00 0.  1.
</event>
<event>
 5   0  0.1513339E-01  0.6003972E+03  0.7818609E-02  0.9904582E-01
       -2   -1    0    0    0  501  0.00000000000E+00  0.00000000000E+00  0.18494139825E+03  0.18494139827E+03  0.25500000920E-02 0. -1.
        2   -1    0    0  501    0  0.00000000000E+00  0.00000000000E+00 -0.48728519814E+03  0.48728519814E+03  0.25500000920E-02 0.  1.
    10030    2    1    2    0    0  0.00000000000E+00  0.00000000000E+00 -0.30234379989E+03  0.67222659641E+03  0.60039722151E+03 0.  0.
        3    1    3    3  502    0 -0.88811210499E+02 -0.21899056944E+02 -0.47130216250E+03  0.48009659276E+03  0.10100000352E+00 0.  1.
       -3    1    3    3    0  502  0.88811210499E+02  0.21899056944E+02  0.16895836261E+03  0.19213000365E+03  0.10100000352E+00 0. -1.
</event>
<event>
 5   0  0.9411028E-02  0.6051583E+03  0.7818609E-02  0.9894762E-01
       -1   -1    0    0    0  501  0.00000000000E+00  0.00000000000E+00  0.14904303502E+03  0.14904303511E+03  0.50400001928E-02 0.  1.
        1   -1    0    0  501    0  0.00000000000E+00  0.00000000000E+00 -0.61427982744E+03  0.61427982746E+03  0.50400001928E-02 0. -1.
    10030    2    1    2    0    0  0.00000000000E+00  0.00000000000E+00 -0.46523679242E+03  0.76332286257E+03  0.60515825988E+03 0.  0.
        4    1    3    3  502    0  0.75203968989E+02 -0.21813987252E+03  0.14273033335E+02  0.23118385176E+03  0.12699999809E+01 0.  1.
       -4    1    3    3    0  502 -0.75203968989E+02  0.21813987252E+03 -0.47950982576E+03  0.53213901081E+03  0.12699999809E+01 0. -1.
</event>
<event>
 5   0  0.9411028E-02  0.6108307E+03  0.7818609E-02  0.9883187E-01
       -1   -1    0    0    0  501  0.00000000000E+00  0.00000000000E+00  0.73058729924E+02  0.73058730098E+02  0.50400001928E-02 0.  1.
        1   -1    0    0  501    0  0.00000000000E+00  0.00000000000E+00 -0.12767609476E+04  0.12767609476E+04  0.50400001928E-02 0. -1.
    10030    2    1    2    0    0  0.00000000000E+00  0.00000000000E+00 -0.12037022176E+04  0.13498196777E+04  0.61083069133E+03 0.  0.
        4    1    3    3  502    0  0.12640580959E+03  0.47742112204E+02  0.34076298096E+01  0.13517012546E+03  0.12699999809E+01 0.  1.
       -4    1    3    3    0  502 -0.12640580959E+03 -0.47742112204E+02 -0.12071098474E+04  0.12146495522E+04  0.12699999809E+01 0. -1.
</event>
<event>
 5   0  0.8860626E-02  0.4582965E+03  0.7818609E-02  0.1025276E+00
        1   -1    0    0  501    0  0.00000000000E+00  0.00000000000E+00  0.31773259124E+03  0.31773259128E+03  0.50400001928E-02 0.  1.
       -1   -1    0    0    0  501  0.00000000000E+00  0.00000000000E+00 -0.16526137965E+03  0.16526137973E+03  0.50400001928E-02 0. -1.
    10030    2    1    2    0    0  0.00000000000E+00  0.00000000000E+00  0.15247121159E+03  0.48299397101E+03  0.45829652592E+03 0.  0.
        3    1    3    3  502    0 -0.36855729367E+02  0.12464711489E+03 -0.12265006688E+03  0.17871289026E+03  0.10100000352E+00 0. -1.
       -3    1    3    3    0  502  0.36855729367E+02 -0.12464711489E+03  0.27512127847E+03  0.30428108076E+03  0.10100000352E+00 0.  1.
</event>
<event>
 5   0  0.1483942E-01  0.5435796E+03  0.7818609E-02  0.1002991E+00
       -2   -1    0    0    0  501  0.00000000000E+00  0.00000000000E+00  0.70519296102E+02  0.70519296148E+02  0.25500000920E-02 0. -1.
        2   -1    0    0  501    0  0.00000000000E+00  0.00000000000E+00 -0.10475102495E+04  0.10475102495E+04  0.25500000920E-02 0.  1.
    10030    2    1    2    0    0  0.00000000000E+00  0.00000000000E+00 -0.97699095335E+03  0.11180295456E+04  0.54357956356E+03 0.  0.
        4    1    3    3  502    0 -0.16024944543E+03  0.39257063702E+02 -0.93271981439E+03  0.94720054205E+03  0.12699999809E+01 0.  1.
       -4    1    3    3    0  502  0.16024944543E+03 -0.39257063702E+02 -0.44271138963E+02  0.17082900355E+03  0.12699999809E+01 0. -1.
</event>
<event>
 5   0  0.1483942E-01  0.3316167E+03  0.7818609E-02  0.1070424E+00
        2   -1    0    0  501    0  0.00000000000E+00  0.00000000000E+00  0.72064662745E+03  0.72064662745E+03  0.25500000920E-02 0. -1.
       -2   -1    0    0    0  501  0.00000000000E+00  0.00000000000E+00 -0.38149638045E+02  0.38149638130E+02  0.25500000920E-02 0.  1.
    10030    2    1    2    0    0  0.00000000000E+00  0.00000000000E+00  0.68249698941E+03  0.75879626558E+03  0.33161669457E+03 0.  0.
        4    1    3    3  502    0 -0.10721330210E+03  0.11478344630E+03  0.21971952122E+03  0.27008926783E+03  0.12699999809E+01 0.  1.
       -4    1    3    3    0  502  0.10721330210E+03 -0.11478344630E+03  0.46277746818E+03  0.48870699775E+03  0.12699999809E+01 0. -1.
</event>
<event>
 5   0  0.6170500E-02  0.6093505E+03  0.7818609E-02  0.9886194E-01
        4   -1    0    0  501    0  0.00000000000E+00  0.00000000000E+00  0.45589399968E+03  0.45589576862E+03  0.12699999809E+01 0.  1.
       -4   -1    0    0    0  501  0.00000000000E+00  0.00000000000E+00 -0.20361120078E+03  0.20361516147E+03  0.12699999809E+01 0. -1.
    10030    2    1    2    0    0  0.00000000000E+00  0.00000000000E+00  0.25228279891E+03  0.65951093010E+03  0.60935052005E+03 0.  0.
        2    1    3    3  502    0  0.83195904490E+02 -0.13046623898E+03 -0.15792118954E+03  0.22109296721E+03  0.25500000920E-02 0. -1.
       -2    1    3    3    0  502 -0.83195904490E+02  0.13046623898E+03  0.41020398845E+03  0.43841796289E+03  0.25500000920E-02 0.  1.
</event>
<event>
 5   0  0.8860626E-02  0.5983574E+03  0.7818609E-02  0.9908820E-01
       -1   -1    0    0    0  501  0.00000000000E+00  0.00000000000E+00  0.26455679229E+03  0.26455679233E+03  0.50400001928E-02 0. -1.
        1   -1    0    0  501    0  0.00000000000E+00  0.00000000000E+00 -0.33833149209E+03  0.33833149213E+03  0.50400001928E-02 0.  1.
    10030    2    1    2    0    0  0.00000000000E+00  0.00000000000E+00 -0.73774699804E+02  0.60288828446E+03  0.59835739923E+03 0.  0.
        3    1    3    3  502    0 -0.28023665299E+03 -0.82645226782E+02 -0.10175707481E+03  0.30938217089E+03  0.10100000352E+00 0.  1.
       -3    1    3    3    0  502  0.28023665299E+03  0.82645226782E+02  0.27982375003E+02  0.29350611357E+03  0.10100000352E+00 0. -1.
</event>
<event>
 5   0  0.8860626E-02  0.5990938E+03  0.7818609E-02  0.9907288E-01
       -1   -1    0    0    0  501  0.00000000000E+00  0.00000000000E+00  0.13849272701E+03  0.13849272711E+03  0.50400001928E-02 0. -1.
        1   -1    0    0  501    0  0.00000000000E+00  0.00000000000E+00 -0.64789209066E+03  0.64789209068E+03  0.50400001928E-02 0.  1.
    10030    2    1    2    0    0  0.00000000000E+00  0.00000000000E+00 -0.50939936365E+03  0.78638481779E+03  0.59909379062E+03 0.  0.
        3    1    3    3  502    0 -0.29642036505E+03 -0.42175029648E+02 -0.24262879768E+03  0.38537320822E+03  0.10100000352E+00 0.  1.
       -3    1    3    3    0  502  0.29642036505E+03  0.42175029648E+02 -0.26677056597E+03  0.40101160957E+03  0.10100000352E+00 0. -1.
</event>
<event>
 5   0  0.1502642E-01  0.5957265E+03  0.7818609E-02  0.9914312E-01
        2   -1    0    0  501    0  0.00000000000E+00  0.00000000000E+00  0.59085068994E+03  0.59085068995E+03  0.25500000920E-02 0.  1.
       -2   -1    0    0    0  501  0.00000000000E+00  0.00000000000E+00 -0.15016061483E+03  0.15016061485E+03  0.25500000920E-02 0. -1.
    10030    2    1    2    0    0  0.00000000000E+00  0.00000000000E+00  0.44069007511E+03  0.74101130480E+03  0.59572645697E+03 0.  0.
        2    1    3    3  502    0  0.24090873472E+03 -0.11867684325E+03  0.38061379888E+03  0.46581978865E+03  0.25500000920E-02 0.  1.
       -2    1    3    3    0  502 -0.24090873472E+03  0.11867684325E+03  0.60076276232E+02  0.27519151615E+03  0.25500000920E-02 0. -1.
</event>
<event>
 5   0  0.1513339E-01  0.5984903E+03  0.7818609E-02  0.9908543E-01
        2   -1    0    0  501    0  0.00000000000E+00  0.00000000000E+00  0.13244999109E+04  0.13244999109E+04  0.25500000920E-02 0. -1.
       -2   -1    0    0    0  501  0.00000000000E+00  0.00000000000E+00 -0.67608661005E+02  0.67608661053E+02  0.25500000920E-02 0.  1.
    10030    2    1    2    0    0  0.00000000000E+00  0.00000000000E+00  0.12568912499E+04  0.13921085720E+04  0.59849031909E+03 0.  0.
        3    1    3    3  502    0 -0.10415799520E+03 -0.64976993814E+01 -0.23908506303E+02  0.10706416271E+03  0.10100000352E+00 0.  1.
       -3    1    3    3    0  502  0.10415799520E+03  0.64976993814E+01  0.12807997562E+04  0.12850444093E+04  0.10100000352E+00 0. -1.
</event>
<event>
 5   0  0.1532571E-01  0.5978507E+03  0.7818609E-02  0.9909875E-01
        2   -1    0    0  501    0  0.00000000000E+00  0.00000000000E+00  0.96504314613E+03  0.96504314613E+03  0.25500000920E-02 0. -1.
       -2   -1    0    0    0  501  0.00000000000E+00  0.00000000000E+00 -0.92593144685E+02  0.92593144720E+02  0.25500000920E-02 0.  1.
    10030    2    1    2    0    0  0.00000000000E+00  0.00000000000E+00  0.87245000144E+03  0.10576362909E+04  0.59785074953E+03 0.  0.
        1    1    3    3  502    0  0.10491249459E+03 -0.15503491088E+03  0.23938458723E+02  0.18872070619E+03  0.50400001928E-02 0.  1.
       -1    1    3    3    0  502 -0.10491249459E+03  0.15503491088E+03  0.84851154272E+03  0.86891558466E+03  0.50400001928E-02 0. -1.
</event>
<event>
 5   0  0.1502642E-01  0.6066518E+03  0.7818609E-02  0.9891701E-01
       -2   -1    0    0    0  501  0.00000000000E+00  0.00000000000E+00  0.22393678954E+03  0.22393678956E+03  0.25500000920E-02 0. -1.
        2   -1    0    0  501    0  0.00000000000E+00  0.00000000000E+00 -0.41085971155E+03  0.41085971156E+03  0.25500000920E-02 0.  1.
    10030    2    1    2    0    0  0.00000000000E+00  0.00000000000E+00 -0.18692292201E+03  0.63479650111E+03  0.60665181039E+03 0.  0.
        2    1    3    3  502    0 -0.21106659676E+03  0.18408748918E+03  0.28430098509E+02  0.28150591903E+03  0.25500000920E-02 0. -1.
       -2    1    3    3    0  502  0.21106659676E+03 -0.18408748918E+03 -0.21535302052E+03  0.35329058209E+03  0.25500000920E-02 0.  1.
</event>
<event>
 5   0  0.1513339E-01  0.6241990E+03  0.7818609E-02  0.9856435E-01
        2   -1    0    0  501    0  0.00000000000E+00  0.00000000000E+00  0.29472322785E+03  0.29472322787E+03  0.25500000920E-02 0.  1.
       -2   -1    0    0    0  501  0.00000000000E+00  0.00000000000E+00 -0.33050022531E+03  0.33050022532E+03  0.25500000920E-02 0. -1.
    10030    2    1    2    0    0  0.00000000000E+00  0.00000000000E+00 -0.35776997457E+02  0.62522345319E+03  0.62419898499E+03 0.  0.
        3    1    3    3  502    0  0.13613775034E+03 -0.16135905526E+02 -0.29872739437E+03  0.32868209696E+03  0.10100000352E+00 0. -1.
       -3    1    3    3    0  502 -0.13613775034E+03  0.16135905526E+02  0.26295039691E+03  0.29654135623E+03  0.10100000352E+00 0.  1.
</event>
<event>
 5   0  0.8860626E-02  0.6244409E+03  0.7818609E-02  0.9855957E-01
       -1   -1    0    0    0  501  0.00000000000E+00  0.00000000000E+00  0.59054256644E+03  0.59054256647E+03  0.50400001928E-02 0.  1.
        1   -1    0    0  501    0  0.00000000000E+00  0.00000000000E+00 -0.16507126489E+03  0.16507126497E+03  0.50400001928E-02 0. -1.
    10030    2    1    2    0    0  0.00000000000E+00  0.00000000000E+00  0.42547130155E+03  0.75561383143E+03  0.62444089697E+03 0.  0.
        3    1    3    3  502    0 -0.11857429068E+03  0.10883511146E+03 -0.11100278016E+03  0.19551616634E+03  0.10100000352E+00 0. -1.
       -3    1    3    3    0  502  0.11857429068E+03 -0.10883511146E+03  0.53647408171E+03  0.56009766509E+03  0.10100000352E+00 0.  1.
</event>
<event>
 5   0  0.1488510E-01  0.6155435E+03  0.7818609E-02  0.9873673E-01
       -2   -1    0    0    0  501  0.00000000000E+00  0.00000000000E+00  0.18379666732E+03  0.18379666733E+03  0.25500000920E-02 0. -1.
        2   -1    0    0  501    0  0.00000000000E+00  0.00000000000E+00 -0.51537084357E+03  0.51537084358E+03  0.25500000920E-02 0.  1.
    10030    2    1    2    0    0  0.00000000000E+00  0.00000000000E+00 -0.33157417626E+03  0.69916751091E+03  0.61554347852E+03 0.  0.
        5    1    3    3  502    0 -0.23483608060E+03 -0.45236421622E+01 -0.39162761137E+03  0.45668668042E+03  0.46999998093E+01 0.  1.
       -5    1    3    3    0  502  0.23483608060E+03  0.45236421622E+01  0.60053435111E+02  0.24248083049E+03  0.46999998093E+01 0. -1.
</event>
<event>
 5   0  0.9497860E-02  0.5923184E+03  0.7818609E-02  0.9921472E-01
       -1   -1    0    0    0  501  0.00000000000E+00  0.00000000000E+00  0.28783571974E+03  0.28783571978E+03  0.50400001928E-02 0.  1.
        1   -1    0    0  501    0  0.00000000000E+00  0.00000000000E+00 -0.30472333524E+03  0.30472333528E+03  0.50400001928E-02 0. -1.
    10030    2    1    2    0    0  0.00000000000E+00  0.00000000000E+00 -0.16887615501E+02  0.59255905507E+03  0.59231836219E+03 0.  0.
        5    1    3    3  502    0  0.19810159925E+03  0.10902768273E+03  0.18283245235E+03  0.29082825663E+03  0.46999998093E+01 0.  1.
       -5    1    3    3    0  502 -0.19810159925E+03 -0.10902768273E+03 -0.19972006785E+03  0.30173079844E+03  0.46999998093E+01 0. -1.
</event>
<event>
 5   0  0.8860626E-02  0.6038831E+03  0.7818609E-02  0.9897382E-01
        1   -1    0    0  501    0  0.00000000000E+00  0.00000000000E+00  0.67507874795E+03  0.67507874797E+03  0.50400001928E-02 0. -1.
       -1   -1    0    0    0  501  0.00000000000E+00  0.00000000000E+00 -0.13504899509E+03  0.13504899518E+03  0.50400001928E-02 0.  1.
    10030    2    1    2    0    0  0.00000000000E+00  0.00000000000E+00  0.54002975287E+03  0.81012774315E+03  0.60388312300E+03 0.  0.
        3    1    3    3  502    0 -0.31281528641E+02  0.14537541933E+02 -0.13239697690E+03  0.13681682592E+03  0.10100000352E+00 0.  1.
       -3    1    3    3    0  502  0.31281528641E+02 -0.14537541933E+02  0.67242672977E+03  0.67331091724E+03  0.10100000352E+00 0. -1.
</event>
<event>
 5   0  0.6170500E-02  0.6430491E+03  0.7818609E-02  0.9819910E-01
       -3   -1    0    0    0  501  0.00000000000E+00  0.00000000000E+00  0.68488841551E+03  0.68488842296E+03  0.10100000352E+00 0.  1.
        3   -1    0    0  501    0  0.00000000000E+00  0.00000000000E+00 -0.15094140309E+03  0.15094143688E+03  0.10100000352E+00 0. -1.
    10030    2    1    2    0    0  0.00000000000E+00  0.00000000000E+00  0.53394701242E+03  0.83582985983E+03  0.64304909806E+03 0.  0.
        1    1    3    3  502    0  0.23202190123E+02 -0.25037472720E+03  0.52742590842E+03  0.58429781323E+03  0.50400001928E-02 0. -1.
       -1    1    3    3    0  502 -0.23202190123E+02  0.25037472720E+03  0.65211039967E+01  0.25153204660E+03  0.50400001928E-02 0.  1.
</event>
<event>
 5   0  0.1513339E-01  0.5973208E+03  0.7818609E-02  0.9910980E-01
       -2   -1    0    0    0  501  0.00000000000E+00  0.00000000000E+00  0.18471828225E+03  0.18471828227E+03  0.25500000920E-02 0.  1.
        2   -1    0    0  501    0  0.00000000000E+00  0.00000000000E+00 -0.48288684416E+03  0.48288684417E+03  0.25500000920E-02 0. -1.
    10030    2    1    2    0    0  0.00000000000E+00  0.00000000000E+00 -0.29816856191E+03  0.66760512644E+03  0.59732077943E+03 0.  0.
        3    1    3    3  502    0 -0.23305533140E+03 -0.18405418134E+03 -0.18455655977E+03  0.34964533905E+03  0.10100000352E+00 0. -1.
       -3    1    3    3    0  502  0.23305533140E+03  0.18405418134E+03 -0.11361200214E+03  0.31795978739E+03  0.10100000352E+00 0.  1.
</event>
<event>
 5   0  0.9177281E-02  0.6442238E+03  0.7818609E-02  0.9817679E-01
       -1   -1    0    0    0  501  0.00000000000E+00  0.00000000000E+00  0.31635032302E+03  0.31635032306E+03  0.50400001928E-02 0.  1.
        1   -1    0    0  501    0  0.00000000000E+00  0.00000000000E+00 -0.32797843983E+03  0.32797843987E+03  0.50400001928E-02 0. -1.
    10030    2    1    2    0    0  0.00000000000E+00  0.00000000000E+00 -0.11628116810E+02  0.64432876293E+03  0.64422382883E+03 0.  0.
        1    1    3    3  502    0  0.10341249509E+03  0.28087613684E+03  0.11324539604E+03  0.32001573108E+03  0.50400001928E-02 0.  1.
       -1    1    3    3    0  502 -0.10341249509E+03 -0.28087613684E+03 -0.12487351285E+03  0.32431303185E+03  0.50400001928E-02 0. -1.
</event>
<event>
 5   0  0.8860626E-02  0.6060183E+03  0.7818609E-02  0.9892998E-01
       -1   -1    0    0    0  501  0.00000000000E+00  0.00000000000E+00  0.91697044714E+02  0.91697044853E+02  0.50400001928E-02 0. -1.
        1   -1    0    0  501    0  0.00000000000E+00  0.00000000000E+00 -0.10012814001E+04  0.10012814001E+04  0.50400001928E-02 0.  1.
    10030    2    1    2    0    0  0.00000000000E+00  0.00000000000E+00 -0.90958435538E+03  0.10929784450E+04  0.60601830137E+03 0.  0.
        3    1    3    3  502    0  0.24110817070E+03  0.17987512897E+03 -0.52047480865E+03  0.60115077030E+03  0.10100000352E+00 0. -1.
       -3    1    3    3    0  502 -0.24110817070E+03 -0.17987512897E+03 -0.38910954673E+03  0.49182767466E+03  0.10100000352E+00 0.  1.
</event>
<event>
 5   0  0.9420349E-02  0.3759772E+03  0.7818609E-02  0.1052431E+00
        1   -1    0    0  501    0  0.00000000000E+00  0.00000000000E+00  0.10003042437E+04  0.10003042438E+04  0.50400001928E-02 0.  1.
       -1   -1    0    0    0  501  0.00000000000E+00  0.00000000000E+00 -0.35328971082E+02  0.35328971441E+02  0.50400001928E-02 0. -1.
    10030    2    1    2    0    0  0.00000000000E+00  0.00000000000E+00  0.96497527266E+03  0.10356332152E+04  0.37597723278E+03 0.  0.
        2    1    3    3  502    0  0.74576758728E+02  0.16592138668E+03  0.61309095293E+03  0.63950927755E+03  0.25500000920E-02 0. -1.
       -2    1    3    3    0  502 -0.74576758728E+02 -0.16592138668E+03  0.35188431973E+03  0.39612393765E+03  0.25500000920E-02 0.  1.
</event>
<event>
 5   0  0.8860626E-02  0.5959117E+03  0.7818609E-02  0.9913924E-01
        1   -1    0    0  501    0  0.00000000000E+00  0.00000000000E+00  0.48469774207E+03  0.48469774209E+03  0.50400001928E-02 0. -1.
       -1   -1    0    0    0  501  0.00000000000E+00  0.00000000000E+00 -0.18316094043E+03  0.18316094050E+03  0.50400001928E-02 0.  1.
    10030    2    1    2    0    0  0.00000000000E+00  0.00000000000E+00  0.30153680164E+03  0.66785868259E+03  0.59591171927E+03 0.  0.
        3    1    3    3  502    0  0.24057828035E+03  0.17575164758E+03  0.15450794163E+03  0.33561773617E+03  0.10100000352E+00 0. -1.
       -3    1    3    3    0  502 -0.24057828035E+03 -0.17575164758E+03  0.14702886001E+03  0.33224094642E+03  0.10100000352E+00 0.  1.
</event>
<event>
 5   0  0.1483942E-01  0.5799261E+03  0.7818609E-02  0.9947951E-01
        2   -1    0    0  501    0  0.00000000000E+00  0.00000000000E+00  0.54010956827E+03  0.54010956828E+03  0.25500000920E-02 0. -1.
       -2   -1    0    0    0  501  0.00000000000E+00  0.00000000000E+00 -0.15566945011E+03  0.15566945013E+03  0.25500000920E-02 0.  1.
    10030    2    1    2    0    0  0.00000000000E+00  0.00000000000E+00  0.38444011816E+03  0.69577901841E+03  0.57992606254E+03 0.  0.
        4    1    3    3  502    0  0.18880682037E+03  0.27575158628E+01  0.45622803426E+03  0.49376234309E+03  0.12699999809E+01 0. -1.
       -4    1    3    3    0  502 -0.18880682037E+03 -0.27575158628E+01 -0.71787916098E+02  0.20201667532E+03  0.12699999809E+01 0.  1.
</event>
<event>
 5   0  0.1532571E-01  0.6165682E+03  0.7818609E-02  0.9871616E-01
        2   -1    0    0  501    0  0.00000000000E+00  0.00000000000E+00  0.64508554009E+03  0.64508554010E+03  0.25500000920E-02 0. -1.
       -2   -1    0    0    0  501  0.00000000000E+00  0.00000000000E+00 -0.14732786049E+03  0.14732786051E+03  0.25500000920E-02 0.  1.
    10030    2    1    2    0    0  0.00000000000E+00  0.00000000000E+00  0.49775767960E+03  0.79241340061E+03  0.61656815509E+03 0.  0.
        1    1    3    3  502    0 -0.55264205156E+02 -0.11886930118E+03 -0.10972427489E+03  0.17094870476E+03  0.50400001928E-02 0.  1.
       -1    1    3    3    0  502  0.55264205156E+02  0.11886930118E+03  0.60748195449E+03  0.62146469585E+03  0.50400001928E-02 0. -1.
</event>
<event>
 5   0  0.9411028E-02  0.6181792E+03  0.7818609E-02  0.9868392E-01
       -1   -1    0    0    0  501  0.00000000000E+00  0.00000000000E+00  0.37524498727E+03  0.37524498731E+03  0.50400001928E-02 0.  1.
        1   -1    0    0  501    0  0.00000000000E+00  0.00000000000E+00 -0.25459737239E+03  0.25459737244E+03  0.50400001928E-02 0. -1.
    10030    2    1    2    0    0  0.00000000000E+00  0.00000000000E+00  0.12064761489E+03  0.62984235974E+03  0.61817922251E+03 0.  0.
        4    1    3    3  502    0  0.19879468638E+03  0.22207480844E+03  0.14371062371E+03  0.33089409808E+03  0.12699999809E+01 0.  1.
       -4    1    3    3    0  502 -0.19879468638E+03 -0.22207480844E+03 -0.23063008824E+02  0.29894826166E+03  0.12699999809E+01 0. -1.
</event>
<event>
 5   0  0.1502642E-01  0.5968179E+03  0.7818609E-02  0.9912030E-01
        2   -1    0    0  501    0  0.00000000000E+00  0.00000000000E+00  0.52003136702E+03  0.52003136702E+03  0.25500000920E-02 0.  1.
       -2   -1    0    0    0  501  0.00000000000E+00  0.00000000000E+00 -0.17123564503E+03  0.17123564505E+03  0.25500000920E-02 0. -1.
    10030    2    1    2    0    0  0.00000000000E+00  0.00000000000E+00  0.34879572199E+03  0.69126701207E+03  0.59681791721E+03 0.  0.
        2    1    3    3  502    0 -0.16564572270E+03 -0.23380989407E+03  0.27090440182E+03  0.39432824772E+03  0.25500000920E-02 0.  1.
       -2    1    3    3    0  502  0.16564572270E+03  0.23380989407E+03  0.77891320166E+02  0.29693876436E+03  0.25500000920E-02 0. -1.
</event>
<event>
 5   0  0.8860626E-02  0.6106677E+03  0.7818609E-02  0.9883518E-01
       -1   -1    0    0    0  501  0.00000000000E+00  0.00000000000E+00  0.32263385963E+03  0.32263385967E+03  0.50400001928E-02 0. -1.
        1   -1    0    0  501    0  0.00000000000E+00  0.00000000000E+00 -0.28896147867E+03  0.28896147872E+03  0.50400001928E-02 0.  1.
    10030    2    1    2    0    0  0.00000000000E+00  0.00000000000E+00  0.33672380960E+02  0.61159533839E+03  0.61066769089E+03 0.  0.
        3    1    3    3  502    0 -0.83303018059E+02  0.13915305972E+03  0.27592934857E+03  0.32006246648E+03  0.10100000352E+00 0. -1.
       -3    1    3    3    0  502  0.83303018059E+02 -0.13915305972E+03 -0.24225696761E+03  0.29153287191E+03  0.10100000352E+00 0.  1.
</event>
<event>
 5   0  0.1502642E-01  0.6117959E+03  0.7818609E-02  0.9881231E-01
       -2   -1    0    0    0  501  0.00000000000E+00  0.00000000000E+00  0.92658699093E+02  0.92658699128E+02  0.25500000920E-02 0. -1.
        2   -1    0    0  501    0  0.00000000000E+00  0.00000000000E+00 -0.10098734664E+04  0.10098734664E+04  0.25500000920E-02 0.  1.
    10030    2    1    2    0    0  0.00000000000E+00  0.00000000000E+00 -0.91721476726E+03  0.11025321655E+04  0.61179591912E+03 0.  0.
        2    1    3    3  502    0 -0.26491342704E+03  0.13424331028E+03 -0.32650822757E+03  0.44137060715E+03  0.25500000920E-02 0. -1.
       -2    1    3    3    0  502  0.26491342704E+03 -0.13424331028E+03 -0.59070653969E+03  0.66116155834E+03  0.25500000920E-02 0.  1.
</event>
<event>
 5   0  0.9420349E-02  0.6009979E+03  0.7818609E-02  0.9903338E-01
        1   -1    0    0  501    0  0.00000000000E+00  0.00000000000E+00  0.90649001398E+03  0.90649001400E+03  0.50400001928E-02 0.  1.
       -1   -1    0    0    0  501  0.00000000000E+00  0.00000000000E+00 -0.99614576173E+02  0.99614576300E+02  0.50400001928E-02 0. -1.
    10030    2    1    2    0    0  0.00000000000E+00  0.00000000000E+00  0.80687543781E+03  0.10061045903E+04  0.60099789890E+03 0.  0.
        2    1    3    3  502    0 -0.16574112215E+03 -0.49163882213E+02  0.81490306408E+03  0.83303914118E+03  0.25500000920E-02 0.  1.
       -2    1    3    3    0  502  0.16574112215E+03  0.49163882213E+02 -0.80276262711E+01  0.17306544911E+03  0.25500000920E-02 0. -1.
</event>
<event>
 5   0  0.9420349E-02  0.5747819E+03  0.7818609E-02  0.9959152E-01
       -1   -1    0    0    0  501  0.00000000000E+00  0.00000000000E+00  0.12495003896E+03  0.12495003906E+03  0.50400001928E-02 0.  1.
        1   -1    0    0  501    0  0.00000000000E+00  0.00000000000E+00 -0.66101274833E+03  0.66101274835E+03  0.50400001928E-02 0. -1.
    10030    2    1    2    0    0  0.00000000000E+00  0.00000000000E+00 -0.53606270937E+03  0.78596278741E+03  0.57478193676E+03 0.  0.
        2    1    3    3  502    0  0.18022262929E+03 -0.37211328270E+02 -0.56988139573E+03  0.59885698148E+03  0.25500000920E-02 0. -1.
       -2    1    3    3    0  502 -0.18022262929E+03  0.37211328270E+02  0.33818686364E+02  0.18710580593E+03  0.25500000920E-02 0.  1.
</event>
<event>
 5   0  0.9420349E-02  0.5983677E+03  0.7818609E-02  0.9908798E-01
       -1   -1    0    0    0  501  0.00000000000E+00  0.00000000000E+00  0.38362308415E+02  0.38362308746E+02  0.50400001928E-02 0.  1.
        1   -1    0    0  501    0  0.00000000000E+00  0.00000000000E+00 -0.23333052251E+04  0.23333052251E+04  0.50400001928E-02 0. -1.
    10030    2    1    2    0    0  0.00000000000E+00  0.00000000000E+00 -0.22949429166E+04  0.23716675338E+04  0.59836769655E+03 0.  0.
        2    1    3    3  502    0 -0.27630774574E+03 -0.10687187486E+03 -0.13129665319E+04  0.13459749930E+04  0.25500000920E-02 0.  1.
       -2    1    3    3    0  502  0.27630774574E+03  0.10687187486E+03 -0.98197638477E+03  0.10256925408E+04  0.25500000920E-02 0. -1.
</event>
<event>
 5   0  0.1502642E-01  0.5783299E+03  0.7818609E-02  0.9951413E-01
       -2   -1    0    0    0  501  0.00000000000E+00  0.00000000000E+00  0.15247870181E+03  0.15247870183E+03  0.25500000920E-02 0.  1.
        2   -1    0    0  501    0  0.00000000000E+00  0.00000000000E+00 -0.54838063292E+03  0.54838063293E+03  0.25500000920E-02 0. -1.
    10030    2    1    2    0    0  0.00000000000E+00  0.00000000000E+00 -0.39590193111E+03  0.70085933476E+03  0.57832989553E+03 0.  0.
        2    1    3    3  502    0 -0.24429262757E+03  0.10487534440E+03 -0.60103255750E+02  0.27256215274E+03  0.25500000920E-02 0.  1.
       -2    1    3    3    0  502  0.24429262757E+03 -0.10487534440E+03 -0.33579867536E+03  0.42829718202E+03  0.25500000920E-02 0. -1.
</event>
<event>
 5   0  0.9497860E-02  0.5939928E+03  0.7818609E-02  0.9917948E-01
        1   -1    0    0  501    0  0.00000000000E+00  0.00000000000E+00  0.42029262162E+03  0.42029262165E+03  0.50400001928E-02 0. -1.
       -1   -1    0    0    0  501  0.00000000000E+00  0.00000000000E+00 -0.20987011940E+03  0.20987011946E+03  0.50400001928E-02 0.  1.
    10030    2    1    2    0    0  0.00000000000E+00  0.00000000000E+00  0.21042250222E+03  0.63016274111E+03  0.59399280370E+03 0.  0.
        5    1    3    3  502    0 -0.28621102940E+03 -0.62135219311E+02  0.15726244343E+03  0.33246218573E+03  0.46999998093E+01 0. -1.
       -5    1    3    3    0  502  0.28621102940E+03  0.62135219311E+02  0.53160058781E+02  0.29770055538E+03  0.46999998093E+01 0.  1.
</event>
<event>
 5   0  0.1488510E-01  0.5809458E+03  0.7818609E-02  0.9945746E-01
       -2   -1    0    0    0  501  0.00000000000E+00  0.00000000000E+00  0.51016399772E+02  0.51016399836E+02  0.25500000920E-02 0. -1.
        2   -1    0    0  501    0  0.00000000000E+00  0.00000000000E+00 -0.16538700475E+04  0.16538700475E+04  0.25500000920E-02 0.  1.
    10030    2    1    2    0    0  0.00000000000E+00  0.00000000000E+00 -0.16028536477E+04  0.17048864473E+04  0.58094576535E+03 0.  0.
        5    1    3    3  502    0  0.11815613576E+03  0.31965036710E+02 -0.15743654200E+04  0.15791235549E+04  0.46999998093E+01 0.  1.
       -5    1    3    3    0  502 -0.11815613576E+03 -0.31965036710E+02 -0.28488227708E+02  0.12576289240E+03  0.46999998093E+01 0. -1.
</event>
<event>
 5   0  0.1488510E-01  0.5944145E+03  0.7818609E-02  0.9917062E-01
        2   -1    0    0  501    0  0.00000000000E+00  0.00000000000E+00  0.10920831120E+04  0.10920831120E+04  0.25500000920E-02 0.  1.
       -2   -1    0    0    0  501  0.00000000000E+00  0.00000000000E+00 -0.80884091216E+02  0.80884091256E+02  0.25500000920E-02 0. -1.
    10030    2    1    2    0    0  0.00000000000E+00  0.00000000000E+00  0.10111990208E+04  0.11729672033E+04  0.59441450209E+03 0.  0.
        5    1    3    3  502    0  0.28717721003E+02  0.11420608422E+03 -0.32802200052E+02  0.12233483355E+03  0.46999998093E+01 0. -1.
       -5    1    3    3    0  502 -0.28717721003E+02 -0.11420608422E+03  0.10440012209E+04  0.10506323697E+04  0.46999998093E+01 0.  1.
</event>
<event>
 5   0  0.1483942E-01  0.6104078E+03  0.7818609E-02  0.9884045E-01
        2   -1    0    0  501    0  0.00000000000E+00  0.00000000000E+00  0.52787889378E+03  0.52787889378E+03  0.25500000920E-02 0.  1.
       -2   -1    0    0    0  501  0.00000000000E+00  0.00000000000E+00 -0.17645980244E+03  0.17645980246E+03  0.25500000920E-02 0. -1.
    10030    2    1    2    0    0  0.00000000000E+00  0.00000000000E+00  0.35141909133E+03  0.70433869625E+03  0.61040775001E+03 0.  0.
        4    1    3    3  502    0 -0.29019351189E+03  0.62806736292E+02  0.94192584108E+02  0.31149769866E+03  0.12699999809E+01 0. -1.
       -4    1    3    3    0  502  0.29019351189E+03 -0.62806736292E+02  0.25722650722E+03  0.39284099759E+03  0.12699999809E+01 0.  1.
</event>
<event>
 5   0  0.9411028E-02  0.6143665E+03  0.7818609E-02  0.9876040E-01
       -1   -1    0    0    0  501  0.00000000000E+00  0.00000000000E+00  0.19978775321E+03  0.19978775328E+03  0.50400001928E-02 0. -1.
        1   -1    0    0  501    0  0.00000000000E+00  0.00000000000E+00 -0.47230894620E+03  0.47230894622E+03  0.50400001928E-02 0.  1.
    10030    2    1    2    0    0  0.00000000000E+00  0.00000000000E+00 -0.27252119298E+03  0.67209669950E+03  0.61436648090E+03 0.  0.
        4    1    3    3  502    0 -0.15047516126E+03  0.17488509677E+03 -0.35812930679E+03  0.42601148402E+03  0.12699999809E+01 0.  1.
       -4    1    3    3    0  502  0.15047516126E+03 -0.17488509677E+03  0.85608113812E+02  0.24608521548E+03  0.12699999809E+01 0. -1.
</event>
<event>
 5   0  0.6170500E-02  0.5994559E+03  0.7818609E-02  0.9906536E-01
       -4   -1    0    0    0  501  0.00000000000E+00  0.00000000000E+00  0.42650324664E+03  0.42650513748E+03  0.12699999809E+01 0. -1.
        4   -1    0    0  501    0  0.00000000000E+00  0.00000000000E+00 -0.21063149135E+03  0.21063532004E+03  0.12699999809E+01 0.  1.
    10030    2    1    2    0    0  0.00000000000E+00  0.00000000000E+00  0.21587175530E+03  0.63714045751E+03  0.59945587650E+03 0.  0.
        1    1    3    3  502    0 -0.26835614795E+03 -0.30835250551E+02  0.24598968902E+03  0.36534471660E+03  0.50400001928E-02 0.  1.
       -1    1    3    3    0  502  0.26835614795E+03  0.30835250551E+02 -0.30117933722E+02  0.27179574091E+03  0.50400001928E-02 0. -1.
</event>
<event>
 5   0  0.6170500E-02  0.6018258E+03  0.7818609E-02  0.9901625E-01
        3   -1    0    0  501    0  0.00000000000E+00  0.00000000000E+00  0.85014837371E+03  0.85014837971E+03  0.10100000352E+00 0.  1.
       -3   -1    0    0    0  501  0.00000000000E+00  0.00000000000E+00 -0.10650910193E+03  0.10650914982E+03  0.10100000352E+00 0. -1.
    10030    2    1    2    0    0  0.00000000000E+00  0.00000000000E+00  0.74363927179E+03  0.95665752953E+03  0.60182577401E+03 0.  0.
        2    1    3    3  502    0 -0.11771752743E+03  0.11832961106E+03 -0.26179616674E+02  0.16895172522E+03  0.25500000920E-02 0. -1.
       -2    1    3    3    0  502  0.11771752743E+03 -0.11832961106E+03  0.76981888846E+03  0.78770580432E+03  0.25500000920E-02 0.  1.
</event>
<event>
 5   0  0.1502642E-01  0.6032837E+03  0.7818609E-02  0.9898617E-01
        2   -1    0    0  501    0  0.00000000000E+00  0.00000000000E+00  0.21778679453E+04  0.21778679453E+04  0.25500000920E-02 0. -1.
       -2   -1    0    0    0  501  0.00000000000E+00  0.00000000000E+00 -0.41778384595E+02  0.41778384672E+02  0.25500000920E-02 0.  1.
    10030    2    1    2    0    0  0.00000000000E+00  0.00000000000E+00  0.21360895607E+04  0.22196463299E+04  0.60328369678E+03 0.  0.
        2    1    3    3  502    0  0.31814241747E+02  0.17464682238E+03  0.19653212935E+04  0.19733224382E+04  0.25500000920E-02 0. -1.
       -2    1    3    3    0  502 -0.31814241747E+02 -0.17464682238E+03  0.17076826717E+03  0.24632389171E+03  0.25500000920E-02 0.  1.
</event>
<event>
 5   0  0.9420349E-02  0.6071446E+03  0.7818609E-02  0.9890693E-01
        1   -1    0    0  501    0  0.00000000000E+00  0.00000000000E+00  0.58637246309E+03  0.58637246311E+03  0.50400001928E-02 0.  1.
       -1   -1    0    0    0  501  0.00000000000E+00  0.00000000000E+00 -0.15716314861E+03  0.15716314869E+03  0.50400001928E-02 0. -1.
    10030    2    1    2    0    0  0.00000000000E+00  0.00000000000E+00  0.42920931448E+03  0.74353561180E+03  0.60714460417E+03 0.  0.
        2    1    3    3  502    0  0.25838924585E+03 -0.12171036434E+03  0.34055687533E+03  0.44447429679E+03  0.25500000920E-02 0.  1.
       -2    1    3    3    0  502 -0.25838924585E+03  0.12171036434E+03  0.88652439152E+02  0.29906131501E+03  0.25500000920E-02 0. -1.
</event>
<event>
 5   0  0.1513339E-01  0.6040751E+03  0.7818609E-02  0.9896987E-01
       -2   -1    0    0    0  501  0.00000000000E+00  0.00000000000E+00  0.14876202647E+03  0.14876202649E+03  0.25500000920E-02 0.  1.
        2   -1    0    0  501    0  0.00000000000E+00  0.00000000000E+00 -0.61323905358E+03  0.61323905358E+03  0.25500000920E-02 0. -1.
    10030    2    1    2    0    0  0.00000000000E+00  0.00000000000E+00 -0.46447702711E+03  0.76200108007E+03  0.60407510900E+03 0.  0.
        3    1    3    3  502    0  0.78065840532E+02  0.64010554360E+02  0.12684965152E+03  0.16211869361E+03  0.10100000352E+00 0.  1.
       -3    1    3    3    0  502 -0.78065840532E+02 -0.64010554360E+02 -0.59132667863E+03  0.59988238646E+03  0.10100000352E+00 0. -1.
</event>
<event>
 5   0  0.1488510E-01  0.5757231E+03  0.7818609E-02  0.9957094E-01
        2   -1    0    0  501    0  0.00000000000E+00  0.00000000000E+00  0.43959700578E+03  0.43959700579E+03  0.25500000920E-02 0.  1.
       -2   -1    0    0    0  501  0.00000000000E+00  0.00000000000E+00 -0.18850052690E+03  0.18850052692E+03  0.25500000920E-02 0. -1.
    10030    2    1    2    0    0  0.00000000000E+00  0.00000000000E+00  0.25109647888E+03  0.62809753271E+03  0.57572308352E+03 0.  0.
        5    1    3    3  502    0  0.17877141291E+03  0.19268971181E+03  0.25349290341E+03  0.36519759746E+03  0.46999998093E+01 0. -1.
       -5    1    3    3    0  502 -0.17877141291E+03 -0.19268971181E+03 -0.23964245348E+01  0.26289993526E+03  0.46999998093E+01 0.  1.
</event>
<event>
 5   0  0.9497860E-02  0.6072363E+03  0.7818609E-02  0.9890506E-01
        1   -1    0    0  501    0  0.00000000000E+00  0.00000000000E+00  0.15321988546E+04  0.15321988547E+04  0.50400001928E-02 0.  1.
       -1   -1    0    0    0  501  0.00000000000E+00  0.00000000000E+00 -0.60164495806E+02  0.60164496017E+02  0.50400001928E-02 0. -1.
    10030    2    1    2    0    0  0.00000000000E+00  0.00000000000E+00  0.14720343588E+04  0.15923633507E+04  0.60723626947E+03 0.  0.
        5    1    3    3  502    0  0.33892065526E+02 -0.11752890963E+03  0.14646245904E+04  0.14697309269E+04  0.46999998093E+01 0.  1.
       -5    1    3    3    0  502 -0.33892065526E+02  0.11752890963E+03  0.74097684932E+01  0.12263242382E+03  0.46999998093E+01 0. -1.
</event>
<event>
 5   0  0.8860626E-02  0.6431500E+03  0.7818609E-02  0.9819718E-01
        1   -1    0    0  501    0  0.00000000000E+00  0.00000000000E+00  0.43781389099E+03  0.43781389102E+03  0.50400001928E-02 0.  1.
       -1   -1    0    0    0  501  0.00000000000E+00  0.00000000000E+00 -0.23619731363E+03  0.23619731369E+03  0.50400001928E-02 0. -1.
    10030    2    1    2    0    0  0.00000000000E+00  0.00000000000E+00  0.20161657735E+03  0.67401120471E+03  0.64314995126E+03 0.  0.
        3    1    3    3  502    0  0.27841190558E+03 -0.16051349865E+03  0.88736783582E+02  0.33339466010E+03  0.10100000352E+00 0. -1.
       -3    1    3    3    0  502 -0.27841190558E+03  0.16051349865E+03  0.11287979377E+03  0.34061654461E+03  0.10100000352E+00 0.  1.
</event>
<event>
 5   0  0.1513339E-01  0.6065921E+03  0.7818609E-02  0.9891823E-01
       -2   -1    0    0    0  501  0.00000000000E+00  0.00000000000E+00  0.95252475131E+02  0.95252475165E+02  0.25500000920E-02 0. -1.
        2   -1    0    0  501    0  0.00000000000E+00  0.00000000000E+00 -0.96573346062E+03  0.96573346063E+03  0.25500000920E-02 0.  1.
    10030    2    1    2    0    0  0.00000000000E+00  0.00000000000E+00 -0.87048098549E+03  0.10609859358E+04  0.60659212808E+03 0.  0.
        3    1    3    3  502    0 -0.16212836310E+03 -0.18686960042E+03 -0.12836247612E+03  0.27871632381E+03  0.10100000352E+00 0. -1.
       -3    1    3    3    0  502  0.16212836310E+03  0.18686960042E+03 -0.74211850937E+03  0.78226961199E+03  0.10100000352E+00 0.  1.
</event>
<event>
 5   0  0.1483942E-01  0.6205689E+03  0.7818609E-02  0.9863628E-01
       -2   -1    0    0    0  501  0.00000000000E+00  0.00000000000E+00  0.13292850940E+03  0.13292850943E+03  0.25500000920E-02 0.  1.
        2   -1    0    0  501    0  0.00000000000E+00  0.00000000000E+00 -0.72427238319E+03  0.72427238319E+03  0.25500000920E-02 0. -1.
    10030    2    1    2    0    0  0.00000000000E+00  0.00000000000E+00 -0.59134387379E+03  0.85720089262E+03  0.62056892707E+03 0.  0.
        4    1    3    3  502    0 -0.16770761502E+03 -0.48937188563E+02  0.58532624017E+02  0.18425084406E+03  0.12699999809E+01 0.  1.
       -4    1    3    3    0  502  0.16770761502E+03  0.48937188563E+02 -0.64987649780E+03  0.67295004856E+03  0.12699999809E+01 0. -1.
</event>
<event>
 5   0  0.1532571E-01  0.5759448E+03  0.7818609E-02  0.9956609E-01
        2   -1    0    0  501    0  0.00000000000E+00  0.00000000000E+00  0.89537176689E+03  0.89537176689E+03  0.25500000920E-02 0.  1.
       -2   -1    0    0    0  501  0.00000000000E+00  0.00000000000E+00 -0.92618615107E+02  0.92618615142E+02  0.25500000920E-02 0. -1.
    10030    2    1    2    0    0  0.00000000000E+00  0.00000000000E+00  0.80275315178E+03  0.98799038203E+03  0.57594476497E+03 0.  0.
        1    1    3    3  502    0 -0.25841665113E+03  0.85356931347E+02  0.56287386586E+03  0.62521353168E+03  0.50400001928E-02 0. -1.
       -1    1    3    3    0  502  0.25841665113E+03 -0.85356931347E+02  0.23987928592E+03  0.36277685035E+03  0.50400001928E-02 0.  1.
</event>
<event>
 5   0  0.1502642E-01  0.5817406E+03  0.7818609E-02  0.9944030E-01
       -2   -1    0    0    0  501  0.00000000000E+00  0.00000000000E+00  0.11688445786E+03  0.11688445789E+03  0.25500000920E-02 0. -1.
        2   -1    0    0  501    0  0.00000000000E+00  0.00000000000E+00 -0.72383902717E+03  0.72383902717E+03  0.25500000920E-02 0.  1.
    10030    2    1    2    0    0  0.00000000000E+00  0.00000000000E+00 -0.60695456930E+03  0.84072348506E+03  0.58174060297E+03 0.  0.
        2    1    3    3  502    0  0.14326777722E+03  0.16626857826E+03 -0.27622182388E+02  0.22121003836E+03  0.25500000920E-02 0. -1.
       -2    1    3    3    0  502 -0.14326777722E+03 -0.16626857826E+03 -0.57933238691E+03  0.61951344670E+03  0.25500000920E-02 0.  1.
</event>
<event>
 5   0  0.9411028E-02  0.5463920E+03  0.7818609E-02  0.1002332E+00
       -1   -1    0    0    0  501  0.00000000000E+00  0.00000000000E+00  0.42311444017E+02  0.42311444317E+02  0.50400001928E-02 0.  1.
        1   -1    0    0  501    0  0.00000000000E+00  0.00000000000E+00 -0.17639686927E+04  0.17639686927E+04  0.50400001928E-02 0. -1.
    10030    2    1    2    0    0  0.00000000000E+00  0.00000000000E+00 -0.17216572486E+04  0.18062801370E+04  0.54639203093E+03 0.  0.
        4    1    3    3  502    0  0.33124299081E+02  0.22601714921E+03 -0.13561904903E+04  0.13752945974E+04  0.12699999809E+01 0. -1.
       -4    1    3    3    0  502 -0.33124299081E+02 -0.22601714921E+03 -0.36546675836E+03  0.43098553954E+03  0.12699999809E+01 0.  1.
</event>
<event>
 5   0  0.1483942E-01  0.6715821E+03  0.7818609E-02  0.9767104E-01
        2   -1    0    0  501    0  0.00000000000E+00  0.00000000000E+00  0.34601481647E+03  0.34601481648E+03  0.25500000920E-02 0. -1.
       -2   -1    0    0    0  501  0.00000000000E+00  0.00000000000E+00 -0.32586940101E+03  0.32586940102E+03  0.25500000920E-02 0.  1.
    10030    2    1    2    0    0  0.00000000000E+00  0.00000000000E+00  0.20145415454E+02  0.67188421750E+03  0.67158213494E+03 0.  0.
        4    1    3    3  502    0  0.21556734956E+03  0.25385887135E+03  0.52992113285E+02  0.33722898115E+03  0.12699999809E+01 0. -1.
       -4    1    3    3    0  502 -0.21556734956E+03 -0.25385887135E+03 -0.32846697830E+02  0.33465523635E+03  0.12699999809E+01 0.  1.
</event>
<event>
 5   0  0.1483942E-01  0.6038827E+03  0.7818609E-02  0.9897383E-01
       -2   -1    0    0    0  501  0.00000000000E+00  0.00000000000E+00  0.87936500864E+02  0.87936500901E+02  0.25500000920E-02 0. -1.
        2   -1    0    0  501    0  0.00000000000E+00  0.00000000000E+00 -0.10367547293E+04  0.10367547293E+04  0.25500000920E-02 0.  1.
    10030    2    1    2    0    0  0.00000000000E+00  0.00000000000E+00 -0.94881822842E+03  0.11246912302E+04  0.60388271434E+03 0.  0.
        4    1    3    3  502    0  0.18638672521E+03  0.12591502315E+03 -0.99266952264E+02  0.24586611214E+03  0.12699999809E+01 0. -1.
       -4    1    3    3    0  502 -0.18638672521E+03 -0.12591502315E+03 -0.84955127616E+03  0.87882511805E+03  0.12699999809E+01 0.  1.
</event>
<event>
 5   0  0.1513339E-01  0.5988302E+03  0.7818609E-02  0.9907836E-01
        2   -1    0    0  501    0  0.00000000000E+00  0.00000000000E+00  0.11229617272E+04  0.11229617272E+04  0.25500000920E-02 0. -1.
       -2   -1    0    0    0  501  0.00000000000E+00  0.00000000000E+00 -0.79832988293E+02  0.79832988333E+02  0.25500000920E-02 0.  1.
    10030    2    1    2    0    0  0.00000000000E+00  0.00000000000E+00  0.10431287389E+04  0.12027947155E+04  0.59883016105E+03 0.  0.
        3    1    3    3  502    0 -0.21842029603E+03 -0.11426293309E+02  0.11085447026E+03  0.24520748291E+03  0.10100000352E+00 0.  1.
       -3    1    3    3    0  502  0.21842029603E+03  0.11426293309E+02  0.93227426862E+03  0.95758723260E+03  0.10100000352E+00 0. -1.
</event>
<event>
 5   0  0.8860626E-02  0.5650119E+03  0.7818609E-02  0.9980778E-01
       -1   -1    0    0    0  501  0.00000000000E+00  0.00000000000E+00  0.71130033357E+02  0.71130033536E+02  0.50400001928E-02 0.  1.
        1   -1    0    0  501    0  0.00000000000E+00  0.00000000000E+00 -0.11220240918E+04  0.11220240918E+04  0.50400001928E-02 0. -1.
    10030    2    1    2    0    0  0.00000000000E+00  0.00000000000E+00 -0.10508940585E+04  0.11931541254E+04  0.56501189790E+03 0.  0.
        3    1    3    3  502    0  0.22329922568E+03 -0.13189193939E+03 -0.28886157797E+03  0.38819975437E+03  0.10100000352E+00 0.  1.
       -3    1    3    3    0  502 -0.22329922568E+03  0.13189193939E+03 -0.76203248051E+03  0.80495437101E+03  0.10100000352E+00 0. -1.
</event>
<event>
 5   0  0.6170500E-02  0.5994000E+03  0.7818609E-02  0.9906652E-01
        4   -1    0    0  501    0  0.00000000000E+00  0.00000000000E+00  0.63065736221E+03  0.63065864096E+03  0.12699999809E+01 0.  1.
       -4   -1    0    0    0  501  0.00000000000E+00  0.00000000000E+00 -0.14241872231E+03  0.14242438473E+03  0.12699999809E+01 0. -1.
    10030    2    1    2    0    0  0.00000000000E+00  0.00000000000E+00  0.48823863990E+03  0.77308302568E+03  0.59940002928E+03 0.  0.
        2    1    3    3  502    0 -0.15899923184E+03 -0.16784043396E+03 -0.18464376262E+01  0.23120245746E+03  0.25500000920E-02 0. -1.
       -2    1    3    3    0  502  0.15899923184E+03  0.16784043396E+03  0.49008507753E+03  0.54188056822E+03  0.25500000920E-02 0.  1.
</event>
<event>
 5   0  0.1532571E-01  0.5999010E+03  0.7818609E-02  0.9905611E-01
       -2   -1    0    0    0  501  0.00000000000E+00  0.00000000000E+00  0.60931159199E+02  0.60931159253E+02  0.25500000920E-02 0.  1.
        2   -1    0    0  501    0  0.00000000000E+00  0.00000000000E+00 -0.14765896139E+04  0.14765896139E+04  0.25500000920E-02 0. -1.
    10030    2    1    2    0    0  0.00000000000E+00  0.00000000000E+00 -0.14156584547E+04  0.15375207732E+04  0.59990104811E+03 0.  0.
        1    1    3    3  502    0 -0.27088765590E+03 -0.10026012130E+03 -0.50059225241E+03  0.57794880158E+03  0.50400001928E-02 0. -1.
       -1    1    3    3    0  502  0.27088765590E+03  0.10026012130E+03 -0.91506620230E+03  0.95957197159E+03  0.50400001928E-02 0.  1.
</event>
<event>
 5   0  0.6170500E-02  0.6090036E+03  0.7818609E-02  0.9886900E-01
        3   -1    0    0  501    0  0.00000000000E+00  0.00000000000E+00  0.68604856212E+03  0.68604856956E+03  0.10100000352E+00 0.  1.
       -3   -1    0    0    0  501  0.00000000000E+00  0.00000000000E+00 -0.13515272976E+03  0.13515276750E+03  0.10100000352E+00 0. -1.
    10030    2    1    2    0    0  0.00000000000E+00  0.00000000000E+00  0.55089583236E+03  0.82120133706E+03  0.60900362714E+03 0.  0.
        5    1    3    3  502    0  0.16060788805E+03 -0.29948204302E+02 -0.70990728753E+02  0.17819529234E+03  0.46999998093E+01 0. -1.
       -5    1    3    3    0  502 -0.16060788805E+03  0.29948204302E+02  0.62188656111E+03  0.64300604471E+03  0.46999998093E+01 0.  1.
</event>
<event>
 5   0  0.1483942E-01  0.6316698E+03  0.7818609E-02  0.9841796E-01
        2   -1    0    0  501    0  0.00000000000E+00  0.00000000000E+00  0.73682686573E+03  0.73682686573E+03  0.25500000920E-02 0. -1.
       -2   -1    0    0    0  501  0.00000000000E+00  0.00000000000E+00 -0.13538008261E+03  0.13538008264E+03  0.25500000920E-02 0.  1.
    10030    2    1    2    0    0  0.00000000000E+00  0.00000000000E+00  0.60144678311E+03  0.87220694837E+03  0.63166979338E+03 0.  0.
        4    1    3    3  502    0 -0.18870011631E+03 -0.32052288950E+02  0.64761650457E+03  0.67531017541E+03  0.12699999809E+01 0. -1.
       -4    1    3    3    0  502  0.18870011631E+03  0.32052288950E+02 -0.46169721455E+02  0.19689677296E+03  0.12699999809E+01 0.  1.
</event>
<event>
 5   0  0.1513339E-01  0.5201900E+03  0.7818609E-02  0.1008639E+00
        2   -1    0    0  501    0  0.00000000000E+00  0.00000000000E+00  0.42484561291E+03  0.42484561292E+03  0.25500000920E-02 0. -1.
       -2   -1    0    0    0  501  0.00000000000E+00  0.00000000000E+00 -0.15923294526E+03  0.15923294528E+03  0.25500000920E-02 0.  1.
    10030    2    1    2    0    0  0.00000000000E+00  0.00000000000E+00  0.26561266765E+03  0.58407855820E+03  0.52019003540E+03 0.  0.
        3    1    3    3  502    0 -0.19280066465E+03 -0.56637207346E+02 -0.52610059327E+02  0.20772023996E+03  0.10100000352E+00 0.  1.
       -3    1    3    3    0  502  0.19280066465E+03  0.56637207346E+02  0.31822272697E+03  0.37635831824E+03  0.10100000352E+00 0. -1.
</event>
<event>
 5   0  0.9177281E-02  0.5944956E+03  0.7818609E-02  0.9916892E-01
        1   -1    0    0  501    0  0.00000000000E+00  0.00000000000E+00  0.14355263845E+04  0.14355263845E+04  0.50400001928E-02 0. -1.
       -1   -1    0    0    0  501  0.00000000000E+00  0.00000000000E+00 -0.61549727138E+02  0.61549727344E+02  0.50400001928E-02 0.  1.
    10030    2    1    2    0    0  0.00000000000E+00  0.00000000000E+00  0.13739766573E+04  0.14970761118E+04  0.59449560949E+03 0.  0.
        1    1    3    3  502    0  0.20889681181E+03  0.16744593184E+03  0.10122226487E+04  0.10470294688E+04  0.50400001928E-02 0. -1.
       -1    1    3    3    0  502 -0.20889681181E+03 -0.16744593184E+03  0.36175400869E+03  0.45004664303E+03  0.50400001928E-02 0.  1.
</event>
<event>
 5   0  0.1502642E-01  0.5971615E+03  0.7818609E-02  0.9911313E-01
        2   -1    0    0  501    0  0.00000000000E+00  0.00000000000E+00  0.55602456160E+03  0.55602456160E+03  0.25500000920E-02 0. -1.
       -2   -1    0    0    0  501  0.00000000000E+00  0.00000000000E+00 -0.16033548543E+03  0.16033548545E+03  0.25500000920E-02 0.  1.
    10030    2    1    2    0    0  0.00000000000E+00  0.00000000000E+00  0.39568907617E+03  0.71636004705E+03  0.59716151250E+03 0.  0.
        2    1    3    3  502    0 -0.17504235986E+03 -0.23181186824E+03  0.28072957106E+03  0.40396245131E+03  0.25500000920E-02 0. -1.
       -2    1    3    3    0  502  0.17504235986E+03  0.23181186824E+03  0.11495950511E+03  0.31239759574E+03  0.25500000920E-02 0.  1.
</event>
<event>
 5   0  0.9411028E-02  0.5935813E+03  0.7818609E-02  0.9918813E-01
        1   -1    0    0  501    0  0.00000000000E+00  0.00000000000E+00  0.11581604907E+04  0.11581604907E+04  0.50400001928E-02 0. -1.
       -1   -1    0    0    0  501  0.00000000000E+00  0.00000000000E+00 -0.76055673978E+02  0.76055674145E+02  0.50400001928E-02 0.  1.
    10030    2    1    2    0    0  0.00000000000E+00  0.00000000000E+00  0.10821048167E+04  0.12342161648E+04  0.59358125578E+03 0.  0.
        4    1    3    3  502    0  0.18459777646E+03  0.81766283510E+02  0.88740515061E+02  0.22054150654E+03  0.12699999809E+01 0.  1.
       -4    1    3    3    0  502 -0.18459777646E+03 -0.81766283510E+02  0.99336430163E+03  0.10136746583E+04  0.12699999809E+01 0. -1.
</event>
<event>
 5   0  0.9420349E-02  0.5958586E+03  0.7818609E-02  0.9914036E-01
       -1   -1    0    0    0  501  0.00000000000E+00  0.00000000000E+00  0.31281531932E+03  0.31281531936E+03  0.50400001928E-02 0. -1.
        1   -1    0    0  501    0  0.00000000000E+00  0.00000000000E+00 -0.28375169119E+03  0.28375169123E+03  0.50400001928E-02 0.  1.
    10030    2    1    2    0    0  0.00000000000E+00  0.00000000000E+00  0.29063628134E+02  0.59656701060E+03  0.59585862724E+03 0.  0.
        2    1    3    3  502    0 -0.76078279697E+02 -0.10421124942E+03 -0.25432791393E+03  0.28518516259E+03  0.25500000920E-02 0.  1.
       -2    1    3    3    0  502  0.76078279697E+02  0.10421124942E+03  0.28339154207E+03  0.31138184801E+03  0.25500000920E-02 0. -1.
</event>
<event>
 5   0  0.1488510E-01  0.5809564E+03  0.7818609E-02  0.9945722E-01
       -2   -1    0    0    0  501  0.00000000000E+00  0.00000000000E+00  0.51387176117E+02  0.51387176180E+02  0.25500000920E-02 0. -1.
        2   -1    0    0  501    0  0.00000000000E+00  0.00000000000E+00 -0.16419971898E+04  0.16419971898E+04  0.25500000920E-02 0.  1.
    10030    2    1    2    0    0  0.00000000000E+00  0.00000000000E+00 -0.15906100137E+04  0.16933843660E+04  0.58095644873E+03 0.  0.
        5    1    3    3  502    0 -0.13250535223E+03 -0.11013779099E+03 -0.14768218687E+04  0.14868466375E+04  0.46999998093E+01 0.  1.
       -5    1    3    3    0  502  0.13250535223E+03  0.11013779099E+03 -0.11378814497E+03  0.20653772854E+03  0.46999998093E+01 0. -1.
</event>
<event>
 5   0  0.9177281E-02  0.6054988E+03  0.7818609E-02  0.9894063E-01
        1   -1    0    0  501    0  0.00000000000E+00  0.00000000000E+00  0.23589394944E+03  0.23589394950E+03  0.50400001928E-02 0.  1.
       -1   -1    0    0    0  501  0.00000000000E+00  0.00000000000E+00 -0.38855251944E+03  0.38855251948E+03  0.50400001928E-02 0. -1.
    10030    2    1    2    0    0  0.00000000000E+00  0.00000000000E+00 -0.15265857000E+03  0.62444646897E+03  0.60549876434E+03 0.  0.
        1    1    3    3  502    0  0.15945314872E+03  0.37713509048E+02  0.18621437360E+03  0.24803912668E+03  0.50400001928E-02 0.  1.
       -1    1    3    3    0  502 -0.15945314872E+03 -0.37713509048E+02 -0.33887294360E+03  0.37640734230E+03  0.50400001928E-02 0. -1.
</event>
<event>
 5   0  0.1483942E-01  0.5773097E+03  0.7818609E-02  0.9953633E-01
       -2   -1    0    0    0  501  0.00000000000E+00  0.00000000000E+00  0.59269517601E+02  0.59269517656E+02  0.25500000920E-02 0.  1.
        2   -1    0    0  501    0  0.00000000000E+00  0.00000000000E+00 -0.14058088408E+04  0.14058088408E+04  0.25500000920E-02 0. -1.
    10030    2    1    2    0    0  0.00000000000E+00  0.00000000000E+00 -0.13465393232E+04  0.14650783585E+04  0.57730966345E+03 0.  0.
        4    1    3    3  502    0  0.74251596230E+02  0.27733344628E+03 -0.74910008278E+03  0.80223418457E+03  0.12699999809E+01 0. -1.
       -4    1    3    3    0  502 -0.74251596230E+02 -0.27733344628E+03 -0.59743924045E+03  0.66284417392E+03  0.12699999809E+01 0.  1.
</event>
<event>
 5   0  0.9497860E-02  0.5639426E+03  0.7818609E-02  0.9983173E-01
       -1   -1    0    0    0  501  0.00000000000E+00  0.00000000000E+00  0.14390301058E+03  0.14390301067E+03  0.50400001928E-02 0. -1.
        1   -1    0    0  501    0  0.00000000000E+00  0.00000000000E+00 -0.55250972141E+03  0.55250972143E+03  0.50400001928E-02 0.  1.
    10030    2    1    2    0    0  0.00000000000E+00  0.00000000000E+00 -0.40860671083E+03  0.69641273210E+03  0.56394259398E+03 0.  0.
        5    1    3    3  502    0  0.25316567908E+03 -0.72494195666E+02 -0.79967545225E+02  0.27525473249E+03  0.46999998093E+01 0.  1.
       -5    1    3    3    0  502 -0.25316567908E+03  0.72494195666E+02 -0.32863916560E+03  0.42115799961E+03  0.46999998093E+01 0. -1.
</event>
<event>
 5   0  0.1513339E-01  0.5859703E+03  0.7818609E-02  0.9934948E-01
       -2   -1    0    0    0  501  0.00000000000E+00  0.00000000000E+00  0.23341062331E+03  0.23341062333E+03  0.25500000920E-02 0.  1.
        2   -1    0    0  501    0  0.00000000000E+00  0.00000000000E+00 -0.36776522212E+03  0.36776522213E+03  0.25500000920E-02 0. -1.
    10030    2    1    2    0    0  0.00000000000E+00  0.00000000000E+00 -0.13435459881E+03  0.60117584546E+03  0.58597033964E+03 0.  0.
        3    1    3    3  502    0 -0.14311499720E+03  0.15160654095E+03  0.14401344031E+03  0.25338967396E+03  0.10100000352E+00 0.  1.
       -3    1    3    3    0  502  0.14311499720E+03 -0.15160654095E+03 -0.27836803912E+03  0.34778617150E+03  0.10100000352E+00 0. -1.
</event>
<event>
 5   0  0.1513339E-01  0.4518836E+03  0.7818609E-02  0.1027162E+00
       -2   -1    0    0    0  501  0.00000000000E+00  0.00000000000E+00  0.39180668071E+03  0.39180668072E+03  0.25500000920E-02 0.  1.
        2   -1    0    0  501    0  0.00000000000E+00  0.00000000000E+00 -0.13029308897E+03  0.13029308900E+03  0.25500000920E-02 0. -1.
    10030    2    1    2    0    0  0.00000000000E+00  0.00000000000E+00  0.26151359174E+03  0.52209976972E+03  0.45188362537E+03 0.  0.
        3    1    3    3  502    0 -0.13505923942E+02  0.19674093735E+03  0.25816541063E+03  0.32486735117E+03  0.10100000352E+00 0.  1.
       -3    1    3    3    0  502  0.13505923942E+02 -0.19674093735E+03  0.33481811137E+01  0.19723241855E+03  0.10100000352E+00 0. -1.
</event>
<event>
 5   0  0.8860626E-02  0.5988464E+03  0.7818609E-02  0.9907802E-01
        1   -1    0    0  501    0  0.00000000000E+00  0.00000000000E+00  0.10474986072E+04  0.10474986072E+04  0.50400001928E-02 0. -1.
       -1   -1    0    0    0  501  0.00000000000E+00  0.00000000000E+00 -0.85588886926E+02  0.85588887074E+02  0.50400001928E-02 0.  1.
    10030    2    1    2    0    0  0.00000000000E+00  0.00000000000E+00  0.96190972026E+03  0.11330874943E+04  0.59884635738E+03 0.  0.
        3    1    3    3  502    0 -0.86013641011E+02 -0.10417726845E+03 -0.24644135946E+02  0.13732659371E+03  0.10100000352E+00 0.  1.
       -3    1    3    3    0  502  0.86013641011E+02  0.10417726845E+03  0.98655385621E+03  0.99576090057E+03  0.10100000352E+00 0. -1.
</event>
<event>
 5   0  0.1502642E-01  0.6249188E+03  0.7818609E-02  0.9855015E-01
       -2   -1    0    0    0  501  0.00000000000E+00  0.00000000000E+00  0.10855509140E+03  0.10855509143E+03  0.25500000920E-02 0. -1.
        2   -1    0    0  501    0  0.00000000000E+00  0.00000000000E+00 -0.89936711187E+03  0.89936711187E+03  0.25500000920E-02 0.  1.
    10030    2    1    2    0    0  0.00000000000E+00  0.00000000000E+00 -0.79081202046E+03  0.10079222033E+04  0.62491880769E+03 0.  0.
        2    1    3    3  502    0  0.18636875617E+03 -0.22960744630E+03 -0.23268847791E+03  0.37629352961E+03  0.25500000920E-02 0. -1.
       -2    1    3    3    0  502 -0.18636875617E+03  0.22960744630E+03 -0.55812354256E+03  0.63162867369E+03  0.25500000920E-02 0.  1.
</event>
<event>
 5   0  0.1483942E-01  0.5956809E+03  0.7818609E-02  0.9914408E-01
        2   -1    0    0  501    0  0.00000000000E+00  0.00000000000E+00  0.55854556743E+03  0.55854556744E+03  0.25500000920E-02 0. -1.
       -2   -1    0    0    0  501  0.00000000000E+00  0.00000000000E+00 -0.15882129387E+03  0.15882129389E+03  0.25500000920E-02 0.  1.
    10030    2    1    2    0    0  0.00000000000E+00  0.00000000000E+00  0.39972427356E+03  0.71736686133E+03  0.59568088676E+03 0.  0.
        4    1    3    3  502    0  0.28821351856E+03  0.71730369762E+02  0.17306754340E+03  0.34375320465E+03  0.12699999809E+01 0. -1.
       -4    1    3    3    0  502 -0.28821351856E+03 -0.71730369762E+02  0.22665673016E+03  0.37361365668E+03  0.12699999809E+01 0.  1.
</event>
<event>
 5   0  0.1483942E-01  0.5583606E+03  0.7818609E-02  0.9995771E-01
       -2   -1    0    0    0  501  0.00000000000E+00  0.00000000000E+00  0.14529955453E+03  0.14529955456E+03  0.25500000920E-02 0. -1.
        2   -1    0    0  501    0  0.00000000000E+00  0.00000000000E+00 -0.53642044026E+03  0.53642044027E+03  0.25500000920E-02 0.  1.
    10030    2    1    2    0    0  0.00000000000E+00  0.00000000000E+00 -0.39112088573E+03  0.68171999483E+03  0.55836063981E+03 0.  0.
        4    1    3    3  502    0 -0.40658922290E+02  0.24308616850E+03 -0.35566548720E+03  0.43271651802E+03  0.12699999809E+01 0.  1.
       -4    1    3    3    0  502  0.40658922290E+02 -0.24308616850E+03 -0.35455398528E+02  0.24900347681E+03  0.12699999809E+01 0. -1.
</event>
<event>
 5   0  0.9420349E-02  0.6063882E+03  0.7818609E-02  0.9892241E-01
        1   -1    0    0  501    0  0.00000000000E+00  0.00000000000E+00  0.41105650727E+03  0.41105650730E+03  0.50400001928E-02 0. -1.
       -1   -1    0    0    0  501  0.00000000000E+00  0.00000000000E+00 -0.22363507031E+03  0.22363507037E+03  0.50400001928E-02 0.  1.
    10030    2    1    2    0    0  0.00000000000E+00  0.00000000000E+00  0.18742143696E+03  0.63469157767E+03  0.60638816260E+03 0.  0.
        2    1    3    3  502    0  0.20655269992E+03  0.22184126613E+03  0.86377584470E+02  0.31518034886E+03  0.25500000920E-02 0. -1.
       -2    1    3    3    0  502 -0.20655269992E+03 -0.22184126613E+03  0.10104385249E+03  0.31951122881E+03  0.25500000920E-02 0.  1.
</event>
<event>
 5   0  0.8860626E-02  0.5956940E+03  0.7818609E-02  0.9914380E-01
       -1   -1    0    0    0  501  0.00000000000E+00  0.00000000000E+00  0.15169585121E+03  0.15169585129E+03  0.50400001928E-02 0. -1.
        1   -1    0    0  501    0  0.00000000000E+00  0.00000000000E+00 -0.58480731063E+03  0.58480731065E+03  0.50400001928E-02 0.  1.
    10030    2    1    2    0    0  0.00000000000E+00  0.00000000000E+00 -0.43311145942E+03  0.73650316195E+03  0.59569402488E+03 0.  0.
        3    1    3    3  502    0  0.53549124540E+02 -0.27368476318E+03 -0.34588571156E+03  0.44430596890E+03  0.10100000352E+00 0.  1.
       -3    1    3    3    0  502 -0.53549124540E+02  0.27368476318E+03 -0.87225747863E+02  0.29219719305E+03  0.10100000352E+00 0. -1.
</event>
<event>
 5   0  0.9411028E-02  0.7799948E+03  0.7818609E-02  0.9589434E-01
       -1   -1    0    0    0  501  0.00000000000E+00  0.00000000000E+00  0.68863441769E+03  0.68863441771E+03  0.50400001928E-02 0.  1.
        1   -1    0    0  501    0  0.00000000000E+00  0.00000000000E+00 -0.22086896419E+03  0.22086896425E+03  0.50400001928E-02 0. -1.
    10030    2    1    2    0    0  0.00000000000E+00  0.00000000000E+00  0.46776545350E+03  0.90950338195E+03  0.77999479633E+03 0.  0.
        4    1    3    3  502    0  0.36774220770E+01 -0.27225372384E+03  0.55945739055E+03  0.62219755570E+03  0.12699999809E+01 0.  1.
       -4    1    3    3    0  502 -0.36774220770E+01  0.27225372384E+03 -0.91691937045E+02  0.28730582625E+03  0.12699999809E+01 0. -1.
</event>
<event>
 5   0  0.9420349E-02  0.5997797E+03  0.7818609E-02  0.9905863E-01
        1   -1    0    0  501    0  0.00000000000E+00  0.00000000000E+00  0.81405950778E+03  0.81405950780E+03  0.50400001928E-02 0.  1.
       -1   -1    0    0    0  501  0.00000000000E+00  0.00000000000E+00 -0.11047584846E+03  0.11047584857E+03  0.50400001928E-02 0. -1.
    10030    2    1    2    0    0  0.00000000000E+00  0.00000000000E+00  0.70358365932E+03  0.92453535637E+03  0.59977967580E+03 0.  0.
        2    1    3    3  502    0  0.27717196584E+03 -0.92371616003E+02  0.24750558792E+03  0.38290446609E+03  0.25500000920E-02 0.  1.
       -2    1    3    3    0  502 -0.27717196584E+03  0.92371616003E+02  0.45607807140E+03  0.54163089028E+03  0.25500000920E-02 0. -1.
</event>
<event>
 5   0  0.9177281E-02  0.6829617E+03  0.7818609E-02  0.9746822E-01
        1   -1    0    0  501    0  0.00000000000E+00  0.00000000000E+00  0.22156521472E+03  0.22156521478E+03  0.50400001928E-02 0. -1.
       -1   -1    0    0    0  501  0.00000000000E+00  0.00000000000E+00 -0.52629732799E+03  0.52629732801E+03  0.50400001928E-02 0.  1.
    10030    2    1    2    0    0  0.00000000000E+00  0.00000000000E+00 -0.30473211326E+03  0.74786254279E+03  0.68296172811E+03 0.  0.
        1    1    3    3  502    0  0.17726005980E+03  0.13509120136E+03 -0.43567686277E+03  0.48937213884E+03  0.50400001928E-02 0.  1.
       -1    1    3    3    0  502 -0.17726005980E+03 -0.13509120136E+03  0.13094474951E+03  0.25849040396E+03  0.50400001928E-02 0. -1.
</event>
<event>
 5   0  0.1502642E-01  0.5596448E+03  0.7818609E-02  0.9992859E-01
       -2   -1    0    0    0  501  0.00000000000E+00  0.00000000000E+00  0.72987327234E+02  0.72987327279E+02  0.25500000920E-02 0.  1.
        2   -1    0    0  501    0  0.00000000000E+00  0.00000000000E+00 -0.10727967856E+04  0.10727967856E+04  0.25500000920E-02 0. -1.
    10030    2    1    2    0    0  0.00000000000E+00  0.00000000000E+00 -0.99980945838E+03  0.11457841129E+04  0.55964478046E+03 0.  0.
        2    1    3    3  502    0 -0.23277322484E+03  0.13321124582E+03 -0.33647658321E+03  0.43028490709E+03  0.25500000920E-02 0. -1.
       -2    1    3    3    0  502  0.23277322484E+03 -0.13321124582E+03 -0.66333287517E+03  0.71549920580E+03  0.25500000920E-02 0.  1.
</event>
<event>
 5   0  0.9420349E-02  0.5937282E+03  0.7818609E-02  0.9918504E-01
       -1   -1    0    0    0  501  0.00000000000E+00  0.00000000000E+00  0.18110133456E+03  0.18110133463E+03  0.50400001928E-02 0.  1.
        1   -1    0    0  501    0  0.00000000000E+00  0.00000000000E+00 -0.48662426293E+03  0.48662426296E+03  0.50400001928E-02 0. -1.
    10030    2    1    2    0    0  0.00000000000E+00  0.00000000000E+00 -0.30552292837E+03  0.66772559759E+03  0.59372823238E+03 0.  0.
        2    1    3    3  502    0  0.31321345091E+02  0.62975337113E+02  0.17159562563E+03  0.18545074409E+03  0.25500000920E-02 0.  1.
       -2    1    3    3    0  502 -0.31321345091E+02 -0.62975337113E+02 -0.47711855400E+03  0.48227485350E+03  0.25500000920E-02 0. -1.
</event>
<event>
 5   0  0.1502642E-01  0.5945591E+03  0.7818609E-02  0.9916759E-01
       -2   -1    0    0    0  501  0.00000000000E+00  0.00000000000E+00  0.15398755337E+03  0.15398755339E+03  0.25500000920E-02 0. -1.
        2   -1    0    0  501    0  0.00000000000E+00  0.00000000000E+00 -0.57391089226E+03  0.57391089226E+03  0.25500000920E-02 0.  1.
    10030    2    1    2    0    0  0.00000000000E+00  0.00000000000E+00 -0.41992333889E+03  0.72789844566E+03  0.59455911115E+03 0.  0.
        2    1    3    3  502    0 -0.11982104105E+03  0.14207180569E+03  0.74093491278E+02  0.20007829794E+03  0.25500000920E-02 0. -1.
       -2    1    3    3    0  502  0.11982104105E+03 -0.14207180569E+03 -0.49401683016E+03  0.52782014772E+03  0.25500000920E-02 0.  1.
</event>
<event>
 5   0  0.9411028E-02  0.5684595E+03  0.7818609E-02  0.9973093E-01
        1   -1    0    0  501    0  0.00000000000E+00  0.00000000000E+00  0.52860126358E+03  0.52860126360E+03  0.50400001928E-02 0. -1.
       -1   -1    0    0    0  501  0.00000000000E+00  0.00000000000E+00 -0.15283078316E+03  0.15283078324E+03  0.50400001928E-02 0.  1.
    10030    2    1    2    0    0  0.00000000000E+00  0.00000000000E+00  0.37577048042E+03  0.68143204684E+03  0.56845948010E+03 0.  0.
        4    1    3    3  502    0 -0.12772637288E+03  0.86496565413E+01 -0.11631026147E+03  0.17296974507E+03  0.12699999809E+01 0.  1.
       -4    1    3    3    0  502  0.12772637288E+03 -0.86496565413E+01  0.49208074189E+03  0.50846230177E+03  0.12699999809E+01 0. -1.
</event>
<event>
 5   0  0.8860626E-02  0.5950927E+03  0.7818609E-02  0.9915640E-01
        1   -1    0    0  501    0  0.00000000000E+00  0.00000000000E+00  0.83073288785E+03  0.83073288787E+03  0.50400001928E-02 0.  1.
       -1   -1    0    0    0  501  0.00000000000E+00  0.00000000000E+00 -0.10657317822E+03  0.10657317834E+03  0.50400001928E-02 0. -1.
    10030    2    1    2    0    0  0.00000000000E+00  0.00000000000E+00  0.72415970963E+03  0.93730606621E+03  0.59509274631E+03 0.  0.
        3    1    3    3  502    0  0.10884889959E+03 -0.14926233279E+03  0.72946550873E+03  0.75249403025E+03  0.10100000352E+00 0.  1.
       -3    1    3    3    0  502 -0.10884889959E+03  0.14926233279E+03 -0.53057991014E+01  0.18481203596E+03  0.10100000352E+00 0. -1.
</event>
<event>
 5   0  0.1502642E-01  0.6073128E+03  0.7818609E-02  0.9890349E-01
       -2   -1    0    0    0  501  0.00000000000E+00  0.00000000000E+00  0.10429969625E+04  0.10429969625E+04  0.25500000920E-02 0. -1.
        2   -1    0    0  501    0  0.00000000000E+00  0.00000000000E+00 -0.88406006669E+02  0.88406006706E+02  0.25500000920E-02 0.  1.
    10030    2    1    2    0    0  0.00000000000E+00  0.00000000000E+00  0.95459095580E+03  0.11314029692E+04  0.60731275778E+03 0.  0.
        2    1    3    3  502    0 -0.24247069033E+03 -0.17756783992E+03  0.39641565433E+03  0.49746129945E+03  0.25500000920E-02 0.  1.
       -2    1    3    3    0  502  0.24247069033E+03  0.17756783992E+03  0.55817530146E+03  0.63394166973E+03  0.25500000920E-02 0. -1.
</event>
<event>
 5   0  0.1532571E-01  0.6080914E+03  0.7818609E-02  0.9888760E-01
        2   -1    0    0  501    0  0.00000000000E+00  0.00000000000E+00  0.12743892405E+04  0.12743892405E+04  0.25500000920E-02 0. -1.
       -2   -1    0    0    0  501  0.00000000000E+00  0.00000000000E+00 -0.72539680155E+02  0.72539680199E+02  0.25500000920E-02 0.  1.
    10030    2    1    2    0    0  0.00000000000E+00  0.00000000000E+00  0.12018495604E+04  0.13469289207E+04  0.60809140080E+03 0.  0.
        1    1    3    3  502    0 -0.16154071996E+02 -0.17866921425E+03  0.57185253404E+02  0.18829178261E+03  0.50400001928E-02 0.  1.
       -1    1    3    3    0  502  0.16154071996E+02  0.17866921425E+03  0.11446643070E+04  0.11586371381E+04  0.50400001928E-02 0. -1.
</event>
<event>
 5   0  0.1488510E-01  0.5957242E+03  0.7818609E-02  0.9914317E-01
       -2   -1    0    0    0  501  0.00000000000E+00  0.00000000000E+00  0.81866873157E+02  0.81866873197E+02  0.25500000920E-02 0. -1.
        2   -1    0    0  501    0  0.00000000000E+00  0.00000000000E+00 -0.10837328581E+04  0.10837328581E+04  0.25500000920E-02 0.  1.
    10030    2    1    2    0    0  0.00000000000E+00  0.00000000000E+00 -0.10018659850E+04  0.11655997313E+04  0.59572416589E+03 0.  0.
        5    1    3    3  502    0  0.24963057272E+03 -0.13123810965E+03 -0.68820483815E+03  0.74376532153E+03  0.46999998093E+01 0.  1.
       -5    1    3    3    0  502 -0.24963057272E+03  0.13123810965E+03 -0.31366114680E+03  0.42183440978E+03  0.46999998093E+01 0. -1.
</event>
<event>
 5   0  0.9420349E-02  0.6026049E+03  0.7818609E-02  0.9900016E-01
       -1   -1    0    0    0  501  0.00000000000E+00  0.00000000000E+00  0.85158319546E+03  0.85158319548E+03  0.50400001928E-02 0.  1.
        1   -1    0    0  501    0  0.00000000000E+00  0.00000000000E+00 -0.10660517794E+03  0.10660517806E+03  0.50400001928E-02 0. -1.
    10030    2    1    2    0    0  0.00000000000E+00  0.00000000000E+00  0.74497801752E+03  0.95818837354E+03  0.60260493908E+03 0.  0.
        2    1    3    3  502    0  0.11569165587E+03 -0.16214851894E+03  0.73195365282E+03  0.75857290441E+03  0.25500000920E-02 0.  1.
       -2    1    3    3    0  502 -0.11569165587E+03  0.16214851894E+03  0.13024364702E+02  0.19961546913E+03  0.25500000920E-02 0. -1.
</event>
<event>
 5   0  0.9177281E-02  0.5929364E+03  0.7818609E-02  0.9920170E-01
        1   -1    0    0  501    0  0.00000000000E+00  0.00000000000E+00  0.76311245091E+03  0.76311245093E+03  0.50400001928E-02 0. -1.
       -1   -1    0    0    0  501  0.00000000000E+00  0.00000000000E+00 -0.11517750305E+03  0.11517750316E+03  0.50400001928E-02 0.  1.
    10030    2    1    2    0    0  0.00000000000E+00  0.00000000000E+00  0.64793494786E+03  0.87828995409E+03  0.59293637669E+03 0.  0.
        1    1    3    3  502    0  0.25544269243E+03  0.28080176193E+02  0.10499248796E+03  0.27760203163E+03  0.50400001928E-02 0.  1.
       -1    1    3    3    0  502 -0.25544269243E+03 -0.28080176193E+02  0.54294245990E+03  0.60068792247E+03  0.50400001928E-02 0. -1.
</event>
<event>
 5   0  0.8860626E-02  0.5946026E+03  0.7818609E-02  0.9916668E-01
        1   -1    0    0  501    0  0.00000000000E+00  0.00000000000E+00  0.62583009349E+03  0.62583009351E+03  0.50400001928E-02 0.  1.
       -1   -1    0    0    0  501  0.00000000000E+00  0.00000000000E+00 -0.14123331512E+03  0.14123331521E+03  0.50400001928E-02 0. -1.
    10030    2    1    2    0    0  0.00000000000E+00  0.00000000000E+00  0.48459677837E+03  0.76706340872E+03  0.59460258609E+03 0.  0.
        3    1    3    3  502    0  0.13765417187E+03  0.14412511446E+03 -0.42293964915E+02  0.20373882625E+03  0.10100000352E+00 0. -1.
       -3    1    3    3    0  502 -0.13765417187E+03 -0.14412511446E+03  0.52689074328E+03  0.56332458247E+03  0.10100000352E+00 0.  1.
</event>
<event>
 5   0  0.1513339E-01  0.6011507E+03  0.7818609E-02  0.9903022E-01
       -2   -1    0    0    0  501  0.00000000000E+00  0.00000000000E+00  0.15945107044E+03  0.15945107047E+03  0.25500000920E-02 0. -1.
        2   -1    0    0  501    0  0.00000000000E+00  0.00000000000E+00 -0.56660354140E+03  0.56660354140E+03  0.25500000920E-02 0.  1.
    10030    2    1    2    0    0  0.00000000000E+00  0.00000000000E+00 -0.40715247095E+03  0.72605461187E+03  0.60115070058E+03 0.  0.
        3    1    3    3  502    0  0.22785873489E+03 -0.41899070576E+02  0.27706773952E+02  0.23332983244E+03  0.10100000352E+00 0. -1.
       -3    1    3    3    0  502 -0.22785873489E+03  0.41899070576E+02 -0.43485924490E+03  0.49272477943E+03  0.10100000352E+00 0.  1.
</event>
<event>
 5   0  0.1502642E-01  0.6140385E+03  0.7818609E-02  0.9876701E-01
        2   -1    0    0  501    0  0.00000000000E+00  0.00000000000E+00  0.76673842325E+03  0.76673842326E+03  0.25500000920E-02 0.  1.
       -2   -1    0    0    0  501  0.00000000000E+00  0.00000000000E+00 -0.12293740048E+03  0.12293740051E+03  0.25500000920E-02 0. -1.
    10030    2    1    2    0    0  0.00000000000E+00  0.00000000000E+00  0.64380102277E+03  0.88967582377E+03  0.61403852850E+03 0.  0.
        2    1    3    3  502    0 -0.17546621406E+03  0.61889203708E+02  0.67574534484E+03  0.70089260012E+03  0.25500000920E-02 0.  1.
       -2    1    3    3    0  502  0.17546621406E+03 -0.61889203708E+02 -0.31944322074E+02  0.18878322365E+03  0.25500000920E-02 0. -1.
</event>
<event>
 5   0  0.6170500E-02  0.6088547E+03  0.7818609E-02  0.9887204E-01
       -4   -1    0    0    0  501  0.00000000000E+00  0.00000000000E+00  0.43160698811E+03  0.43160885659E+03  0.12699999809E+01 0.  1.
        4   -1    0    0  501    0  0.00000000000E+00  0.00000000000E+00 -0.21471896153E+03  0.21472271734E+03  0.12699999809E+01 0. -1.
    10030    2    1    2    0    0  0.00000000000E+00  0.00000000000E+00  0.21688802658E+03  0.64633157393E+03  0.60885473422E+03 0.  0.
        2    1    3    3  502    0  0.14012712261E+03  0.21794431970E+03  0.27809561102E+03  0.38009539047E+03  0.25500000920E-02 0.  1.
       -2    1    3    3    0  502 -0.14012712261E+03 -0.21794431970E+03 -0.61207584442E+02  0.26623618346E+03  0.25500000920E-02 0. -1.
</event>
<event>
 5   0  0.6170500E-02  0.5912051E+03  0.7818609E-02  0.9923823E-01
       -4   -1    0    0    0  501  0.00000000000E+00  0.00000000000E+00  0.24807254334E+03  0.24807579419E+03  0.12699999809E+01 0.  1.
        4   -1    0    0  501    0  0.00000000000E+00  0.00000000000E+00 -0.35223247240E+03  0.35223476193E+03  0.12699999809E+01 0. -1.
    10030    2    1    2    0    0  0.00000000000E+00  0.00000000000E+00 -0.10415992905E+03  0.60031055612E+03  0.59120510228E+03 0.  0.
        1    1    3    3  502    0 -0.13810600757E+03  0.12738933739E+03  0.17964426223E+03  0.25994879031E+03  0.50400001928E-02 0.  1.
       -1    1    3    3    0  502  0.13810600757E+03 -0.12738933739E+03 -0.28380419128E+03  0.34036176581E+03  0.50400001928E-02 0. -1.
</event>
<event>
 5   0  0.1483942E-01  0.6104957E+03  0.7818609E-02  0.9883867E-01
       -2   -1    0    0    0  501  0.00000000000E+00  0.00000000000E+00  0.37697737537E+02  0.37697737624E+02  0.25500000920E-02 0.  1.
        2   -1    0    0  501    0  0.00000000000E+00  0.00000000000E+00 -0.24716669305E+04  0.24716669305E+04  0.25500000920E-02 0. -1.
    10030    2    1    2    0    0  0.00000000000E+00  0.00000000000E+00 -0.24339691929E+04  0.25093646681E+04  0.61049570460E+03 0.  0.
        4    1    3    3  502    0  0.53063436797E+02 -0.45715383635E+01 -0.24524097195E+04  0.24529883148E+04  0.12699999809E+01 0. -1.
       -4    1    3    3    0  502 -0.53063436797E+02  0.45715383635E+01  0.18440526597E+02  0.56376353278E+02  0.12699999809E+01 0.  1.
</event>
<event>
 5   0  0.9177281E-02  0.6470548E+03  0.7818609E-02  0.9812321E-01
       -1   -1    0    0    0  501  0.00000000000E+00  0.00000000000E+00  0.13497176918E+03  0.13497176927E+03  0.50400001928E-02 0. -1.
        1   -1    0    0  501    0  0.00000000000E+00  0.00000000000E+00 -0.77549532437E+03  0.77549532439E+03  0.50400001928E-02 0.  1.
    10030    2    1    2    0    0  0.00000000000E+00  0.00000000000E+00 -0.64052355520E+03  0.91046709366E+03  0.64705479202E+03 0.  0.
        1    1    3    3  502    0  0.82558657314E+02 -0.20352807365E+03  0.13994547869E+02  0.22008056720E+03  0.50400001928E-02 0. -1.
       -1    1    3    3    0  502 -0.82558657314E+02  0.20352807365E+03 -0.65451810307E+03  0.69038652647E+03  0.50400001928E-02 0.  1.
</event>
<event>
 5   0  0.1532571E-01  0.5793018E+03  0.7818609E-02  0.9949304E-01
        2   -1    0    0  501    0  0.00000000000E+00  0.00000000000E+00  0.96071255622E+03  0.96071255622E+03  0.25500000920E-02 0. -1.
       -2   -1    0    0    0  501  0.00000000000E+00  0.00000000000E+00 -0.87328566737E+02  0.87328566774E+02  0.25500000920E-02 0.  1.
    10030    2    1    2    0    0  0.00000000000E+00  0.00000000000E+00  0.87338398948E+03  0.10480411230E+04  0.57930182324E+03 0.  0.
        1    1    3    3  502    0 -0.15631940642E+03  0.71431478887E+02  0.85849620059E+03  0.87553066163E+03  0.50400001928E-02 0. -1.
       -1    1    3    3    0  502  0.15631940642E+03 -0.71431478887E+02  0.14887788893E+02  0.17251046137E+03  0.50400001928E-02 0.  1.
</event>
<event>
 5   0  0.6170500E-02  0.6011800E+03  0.7818609E-02  0.9902961E-01
       -4   -1    0    0    0  501  0.00000000000E+00  0.00000000000E+00  0.19887008593E+03  0.19887414105E+03  0.12699999809E+01 0. -1.
        4   -1    0    0  501    0  0.00000000000E+00  0.00000000000E+00 -0.45432895740E+03  0.45433073243E+03  0.12699999809E+01 0.  1.
    10030    2    1    2    0    0  0.00000000000E+00  0.00000000000E+00 -0.25545887146E+03  0.65320487348E+03  0.60117998281E+03 0.  0.
        2    1    3    3  502    0 -0.27795339033E+03  0.88149281662E+02 -0.48434792457E+02  0.29559146161E+03  0.25500000920E-02 0. -1.
       -2    1    3    3    0  502  0.27795339033E+03 -0.88149281662E+02 -0.20702407901E+03  0.35761341187E+03  0.25500000920E-02 0.  1.
</event>
<event>
 5   0  0.9420349E-02  0.5784906E+03  0.7818609E-02  0.9951064E-01
       -1   -1    0    0    0  501  0.00000000000E+00  0.00000000000E+00  0.68987488282E+03  0.68987488283E+03  0.50400001928E-02 0.  1.
        1   -1    0    0  501    0  0.00000000000E+00  0.00000000000E+00 -0.12127248691E+03  0.12127248702E+03  0.50400001928E-02 0. -1.
    10030    2    1    2    0    0  0.00000000000E+00  0.00000000000E+00  0.56860239590E+03  0.81114736985E+03  0.57849059715E+03 0.  0.
        2    1    3    3  502    0 -0.28527796403E+03  0.11256112576E+02  0.34935725557E+03  0.45117702608E+03  0.25500000920E-02 0. -1.
       -2    1    3    3    0  502  0.28527796403E+03 -0.11256112576E+02  0.21924514033E+03  0.35997034377E+03  0.25500000920E-02 0.  1.
</event>
<event>
 5   0  0.1483942E-01  0.6466791E+03  0.7818609E-02  0.9813031E-01
       -2   -1    0    0    0  501  0.00000000000E+00  0.00000000000E+00  0.51640313439E+02  0.51640313502E+02  0.25500000920E-02 0.  1.
        2   -1    0    0  501    0  0.00000000000E+00  0.00000000000E+00 -0.20245512742E+04  0.20245512742E+04  0.25500000920E-02 0. -1.
    10030    2    1    2    0    0  0.00000000000E+00  0.00000000000E+00 -0.19729109607E+04  0.20761915877E+04  0.64667909334E+03 0.  0.
        4    1    3    3  502    0  0.15716264160E+02 -0.26088774052E+03 -0.37529208707E+03  0.45733486378E+03  0.12699999809E+01 0.  1.
       -4    1    3    3    0  502 -0.15716264160E+02  0.26088774052E+03 -0.15976188737E+04  0.16188567239E+04  0.12699999809E+01 0. -1.
</event>
<event>
 5   0  0.1502642E-01  0.5844400E+03  0.7818609E-02  0.9938224E-01
       -2   -1    0    0    0  501  0.00000000000E+00  0.00000000000E+00  0.13761923027E+03  0.13761923029E+03  0.25500000920E-02 0. -1.
        2   -1    0    0  501    0  0.00000000000E+00  0.00000000000E+00 -0.62049859889E+03  0.62049859890E+03  0.25500000920E-02 0.  1.
    10030    2    1    2    0    0  0.00000000000E+00  0.00000000000E+00 -0.48287936862E+03  0.75811782919E+03  0.58444003824E+03 0.  0.
        2    1    3    3  502    0  0.32185969060E+01  0.25968837158E+03 -0.67676425974E+02  0.26838127420E+03  0.25500000920E-02 0. -1.
       -2    1    3    3    0  502 -0.32185969060E+01 -0.25968837158E+03 -0.41520294265E+03  0.48973655499E+03  0.25500000920E-02 0.  1.
</event>
<event>
 5   0  0.8860626E-02  0.6782694E+03  0.7818609E-02  0.9755133E-01
       -1   -1    0    0    0  501  0.00000000000E+00  0.00000000000E+00  0.41990749521E+03  0.41990749524E+03  0.50400001928E-02 0.  1.
        1   -1    0    0  501    0  0.00000000000E+00  0.00000000000E+00 -0.27389924014E+03  0.27389924019E+03  0.50400001928E-02 0. -1.
    10030    2    1    2    0    0  0.00000000000E+00  0.00000000000E+00  0.14600825507E+03  0.69380673542E+03  0.67826939749E+03 0.  0.
        3    1    3    3  502    0  0.30232186786E+03  0.13862854509E+03  0.14082487648E+03  0.36117591467E+03  0.10100000352E+00 0.  1.
       -3    1    3    3    0  502 -0.30232186786E+03 -0.13862854509E+03  0.51833785876E+01  0.33263082075E+03  0.10100000352E+00 0. -1.
</event>
<event>
 5   0  0.1488510E-01  0.6409175E+03  0.7818609E-02  0.9823973E-01
        2   -1    0    0  501    0  0.00000000000E+00  0.00000000000E+00  0.12479874906E+03  0.12479874909E+03  0.25500000920E-02 0.  1.
       -2   -1    0    0    0  501  0.00000000000E+00  0.00000000000E+00 -0.82287527533E+03  0.82287527533E+03  0.25500000920E-02 0. -1.
    10030    2    1    2    0    0  0.00000000000E+00  0.00000000000E+00 -0.69807652627E+03  0.94767402442E+03  0.64091748302E+03 0.  0.
        5    1    3    3  502    0 -0.16015675746E+02 -0.36700455846E+02  0.12103366494E+03  0.12757218888E+03  0.46999998093E+01 0.  1.
       -5    1    3    3    0  502  0.16015675746E+02  0.36700455846E+02 -0.81911019120E+03  0.82010183554E+03  0.46999998093E+01 0. -1.
</event>
<event>
 5   0  0.1502642E-01  0.8910525E+03  0.7818609E-02  0.9436836E-01
       -2   -1    0    0    0  501  0.00000000000E+00  0.00000000000E+00  0.43727100363E+03  0.43727100363E+03  0.25500000920E-02 0. -1.
        2   -1    0    0  501    0  0.00000000000E+00  0.00000000000E+00 -0.45393732858E+03  0.45393732858E+03  0.25500000920E-02 0.  1.
    10030    2    1    2    0    0  0.00000000000E+00  0.00000000000E+00 -0.16666324949E+02  0.89120833222E+03  0.89105248164E+03 0.  0.
        2    1    3    3  502    0 -0.14007183028E+03  0.16619718490E+03 -0.39731249842E+03  0.45287839793E+03  0.25500000920E-02 0.  1.
       -2    1    3    3    0  502  0.14007183028E+03 -0.16619718490E+03  0.38064617347E+03  0.43832993429E+03  0.25500000920E-02 0. -1.
</event>
<event>
 5   0  0.1488510E-01  0.6026986E+03  0.7818609E-02  0.9899823E-01
       -2   -1    0    0    0  501  0.00000000000E+00  0.00000000000E+00  0.11837412295E+03  0.11837412298E+03  0.25500000920E-02 0. -1.
        2   -1    0    0  501    0  0.00000000000E+00  0.00000000000E+00 -0.76715589126E+03  0.76715589126E+03  0.25500000920E-02 0.  1.
    10030    2    1    2    0    0  0.00000000000E+00  0.00000000000E+00 -0.64878176830E+03  0.88553001424E+03  0.60269861725E+03 0.  0.
        5    1    3    3  502    0  0.12788950306E+03  0.25488973882E+03 -0.46733263046E+03  0.54749098754E+03  0.46999998093E+01 0.  1.
       -5    1    3    3    0  502 -0.12788950306E+03 -0.25488973882E+03 -0.18144913785E+03  0.33803902670E+03  0.46999998093E+01 0. -1.
</event>
<event>
 5   0  0.6170500E-02  0.5839682E+03  0.7818609E-02  0.9939237E-01
        3   -1    0    0  501    0  0.00000000000E+00  0.00000000000E+00  0.63909831668E+02  0.63909911476E+02  0.10100000352E+00 0. -1.
       -3   -1    0    0    0  501  0.00000000000E+00  0.00000000000E+00 -0.13339836365E+04  0.13339836404E+04  0.10100000352E+00 0.  1.
    10030    2    1    2    0    0  0.00000000000E+00  0.00000000000E+00 -0.12700738049E+04  0.13978935518E+04  0.58396824610E+03 0.  0.
        5    1    3    3  502    0 -0.15422470648E+03 -0.24758827666E+03 -0.66410174086E+03  0.72535400119E+03  0.46999998093E+01 0. -1.
       -5    1    3    3    0  502  0.15422470648E+03  0.24758827666E+03 -0.60597206402E+03  0.67253955066E+03  0.46999998093E+01 0.  1.
</event>
<event>
 5   0  0.8860626E-02  0.5333074E+03  0.7818609E-02  0.1005433E+00
       -1   -1    0    0    0  501  0.00000000000E+00  0.00000000000E+00  0.48069248983E+03  0.48069248986E+03  0.50400001928E-02 0.  1.
        1   -1    0    0  501    0  0.00000000000E+00  0.00000000000E+00 -0.14792033602E+03  0.14792033611E+03  0.50400001928E-02 0. -1.
    10030    2    1    2    0    0  0.00000000000E+00  0.00000000000E+00  0.33277215381E+03  0.62861282596E+03  0.53330739599E+03 0.  0.
        3    1    3    3  502    0 -0.39377851814E+02  0.25226200708E+03  0.25705801399E+03  0.36230590416E+03  0.10100000352E+00 0.  1.
       -3    1    3    3    0  502  0.39377851814E+02 -0.25226200708E+03  0.75714139814E+02  0.26630692180E+03  0.10100000352E+00 0. -1.
</event>
<event>
 5   0  0.1532571E-01  0.5595014E+03  0.7818609E-02  0.9993183E-01
       -2   -1    0    0    0  501  0.00000000000E+00  0.00000000000E+00  0.15744249371E+03  0.15744249373E+03  0.25500000920E-02 0. -1.
        2   -1    0    0  501    0  0.00000000000E+00  0.00000000000E+00 -0.49707334738E+03  0.49707334739E+03  0.25500000920E-02 0.  1.
    10030    2    1    2    0    0  0.00000000000E+00  0.00000000000E+00 -0.33963085367E+03  0.65451584112E+03  0.55950144729E+03 0.  0.
        1    1    3    3  502    0  0.24554164865E+03 -0.46716080638E+02 -0.22830129305E+02  0.25098666945E+03  0.50400001928E-02 0. -1.
       -1    1    3    3    0  502 -0.24554164865E+03  0.46716080638E+02 -0.31680072436E+03  0.40352917167E+03  0.50400001928E-02 0.  1.
</event>
<event>
 5   0  0.8860626E-02  0.6015230E+03  0.7818609E-02  0.9902251E-01
       -1   -1    0    0    0  501  0.00000000000E+00  0.00000000000E+00  0.77646761072E+03  0.77646761074E+03  0.50400001928E-02 0.  1.
        1   -1    0    0  501    0  0.00000000000E+00  0.00000000000E+00 -0.11649872617E+03  0.11649872628E+03  0.50400001928E-02 0. -1.
    10030    2    1    2    0    0  0.00000000000E+00  0.00000000000E+00  0.65996888456E+03  0.89296633701E+03  0.60152302571E+03 0.  0.
        3    1    3    3  502    0 -0.19129066327E+03  0.69539351854E+02  0.12750036692E+01  0.20354231783E+03  0.10100000352E+00 0. -1.
       -3    1    3    3    0  502  0.19129066327E+03 -0.69539351854E+02  0.65869388089E+03  0.68942401918E+03  0.10100000352E+00 0.  1.
</event>
<event>
 5   0  0.1502642E-01  0.5946926E+03  0.7818609E-02  0.9916479E-01
       -2   -1    0    0    0  501  0.00000000000E+00  0.00000000000E+00  0.41669847046E+03  0.41669847047E+03  0.25500000920E-02 0.  1.
        2   -1    0    0  501    0  0.00000000000E+00  0.00000000000E+00 -0.21217936050E+03  0.21217936051E+03  0.25500000920E-02 0. -1.
    10030    2    1    2    0    0  0.00000000000E+00  0.00000000000E+00  0.20451910996E+03  0.62887783098E+03  0.59469257600E+03 0.  0.
        2    1    3    3  502    0 -0.12618766878E+03 -0.14577414576E+03  0.34163753679E+03  0.39228769529E+03  0.25500000920E-02 0.  1.
       -2    1    3    3    0  502  0.12618766878E+03  0.14577414576E+03 -0.13711842682E+03  0.23659013569E+03  0.25500000920E-02 0. -1.
</event>
<event>
 5   0  0.1513339E-01  0.6018330E+03  0.7818609E-02  0.9901611E-01
        2   -1    0    0  501    0  0.00000000000E+00  0.00000000000E+00  0.17213788705E+03  0.17213788706E+03  0.25500000920E-02 0.  1.
       -2   -1    0    0    0  501  0.00000000000E+00  0.00000000000E+00 -0.52603599665E+03  0.52603599666E+03  0.25500000920E-02 0. -1.
    10030    2    1    2    0    0  0.00000000000E+00  0.00000000000E+00 -0.35389810961E+03  0.69817388372E+03  0.60183295019E+03 0.  0.
        3    1    3    3  502    0  0.93127221142E+02  0.22891402891E+03  0.22221383599E+02  0.24812922447E+03  0.10100000352E+00 0.  1.
       -3    1    3    3    0  502 -0.93127221142E+02 -0.22891402891E+03 -0.37611949321E+03  0.45004465925E+03  0.10100000352E+00 0. -1.
</event>
<event>
 5   0  0.1532571E-01  0.6077628E+03  0.7818609E-02  0.9889430E-01
       -2   -1    0    0    0  501  0.00000000000E+00  0.00000000000E+00  0.79109343466E+02  0.79109343508E+02  0.25500000920E-02 0. -1.
        2   -1    0    0  501    0  0.00000000000E+00  0.00000000000E+00 -0.11672944900E+04  0.11672944900E+04  0.25500000920E-02 0.  1.
    10030    2    1    2    0    0  0.00000000000E+00  0.00000000000E+00 -0.10881851465E+04  0.12464038335E+04  0.60776278518E+03 0.  0.
        1    1    3    3  502    0  0.10431203466E+03  0.18163276677E+03 -0.92577653908E+02  0.22900236804E+03  0.50400001928E-02 0. -1.
       -1    1    3    3    0  502 -0.10431203466E+03 -0.18163276677E+03 -0.99560749261E+03  0.10174014655E+04  0.50400001928E-02 0.  1.
</event>
<event>
 5   0  0.1488510E-01  0.5720442E+03  0.7818609E-02  0.9965165E-01
        2   -1    0    0  501    0  0.00000000000E+00  0.00000000000E+00  0.15501219238E+03  0.15501219240E+03  0.25500000920E-02 0.  1.
       -2   -1    0    0    0  501  0.00000000000E+00  0.00000000000E+00 -0.52775617766E+03  0.52775617767E+03  0.25500000920E-02 0. -1.
    10030    2    1    2    0    0  0.00000000000E+00  0.00000000000E+00 -0.37274398528E+03  0.68276837007E+03  0.57204420162E+03 0.  0.
        5    1    3    3  502    0  0.10017812532E+03  0.22048925605E+03 -0.36791609950E+03  0.44049462551E+03  0.46999998093E+01 0. -1.
       -5    1    3    3    0  502 -0.10017812532E+03 -0.22048925605E+03 -0.48278857735E+01  0.24227374457E+03  0.46999998093E+01 0.  1.
</event>
<event>
 5   0  0.9420349E-02  0.6307241E+03  0.7818609E-02  0.9843637E-01
       -1   -1    0    0    0  501  0.00000000000E+00  0.00000000000E+00  0.20147226245E+03  0.20147226252E+03  0.50400001928E-02 0.  1.
        1   -1    0    0  501    0  0.00000000000E+00  0.00000000000E+00 -0.49363226440E+03  0.49363226443E+03  0.50400001928E-02 0. -1.
    10030    2    1    2    0    0  0.00000000000E+00  0.00000000000E+00 -0.29216000195E+03  0.69510452695E+03  0.63072405745E+03 0.  0.
        2    1    3    3  502    0 -0.31241618162E+03 -0.14357797764E+02 -0.10140599370E+03  0.32877529174E+03  0.25500000920E-02 0. -1.
       -2    1    3    3    0  502  0.31241618162E+03  0.14357797764E+02 -0.19075400825E+03  0.36632923521E+03  0.25500000920E-02 0.  1.
</event>
<event>
 5   0  0.8860626E-02  0.4918270E+03  0.7818609E-02  0.1015934E+00
        1   -1    0    0  501    0  0.00000000000E+00  0.00000000000E+00  0.67958767242E+03  0.67958767244E+03  0.50400001928E-02 0. -1.
       -1   -1    0    0    0  501  0.00000000000E+00  0.00000000000E+00 -0.88985506834E+02  0.88985506977E+02  0.50400001928E-02 0.  1.
    10030    2    1    2    0    0  0.00000000000E+00  0.00000000000E+00  0.59060216559E+03  0.76857317942E+03  0.49182701646E+03 0.  0.
        3    1    3    3  502    0 -0.18183406616E+03 -0.13487585782E+03  0.44533819716E+03  0.49958106919E+03  0.10100000352E+00 0. -1.
       -3    1    3    3    0  502  0.18183406616E+03  0.13487585782E+03  0.14526396842E+03  0.26899211022E+03  0.10100000352E+00 0.  1.
</event>
<event>
 5   0  0.9497860E-02  0.6048049E+03  0.7818609E-02  0.9895487E-01
       -1   -1    0    0    0  501  0.00000000000E+00  0.00000000000E+00  0.52647413976E+03  0.52647413978E+03  0.50400001928E-02 0. -1.
        1   -1    0    0  501    0  0.00000000000E+00  0.00000000000E+00 -0.17369748155E+03  0.17369748162E+03  0.50400001928E-02 0.  1.
    10030    2    1    2    0    0  0.00000000000E+00  0.00000000000E+00  0.35277665821E+03  0.70017162141E+03  0.60480486841E+03 0.  0.
        5    1    3    3  502    0  0.67812378667E+02  0.27619077774E+03  0.57505744436E+02  0.29018763766E+03  0.46999998093E+01 0. -1.
       -5    1    3    3    0  502 -0.67812378667E+02 -0.27619077774E+03  0.29527091377E+03  0.40998398375E+03  0.46999998093E+01 0.  1.
</event>
<event>
 5   0  0.1483942E-01  0.6031222E+03  0.7818609E-02  0.9898950E-01
        2   -1    0    0  501    0  0.00000000000E+00  0.00000000000E+00  0.12656340987E+04  0.12656340987E+04  0.25500000920E-02 0. -1.
       -2   -1    0    0    0  501  0.00000000000E+00  0.00000000000E+00 -0.71852604460E+02  0.71852604506E+02  0.25500000920E-02 0.  1.
    10030    2    1    2    0    0  0.00000000000E+00  0.00000000000E+00  0.11937814943E+04  0.13374867032E+04  0.60312223079E+03 0.  0.
        4    1    3    3  502    0 -0.12881196799E+02 -0.72539978969E+02 -0.51581463665E+02  0.89945728490E+02  0.12699999809E+01 0.  1.
       -4    1    3    3    0  502  0.12881196799E+02  0.72539978969E+02  0.12453629579E+04  0.12475409747E+04  0.12699999809E+01 0. -1.
</event>
<event>
 5   0  0.9411028E-02  0.6022569E+03  0.7818609E-02  0.9900735E-01
        1   -1    0    0  501    0  0.00000000000E+00  0.00000000000E+00  0.93662375320E+03  0.93662375321E+03  0.50400001928E-02 0. -1.
       -1   -1    0    0    0  501  0.00000000000E+00  0.00000000000E+00 -0.96814059126E+02  0.96814059257E+02  0.50400001928E-02 0.  1.
    10030    2    1    2    0    0  0.00000000000E+00  0.00000000000E+00  0.83980969407E+03  0.10334378125E+04  0.60225691360E+03 0.  0.
        4    1    3    3  502    0 -0.76501686293E+02  0.21368564616E+03  0.80327503157E+02  0.24076582823E+03  0.12699999809E+01 0.  1.
       -4    1    3    3    0  502  0.76501686293E+02 -0.21368564616E+03  0.75948219091E+03  0.79267198424E+03  0.12699999809E+01 0. -1.
</event>
<event>
 5   0  0.6170500E-02  0.5864698E+03  0.7818609E-02  0.9933882E-01
        3   -1    0    0  501    0  0.00000000000E+00  0.00000000000E+00  0.14006333112E+03  0.14006336754E+03  0.10100000352E+00 0.  1.
       -3   -1    0    0    0  501  0.00000000000E+00  0.00000000000E+00 -0.61391282658E+03  0.61391283489E+03  0.10100000352E+00 0. -1.
    10030    2    1    2    0    0  0.00000000000E+00  0.00000000000E+00 -0.47384949546E+03  0.75397620243E+03  0.58646975155E+03 0.  0.
        2    1    3    3  502    0 -0.12361719772E+03 -0.14476856638E+03 -0.52367105857E+03  0.55719882176E+03  0.25500000920E-02 0. -1.
       -2    1    3    3    0  502  0.12361719772E+03  0.14476856638E+03  0.49821563109E+02  0.19677738067E+03  0.25500000920E-02 0.  1.
</event>
<event>
 5   0  0.9177281E-02  0.6004506E+03  0.7818609E-02  0.9904472E-01
       -1   -1    0    0    0  501  0.00000000000E+00  0.00000000000E+00  0.30469136660E+03  0.30469136664E+03  0.50400001928E-02 0. -1.
        1   -1    0    0  501    0  0.00000000000E+00  0.00000000000E+00 -0.29582468529E+03  0.29582468534E+03  0.50400001928E-02 0.  1.
    10030    2    1    2    0    0  0.00000000000E+00  0.00000000000E+00  0.88666813039E+01  0.60051605197E+03  0.60045058968E+03 0.  0.
        1    1    3    3  502    0  0.19733408816E+03 -0.90926075760E+02 -0.20277740834E+03  0.29719853796E+03  0.50400001928E-02 0.  1.
       -1    1    3    3    0  502 -0.19733408816E+03  0.90926075760E+02  0.21164408964E+03  0.30331751402E+03  0.50400001928E-02 0. -1.
</event>
<event>
 5   0  0.1532571E-01  0.6096070E+03  0.7818609E-02  0.9885673E-01
       -2   -1    0    0    0  501  0.00000000000E+00  0.00000000000E+00  0.27357297540E+03  0.27357297541E+03  0.25500000920E-02 0. -1.
        2   -1    0    0  501    0  0.00000000000E+00  0.00000000000E+00 -0.33959923102E+03  0.33959923103E+03  0.25500000920E-02 0.  1.
    10030    2    1    2    0    0  0.00000000000E+00  0.00000000000E+00 -0.66026255622E+02  0.61317220643E+03  0.60960699497E+03 0.  0.
        1    1    3    3  502    0 -0.49346607445E+01  0.26495994291E+03  0.11845658314E+03  0.29027587625E+03  0.50400001928E-02 0. -1.
       -1    1    3    3    0  502  0.49346607445E+01 -0.26495994291E+03 -0.18448283876E+03  0.32289633018E+03  0.50400001928E-02 0.  1.
</event>
<event>
 5   0  0.8860626E-02  0.5892157E+03  0.7818609E-02  0.9928036E-01
       -1   -1    0    0    0  501  0.00000000000E+00  0.00000000000E+00  0.10366758551E+03  0.10366758563E+03  0.50400001928E-02 0.  1.
        1   -1    0    0  501    0  0.00000000000E+00  0.00000000000E+00 -0.83723179585E+03  0.83723179587E+03  0.50400001928E-02 0. -1.
    10030    2    1    2    0    0  0.00000000000E+00  0.00000000000E+00 -0.73356421034E+03  0.94089938150E+03  0.58921574607E+03 0.  0.
        3    1    3    3  502    0  0.64702508759E+02 -0.20656383882E+03 -0.68591097731E+03  0.71925580508E+03  0.10100000352E+00 0. -1.
       -3    1    3    3    0  502 -0.64702508759E+02  0.20656383882E+03 -0.47653233027E+02  0.22164357642E+03  0.10100000352E+00 0.  1.
</event>
<event>
 5   0  0.1483942E-01  0.5733943E+03  0.7818609E-02  0.9962195E-01
        2   -1    0    0  501    0  0.00000000000E+00  0.00000000000E+00  0.78473725406E+03  0.78473725406E+03  0.25500000920E-02 0.  1.
       -2   -1    0    0    0  501  0.00000000000E+00  0.00000000000E+00 -0.10474239571E+03  0.10474239574E+03  0.25500000920E-02 0. -1.
    10030    2    1    2    0    0  0.00000000000E+00  0.00000000000E+00  0.67999485835E+03  0.88947964981E+03  0.57339431462E+03 0.  0.
        4    1    3    3  502    0 -0.22714969556E+03  0.17231814455E+03  0.38661561384E+03  0.48037878065E+03  0.12699999809E+01 0. -1.
       -4    1    3    3    0  502  0.22714969556E+03 -0.17231814455E+03  0.29337924450E+03  0.40910086915E+03  0.12699999809E+01 0.  1.
</event>
<event>
 5   0  0.1532571E-01  0.5586905E+03  0.7818609E-02  0.9995022E-01
       -2   -1    0    0    0  501  0.00000000000E+00  0.00000000000E+00  0.38976639319E+03  0.38976639320E+03  0.25500000920E-02 0. -1.
        2   -1    0    0  501    0  0.00000000000E+00  0.00000000000E+00 -0.20020653716E+03  0.20020653717E+03  0.25500000920E-02 0.  1.
    10030    2    1    2    0    0  0.00000000000E+00  0.00000000000E+00  0.18955985603E+03  0.58997293037E+03  0.55869054006E+03 0.  0.
        1    1    3    3  502    0  0.11715246075E+03  0.17178202676E+03  0.29177279007E+03  0.35828079048E+03  0.50400001928E-02 0. -1.
       -1    1    3    3    0  502 -0.11715246075E+03 -0.17178202676E+03 -0.10221293404E+03  0.23169213989E+03  0.50400001928E-02 0.  1.
</event>
<event>
 5   0  0.1513339E-01  0.6008787E+03  0.7818609E-02  0.9903585E-01
       -2   -1    0    0    0  501  0.00000000000E+00  0.00000000000E+00  0.34972883193E+03  0.34972883194E+03  0.25500000920E-02 0.  1.
        2   -1    0    0  501    0  0.00000000000E+00  0.00000000000E+00 -0.25809655710E+03  0.25809655712E+03  0.25500000920E-02 0. -1.
    10030    2    1    2    0    0  0.00000000000E+00  0.00000000000E+00  0.91632274823E+02  0.60782538905E+03  0.60087871471E+03 0.  0.
        3    1    3    3  502    0 -0.14001575485E+03  0.15461653001E+03  0.26454056533E+03  0.33688633671E+03  0.10100000352E+00 0.  1.
       -3    1    3    3    0  502  0.14001575485E+03 -0.15461653001E+03 -0.17290829050E+03  0.27093905234E+03  0.10100000352E+00 0. -1.
</event>
<event>
 5   0  0.1502642E-01  0.6173488E+03  0.7818609E-02  0.9870052E-01
       -2   -1    0    0    0  501  0.00000000000E+00  0.00000000000E+00  0.53225227977E+03  0.53225227977E+03  0.25500000920E-02 0. -1.
        2   -1    0    0  501    0  0.00000000000E+00  0.00000000000E+00 -0.17901262704E+03  0.17901262706E+03  0.25500000920E-02 0.  1.
    10030    2    1    2    0    0  0.00000000000E+00  0.00000000000E+00  0.35323965273E+03  0.71126490684E+03  0.61734877941E+03 0.  0.
        2    1    3    3  502    0 -0.28211734794E+03 -0.12324844121E+03  0.20236937715E+03  0.36842060350E+03  0.25500000920E-02 0. -1.
       -2    1    3    3    0  502  0.28211734794E+03  0.12324844121E+03  0.15087027557E+03  0.34284430333E+03  0.25500000920E-02 0.  1.
</event>
<event>
 5   0  0.1532571E-01  0.6013209E+03  0.7818609E-02  0.9902669E-01
       -2   -1    0    0    0  501  0.00000000000E+00  0.00000000000E+00  0.23362253189E+03  0.23362253191E+03  0.25500000920E-02 0. -1.
        2   -1    0    0  501    0  0.00000000000E+00  0.00000000000E+00 -0.38693482627E+03  0.38693482628E+03  0.25500000920E-02 0.  1.
    10030    2    1    2    0    0  0.00000000000E+00  0.00000000000E+00 -0.15331229438E+03  0.62055735818E+03  0.60132085877E+03 0.  0.
        1    1    3    3  502    0 -0.16077257553E+03 -0.25066911387E+03 -0.33932889994E+02  0.29972365062E+03  0.50400001928E-02 0.  1.
       -1    1    3    3    0  502  0.16077257553E+03  0.25066911387E+03 -0.11937940438E+03  0.32083370756E+03  0.50400001928E-02 0. -1.
</event>
<event>
 5   0  0.1513339E-01  0.6743755E+03  0.7818609E-02  0.9762086E-01
       -2   -1    0    0    0  501  0.00000000000E+00  0.00000000000E+00  0.33254942337E+03  0.33254942337E+03  0.25500000920E-02 0.  1.
        2   -1    0    0  501    0  0.00000000000E+00  0.00000000000E+00 -0.34189079434E+03  0.34189079435E+03  0.25500000920E-02 0. -1.
    10030    2    1    2    0    0  0.00000000000E+00  0.00000000000E+00 -0.93413709771E+01  0.67444021773E+03  0.67437552304E+03 0.  0.
        3    1    3    3  502    0  0.30017045814E+03  0.13223268267E+03  0.73489163175E+02  0.33613755162E+03  0.10100000352E+00 0.  1.
       -3    1    3    3    0  502 -0.30017045814E+03 -0.13223268267E+03 -0.82830534152E+02  0.33830266611E+03  0.10100000352E+00 0. -1.
</event>
<event>
 5   0  0.6170500E-02  0.5824207E+03  0.7818609E-02  0.9942564E-01
        3   -1    0    0  501    0  0.00000000000E+00  0.00000000000E+00  0.19470431526E+03  0.19470434145E+03  0.10100000352E+00 0. -1.
       -3   -1    0    0    0  501  0.00000000000E+00  0.00000000000E+00 -0.43554991870E+03  0.43554993041E+03  0.10100000352E+00 0.  1.
    10030    2    1    2    0    0  0.00000000000E+00  0.00000000000E+00 -0.24084560344E+03  0.63025427187E+03  0.58242067486E+03 0.  0.
        1    1    3    3  502    0 -0.22378586379E+03 -0.20048556329E+02 -0.32089840643E+03  0.39173695858E+03  0.50400001928E-02 0.  1.
       -1    1    3    3    0  502  0.22378586379E+03  0.20048556329E+02  0.80052802987E+02  0.23851731328E+03  0.50400001928E-02 0. -1.
</event>
<event>
 5   0  0.1502642E-01  0.5886537E+03  0.7818609E-02  0.9929230E-01
        2   -1    0    0  501    0  0.00000000000E+00  0.00000000000E+00  0.12203614018E+04  0.12203614018E+04  0.25500000920E-02 0.  1.
       -2   -1    0    0    0  501  0.00000000000E+00  0.00000000000E+00 -0.70985778509E+02  0.70985778555E+02  0.25500000920E-02 0. -1.
    10030    2    1    2    0    0  0.00000000000E+00  0.00000000000E+00  0.11493756233E+04  0.12913471804E+04  0.58865373252E+03 0.  0.
        2    1    3    3  502    0  0.13148718381E+03 -0.47370960716E+02  0.11429248576E+04  0.11514382821E+04  0.25500000920E-02 0.  1.
       -2    1    3    3    0  502 -0.13148718381E+03  0.47370960716E+02  0.64507657091E+01  0.13990889825E+03  0.25500000920E-02 0. -1.
</event>
<event>
 5   0  0.8860626E-02  0.5982892E+03  0.7818609E-02  0.9908962E-01
        1   -1    0    0  501    0  0.00000000000E+00  0.00000000000E+00  0.22644889964E+03  0.22644889969E+03  0.50400001928E-02 0.  1.
       -1   -1    0    0    0  501  0.00000000000E+00  0.00000000000E+00 -0.39517737378E+03  0.39517737381E+03  0.50400001928E-02 0. -1.
    10030    2    1    2    0    0  0.00000000000E+00  0.00000000000E+00 -0.16872847414E+03  0.62162627351E+03  0.59828916581E+03 0.  0.
        3    1    3    3  502    0 -0.16057302644E+03 -0.12336808044E+03  0.14441565628E+03  0.24871524295E+03  0.10100000352E+00 0.  1.
       -3    1    3    3    0  502  0.16057302644E+03  0.12336808044E+03 -0.31314413043E+03  0.37291103056E+03  0.10100000352E+00 0. -1.
</event>
<event>
 5   0  0.9177281E-02  0.6059210E+03  0.7818609E-02  0.9893198E-01
        1   -1    0    0  501    0  0.00000000000E+00  0.00000000000E+00  0.47502392639E+03  0.47502392641E+03  0.50400001928E-02 0.  1.
       -1   -1    0    0    0  501  0.00000000000E+00  0.00000000000E+00 -0.19322195999E+03  0.19322196006E+03  0.50400001928E-02 0. -1.
    10030    2    1    2    0    0  0.00000000000E+00  0.00000000000E+00  0.28180196640E+03  0.66824588647E+03  0.60592096557E+03 0.  0.
        1    1    3    3  502    0 -0.10723258206E+02  0.28701075653E+03  0.24722771767E+03  0.37896135296E+03  0.50400001928E-02 0.  1.
       -1    1    3    3    0  502  0.10723258206E+02 -0.28701075653E+03  0.34574248724E+02  0.28928453351E+03  0.50400001928E-02 0. -1.
</event>
<event>
 5   0  0.1502642E-01  0.6786634E+03  0.7818609E-02  0.9754433E-01
       -2   -1    0    0    0  501  0.00000000000E+00  0.00000000000E+00  0.52024202756E+03  0.52024202757E+03  0.25500000920E-02 0.  1.
        2   -1    0    0  501    0  0.00000000000E+00  0.00000000000E+00 -0.22133161719E+03  0.22133161721E+03  0.25500000920E-02 0. -1.
    10030    2    1    2    0    0  0.00000000000E+00  0.00000000000E+00  0.29891041036E+03  0.74157364477E+03  0.67866341967E+03 0.  0.
        2    1    3    3  502    0 -0.10882099171E+02  0.67916392223E+02  0.51254478997E+03  0.51713945716E+03  0.25500000920E-02 0.  1.
       -2    1    3    3    0  502  0.10882099171E+02 -0.67916392223E+02 -0.21363437961E+03  0.22443418762E+03  0.25500000920E-02 0. -1.
</event>
<event>
 5   0  0.1488510E-01  0.5938081E+03  0.7818609E-02  0.9918336E-01
        2   -1    0    0  501    0  0.00000000000E+00  0.00000000000E+00  0.16986994712E+03  0.16986994714E+03  0.25500000920E-02 0.  1.
       -2   -1    0    0    0  501  0.00000000000E+00  0.00000000000E+00 -0.51893828059E+03  0.51893828059E+03  0.25500000920E-02 0. -1.
    10030    2    1    2    0    0  0.00000000000E+00  0.00000000000E+00 -0.34906833347E+03  0.68880822773E+03  0.59380811139E+03 0.  0.
        5    1    3    3  502    0  0.18597687669E+03  0.12966418428E+03  0.47776889463E+02  0.23174322107E+03  0.46999998093E+01 0.  1.
       -5    1    3    3    0  502 -0.18597687669E+03 -0.12966418428E+03 -0.39684522293E+03  0.45706500666E+03  0.46999998093E+01 0. -1.
</event>
<event>
 5   0  0.1488510E-01  0.5898152E+03  0.7818609E-02  0.9926765E-01
       -2   -1    0    0    0  501  0.00000000000E+00  0.00000000000E+00  0.76158610772E+02  0.76158610815E+02  0.25500000920E-02 0.  1.
        2   -1    0    0  501    0  0.00000000000E+00  0.00000000000E+00 -0.11419651668E+04  0.11419651668E+04  0.25500000920E-02 0. -1.
    10030    2    1    2    0    0  0.00000000000E+00  0.00000000000E+00 -0.10658065561E+04  0.12181237776E+04  0.58981515980E+03 0.  0.
        5    1    3    3  502    0 -0.17216398670E+03 -0.84054948270E+02 -0.69976767070E+02  0.20402085818E+03  0.46999998093E+01 0.  1.
       -5    1    3    3    0  502  0.17216398670E+03  0.84054948270E+02 -0.99582978899E+03  0.10141029195E+04  0.46999998093E+01 0. -1.
</event>
<event>
 5   0  0.9420349E-02  0.6024671E+03  0.7818609E-02  0.9900301E-01
        1   -1    0    0  501    0  0.00000000000E+00  0.00000000000E+00  0.58057540482E+03  0.58057540484E+03  0.50400001928E-02 0. -1.
       -1   -1    0    0    0  501  0.00000000000E+00  0.00000000000E+00 -0.15629608931E+03  0.15629608939E+03  0.50400001928E-02 0.  1.
    10030    2    1    2    0    0  0.00000000000E+00  0.00000000000E+00  0.42427931552E+03  0.73687149423E+03  0.60246714552E+03 0.  0.
        2    1    3    3  502    0  0.11498147991E+03 -0.76318780471E+02 -0.11535707135E+03  0.17986814863E+03  0.25500000920E-02 0.  1.
       -2    1    3    3    0  502 -0.11498147991E+03  0.76318780471E+02  0.53963638687E+03  0.55700334560E+03  0.25500000920E-02 0. -1.
</event>
<event>
 5   0  0.9497860E-02  0.6026395E+03  0.7818609E-02  0.9899945E-01
       -1   -1    0    0    0  501  0.00000000000E+00  0.00000000000E+00  0.25667705973E+03  0.25667705978E+03  0.50400001928E-02 0. -1.
        1   -1    0    0  501    0  0.00000000000E+00  0.00000000000E+00 -0.35372696973E+03  0.35372696977E+03  0.50400001928E-02 0.  1.
    10030    2    1    2    0    0  0.00000000000E+00  0.00000000000E+00 -0.97049910005E+02  0.61040402954E+03  0.60263952264E+03 0.  0.
        5    1    3    3  502    0  0.12937267241E+03 -0.71144034147E+02 -0.31453530942E+03  0.34749577384E+03  0.46999998093E+01 0.  1.
       -5    1    3    3    0  502 -0.12937267241E+03  0.71144034147E+02  0.21748539942E+03  0.26290825571E+03  0.46999998093E+01 0. -1.
</event>
<event>
 5   0  0.1532571E-01  0.6580265E+03  0.7818609E-02  0.9791833E-01
       -2   -1    0    0    0  501  0.00000000000E+00  0.00000000000E+00  0.87263483093E+02  0.87263483131E+02  0.25500000920E-02 0.  1.
        2   -1    0    0  501    0  0.00000000000E+00  0.00000000000E+00 -0.12404927937E+04  0.12404927937E+04  0.25500000920E-02 0. -1.
    10030    2    1    2    0    0  0.00000000000E+00  0.00000000000E+00 -0.11532293106E+04  0.13277562768E+04  0.65802650998E+03 0.  0.
        1    1    3    3  502    0  0.11038238207E+03  0.23081933477E+03 -0.15923104667E+03  0.30135753155E+03  0.50400001928E-02 0.  1.
       -1    1    3    3    0  502 -0.11038238207E+03 -0.23081933477E+03 -0.99399826395E+03  0.10263987453E+04  0.50400001928E-02 0. -1.
</event>
<event>
 5   0  0.1483942E-01  0.4858550E+03  0.7818609E-02  0.1017538E+00
       -2   -1    0    0    0  501  0.00000000000E+00  0.00000000000E+00  0.48928548378E+02  0.48928548444E+02  0.25500000920E-02 0. -1.
        2   -1    0    0  501    0  0.00000000000E+00  0.00000000000E+00 -0.12061214899E+04  0.12061214899E+04  0.25500000920E-02 0.  1.
    10030    2    1    2    0    0  0.00000000000E+00  0.00000000000E+00 -0.11571929415E+04  0.12550500383E+04  0.48585501421E+03 0.  0.
        4    1    3    3  502    0  0.52046142440E+02  0.21012988133E+03 -0.29387454304E+03  0.36500305193E+03  0.12699999809E+01 0. -1.
       -4    1    3    3    0  502 -0.52046142440E+02 -0.21012988133E+03 -0.86331839843E+03  0.89004698637E+03  0.12699999809E+01 0.  1.
</event>
<event>
 5   0  0.1502642E-01  0.6081515E+03  0.7818609E-02  0.9888637E-01
        2   -1    0    0  501    0  0.00000000000E+00  0.00000000000E+00  0.53703059268E+03  0.53703059268E+03  0.25500000920E-02 0.  1.
       -2   -1    0    0    0  501  0.00000000000E+00  0.00000000000E+00 -0.17217281139E+03  0.17217281141E+03  0.25500000920E-02 0. -1.
    10030    2    1    2    0    0  0.00000000000E+00  0.00000000000E+00  0.36485778128E+03  0.70920340410E+03  0.60815151716E+03 0.  0.
        2    1    3    3  502    0 -0.20522891340E+03 -0.77618126936E+02  0.42792915656E+03  0.48090211433E+03  0.25500000920E-02 0.  1.
       -2    1    3    3    0  502  0.20522891340E+03  0.77618126936E+02 -0.63071375278E+02  0.22830128977E+03  0.25500000920E-02 0. -1.
</event>
<event>
 5   0  0.1502642E-01  0.5974801E+03  0.7818609E-02  0.9910648E-01
        2   -1    0    0  501    0  0.00000000000E+00  0.00000000000E+00  0.50005221587E+03  0.50005221588E+03  0.25500000920E-02 0. -1.
       -2   -1    0    0    0  501  0.00000000000E+00  0.00000000000E+00 -0.17847256920E+03  0.17847256922E+03  0.25500000920E-02 0.  1.
    10030    2    1    2    0    0  0.00000000000E+00  0.00000000000E+00  0.32157964667E+03  0.67852478510E+03  0.59748005393E+03 0.  0.
        2    1    3    3  502    0  0.51513982782E+02  0.14630295211E+03 -0.12916076844E+03  0.20184337573E+03  0.25500000920E-02 0.  1.
       -2    1    3    3    0  502 -0.51513982782E+02 -0.14630295211E+03  0.45074041511E+03  0.47668140937E+03  0.25500000920E-02 0. -1.
</event>
<event>
 5   0  0.6170500E-02  0.6477718E+03  0.7818609E-02  0.9810969E-01
        4   -1    0    0  501    0  0.00000000000E+00  0.00000000000E+00  0.33779144424E+03  0.33779383165E+03  0.12699999809E+01 0. -1.
       -4   -1    0    0    0  501  0.00000000000E+00  0.00000000000E+00 -0.31054804492E+03  0.31055064177E+03  0.12699999809E+01 0.  1.
    10030    2    1    2    0    0  0.00000000000E+00  0.00000000000E+00  0.27243399326E+02  0.64834447342E+03  0.64777183746E+03 0.  0.
        2    1    3    3  502    0  0.20413637422E+03  0.47153638171E+01  0.26525634950E+03  0.33474591094E+03  0.25500000920E-02 0. -1.
       -2    1    3    3    0  502 -0.20413637422E+03 -0.47153638171E+01 -0.23801295017E+03  0.31359856248E+03  0.25500000920E-02 0.  1.
</event>
<event>
 5   0  0.9177281E-02  0.5018302E+03  0.7818609E-02  0.1013302E+00
       -1   -1    0    0    0  501  0.00000000000E+00  0.00000000000E+00  0.44837603311E+03  0.44837603314E+03  0.50400001928E-02 0.  1.
        1   -1    0    0  501    0  0.00000000000E+00  0.00000000000E+00 -0.14041427192E+03  0.14041427201E+03  0.50400001928E-02 0. -1.
    10030    2    1    2    0    0  0.00000000000E+00  0.00000000000E+00  0.30796176119E+03  0.58879030516E+03  0.50183022736E+03 0.  0.
        1    1    3    3  502    0 -0.18038481269E+03 -0.14629197795E+03  0.26540209223E+03  0.35267306964E+03  0.50400001928E-02 0.  1.
       -1    1    3    3    0  502  0.18038481269E+03  0.14629197795E+03  0.42559668961E+02  0.23611723552E+03  0.50400001928E-02 0. -1.
</event>
<event>
 5   0  0.1488510E-01  0.5100709E+03  0.7818609E-02  0.1011183E+00
        2   -1    0    0  501    0  0.00000000000E+00  0.00000000000E+00  0.17887657686E+04  0.17887657686E+04  0.25500000920E-02 0.  1.
       -2   -1    0    0    0  501  0.00000000000E+00  0.00000000000E+00 -0.36361986321E+02  0.36361986410E+02  0.25500000920E-02 0. -1.
    10030    2    1    2    0    0  0.00000000000E+00  0.00000000000E+00  0.17524037823E+04  0.18251277550E+04  0.51007088328E+03 0.  0.
        5    1    3    3  502    0 -0.15750678653E+03  0.10347839784E+03  0.26157830790E+03  0.32243056273E+03  0.46999998093E+01 0. -1.
       -5    1    3    3    0  502  0.15750678653E+03 -0.10347839784E+03  0.14908254744E+04  0.15026971923E+04  0.46999998093E+01 0.  1.
</event>
<event>
 5   0  0.1532571E-01  0.5968510E+03  0.7818609E-02  0.9911961E-01
        2   -1    0    0  501    0  0.00000000000E+00  0.00000000000E+00  0.30570162626E+03  0.30570162627E+03  0.25500000920E-02 0. -1.
       -2   -1    0    0    0  501  0.00000000000E+00  0.00000000000E+00 -0.29132255449E+03  0.29132255450E+03  0.25500000920E-02 0.  1.
    10030    2    1    2    0    0  0.00000000000E+00  0.00000000000E+00  0.14379071763E+02  0.59702418077E+03  0.59685099876E+03 0.  0.
        1    1    3    3  502    0 -0.14015392336E+03  0.25994022979E+03  0.50164000733E+02  0.29954711197E+03  0.50400001928E-02 0.  1.
       -1    1    3    3    0  502  0.14015392336E+03 -0.25994022979E+03 -0.35784928970E+02  0.29747706880E+03  0.50400001928E-02 0. -1.
</event>
<event>
 5   0  0.9411028E-02  0.6644779E+03  0.7818609E-02  0.9779985E-01
       -1   -1    0    0    0  501  0.00000000000E+00  0.00000000000E+00  0.11121267775E+03  0.11121267786E+03  0.50400001928E-02 0. -1.
        1   -1    0    0  501    0  0.00000000000E+00  0.00000000000E+00 -0.99253706982E+03  0.99253706983E+03  0.50400001928E-02 0.  1.
    10030    2    1    2    0    0  0.00000000000E+00  0.00000000000E+00 -0.88132439207E+03  0.11037497477E+04  0.66447785627E+03 0.  0.
        4    1    3    3  502    0  0.28512276623E+03  0.29076731897E+02 -0.16151876959E+03  0.32898385066E+03  0.12699999809E+01 0. -1.
       -4    1    3    3    0  502 -0.28512276623E+03 -0.29076731897E+02 -0.71980562248E+03  0.77476589704E+03  0.12699999809E+01 0.  1.
</event>
<event>
 5   0  0.8860626E-02  0.5863108E+03  0.7818609E-02  0.9934221E-01
       -1   -1    0    0    0  501  0.00000000000E+00  0.00000000000E+00  0.49314779161E+03  0.49314779163E+03  0.50400001928E-02 0. -1.
        1   -1    0    0  501    0  0.00000000000E+00  0.00000000000E+00 -0.17426841198E+03  0.17426841206E+03  0.50400001928E-02 0.  1.
    10030    2    1    2    0    0  0.00000000000E+00  0.00000000000E+00  0.31887937963E+03  0.66741620369E+03  0.58631077953E+03 0.  0.
        3    1    3    3  502    0  0.27334343219E+03 -0.11641129580E+02  0.27930513371E+03  0.39097764097E+03  0.10100000352E+00 0. -1.
       -3    1    3    3    0  502 -0.27334343219E+03  0.11641129580E+02  0.39574245914E+02  0.27643856272E+03  0.10100000352E+00 0.  1.
</event>
<event>
 5   0  0.1488510E-01  0.5830288E+03  0.7818609E-02  0.9941255E-01
        2   -1    0    0  501    0  0.00000000000E+00  0.00000000000E+00  0.21793881126E+03  0.21793881128E+03  0.25500000920E-02 0.  1.
       -2   -1    0    0    0  501  0.00000000000E+00  0.00000000000E+00 -0.38992886955E+03  0.38992886956E+03  0.25500000920E-02 0. -1.
    10030    2    1    2    0    0  0.00000000000E+00  0.00000000000E+00 -0.17199005829E+03  0.60786768084E+03  0.58302876195E+03 0.  0.
        5    1    3    3  502    0 -0.10572024415E+03 -0.20816716330E+03  0.95933132504E+02  0.25245909334E+03  0.46999998093E+01 0.  1.
       -5    1    3    3    0  502  0.10572024415E+03  0.20816716330E+03 -0.26792319080E+03  0.35540858750E+03  0.46999998093E+01 0. -1.
</event>
<event>
 5   0  0.1488510E-01  0.6412783E+03  0.7818609E-02  0.9823284E-01
       -2   -1    0    0    0  501  0.00000000000E+00  0.00000000000E+00  0.75598496787E+02  0.75598496830E+02  0.25500000920E-02 0.  1.
        2   -1    0    0  501    0  0.00000000000E+00  0.00000000000E+00 -0.13599404900E+04  0.13599404900E+04  0.25500000920E-02 0. -1.
    10030    2    1    2    0    0  0.00000000000E+00  0.00000000000E+00 -0.12843419932E+04  0.14355389868E+04  0.64127827593E+03 0.  0.
        5    1    3    3  502    0  0.26306573340E+03  0.56424390923E+02 -0.10324775021E+04  0.10669672789E+04  0.46999998093E+01 0. -1.
       -5    1    3    3    0  502 -0.26306573340E+03 -0.56424390923E+02 -0.25186449113E+03  0.36857170791E+03  0.46999998093E+01 0.  1.
</event>
<event>
 5   0  0.1502642E-01  0.6067925E+03  0.7818609E-02  0.9891413E-01
        2   -1    0    0  501    0  0.00000000000E+00  0.00000000000E+00  0.31395992540E+03  0.31395992541E+03  0.25500000920E-02 0.  1.
       -2   -1    0    0    0  501  0.00000000000E+00  0.00000000000E+00 -0.29318799293E+03  0.29318799294E+03  0.25500000920E-02 0. -1.
    10030    2    1    2    0    0  0.00000000000E+00  0.00000000000E+00  0.20771932464E+02  0.60714791835E+03  0.60679248642E+03 0.  0.
        2    1    3    3  502    0  0.22638878559E+03  0.19481181225E+03  0.63762841040E+02  0.30540010533E+03  0.25500000920E-02 0. -1.
       -2    1    3    3    0  502 -0.22638878559E+03 -0.19481181225E+03 -0.42990908575E+02  0.30174781302E+03  0.25500000920E-02 0.  1.
</event>
<event>
 5   0  0.1483942E-01  0.5987094E+03  0.7818609E-02  0.9908087E-01
        2   -1    0    0  501    0  0.00000000000E+00  0.00000000000E+00  0.18979465801E+04  0.18979465801E+04  0.25500000920E-02 0.  1.
       -2   -1    0    0    0  501  0.00000000000E+00  0.00000000000E+00 -0.47215882890E+02  0.47215882959E+02  0.25500000920E-02 0. -1.
    10030    2    1    2    0    0  0.00000000000E+00  0.00000000000E+00  0.18507306973E+04  0.19451624631E+04  0.59870935696E+03 0.  0.
        4    1    3    3  502    0  0.10777792723E+03 -0.60648675536E+02  0.18110613831E+04  0.18152793971E+04  0.12699999809E+01 0.  1.
       -4    1    3    3    0  502 -0.10777792723E+03  0.60648675536E+02  0.39669314176E+02  0.12988306598E+03  0.12699999809E+01 0. -1.
</event>
<event>
 5   0  0.9177281E-02  0.5948080E+03  0.7818609E-02  0.9916237E-01
       -1   -1    0    0    0  501  0.00000000000E+00  0.00000000000E+00  0.76002858152E+03  0.76002858153E+03  0.50400001928E-02 0.  1.
        1   -1    0    0  501    0  0.00000000000E+00  0.00000000000E+00 -0.11637605018E+03  0.11637605029E+03  0.50400001928E-02 0. -1.
    10030    2    1    2    0    0  0.00000000000E+00  0.00000000000E+00  0.64365253133E+03  0.87640463183E+03  0.59480795018E+03 0.  0.
        1    1    3    3  502    0 -0.20443023514E+03  0.77823064589E+02  0.61871664552E+03  0.65624571457E+03  0.50400001928E-02 0.  1.
       -1    1    3    3    0  502  0.20443023514E+03 -0.77823064589E+02  0.24935885810E+02  0.22015891726E+03  0.50400001928E-02 0. -1.
</event>
<event>
 5   0  0.9177281E-02  0.6039792E+03  0.7818609E-02  0.9897185E-01
        1   -1    0    0  501    0  0.00000000000E+00  0.00000000000E+00  0.12552066830E+04  0.12552066830E+04  0.50400001928E-02 0. -1.
       -1   -1    0    0    0  501  0.00000000000E+00  0.00000000000E+00 -0.72655529302E+02  0.72655529477E+02  0.50400001928E-02 0.  1.
    10030    2    1    2    0    0  0.00000000000E+00  0.00000000000E+00  0.11825511537E+04  0.13278622125E+04  0.60397915878E+03 0.  0.
        1    1    3    3  502    0  0.24242216256E+03 -0.87380229849E+02  0.93745675516E+03  0.97222887084E+03  0.50400001928E-02 0.  1.
       -1    1    3    3    0  502 -0.24242216256E+03  0.87380229849E+02  0.24509439852E+03  0.35563334163E+03  0.50400001928E-02 0. -1.
</event>
<event>
 5   0  0.8860626E-02  0.6202258E+03  0.7818609E-02  0.9864310E-01
        1   -1    0    0  501    0  0.00000000000E+00  0.00000000000E+00  0.60844484746E+03  0.60844484748E+03  0.50400001928E-02 0. -1.
       -1   -1    0    0    0  501  0.00000000000E+00  0.00000000000E+00 -0.15805870203E+03  0.15805870211E+03  0.50400001928E-02 0.  1.
    10030    2    1    2    0    0  0.00000000000E+00  0.00000000000E+00  0.45038614543E+03  0.76650354959E+03  0.62022577465E+03 0.  0.
        3    1    3    3  502    0  0.29395786087E+03 -0.19986432479E+02  0.10563296300E+03  0.31300002320E+03  0.10100000352E+00 0. -1.
       -3    1    3    3    0  502 -0.29395786087E+03  0.19986432479E+02  0.34475318244E+03  0.45350352639E+03  0.10100000352E+00 0.  1.
</event>
<event>
 5   0  0.1532571E-01  0.5993657E+03  0.7818609E-02  0.9906723E-01
        2   -1    0    0  501    0  0.00000000000E+00  0.00000000000E+00  0.11811430792E+04  0.11811430792E+04  0.25500000920E-02 0.  1.
       -2   -1    0    0    0  501  0.00000000000E+00  0.00000000000E+00 -0.76036363370E+02  0.76036363412E+02  0.25500000920E-02 0. -1.
    10030    2    1    2    0    0  0.00000000000E+00  0.00000000000E+00  0.11051067158E+04  0.12571794426E+04  0.59936574606E+03 0.  0.
        1    1    3    3  502    0 -0.25276791493E+03 -0.15904645839E+03  0.50022338907E+03  0.58258976453E+03  0.50400001928E-02 0.  1.
       -1    1    3    3    0  502  0.25276791493E+03  0.15904645839E+03  0.60488332672E+03  0.67458967804E+03  0.50400001928E-02 0. -1.
</event>
<event>
 5   0  0.9497860E-02  0.6427558E+03  0.7818609E-02  0.9820468E-01
       -1   -1    0    0    0  501  0.00000000000E+00  0.00000000000E+00  0.12178637639E+04  0.12178637639E+04  0.50400001928E-02 0.  1.
        1   -1    0    0  501    0  0.00000000000E+00  0.00000000000E+00 -0.84807324753E+02  0.84807324902E+02  0.50400001928E-02 0. -1.
    10030    2    1    2    0    0  0.00000000000E+00  0.00000000000E+00  0.11330564392E+04  0.13026710888E+04  0.64275584116E+03 0.  0.
        5    1    3    3  502    0  0.25040116047E+03  0.12674286229E+03  0.24931825566E+03  0.37542799164E+03  0.46999998093E+01 0. -1.
       -5    1    3    3    0  502 -0.25040116047E+03 -0.12674286229E+03  0.88373818351E+03  0.92724309719E+03  0.46999998093E+01 0.  1.
</event>
<event>
 5   0  0.1502642E-01  0.5894573E+03  0.7818609E-02  0.9927523E-01
       -2   -1    0    0    0  501  0.00000000000E+00  0.00000000000E+00  0.78372482279E+02  0.78372482320E+02  0.25500000920E-02 0. -1.
        2   -1    0    0  501    0  0.00000000000E+00  0.00000000000E+00 -0.11083607951E+04  0.11083607951E+04  0.25500000920E-02 0.  1.
    10030    2    1    2    0    0  0.00000000000E+00  0.00000000000E+00 -0.10299883128E+04  0.11867332774E+04  0.58945733280E+03 0.  0.
        2    1    3    3  502    0 -0.28268527912E+03 -0.82277415175E+02 -0.54233652960E+03  0.61709760283E+03  0.25500000920E-02 0. -1.
       -2    1    3    3    0  502  0.28268527912E+03  0.82277415175E+02 -0.48765178322E+03  0.56963567459E+03  0.25500000920E-02 0.  1.
</event>
<event>
 5   0  0.9411028E-02  0.5637301E+03  0.7818609E-02  0.9983650E-01
        1   -1    0    0  501    0  0.00000000000E+00  0.00000000000E+00  0.36835771553E+03  0.36835771557E+03  0.50400001928E-02 0. -1.
       -1   -1    0    0    0  501  0.00000000000E+00  0.00000000000E+00 -0.21568139002E+03  0.21568139007E+03  0.50400001928E-02 0.  1.
    10030    2    1    2    0    0  0.00000000000E+00  0.00000000000E+00  0.15267632552E+03  0.58403910564E+03  0.56373009193E+03 0.  0.
        4    1    3    3  502    0 -0.21751838124E+03 -0.17705687004E+03  0.10532671871E+03  0.29959758340E+03  0.12699999809E+01 0. -1.
       -4    1    3    3    0  502  0.21751838124E+03  0.17705687004E+03  0.47349606802E+02  0.28444152224E+03  0.12699999809E+01 0.  1.
</event>
<event>
 5   0  0.9497860E-02  0.5961266E+03  0.7818609E-02  0.9913475E-01
        1   -1    0    0  501    0  0.00000000000E+00  0.00000000000E+00  0.87127162700E+03  0.87127162702E+03  0.50400001928E-02 0.  1.
       -1   -1    0    0    0  501  0.00000000000E+00  0.00000000000E+00 -0.10196787526E+03  0.10196787538E+03  0.50400001928E-02 0. -1.
    10030    2    1    2    0    0  0.00000000000E+00  0.00000000000E+00  0.76930375175E+03  0.97323950240E+03  0.59612655249E+03 0.  0.
        5    1    3    3  502    0  0.28208652556E+03  0.46993894097E+00  0.54164196922E+03  0.61071363303E+03  0.46999998093E+01 0.  1.
       -5    1    3    3    0  502 -0.28208652556E+03 -0.46993894097E+00  0.22766178253E+03  0.36252586937E+03  0.46999998093E+01 0. -1.
</event>
<event>
 5   0  0.1532571E-01  0.5955180E+03  0.7818609E-02  0.9914749E-01
        2   -1    0    0  501    0  0.00000000000E+00  0.00000000000E+00  0.66875150679E+03  0.66875150680E+03  0.25500000920E-02 0. -1.
       -2   -1    0    0    0  501  0.00000000000E+00  0.00000000000E+00 -0.13257603760E+03  0.13257603763E+03  0.25500000920E-02 0.  1.
    10030    2    1    2    0    0  0.00000000000E+00  0.00000000000E+00  0.53617546919E+03  0.80132754442E+03  0.59551800954E+03 0.  0.
        1    1    3    3  502    0  0.28147287165E+03  0.44816894614E+01  0.13753452634E+03  0.31330944603E+03  0.50400001928E-02 0.  1.
       -1    1    3    3    0  502 -0.28147287165E+03 -0.44816894614E+01  0.39864094285E+03  0.48801809839E+03  0.50400001928E-02 0. -1.
</event>
<event>
 5   0  0.8860626E-02  0.5927158E+03  0.7818609E-02  0.9920635E-01
        1   -1    0    0  501    0  0.00000000000E+00  0.00000000000E+00  0.46303878056E+03  0.46303878058E+03  0.50400001928E-02 0.  1.
       -1   -1    0    0    0  501  0.00000000000E+00  0.00000000000E+00 -0.18967744302E+03  0.18967744309E+03  0.50400001928E-02 0. -1.
    10030    2    1    2    0    0  0.00000000000E+00  0.00000000000E+00  0.27336133753E+03  0.65271622367E+03  0.59271582380E+03 0.  0.
        3    1    3    3  502    0 -0.10259225709E+02 -0.12451339364E+03  0.43262097345E+03  0.45029962667E+03  0.10100000352E+00 0.  1.
       -3    1    3    3    0  502  0.10259225709E+02  0.12451339364E+03 -0.15925963592E+03  0.20241659700E+03  0.10100000352E+00 0. -1.
</event>
<event>
 5   0  0.1502642E-01  0.4959469E+03  0.7818609E-02  0.1014842E+00
        2   -1    0    0  501    0  0.00000000000E+00  0.00000000000E+00  0.55150820166E+03  0.55150820166E+03  0.25500000920E-02 0.  1.
       -2   -1    0    0    0  501  0.00000000000E+00  0.00000000000E+00 -0.11149577164E+03  0.11149577167E+03  0.25500000920E-02 0. -1.
    10030    2    1    2    0    0  0.00000000000E+00  0.00000000000E+00  0.44001243001E+03  0.66300397334E+03  0.49594690249E+03 0.  0.
        2    1    3    3  502    0 -0.20421452768E+03 -0.66669879164E+02  0.54418769150E+02  0.22160741988E+03  0.25500000920E-02 0. -1.
       -2    1    3    3    0  502  0.20421452768E+03  0.66669879164E+02  0.38559366086E+03  0.44139655346E+03  0.25500000920E-02 0.  1.
</event>
<event>
 5   0  0.1502642E-01  0.6151686E+03  0.7818609E-02  0.9874426E-01
        2   -1    0    0  501    0  0.00000000000E+00  0.00000000000E+00  0.17819487315E+03  0.17819487316E+03  0.25500000920E-02 0. -1.
       -2   -1    0    0    0  501  0.00000000000E+00  0.00000000000E+00 -0.53092488393E+03  0.53092488393E+03  0.25500000920E-02 0.  1.
    10030    2    1    2    0    0  0.00000000000E+00  0.00000000000E+00 -0.35273001078E+03  0.70911975710E+03  0.61516856990E+03 0.  0.
        2    1    3    3  502    0  0.25931402098E+03 -0.15273002364E+03 -0.10311601324E+03  0.31812439987E+03  0.25500000920E-02 0. -1.
       -2    1    3    3    0  502 -0.25931402098E+03  0.15273002364E+03 -0.24961399754E+03  0.39099535723E+03  0.25500000920E-02 0.  1.
</event>
<event>
 5   0  0.1483942E-01  0.5754333E+03  0.7818609E-02  0.9957727E-01
       -2   -1    0    0    0  501  0.00000000000E+00  0.00000000000E+00  0.79210399739E+02  0.79210399780E+02  0.25500000920E-02 0. -1.
        2   -1    0    0  501    0  0.00000000000E+00  0.00000000000E+00 -0.10450758522E+04  0.10450758522E+04  0.25500000920E-02 0.  1.
    10030    2    1    2    0    0  0.00000000000E+00  0.00000000000E+00 -0.96586545248E+03  0.11242862520E+04  0.57543331859E+03 0.  0.
        4    1    3    3  502    0 -0.68042163798E+02 -0.25251596351E+03 -0.24859615141E+03  0.36082642265E+03  0.12699999809E+01 0. -1.
       -4    1    3    3    0  502  0.68042163798E+02  0.25251596351E+03 -0.71726930108E+03  0.76345982936E+03  0.12699999809E+01 0.  1.
</event>
<event>
 5   0  0.1513339E-01  0.5898283E+03  0.7818609E-02  0.9926737E-01
        2   -1    0    0  501    0  0.00000000000E+00  0.00000000000E+00  0.11388960288E+04  0.11388960288E+04  0.25500000920E-02 0. -1.
       -2   -1    0    0    0  501  0.00000000000E+00  0.00000000000E+00 -0.76367250870E+02  0.76367250913E+02  0.25500000920E-02 0.  1.
    10030    2    1    2    0    0  0.00000000000E+00  0.00000000000E+00  0.10625287780E+04  0.12152632798E+04  0.58982830986E+03 0.  0.
        3    1    3    3  502    0  0.16854477671E+01 -0.15127738841E+03  0.10528535763E+04  0.10636674068E+04  0.10100000352E+00 0. -1.
       -3    1    3    3    0  502 -0.16854477671E+01  0.15127738841E+03  0.96752017090E+01  0.15159587299E+03  0.10100000352E+00 0.  1.
</event>
<event>
 5   0  0.1532571E-01  0.5978153E+03  0.7818609E-02  0.9909949E-01
       -2   -1    0    0    0  501  0.00000000000E+00  0.00000000000E+00  0.84392143953E+02  0.84392143992E+02  0.25500000920E-02 0. -1.
        2   -1    0    0  501    0  0.00000000000E+00  0.00000000000E+00 -0.10586977534E+04  0.10586977534E+04  0.25500000920E-02 0.  1.
    10030    2    1    2    0    0  0.00000000000E+00  0.00000000000E+00 -0.97430560944E+03  0.11430898974E+04  0.59781526655E+03 0.  0.
        1    1    3    3  502    0  0.20616260630E+03  0.20565775409E+03 -0.61609839031E+03  0.68145092166E+03  0.50400001928E-02 0.  1.
       -1    1    3    3    0  502 -0.20616260630E+03 -0.20565775409E+03 -0.35820721913E+03  0.46163897573E+03  0.50400001928E-02 0. -1.
</event>
<event>
 5   0  0.1488510E-01  0.6076826E+03  0.7818609E-02  0.9889594E-01
        2   -1    0    0  501    0  0.00000000000E+00  0.00000000000E+00  0.12978361377E+03  0.12978361379E+03  0.25500000920E-02 0.  1.
       -2   -1    0    0    0  501  0.00000000000E+00  0.00000000000E+00 -0.71133439296E+03  0.71133439297E+03  0.25500000920E-02 0. -1.
    10030    2    1    2    0    0  0.00000000000E+00  0.00000000000E+00 -0.58155077919E+03  0.84111800676E+03  0.60768264128E+03 0.  0.
        5    1    3    3  502    0 -0.19633677958E+03 -0.16202884724E+03 -0.61258473620E+02  0.26187051942E+03  0.46999998093E+01 0.  1.
       -5    1    3    3    0  502  0.19633677958E+03  0.16202884724E+03 -0.52029230557E+03  0.57924748734E+03  0.46999998093E+01 0. -1.
</event>
<event>
 5   0  0.9420349E-02  0.5959878E+03  0.7818609E-02  0.9913765E-01
        1   -1    0    0  501    0  0.00000000000E+00  0.00000000000E+00  0.29029526454E+03  0.29029526459E+03  0.50400001928E-02 0. -1.
       -1   -1    0    0    0  501  0.00000000000E+00  0.00000000000E+00 -0.30589668166E+03  0.30589668170E+03  0.50400001928E-02 0.  1.
    10030    2    1    2    0    0  0.00000000000E+00  0.00000000000E+00 -0.15601417120E+02  0.59619194629E+03  0.59598777891E+03 0.  0.
        2    1    3    3  502    0 -0.13528498194E+03 -0.42419406458E+02 -0.26999529693E+03  0.30495719824E+03  0.25500000920E-02 0.  1.
       -2    1    3    3    0  502  0.13528498194E+03  0.42419406458E+02  0.25439387981E+03  0.29123474806E+03  0.25500000920E-02 0. -1.
</event>
<event>
 5   0  0.8860626E-02  0.6408461E+03  0.7818609E-02  0.9824109E-01
        1   -1    0    0  501    0  0.00000000000E+00  0.00000000000E+00  0.18309229119E+04  0.18309229119E+04  0.50400001928E-02 0.  1.
       -1   -1    0    0    0  501  0.00000000000E+00  0.00000000000E+00 -0.56076055804E+02  0.56076056030E+02  0.50400001928E-02 0. -1.
    10030    2    1    2    0    0  0.00000000000E+00  0.00000000000E+00  0.17748468561E+04  0.18869989679E+04  0.64084611444E+03 0.  0.
        3    1    3    3  502    0 -0.27357422883E+03 -0.14246785844E+03  0.63189246024E+03  0.70315577284E+03  0.10100000352E+00 0. -1.
       -3    1    3    3    0  502  0.27357422883E+03  0.14246785844E+03  0.11429543958E+04  0.11838431951E+04  0.10100000352E+00 0.  1.
</event>
<event>
 5   0  0.1483942E-01  0.6104829E+03  0.7818609E-02  0.9883893E-01
       -2   -1    0    0    0  501  0.00000000000E+00  0.00000000000E+00  0.12282099937E+03  0.12282099940E+03  0.25500000920E-02 0. -1.
        2   -1    0    0  501    0  0.00000000000E+00  0.00000000000E+00 -0.75860273055E+03  0.75860273055E+03  0.25500000920E-02 0.  1.
    10030    2    1    2    0    0  0.00000000000E+00  0.00000000000E+00 -0.63578173117E+03  0.88142372995E+03  0.61048290887E+03 0.  0.
        4    1    3    3  502    0 -0.14889886055E+03  0.64003969194E+02  0.55561464395E+02  0.17133612570E+03  0.12699999809E+01 0. -1.
       -4    1    3    3    0  502  0.14889886055E+03 -0.64003969194E+02 -0.69134319557E+03  0.71008760425E+03  0.12699999809E+01 0.  1.
</event>
<event>
 5   0  0.1502642E-01  0.7450649E+03  0.7818609E-02  0.9643125E-01
        2   -1    0    0  501    0  0.00000000000E+00  0.00000000000E+00  0.97647236380E+03  0.97647236380E+03  0.25500000920E-02 0.  1.
       -2   -1    0    0    0  501  0.00000000000E+00  0.00000000000E+00 -0.14212427613E+03  0.14212427615E+03  0.25500000920E-02 0. -1.
    10030    2    1    2    0    0  0.00000000000E+00  0.00000000000E+00  0.83434808767E+03  0.11185966400E+04  0.74506490424E+03 0.  0.
        2    1    3    3  502    0 -0.35794628667E+03  0.78341443423E+02  0.31626535124E+03  0.48403171208E+03  0.25500000920E-02 0. -1.
       -2    1    3    3    0  502  0.35794628667E+03 -0.78341443423E+02  0.51808273643E+03  0.63456492788E+03  0.25500000920E-02 0.  1.
</event>
<event>
 5   0  0.9497860E-02  0.6358311E+03  0.7818609E-02  0.9833735E-01
       -1   -1    0    0    0  501  0.00000000000E+00  0.00000000000E+00  0.15754321515E+03  0.15754321523E+03  0.50400001928E-02 0. -1.
        1   -1    0    0  501    0  0.00000000000E+00  0.00000000000E+00 -0.64154012689E+03  0.64154012691E+03  0.50400001928E-02 0.  1.
    10030    2    1    2    0    0  0.00000000000E+00  0.00000000000E+00 -0.48399691175E+03  0.79908334214E+03  0.63583109165E+03 0.  0.
        5    1    3    3  502    0 -0.99543189629E+02  0.27816577335E+03 -0.94560466655E+02  0.31023993282E+03  0.46999998093E+01 0. -1.
       -5    1    3    3    0  502  0.99543189629E+02 -0.27816577335E+03 -0.38943644509E+03  0.48884340932E+03  0.46999998093E+01 0.  1.
</event>
<event>
 5   0  0.9420349E-02  0.6283707E+03  0.7818609E-02  0.9848233E-01
       -1   -1    0    0    0  501  0.00000000000E+00  0.00000000000E+00  0.14755825234E+03  0.14755825243E+03  0.50400001928E-02 0. -1.
        1   -1    0    0  501    0  0.00000000000E+00  0.00000000000E+00 -0.66897262881E+03  0.66897262883E+03  0.50400001928E-02 0.  1.
    10030    2    1    2    0    0  0.00000000000E+00  0.00000000000E+00 -0.52141437647E+03  0.81653088126E+03  0.62837069319E+03 0.  0.
        2    1    3    3  502    0 -0.24897040914E+03 -0.90501351858E+02 -0.48021538914E+03  0.54843739779E+03  0.25500000920E-02 0. -1.
       -2    1    3    3    0  502  0.24897040914E+03  0.90501351858E+02 -0.41198987330E+02  0.26809348347E+03  0.25500000920E-02 0.  1.
</event>
<event>
 5   0  0.1488510E-01  0.5579873E+03  0.7818609E-02  0.9996619E-01
        2   -1    0    0  501    0  0.00000000000E+00  0.00000000000E+00  0.13685299905E+04  0.13685299905E+04  0.25500000920E-02 0.  1.
       -2   -1    0    0    0  501  0.00000000000E+00  0.00000000000E+00 -0.56876689594E+02  0.56876689651E+02  0.25500000920E-02 0. -1.
    10030    2    1    2    0    0  0.00000000000E+00  0.00000000000E+00  0.13116533009E+04  0.14254066801E+04  0.55798729559E+03 0.  0.
        5    1    3    3  502    0  0.14466463851E+03  0.11214313880E+03  0.11935666392E+04  0.12075294420E+04  0.46999998093E+01 0.  1.
       -5    1    3    3    0  502 -0.14466463851E+03 -0.11214313880E+03  0.11808666172E+03  0.21787723811E+03  0.46999998093E+01 0. -1.
</event>
<event>
 5   0  0.6170500E-02  0.6145829E+03  0.7818609E-02  0.9875605E-01
        4   -1    0    0  501    0  0.00000000000E+00  0.00000000000E+00  0.36429252039E+03  0.36429473412E+03  0.12699999809E+01 0. -1.
       -4   -1    0    0    0  501  0.00000000000E+00  0.00000000000E+00 -0.25920480165E+03  0.25920791288E+03  0.12699999809E+01 0.  1.
    10030    2    1    2    0    0  0.00000000000E+00  0.00000000000E+00  0.10508771874E+03  0.62350264700E+03  0.61458288472E+03 0.  0.
        3    1    3    3  502    0 -0.30514567094E+03  0.20415014814E+02  0.22153006128E+02  0.30662912321E+03  0.10100000352E+00 0. -1.
       -3    1    3    3    0  502  0.30514567094E+03 -0.20415014814E+02  0.82934712609E+02  0.31687352379E+03  0.10100000352E+00 0.  1.
</event>
<event>
 5   0  0.9177281E-02  0.5924128E+03  0.7818609E-02  0.9921273E-01
       -1   -1    0    0    0  501  0.00000000000E+00  0.00000000000E+00  0.95829202111E+02  0.95829202243E+02  0.50400001928E-02 0.  1.
        1   -1    0    0  501    0  0.00000000000E+00  0.00000000000E+00 -0.91556872812E+03  0.91556872813E+03  0.50400001928E-02 0. -1.
    10030    2    1    2    0    0  0.00000000000E+00  0.00000000000E+00 -0.81973952601E+03  0.10113979304E+04  0.59241276410E+03 0.  0.
        1    1    3    3  502    0 -0.19629593511E+03 -0.92882007903E+01 -0.31491485773E+02  0.19902280903E+03  0.50400001928E-02 0.  1.
       -1    1    3    3    0  502  0.19629593511E+03  0.92882007903E+01 -0.78824804023E+03  0.81237512134E+03  0.50400001928E-02 0. -1.
</event>
<event>
 5   0  0.9411028E-02  0.6010501E+03  0.7818609E-02  0.9903230E-01
        1   -1    0    0  501    0  0.00000000000E+00  0.00000000000E+00  0.33022512942E+03  0.33022512946E+03  0.50400001928E-02 0.  1.
       -1   -1    0    0    0  501  0.00000000000E+00  0.00000000000E+00 -0.27349612522E+03  0.27349612527E+03  0.50400001928E-02 0. -1.
    10030    2    1    2    0    0  0.00000000000E+00  0.00000000000E+00  0.56729004197E+02  0.60372125472E+03  0.60105005905E+03 0.  0.
        4    1    3    3  502    0 -0.55903388801E+02 -0.29111214864E+03 -0.21273831292E+02  0.29719633370E+03  0.12699999809E+01 0. -1.
       -4    1    3    3    0  502  0.55903388801E+02  0.29111214864E+03  0.78002835489E+02  0.30652492102E+03  0.12699999809E+01 0.  1.
</event>
<event>
 5   0  0.1532571E-01  0.5893010E+03  0.7818609E-02  0.9927855E-01
       -2   -1    0    0    0  501  0.00000000000E+00  0.00000000000E+00  0.16369677944E+03  0.16369677946E+03  0.25500000920E-02 0.  1.
        2   -1    0    0  501    0  0.00000000000E+00  0.00000000000E+00 -0.53036428967E+03  0.53036428968E+03  0.25500000920E-02 0. -1.
    10030    2    1    2    0    0  0.00000000000E+00  0.00000000000E+00 -0.36666751024E+03  0.69406106914E+03  0.58930103057E+03 0.  0.
        1    1    3    3  502    0 -0.19037508568E+03  0.18898108505E+03 -0.39750104267E+02  0.27117631639E+03  0.50400001928E-02 0.  1.
       -1    1    3    3    0  502  0.19037508568E+03 -0.18898108505E+03 -0.32691740597E+03  0.42288475275E+03  0.50400001928E-02 0. -1.
</event>
<event>
 5   0  0.9497860E-02  0.6514981E+03  0.7818609E-02  0.9803972E-01
       -1   -1    0    0    0  501  0.00000000000E+00  0.00000000000E+00  0.98019602281E+02  0.98019602411E+02  0.50400001928E-02 0.  1.
        1   -1    0    0  501    0  0.00000000000E+00  0.00000000000E+00 -0.10825635026E+04  0.10825635026E+04  0.50400001928E-02 0. -1.
    10030    2    1    2    0    0  0.00000000000E+00  0.00000000000E+00 -0.98454390034E+03  0.11805831050E+04  0.65149810147E+03 0.  0.
        5    1    3    3  502    0  0.18553293132E+03  0.11497655363E+02 -0.76034522207E+01  0.18610364630E+03  0.46999998093E+01 0.  1.
       -5    1    3    3    0  502 -0.18553293132E+03 -0.11497655363E+02 -0.97694044812E+03  0.99447945874E+03  0.46999998093E+01 0. -1.
</event>
<event>
 5   0  0.1513339E-01  0.6053690E+03  0.7818609E-02  0.9894329E-01
       -2   -1    0    0    0  501  0.00000000000E+00  0.00000000000E+00  0.27040444554E+03  0.27040444555E+03  0.25500000920E-02 0. -1.
        2   -1    0    0  501    0  0.00000000000E+00  0.00000000000E+00 -0.33881800808E+03  0.33881800809E+03  0.25500000920E-02 0.  1.
    10030    2    1    2    0    0  0.00000000000E+00  0.00000000000E+00 -0.68413562534E+02  0.60922245364E+03  0.60536896392E+03 0.  0.
        3    1    3    3  502    0 -0.14986494948E+03  0.25260553465E+03 -0.10780799783E+03  0.31287638744E+03  0.10100000352E+00 0.  1.
       -3    1    3    3    0  502  0.14986494948E+03 -0.25260553465E+03  0.39394435296E+02  0.29634606620E+03  0.10100000352E+00 0. -1.
</event>
<event>
 5   0  0.1488510E-01  0.6134051E+03  0.7818609E-02  0.9877979E-01
        2   -1    0    0  501    0  0.00000000000E+00  0.00000000000E+00  0.10912085608E+04  0.10912085608E+04  0.25500000920E-02 0. -1.
       -2   -1    0    0    0  501  0.00000000000E+00  0.00000000000E+00 -0.86203911089E+02  0.86203911126E+02  0.25500000920E-02 0.  1.
    10030    2    1    2    0    0  0.00000000000E+00  0.00000000000E+00  0.10050046497E+04  0.11774124719E+04  0.61340507261E+03 0.  0.
        5    1    3    3  502    0 -0.60178230518E+02  0.10323861223E+03  0.10446114350E+04  0.10514346250E+04  0.46999998093E+01 0. -1.
       -5    1    3    3    0  502  0.60178230518E+02 -0.10323861223E+03 -0.39606785287E+02  0.12597784695E+03  0.46999998093E+01 0.  1.
</event>
<event>
 5   0  0.1483942E-01  0.5676367E+03  0.7818609E-02  0.9974922E-01
        2   -1    0    0  501    0  0.00000000000E+00  0.00000000000E+00  0.55578315385E+03  0.55578315386E+03  0.25500000920E-02 0. -1.
       -2   -1    0    0    0  501  0.00000000000E+00  0.00000000000E+00 -0.14493574271E+03  0.14493574273E+03  0.25500000920E-02 0.  1.
    10030    2    1    2    0    0  0.00000000000E+00  0.00000000000E+00  0.41084741114E+03  0.70071889659E+03  0.56763665914E+03 0.  0.
        4    1    3    3  502    0  0.23874028577E+03 -0.15134146669E+03  0.23689776000E+03  0.36881340157E+03  0.12699999809E+01 0.  1.
       -4    1    3    3    0  502 -0.23874028577E+03  0.15134146669E+03  0.17394965114E+03  0.33190549502E+03  0.12699999809E+01 0. -1.
</event>
<event>
 5   0  0.1532571E-01  0.5880600E+03  0.7818609E-02  0.9930492E-01
        2   -1    0    0  501    0  0.00000000000E+00  0.00000000000E+00  0.17099710961E+04  0.17099710961E+04  0.25500000920E-02 0. -1.
       -2   -1    0    0    0  501  0.00000000000E+00  0.00000000000E+00 -0.50558544014E+02  0.50558544078E+02  0.25500000920E-02 0.  1.
    10030    2    1    2    0    0  0.00000000000E+00  0.00000000000E+00  0.16594125521E+04  0.17605296402E+04  0.58806002750E+03 0.  0.
        1    1    3    3  502    0 -0.81157970362E+02  0.25488548923E+03  0.11951503629E+04  0.12247194041E+04  0.50400001928E-02 0. -1.
       -1    1    3    3    0  502  0.81157970362E+02 -0.25488548923E+03  0.46426218919E+03  0.53581023610E+03  0.50400001928E-02 0.  1.
</event>
<event>
 5   0  0.9420349E-02  0.6163145E+03  0.7818609E-02  0.9872125E-01
       -1   -1    0    0    0  501  0.00000000000E+00  0.00000000000E+00  0.33360553734E+03  0.33360553738E+03  0.50400001928E-02 0. -1.
        1   -1    0    0  501    0  0.00000000000E+00  0.00000000000E+00 -0.28465018845E+03  0.28465018850E+03  0.50400001928E-02 0.  1.
    10030    2    1    2    0    0  0.00000000000E+00  0.00000000000E+00  0.48955348890E+02  0.61825572588E+03  0.61631446226E+03 0.  0.
        2    1    3    3  502    0  0.25313488137E+03 -0.12736646487E+03 -0.96987961664E+02  0.29950984835E+03  0.25500000920E-02 0.  1.
       -2    1    3    3    0  502 -0.25313488137E+03  0.12736646487E+03  0.14594331055E+03  0.31874587753E+03  0.25500000920E-02 0. -1.
</event>
<event>
 5   0  0.8860626E-02  0.5953276E+03  0.7818609E-02  0.9915148E-01
        1   -1    0    0  501    0  0.00000000000E+00  0.00000000000E+00  0.32627878703E+03  0.32627878707E+03  0.50400001928E-02 0.  1.
       -1   -1    0    0    0  501  0.00000000000E+00  0.00000000000E+00 -0.27155833294E+03  0.27155833298E+03  0.50400001928E-02 0. -1.
    10030    2    1    2    0    0  0.00000000000E+00  0.00000000000E+00  0.54720454095E+02  0.59783712006E+03  0.59532755187E+03 0.  0.
        3    1    3    3  502    0 -0.12043938710E+02 -0.98724050662E+02  0.30909987780E+03  0.32470638937E+03  0.10100000352E+00 0.  1.
       -3    1    3    3    0  502  0.12043938710E+02  0.98724050662E+02 -0.25437942371E+03  0.27313073069E+03  0.10100000352E+00 0. -1.
</event>
<event>
 5   0  0.6170500E-02  0.5948452E+03  0.7818609E-02  0.9916159E-01
       -3   -1    0    0    0  501  0.00000000000E+00  0.00000000000E+00  0.21568358400E+03  0.21568360765E+03  0.10100000352E+00 0. -1.
        3   -1    0    0  501    0  0.00000000000E+00  0.00000000000E+00 -0.41013879315E+03  0.41013880558E+03  0.10100000352E+00 0.  1.
    10030    2    1    2    0    0  0.00000000000E+00  0.00000000000E+00 -0.19445520914E+03  0.62582241323E+03  0.59484524420E+03 0.  0.
        2    1    3    3  502    0 -0.20206384639E+03 -0.18719167688E+03  0.20819328998E+02  0.27623172587E+03  0.25500000920E-02 0. -1.
       -2    1    3    3    0  502  0.20206384639E+03  0.18719167688E+03 -0.21527453814E+03  0.34959068736E+03  0.25500000920E-02 0.  1.
</event>
<event>
 5   0  0.1513339E-01  0.3589877E+03  0.7818609E-02  0.1058985E+00
        2   -1    0    0  501    0  0.00000000000E+00  0.00000000000E+00  0.13000978259E+04  0.13000978259E+04  0.25500000920E-02 0.  1.
       -2   -1    0    0    0  501  0.00000000000E+00  0.00000000000E+00 -0.24781245365E+02  0.24781245496E+02  0.25500000920E-02 0. -1.
    10030    2    1    2    0    0  0.00000000000E+00  0.00000000000E+00  0.12753165805E+04  0.13248790714E+04  0.35898770625E+03 0.  0.
        3    1    3    3  502    0  0.25724718953E+01  0.16531052129E+03  0.89557393756E+03  0.91070679908E+03  0.10100000352E+00 0. -1.
       -3    1    3    3    0  502 -0.25724718953E+01 -0.16531052129E+03  0.37974264297E+03  0.41417227231E+03  0.10100000352E+00 0.  1.
</event>
<event>
 5   0  0.1513339E-01  0.4572475E+03  0.7818609E-02  0.1025583E+00
       -2   -1    0    0    0  501  0.00000000000E+00  0.00000000000E+00  0.41599812849E+03  0.41599812849E+03  0.25500000920E-02 0.  1.
        2   -1    0    0  501    0  0.00000000000E+00  0.00000000000E+00 -0.12564674647E+03  0.12564674649E+03  0.25500000920E-02 0. -1.
    10030    2    1    2    0    0  0.00000000000E+00  0.00000000000E+00  0.29035138202E+03  0.54164487499E+03  0.45724746644E+03 0.  0.
        3    1    3    3  502    0 -0.90631320663E+02 -0.15848325837E+03  0.30819098156E+03  0.35820758058E+03  0.10100000352E+00 0.  1.
       -3    1    3    3    0  502  0.90631320663E+02  0.15848325837E+03 -0.17839599543E+02  0.18343729441E+03  0.10100000352E+00 0. -1.
</event>
<event>
 5   0  0.9420349E-02  0.5857245E+03  0.7818609E-02  0.9935474E-01
        1   -1    0    0  501    0  0.00000000000E+00  0.00000000000E+00  0.65846344269E+03  0.65846344271E+03  0.50400001928E-02 0.  1.
       -1   -1    0    0    0  501  0.00000000000E+00  0.00000000000E+00 -0.13025520174E+03  0.13025520184E+03  0.50400001928E-02 0. -1.
    10030    2    1    2    0    0  0.00000000000E+00  0.00000000000E+00  0.52820824095E+03  0.78871864455E+03  0.58572446974E+03 0.  0.
        2    1    3    3  502    0  0.20402298159E+02  0.42533534864E+02 -0.12510552917E+03  0.13370395953E+03  0.25500000920E-02 0. -1.
       -2    1    3    3    0  502 -0.20402298159E+02 -0.42533534864E+02  0.65331377012E+03  0.65501468502E+03  0.25500000920E-02 0.  1.
</event>
<event>
 5   0  0.9177281E-02  0.6468975E+03  0.7818609E-02  0.9812618E-01
       -1   -1    0    0    0  501  0.00000000000E+00  0.00000000000E+00  0.86859233505E+02  0.86859233651E+02  0.50400001928E-02 0.  1.
        1   -1    0    0  501    0  0.00000000000E+00  0.00000000000E+00 -0.12044673298E+04  0.12044673298E+04  0.50400001928E-02 0. -1.
    10030    2    1    2    0    0  0.00000000000E+00  0.00000000000E+00 -0.11176080963E+04  0.12913265634E+04  0.64689754721E+03 0.  0.
        1    1    3    3  502    0 -0.24144329198E+03  0.10387173199E+03 -0.93509882074E+03  0.97133619542E+03  0.50400001928E-02 0. -1.
       -1    1    3    3    0  502  0.24144329198E+03 -0.10387173199E+03 -0.18250927554E+03  0.31999036803E+03  0.50400001928E-02 0.  1.
</event>
<event>
 5   0  0.1488510E-01  0.5901518E+03  0.7818609E-02  0.9926051E-01
        2   -1    0    0  501    0  0.00000000000E+00  0.00000000000E+00  0.25683392381E+04  0.25683392381E+04  0.25500000920E-02 0.  1.
       -2   -1    0    0    0  501  0.00000000000E+00  0.00000000000E+00 -0.33901196290E+02  0.33901196386E+02  0.25500000920E-02 0. -1.
    10030    2    1    2    0    0  0.00000000000E+00  0.00000000000E+00  0.25344380418E+04  0.26022404345E+04  0.59015175261E+03 0.  0.
        5    1    3    3  502    0 -0.19685169707E+03 -0.49414307225E+02  0.32298732182E+03  0.38149084452E+03  0.46999998093E+01 0. -1.
       -5    1    3    3    0  502  0.19685169707E+03  0.49414307225E+02  0.22114507200E+04  0.22207495900E+04  0.46999998093E+01 0.  1.
</event>
<event>
 5   0  0.6170500E-02  0.6215875E+03  0.7818609E-02  0.9861604E-01
       -3   -1    0    0    0  501  0.00000000000E+00  0.00000000000E+00  0.13400456492E+03  0.13400460298E+03  0.10100000352E+00 0.  1.
        3   -1    0    0  501    0  0.00000000000E+00  0.00000000000E+00 -0.72081667997E+03  0.72081668705E+03  0.10100000352E+00 0. -1.
    10030    2    1    2    0    0  0.00000000000E+00  0.00000000000E+00 -0.58681211506E+03  0.85482129003E+03  0.62158746731E+03 0.  0.
        3    1    3    3  502    0  0.58421900994E+02  0.11355239570E+03  0.96259083958E+02  0.15991587329E+03  0.10100000352E+00 0.  1.
       -3    1    3    3    0  502 -0.58421900994E+02 -0.11355239570E+03 -0.68307119902E+03  0.69490541674E+03  0.10100000352E+00 0. -1.
</event>
<event>
 5   0  0.9411028E-02  0.6017400E+03  0.7818609E-02  0.9901803E-01
        1   -1    0    0  501    0  0.00000000000E+00  0.00000000000E+00  0.14906963305E+03  0.14906963314E+03  0.50400001928E-02 0.  1.
       -1   -1    0    0    0  501  0.00000000000E+00  0.00000000000E+00 -0.60725144343E+03  0.60725144345E+03  0.50400001928E-02 0. -1.
    10030    2    1    2    0    0  0.00000000000E+00  0.00000000000E+00 -0.45818181038E+03  0.75632107659E+03  0.60173997667E+03 0.  0.
        4    1    3    3  502    0 -0.28435847196E+03 -0.37687528341E+02 -0.11499014875E+03  0.30903792256E+03  0.12699999809E+01 0.  1.
       -4    1    3    3    0  502  0.28435847196E+03  0.37687528341E+02 -0.34319166163E+03  0.44728315403E+03  0.12699999809E+01 0. -1.
</event>
<event>
 5   0  0.9411028E-02  0.5933675E+03  0.7818609E-02  0.9919263E-01
       -1   -1    0    0    0  501  0.00000000000E+00  0.00000000000E+00  0.43089625008E+03  0.43089625011E+03  0.50400001928E-02 0.  1.
        1   -1    0    0  501    0  0.00000000000E+00  0.00000000000E+00 -0.20427478146E+03  0.20427478153E+03  0.50400001928E-02 0. -1.
    10030    2    1    2    0    0  0.00000000000E+00  0.00000000000E+00  0.22662146862E+03  0.63517103163E+03  0.59336746573E+03 0.  0.
        4    1    3    3  502    0  0.19112373182E+03  0.10795565893E+03  0.32696414269E+03  0.39381451048E+03  0.12699999809E+01 0.  1.
       -4    1    3    3    0  502 -0.19112373182E+03 -0.10795565893E+03 -0.10034267407E+03  0.24135652115E+03  0.12699999809E+01 0. -1.
</event>
<event>
 5   0  0.1483942E-01  0.4062639E+03  0.7818609E-02  0.1041632E+00
       -2   -1    0    0    0  501  0.00000000000E+00  0.00000000000E+00  0.13208222320E+03  0.13208222323E+03  0.25500000920E-02 0.  1.
        2   -1    0    0  501    0  0.00000000000E+00  0.00000000000E+00 -0.31240079903E+03  0.31240079904E+03  0.25500000920E-02 0. -1.
    10030    2    1    2    0    0  0.00000000000E+00  0.00000000000E+00 -0.18031857583E+03  0.44448302227E+03  0.40626391459E+03 0.  0.
        4    1    3    3  502    0 -0.10910571748E+03  0.91177307561E+02  0.68551758617E+02  0.15785536263E+03  0.12699999809E+01 0.  1.
       -4    1    3    3    0  502  0.10910571748E+03 -0.91177307561E+02 -0.24887033445E+03  0.28662765964E+03  0.12699999809E+01 0. -1.
</event>
<event>
 5   0  0.9177281E-02  0.3803391E+03  0.7818609E-02  0.1050809E+00
       -1   -1    0    0    0  501  0.00000000000E+00  0.00000000000E+00  0.13384502901E+03  0.13384502911E+03  0.50400001928E-02 0.  1.
        1   -1    0    0  501    0  0.00000000000E+00  0.00000000000E+00 -0.27019646701E+03  0.27019646706E+03  0.50400001928E-02 0. -1.
    10030    2    1    2    0    0  0.00000000000E+00  0.00000000000E+00 -0.13635143800E+03  0.40404149616E+03  0.38033908027E+03 0.  0.
        1    1    3    3  502    0  0.24874625889E+02  0.62768764893E+02 -0.25703500247E+03  0.26575488214E+03  0.50400001928E-02 0. -1.
       -1    1    3    3    0  502 -0.24874625889E+02 -0.62768764893E+02  0.12068356447E+03  0.13828661403E+03  0.50400001928E-02 0.  1.
</event>
<event>
 5   0  0.9177281E-02  0.6071635E+03  0.7818609E-02  0.9890654E-01
        1   -1    0    0  501    0  0.00000000000E+00  0.00000000000E+00  0.29398760702E+03  0.29398760706E+03  0.50400001928E-02 0.  1.
       -1   -1    0    0    0  501  0.00000000000E+00  0.00000000000E+00 -0.31348901775E+03  0.31348901779E+03  0.50400001928E-02 0. -1.
    10030    2    1    2    0    0  0.00000000000E+00  0.00000000000E+00 -0.19501410726E+02  0.60747662485E+03  0.60716352387E+03 0.  0.
        1    1    3    3  502    0  0.69496943654E+02 -0.28532925495E+03 -0.86727219331E+02  0.30620943733E+03  0.50400001928E-02 0. -1.
       -1    1    3    3    0  502 -0.69496943654E+02  0.28532925495E+03  0.67225808605E+02  0.30126718752E+03  0.50400001928E-02 0.  1.
</event>
<event>
 5   0  0.9177281E-02  0.6128336E+03  0.7818609E-02  0.9879132E-01
        1   -1    0    0  501    0  0.00000000000E+00  0.00000000000E+00  0.72818449133E+03  0.72818449134E+03  0.50400001928E-02 0.  1.
       -1   -1    0    0    0  501  0.00000000000E+00  0.00000000000E+00 -0.12893881243E+03  0.12893881253E+03  0.50400001928E-02 0. -1.
    10030    2    1    2    0    0  0.00000000000E+00  0.00000000000E+00  0.59924567889E+03  0.85712330388E+03  0.61283356173E+03 0.  0.
        1    1    3    3  502    0 -0.30156337351E+03  0.53670281842E+02  0.31134762224E+03  0.43675886859E+03  0.50400001928E-02 0.  1.
       -1    1    3    3    0  502  0.30156337351E+03 -0.53670281842E+02  0.28789805665E+03  0.42036443528E+03  0.50400001928E-02 0. -1.
</event>
<event>
 5   0  0.9497860E-02  0.6211531E+03  0.7818609E-02  0.9862467E-01
       -1   -1    0    0    0  501  0.00000000000E+00  0.00000000000E+00  0.19464195349E+03  0.19464195356E+03  0.50400001928E-02 0. -1.
        1   -1    0    0  501    0  0.00000000000E+00  0.00000000000E+00 -0.49556525672E+03  0.49556525675E+03  0.50400001928E-02 0.  1.
    10030    2    1    2    0    0  0.00000000000E+00  0.00000000000E+00 -0.30092330323E+03  0.69020721031E+03  0.62115308800E+03 0.  0.
        5    1    3    3  502    0  0.21935274041E+03  0.99121688067E+02 -0.36847486338E+03  0.44015514163E+03  0.46999998093E+01 0.  1.
       -5    1    3    3    0  502 -0.21935274041E+03 -0.99121688067E+02  0.67551560150E+02  0.25005206867E+03  0.46999998093E+01 0. -1.
</event>
<event>
 5   0  0.8860626E-02  0.6114249E+03  0.7818609E-02  0.9881982E-01
        1   -1    0    0  501    0  0.00000000000E+00  0.00000000000E+00  0.16665002175E+04  0.16665002175E+04  0.50400001928E-02 0. -1.
       -1   -1    0    0    0  501  0.00000000000E+00  0.00000000000E+00 -0.56081670743E+02  0.56081670969E+02  0.50400001928E-02 0.  1.
    10030    2    1    2    0    0  0.00000000000E+00  0.00000000000E+00  0.16104185468E+04  0.17225818885E+04  0.61142494778E+03 0.  0.
        3    1    3    3  502    0 -0.94854236674E+02  0.97281414327E+00  0.16239888006E+04  0.16267568679E+04  0.10100000352E+00 0. -1.
       -3    1    3    3    0  502  0.94854236674E+02 -0.97281414327E+00 -0.13570253824E+02  0.95825020596E+02  0.10100000352E+00 0.  1.
</event>
<event>
 5   0  0.9420349E-02  0.7053605E+03  0.7818609E-02  0.9708109E-01
       -1   -1    0    0    0  501  0.00000000000E+00  0.00000000000E+00  0.14993802644E+03  0.14993802652E+03  0.50400001928E-02 0. -1.
        1   -1    0    0  501    0  0.00000000000E+00  0.00000000000E+00 -0.82956518085E+03  0.82956518087E+03  0.50400001928E-02 0.  1.
    10030    2    1    2    0    0  0.00000000000E+00  0.00000000000E+00 -0.67962715441E+03  0.97950320739E+03  0.70536052078E+03 0.  0.
        2    1    3    3  502    0 -0.19423680679E+03 -0.10561124721E+02  0.68706047301E+02  0.20630074021E+03  0.25500000920E-02 0.  1.
       -2    1    3    3    0  502  0.19423680679E+03  0.10561124721E+02 -0.74833320171E+03  0.77320246719E+03  0.25500000920E-02 0. -1.
</event>
<event>
 5   0  0.9420349E-02  0.5726629E+03  0.7818609E-02  0.9963803E-01
        1   -1    0    0  501    0  0.00000000000E+00  0.00000000000E+00  0.26540254274E+03  0.26540254279E+03  0.50400001928E-02 0.  1.
       -1   -1    0    0    0  501  0.00000000000E+00  0.00000000000E+00 -0.30891080613E+03  0.30891080617E+03  0.50400001928E-02 0. -1.
    10030    2    1    2    0    0  0.00000000000E+00  0.00000000000E+00 -0.43508263385E+02  0.57431334896E+03  0.57266294957E+03 0.  0.
        2    1    3    3  502    0 -0.26872497287E+03  0.50514261055E+02 -0.10697497868E+03  0.29361275122E+03  0.25500000920E-02 0.  1.
       -2    1    3    3    0  502  0.26872497287E+03 -0.50514261055E+02  0.63466715291E+02  0.28070059773E+03  0.25500000920E-02 0. -1.
</event>
<event>
 5   0  0.6170500E-02  0.6021812E+03  0.7818609E-02  0.9900891E-01
        4   -1    0    0  501    0  0.00000000000E+00  0.00000000000E+00  0.56480494348E+03  0.56480637132E+03  0.12699999809E+01 0. -1.
       -4   -1    0    0    0  501  0.00000000000E+00  0.00000000000E+00 -0.16050355676E+03  0.16050858118E+03  0.12699999809E+01 0.  1.
    10030    2    1    2    0    0  0.00000000000E+00  0.00000000000E+00  0.40430138672E+03  0.72531495251E+03  0.60218117625E+03 0.  0.
        3    1    3    3  502    0  0.17999131938E+03 -0.10893759009E+03 -0.57277715434E+02  0.21804820677E+03  0.10100000352E+00 0.  1.
       -3    1    3    3    0  502 -0.17999131938E+03  0.10893759009E+03  0.46157910215E+03  0.50726674574E+03  0.10100000352E+00 0. -1.
</event>
<event>
 5   0  0.1513339E-01  0.6022667E+03  0.7818609E-02  0.9900715E-01
       -2   -1    0    0    0  501  0.00000000000E+00  0.00000000000E+00  0.12682078212E+03  0.12682078214E+03  0.25500000920E-02 0. -1.
        2   -1    0    0  501    0  0.00000000000E+00  0.00000000000E+00 -0.71503487649E+03  0.71503487650E+03  0.25500000920E-02 0.  1.
    10030    2    1    2    0    0  0.00000000000E+00  0.00000000000E+00 -0.58821409438E+03  0.84185565864E+03  0.60226665951E+03 0.  0.
        3    1    3    3  502    0  0.93032927508E+02 -0.20374003476E+03 -0.57546738082E+03  0.61751748473E+03  0.10100000352E+00 0.  1.
       -3    1    3    3    0  502 -0.93032927508E+02  0.20374003476E+03 -0.12746713560E+02  0.22433817391E+03  0.10100000352E+00 0. -1.
</event>
<event>
 5   0  0.9177281E-02  0.5843695E+03  0.7818609E-02  0.9938376E-01
        1   -1    0    0  501    0  0.00000000000E+00  0.00000000000E+00  0.26732789511E+03  0.26732789516E+03  0.50400001928E-02 0. -1.
       -1   -1    0    0    0  501  0.00000000000E+00  0.00000000000E+00 -0.31935283471E+03  0.31935283475E+03  0.50400001928E-02 0.  1.
    10030    2    1    2    0    0  0.00000000000E+00  0.00000000000E+00 -0.52024939599E+02  0.58668072990E+03  0.58436947602E+03 0.  0.
        1    1    3    3  502    0 -0.85142237828E+02  0.12783221608E+03  0.22352975025E+03  0.27121177224E+03  0.50400001928E-02 0. -1.
       -1    1    3    3    0  502  0.85142237828E+02 -0.12783221608E+03 -0.27555468985E+03  0.31546895767E+03  0.50400001928E-02 0.  1.
</event>
<event>
 5   0  0.9497860E-02  0.6115633E+03  0.7818609E-02  0.9881702E-01
        1   -1    0    0  501    0  0.00000000000E+00  0.00000000000E+00  0.23030119862E+03  0.23030119868E+03  0.50400001928E-02 0. -1.
       -1   -1    0    0    0  501  0.00000000000E+00  0.00000000000E+00 -0.40600057577E+03  0.40600057580E+03  0.50400001928E-02 0.  1.
    10030    2    1    2    0    0  0.00000000000E+00  0.00000000000E+00 -0.17569937715E+03  0.63630177448E+03  0.61156330587E+03 0.  0.
        5    1    3    3  502    0  0.24112307119E+02  0.13694926394E+03 -0.37115793003E+03  0.39637962015E+03  0.46999998093E+01 0.  1.
       -5    1    3    3    0  502 -0.24112307119E+02 -0.13694926394E+03  0.19545855288E+03  0.23992215433E+03  0.46999998093E+01 0. -1.
</event>
<event>
 5   0  0.1513339E-01  0.5806000E+03  0.7818609E-02  0.9946493E-01
        2   -1    0    0  501    0  0.00000000000E+00  0.00000000000E+00  0.19652096238E+03  0.19652096239E+03  0.25500000920E-02 0.  1.
       -2   -1    0    0    0  501  0.00000000000E+00  0.00000000000E+00 -0.42883001920E+03  0.42883001921E+03  0.25500000920E-02 0. -1.
    10030    2    1    2    0    0  0.00000000000E+00  0.00000000000E+00 -0.23230905683E+03  0.62535098161E+03  0.58059999338E+03 0.  0.
        3    1    3    3  502    0 -0.88050462231E+02 -0.13679391167E+03 -0.37512074343E+03  0.40887778188E+03  0.10100000352E+00 0. -1.
       -3    1    3    3    0  502  0.88050462231E+02  0.13679391167E+03  0.14281168660E+03  0.21647319972E+03  0.10100000352E+00 0.  1.
</event>
<event>
 5   0  0.9411028E-02  0.6023356E+03  0.7818609E-02  0.9900572E-01
        1   -1    0    0  501    0  0.00000000000E+00  0.00000000000E+00  0.88424892832E+03  0.88424892834E+03  0.50400001928E-02 0. -1.
       -1   -1    0    0    0  501  0.00000000000E+00  0.00000000000E+00 -0.10257524266E+03  0.10257524278E+03  0.50400001928E-02 0.  1.
    10030    2    1    2    0    0  0.00000000000E+00  0.00000000000E+00  0.78167368566E+03  0.98682417112E+03  0.60233561563E+03 0.  0.
        4    1    3    3  502    0  0.86592082961E-01  0.26861733835E+02  0.88227798911E+03  0.88268772690E+03  0.12699999809E+01 0. -1.
       -4    1    3    3    0  502 -0.86592082961E-01 -0.26861733835E+02 -0.10060430345E+03  0.10413644422E+03  0.12699999809E+01 0.  1.
</event>
<event>
 5   0  0.1483942E-01  0.5969721E+03  0.7818609E-02  0.9911708E-01
        2   -1    0    0  501    0  0.00000000000E+00  0.00000000000E+00  0.26148320191E+04  0.26148320191E+04  0.25500000920E-02 0.  1.
       -2   -1    0    0    0  501  0.00000000000E+00  0.00000000000E+00 -0.34072524767E+02  0.34072524863E+02  0.25500000920E-02 0. -1.
    10030    2    1    2    0    0  0.00000000000E+00  0.00000000000E+00  0.25807594943E+04  0.26489045439E+04  0.59697212283E+03 0.  0.
        4    1    3    3  502    0 -0.19976319046E+03 -0.13390141229E+03  0.20748719854E+04  0.20887628610E+04  0.12699999809E+01 0.  1.
       -4    1    3    3    0  502  0.19976319046E+03  0.13390141229E+03  0.50588750886E+03  0.56014168297E+03  0.12699999809E+01 0. -1.
</event>
<event>
 5   0  0.1532571E-01  0.6128989E+03  0.7818609E-02  0.9879001E-01
        2   -1    0    0  501    0  0.00000000000E+00  0.00000000000E+00  0.87316772993E+03  0.87316772993E+03  0.25500000920E-02 0. -1.
       -2   -1    0    0    0  501  0.00000000000E+00  0.00000000000E+00 -0.10755237650E+03  0.10755237653E+03  0.25500000920E-02 0.  1.
    10030    2    1    2    0    0  0.00000000000E+00  0.00000000000E+00  0.76561535343E+03  0.98072010646E+03  0.61289889688E+03 0.  0.
        1    1    3    3  502    0 -0.16921213665E+03 -0.19249627246E+03  0.11398665278E+03  0.28050047975E+03  0.50400001928E-02 0.  1.
       -1    1    3    3    0  502  0.16921213665E+03  0.19249627246E+03  0.65162870065E+03  0.70021962671E+03  0.50400001928E-02 0. -1.
</event>
<event>
 5   0  0.9177281E-02  0.5956396E+03  0.7818609E-02  0.9914494E-01
        1   -1    0    0  501    0  0.00000000000E+00  0.00000000000E+00  0.80637584715E+03  0.80637584716E+03  0.50400001928E-02 0. -1.
       -1   -1    0    0    0  501  0.00000000000E+00  0.00000000000E+00 -0.10999416054E+03  0.10999416066E+03  0.50400001928E-02 0.  1.
    10030    2    1    2    0    0  0.00000000000E+00  0.00000000000E+00  0.69638168660E+03  0.91637000782E+03  0.59563960396E+03 0.  0.
        1    1    3    3  502    0  0.26804560053E+03  0.11953139651E+03  0.27034342073E+03  0.39902601904E+03  0.50400001928E-02 0.  1.
       -1    1    3    3    0  502 -0.26804560053E+03 -0.11953139651E+03  0.42603826587E+03  0.51734398878E+03  0.50400001928E-02 0. -1.
</event>
<event>
 5   0  0.1513339E-01  0.6031951E+03  0.7818609E-02  0.9898799E-01
       -2   -1    0    0    0  501  0.00000000000E+00  0.00000000000E+00  0.29912170053E+03  0.29912170054E+03  0.25500000920E-02 0. -1.
        2   -1    0    0  501    0  0.00000000000E+00  0.00000000000E+00 -0.30409389577E+03  0.30409389578E+03  0.25500000920E-02 0.  1.
    10030    2    1    2    0    0  0.00000000000E+00  0.00000000000E+00 -0.49721952414E+01  0.60321559632E+03  0.60319510352E+03 0.  0.
        3    1    3    3  502    0 -0.19231968088E+03 -0.21909248518E+03 -0.79771944628E+02  0.30224485118E+03  0.10100000352E+00 0. -1.
       -3    1    3    3    0  502  0.19231968088E+03  0.21909248518E+03  0.74799749386E+02  0.30097074513E+03  0.10100000352E+00 0.  1.
</event>
<event>
 5   0  0.9411028E-02  0.5890469E+03  0.7818609E-02  0.9928394E-01
        1   -1    0    0  501    0  0.00000000000E+00  0.00000000000E+00  0.36521854101E+03  0.36521854105E+03  0.50400001928E-02 0. -1.
       -1   -1    0    0    0  501  0.00000000000E+00  0.00000000000E+00 -0.23751278583E+03  0.23751278588E+03  0.50400001928E-02 0.  1.
    10030    2    1    2    0    0  0.00000000000E+00  0.00000000000E+00  0.12770575519E+03  0.60273132693E+03  0.58904693578E+03 0.  0.
        4    1    3    3  502    0  0.51303811434E+02 -0.28636954967E+02 -0.23145231726E+03  0.23879686832E+03  0.12699999809E+01 0.  1.
       -4    1    3    3    0  502 -0.51303811434E+02  0.28636954967E+02  0.35915807244E+03  0.36393445860E+03  0.12699999809E+01 0. -1.
</event>
<event>
 5   0  0.1502642E-01  0.5724335E+03  0.7818609E-02  0.9964308E-01
       -2   -1    0    0    0  501  0.00000000000E+00  0.00000000000E+00  0.64323670172E+02  0.64323670222E+02  0.25500000920E-02 0.  1.
        2   -1    0    0  501    0  0.00000000000E+00  0.00000000000E+00 -0.12735595656E+04  0.12735595656E+04  0.25500000920E-02 0. -1.
    10030    2    1    2    0    0  0.00000000000E+00  0.00000000000E+00 -0.12092358954E+04  0.13378832358E+04  0.57243349125E+03 0.  0.
        2    1    3    3  502    0  0.10436878886E+03  0.23643914352E+03 -0.89204152315E+03  0.92872729673E+03  0.25500000920E-02 0. -1.
       -2    1    3    3    0  502 -0.10436878886E+03 -0.23643914352E+03 -0.31719437226E+03  0.40915593907E+03  0.25500000920E-02 0.  1.
</event>
<event>
 5   0  0.9411028E-02  0.5956875E+03  0.7818609E-02  0.9914394E-01
        1   -1    0    0  501    0  0.00000000000E+00  0.00000000000E+00  0.10003711587E+04  0.10003711587E+04  0.50400001928E-02 0. -1.
       -1   -1    0    0    0  501  0.00000000000E+00  0.00000000000E+00 -0.88677982796E+02  0.88677982939E+02  0.50400001928E-02 0.  1.
    10030    2    1    2    0    0  0.00000000000E+00  0.00000000000E+00  0.91169317587E+03  0.10890491416E+04  0.59568749016E+03 0.  0.
        4    1    3    3  502    0 -0.72683782028E+02 -0.98686608330E+02 -0.40431766104E+02  0.12906711217E+03  0.12699999809E+01 0.  1.
       -4    1    3    3    0  502  0.72683782028E+02  0.98686608330E+02  0.95212494197E+03  0.95998202945E+03  0.12699999809E+01 0. -1.
</event>
<event>
 5   0  0.9411028E-02  0.5358016E+03  0.7818609E-02  0.1004835E+00
        1   -1    0    0  501    0  0.00000000000E+00  0.00000000000E+00  0.16750842801E+03  0.16750842808E+03  0.50400001928E-02 0. -1.
       -1   -1    0    0    0  501  0.00000000000E+00  0.00000000000E+00 -0.42846104415E+03  0.42846104418E+03  0.50400001928E-02 0.  1.
    10030    2    1    2    0    0  0.00000000000E+00  0.00000000000E+00 -0.26095261615E+03  0.59596947226E+03  0.53580159014E+03 0.  0.
        4    1    3    3  502    0  0.14537924641E+03 -0.22408237074E+03 -0.15330381548E+03  0.30798004303E+03  0.12699999809E+01 0. -1.
       -4    1    3    3    0  502 -0.14537924641E+03  0.22408237074E+03 -0.10764880066E+03  0.28798942923E+03  0.12699999809E+01 0.  1.
</event>
<event>
 5   0  0.6170500E-02  0.6157332E+03  0.7818609E-02  0.9873292E-01
        4   -1    0    0  501    0  0.00000000000E+00  0.00000000000E+00  0.19053748452E+03  0.19054171698E+03  0.12699999809E+01 0.  1.
       -4   -1    0    0    0  501  0.00000000000E+00  0.00000000000E+00 -0.49743398232E+03  0.49743560354E+03  0.12699999809E+01 0. -1.
    10030    2    1    2    0    0  0.00000000000E+00  0.00000000000E+00 -0.30689649780E+03  0.68797732052E+03  0.61573316719E+03 0.  0.
        3    1    3    3  502    0 -0.86136109577E+02  0.90611442649E+02 -0.46779748624E+03  0.48421520138E+03  0.10100000352E+00 0. -1.
       -3    1    3    3    0  502  0.86136109577E+02 -0.90611442649E+02  0.16090098844E+03  0.20376211914E+03  0.10100000352E+00 0.  1.
</event>
<event>
 5   0  0.1502642E-01  0.6129992E+03  0.7818609E-02  0.9878798E-01
       -2   -1    0    0    0  501  0.00000000000E+00  0.00000000000E+00  0.11764974813E+03  0.11764974815E+03  0.25500000920E-02 0.  1.
        2   -1    0    0  501    0  0.00000000000E+00  0.00000000000E+00 -0.79848869714E+03  0.79848869715E+03  0.25500000920E-02 0. -1.
    10030    2    1    2    0    0  0.00000000000E+00  0.00000000000E+00 -0.68083894902E+03  0.91613844530E+03  0.61299916514E+03 0.  0.
        2    1    3    3  502    0  0.12521251573E+03  0.33153489899E+02  0.74735710314E+02  0.14954181485E+03  0.25500000920E-02 0.  1.
       -2    1    3    3    0  502 -0.12521251573E+03 -0.33153489899E+02 -0.75557465933E+03  0.76659663045E+03  0.25500000920E-02 0. -1.
</event>
<event>
 5   0  0.1532571E-01  0.6224438E+03  0.7818609E-02  0.9859906E-01
        2   -1    0    0  501    0  0.00000000000E+00  0.00000000000E+00  0.25422106365E+03  0.25422106366E+03  0.25500000920E-02 0. -1.
       -2   -1    0    0    0  501  0.00000000000E+00  0.00000000000E+00 -0.38100326742E+03  0.38100326743E+03  0.25500000920E-02 0.  1.
    10030    2    1    2    0    0  0.00000000000E+00  0.00000000000E+00 -0.12678220378E+03  0.63522433109E+03  0.62244375137E+03 0.  0.
        1    1    3    3  502    0  0.30051558212E+03 -0.33433829422E+02  0.11821687531E+02  0.30260070782E+03  0.50400001928E-02 0. -1.
       -1    1    3    3    0  502 -0.30051558212E+03  0.33433829422E+02 -0.13860389131E+03  0.33262362327E+03  0.50400001928E-02 0.  1.
</event>
<event>
 5   0  0.1488510E-01  0.5935728E+03  0.7818609E-02  0.9918831E-01
        2   -1    0    0  501    0  0.00000000000E+00  0.00000000000E+00  0.20505493912E+03  0.20505493914E+03  0.25500000920E-02 0.  1.
       -2   -1    0    0    0  501  0.00000000000E+00  0.00000000000E+00 -0.42955396858E+03  0.42955396859E+03  0.25500000920E-02 0. -1.
    10030    2    1    2    0    0  0.00000000000E+00  0.00000000000E+00 -0.22449902946E+03  0.63460890772E+03  0.59357278537E+03 0.  0.
        5    1    3    3  502    0  0.26368592861E+03 -0.96708593570E+01 -0.25741681895E+03  0.36865878959E+03  0.46999998093E+01 0. -1.
       -5    1    3    3    0  502 -0.26368592861E+03  0.96708593570E+01  0.32917789493E+02  0.26595011813E+03  0.46999998093E+01 0.  1.
</event>
<event>
 5   0  0.1532571E-01  0.5617093E+03  0.7818609E-02  0.9988194E-01
       -2   -1    0    0    0  501  0.00000000000E+00  0.00000000000E+00  0.16361012971E+03  0.16361012973E+03  0.25500000920E-02 0. -1.
        2   -1    0    0  501    0  0.00000000000E+00  0.00000000000E+00 -0.48211766555E+03  0.48211766555E+03  0.25500000920E-02 0.  1.
    10030    2    1    2    0    0  0.00000000000E+00  0.00000000000E+00 -0.31850753584E+03  0.64572779528E+03  0.56170929779E+03 0.  0.
        1    1    3    3  502    0  0.81961187997E+02 -0.85695805886E+02  0.13342110242E+03  0.17850097501E+03  0.50400001928E-02 0. -1.
       -1    1    3    3    0  502 -0.81961187997E+02  0.85695805886E+02 -0.45192863825E+03  0.46722682027E+03  0.50400001928E-02 0.  1.
</event>
<event>
 5   0  0.9177281E-02  0.6056561E+03  0.7818609E-02  0.9893741E-01
       -1   -1    0    0    0  501  0.00000000000E+00  0.00000000000E+00  0.51734201901E+03  0.51734201903E+03  0.50400001928E-02 0. -1.
        1   -1    0    0  501    0  0.00000000000E+00  0.00000000000E+00 -0.17726148606E+03  0.17726148613E+03  0.50400001928E-02 0.  1.
    10030    2    1    2    0    0  0.00000000000E+00  0.00000000000E+00  0.34008053295E+03  0.69460350516E+03  0.60565605792E+03 0.  0.
        1    1    3    3  502    0  0.16339868536E+03  0.22996002004E+02  0.46125468492E+03  0.48988144573E+03  0.50400001928E-02 0. -1.
       -1    1    3    3    0  502 -0.16339868536E+03 -0.22996002004E+02 -0.12117415197E+03  0.20472205943E+03  0.50400001928E-02 0.  1.
</event>
<event>
 5   0  0.1488510E-01  0.5919470E+03  0.7818609E-02  0.9922256E-01
        2   -1    0    0  501    0  0.00000000000E+00  0.00000000000E+00  0.22431417682E+03  0.22431417683E+03  0.25500000920E-02 0.  1.
       -2   -1    0    0    0  501  0.00000000000E+00  0.00000000000E+00 -0.39052514684E+03  0.39052514685E+03  0.25500000920E-02 0. -1.
    10030    2    1    2    0    0  0.00000000000E+00  0.00000000000E+00 -0.16621097002E+03  0.61483932368E+03  0.59194704779E+03 0.  0.
        5    1    3    3  502    0 -0.55553828393E+02 -0.49990582462E+02 -0.38052333855E+03  0.38782133434E+03  0.46999998093E+01 0. -1.
       -5    1    3    3    0  502  0.55553828393E+02  0.49990582462E+02  0.21431236853E+03  0.22701798935E+03  0.46999998093E+01 0.  1.
</event>
<event>
 5   0  0.9497860E-02  0.5859625E+03  0.7818609E-02  0.9934965E-01
       -1   -1    0    0    0  501  0.00000000000E+00  0.00000000000E+00  0.27061402865E+03  0.27061402870E+03  0.50400001928E-02 0. -1.
        1   -1    0    0  501    0  0.00000000000E+00  0.00000000000E+00 -0.31719719013E+03  0.31719719017E+03  0.50400001928E-02 0.  1.
    10030    2    1    2    0    0  0.00000000000E+00  0.00000000000E+00 -0.46583161485E+02  0.58781121887E+03  0.58596248864E+03 0.  0.
        5    1    3    3  502    0  0.67979764608E+02  0.21906327745E+03  0.15950834759E+03  0.27941898804E+03  0.46999998093E+01 0. -1.
       -5    1    3    3    0  502 -0.67979764608E+02 -0.21906327745E+03 -0.20609150908E+03  0.30839223083E+03  0.46999998093E+01 0.  1.
</event>
<event>
 5   0  0.1483942E-01  0.7246214E+03  0.7818609E-02  0.9676029E-01
        2   -1    0    0  501    0  0.00000000000E+00  0.00000000000E+00  0.66858875561E+03  0.66858875562E+03  0.25500000920E-02 0. -1.
       -2   -1    0    0    0  501  0.00000000000E+00  0.00000000000E+00 -0.19633750555E+03  0.19633750557E+03  0.25500000920E-02 0.  1.
    10030    2    1    2    0    0  0.00000000000E+00  0.00000000000E+00  0.47225125006E+03  0.86492626118E+03  0.72462141433E+03 0.  0.
        4    1    3    3  502    0 -0.25246997253E+03  0.19652528388E+03  0.43905648972E+03  0.54326373733E+03  0.12699999809E+01 0. -1.
       -4    1    3    3    0  502  0.25246997253E+03 -0.19652528388E+03  0.33194760342E+02  0.32166252385E+03  0.12699999809E+01 0.  1.
</event>
<event>
 5   0  0.1483942E-01  0.3424408E+03  0.7818609E-02  0.1065761E+00
        2   -1    0    0  501    0  0.00000000000E+00  0.00000000000E+00  0.99921741626E+03  0.99921741626E+03  0.25500000920E-02 0.  1.
       -2   -1    0    0    0  501  0.00000000000E+00  0.00000000000E+00 -0.29339385402E+02  0.29339385513E+02  0.25500000920E-02 0. -1.
    10030    2    1    2    0    0  0.00000000000E+00  0.00000000000E+00  0.96987803085E+03  0.10285568018E+04  0.34244079742E+03 0.  0.
        4    1    3    3  502    0  0.54981907184E+02  0.15563835312E+03  0.34833261002E+03  0.38546533849E+03  0.12699999809E+01 0. -1.
       -4    1    3    3    0  502 -0.54981907184E+02 -0.15563835312E+03  0.62154542084E+03  0.64309146328E+03  0.12699999809E+01 0.  1.
</event>
<event>
 5   0  0.6170500E-02  0.6009273E+03  0.7818609E-02  0.9903484E-01
        4   -1    0    0  501    0  0.00000000000E+00  0.00000000000E+00  0.11056964257E+04  0.11056971551E+04  0.12699999809E+01 0.  1.
       -4   -1    0    0    0  501  0.00000000000E+00  0.00000000000E+00 -0.81642765030E+02  0.81652642221E+02  0.12699999809E+01 0. -1.
    10030    2    1    2    0    0  0.00000000000E+00  0.00000000000E+00  0.10240536607E+04  0.11873497973E+04  0.60092731772E+03 0.  0.
        1    1    3    3  502    0  0.26905831969E+03 -0.65306119713E+02  0.28142460756E+03  0.39478738383E+03  0.50400001928E-02 0. -1.
       -1    1    3    3    0  502 -0.26905831969E+03  0.65306119713E+02  0.74262905316E+03  0.79256241350E+03  0.50400001928E-02 0.  1.
</event>
<event>
 5   0  0.6170500E-02  0.6076569E+03  0.7818609E-02  0.9889647E-01
        3   -1    0    0  501    0  0.00000000000E+00  0.00000000000E+00  0.21175578061E+03  0.21175580469E+03  0.10100000352E+00 0.  1.
       -3   -1    0    0    0  501  0.00000000000E+00  0.00000000000E+00 -0.43593479764E+03  0.43593480934E+03  0.10100000352E+00 0. -1.
    10030    2    1    2    0    0  0.00000000000E+00  0.00000000000E+00 -0.22417901704E+03  0.64769061404E+03  0.60765689318E+03 0.  0.
        4    1    3    3  502    0  0.20408690760E+03 -0.18604827843E+03 -0.24710225215E+03  0.37057598907E+03  0.12699999809E+01 0. -1.
       -4    1    3    3    0  502 -0.20408690760E+03  0.18604827843E+03  0.22923235114E+02  0.27711462496E+03  0.12699999809E+01 0.  1.
</event>
<event>
 5   0  0.9177281E-02  0.5943301E+03  0.7818609E-02  0.9917240E-01
        1   -1    0    0  501    0  0.00000000000E+00  0.00000000000E+00  0.22980464358E+04  0.22980464358E+04  0.50400001928E-02 0. -1.
       -1   -1    0    0    0  501  0.00000000000E+00  0.00000000000E+00 -0.38427010144E+02  0.38427010474E+02  0.50400001928E-02 0.  1.
    10030    2    1    2    0    0  0.00000000000E+00  0.00000000000E+00  0.22596194256E+04  0.23364734462E+04  0.59433005675E+03 0.  0.
        1    1    3    3  502    0  0.16725072453E+03 -0.25153700378E+02  0.16924655685E+03  0.23926953531E+03  0.50400001928E-02 0.  1.
       -1    1    3    3    0  502 -0.16725072453E+03  0.25153700378E+02  0.20903728688E+04  0.20972039109E+04  0.50400001928E-02 0. -1.
</event>
<event>
 5   0  0.9497860E-02  0.6032574E+03  0.7818609E-02  0.9898671E-01
       -1   -1    0    0    0  501  0.00000000000E+00  0.00000000000E+00  0.18524552995E+03  0.18524553002E+03  0.50400001928E-02 0.  1.
        1   -1    0    0  501    0  0.00000000000E+00  0.00000000000E+00 -0.49113125317E+03  0.49113125319E+03  0.50400001928E-02 0. -1.
    10030    2    1    2    0    0  0.00000000000E+00  0.00000000000E+00 -0.30588572322E+03  0.67637678321E+03  0.60325738885E+03 0.  0.
        5    1    3    3  502    0  0.13583357653E+03  0.26328303203E+02 -0.45340524958E+03  0.47406998471E+03  0.46999998093E+01 0. -1.
       -5    1    3    3    0  502 -0.13583357653E+03 -0.26328303203E+02  0.14751952636E+03  0.20230679850E+03  0.46999998093E+01 0.  1.
</event>
<event>
 5   0  0.1483942E-01  0.5852441E+03  0.7818609E-02  0.9936502E-01
        2   -1    0    0  501    0  0.00000000000E+00  0.00000000000E+00  0.34958868079E+03  0.34958868080E+03  0.25500000920E-02 0.  1.
       -2   -1    0    0    0  501  0.00000000000E+00  0.00000000000E+00 -0.24493833544E+03  0.24493833545E+03  0.25500000920E-02 0. -1.
    10030    2    1    2    0    0  0.00000000000E+00  0.00000000000E+00  0.10465034535E+03  0.59452701625E+03  0.58524411853E+03 0.  0.
        4    1    3    3  502    0 -0.12406798999E+03  0.24484126258E+03 -0.50703159762E+02  0.27912816646E+03  0.12699999809E+01 0. -1.
       -4    1    3    3    0  502  0.12406798999E+03 -0.24484126258E+03  0.15535350511E+03  0.31539884979E+03  0.12699999809E+01 0.  1.
</event>
<event>
 5   0  0.1488510E-01  0.5881150E+03  0.7818609E-02  0.9930375E-01
       -2   -1    0    0    0  501  0.00000000000E+00  0.00000000000E+00  0.51556432157E+02  0.51556432220E+02  0.25500000920E-02 0.  1.
        2   -1    0    0  501    0  0.00000000000E+00  0.00000000000E+00 -0.16771878981E+04  0.16771878981E+04  0.25500000920E-02 0. -1.
    10030    2    1    2    0    0  0.00000000000E+00  0.00000000000E+00 -0.16256314660E+04  0.17287443304E+04  0.58811503685E+03 0.  0.
        5    1    3    3  502    0 -0.13648367826E+03  0.71425310638E+02 -0.15489649396E+04  0.15566129396E+04  0.46999998093E+01 0. -1.
       -5    1    3    3    0  502  0.13648367826E+03 -0.71425310638E+02 -0.76666526336E+02  0.17213139078E+03  0.46999998093E+01 0.  1.
</event>
<event>
 5   0  0.1532571E-01  0.5944149E+03  0.7818609E-02  0.9917062E-01
       -2   -1    0    0    0  501  0.00000000000E+00  0.00000000000E+00  0.23018009037E+03  0.23018009039E+03  0.25500000920E-02 0.  1.
        2   -1    0    0  501    0  0.00000000000E+00  0.00000000000E+00 -0.38375282495E+03  0.38375282496E+03  0.25500000920E-02 0. -1.
    10030    2    1    2    0    0  0.00000000000E+00  0.00000000000E+00 -0.15357273458E+03  0.61393291535E+03  0.59441487174E+03 0.  0.
        1    1    3    3  502    0  0.22960101989E+03  0.11861733509E+03 -0.22839018532E+03  0.34488951461E+03  0.50400001928E-02 0. -1.
       -1    1    3    3    0  502 -0.22960101989E+03 -0.11861733509E+03  0.74817450741E+02  0.26904340073E+03  0.50400001928E-02 0.  1.
</event>
<event>
 5   0  0.1532571E-01  0.5963138E+03  0.7818609E-02  0.9913083E-01
       -2   -1    0    0    0  501  0.00000000000E+00  0.00000000000E+00  0.14436566552E+03  0.14436566554E+03  0.25500000920E-02 0. -1.
        2   -1    0    0  501    0  0.00000000000E+00  0.00000000000E+00 -0.61578037299E+03  0.61578037299E+03  0.25500000920E-02 0.  1.
    10030    2    1    2    0    0  0.00000000000E+00  0.00000000000E+00 -0.47141470747E+03  0.76014603853E+03  0.59631382130E+03 0.  0.
        1    1    3    3  502    0 -0.94241147442E+02 -0.10803056055E+03  0.97548106888E+02  0.17340019915E+03  0.50400001928E-02 0. -1.
       -1    1    3    3    0  502  0.94241147442E+02  0.10803056055E+03 -0.56896281436E+03  0.58674583938E+03  0.50400001928E-02 0.  1.
</event>
<event>
 5   0  0.9497860E-02  0.5995533E+03  0.7818609E-02  0.9906333E-01
       -1   -1    0    0    0  501  0.00000000000E+00  0.00000000000E+00  0.21044207352E+03  0.21044207358E+03  0.50400001928E-02 0.  1.
        1   -1    0    0  501    0  0.00000000000E+00  0.00000000000E+00 -0.42703461796E+03  0.42703461799E+03  0.50400001928E-02 0. -1.
    10030    2    1    2    0    0  0.00000000000E+00  0.00000000000E+00 -0.21659254444E+03  0.63747669157E+03  0.59955333540E+03 0.  0.
        5    1    3    3  502    0  0.15033312577E+03  0.10108815063E+03 -0.36220025029E+03  0.40500614095E+03  0.46999998093E+01 0. -1.
       -5    1    3    3    0  502 -0.15033312577E+03 -0.10108815063E+03  0.14560770585E+03  0.23247055062E+03  0.46999998093E+01 0.  1.
</event>
<event>
 5   0  0.9497860E-02  0.6055508E+03  0.7818609E-02  0.9893956E-01
       -1   -1    0    0    0  501  0.00000000000E+00  0.00000000000E+00  0.27484096824E+03  0.27484096828E+03  0.50400001928E-02 0.  1.
        1   -1    0    0  501    0  0.00000000000E+00  0.00000000000E+00 -0.33354906887E+03  0.33354906891E+03  0.50400001928E-02 0. -1.
    10030    2    1    2    0    0  0.00000000000E+00  0.00000000000E+00 -0.58708100634E+02  0.60839003719E+03  0.60555082055E+03 0.  0.
        5    1    3    3  502    0  0.34810687639E+02  0.27075306549E+03 -0.16085644499E+03  0.31688466725E+03  0.46999998093E+01 0. -1.
       -5    1    3    3    0  502 -0.34810687639E+02 -0.27075306549E+03  0.10214834435E+03  0.29150536993E+03  0.46999998093E+01 0.  1.
</event>
<event>
 5   0  0.1483942E-01  0.5606250E+03  0.7818609E-02  0.9990642E-01
        2   -1    0    0  501    0  0.00000000000E+00  0.00000000000E+00  0.90894356996E+03  0.90894356996E+03  0.25500000920E-02 0.  1.
       -2   -1    0    0    0  501  0.00000000000E+00  0.00000000000E+00 -0.86446603972E+02  0.86446604010E+02  0.25500000920E-02 0. -1.
    10030    2    1    2    0    0  0.00000000000E+00  0.00000000000E+00  0.82249696599E+03  0.99539017397E+03  0.56062495430E+03 0.  0.
        4    1    3    3  502    0  0.52862344145E+02  0.20974070518E+03  0.94691634015E+02  0.23612223379E+03  0.12699999809E+01 0. -1.
       -4    1    3    3    0  502 -0.52862344145E+02 -0.20974070518E+03  0.72780533197E+03  0.75926794018E+03  0.12699999809E+01 0.  1.
</event>
<event>
 5   0  0.9411028E-02  0.6067955E+03  0.7818609E-02  0.9891407E-01
       -1   -1    0    0    0  501  0.00000000000E+00  0.00000000000E+00  0.16553432663E+03  0.16553432671E+03  0.50400001928E-02 0. -1.
        1   -1    0    0  501    0  0.00000000000E+00  0.00000000000E+00 -0.55607915243E+03  0.55607915246E+03  0.50400001928E-02 0.  1.
    10030    2    1    2    0    0  0.00000000000E+00  0.00000000000E+00 -0.39054482581E+03  0.72161347916E+03  0.60679547818E+03 0.  0.
        4    1    3    3  502    0 -0.53623225854E+01 -0.30205504257E+03 -0.22854024005E+03  0.37881163851E+03  0.12699999809E+01 0. -1.
       -4    1    3    3    0  502  0.53623225854E+01  0.30205504257E+03 -0.16200458575E+03  0.34280184065E+03  0.12699999809E+01 0.  1.
</event>
<event>
 5   0  0.1483942E-01  0.5926892E+03  0.7818609E-02  0.9920691E-01
        2   -1    0    0  501    0  0.00000000000E+00  0.00000000000E+00  0.83406541282E+03  0.83406541283E+03  0.25500000920E-02 0.  1.
       -2   -1    0    0    0  501  0.00000000000E+00  0.00000000000E+00 -0.10529166261E+03  0.10529166264E+03  0.25500000920E-02 0. -1.
    10030    2    1    2    0    0  0.00000000000E+00  0.00000000000E+00  0.72877375021E+03  0.93935707547E+03  0.59268924087E+03 0.  0.
        4    1    3    3  502    0 -0.85113158867E+01 -0.28867200775E+03  0.46969137189E+03  0.55137606793E+03  0.12699999809E+01 0. -1.
       -4    1    3    3    0  502  0.85113158867E+01  0.28867200775E+03  0.25908237832E+03  0.38798100754E+03  0.12699999809E+01 0.  1.
</event>
<event>
 5   0  0.8860626E-02  0.5998765E+03  0.7818609E-02  0.9905662E-01
       -1   -1    0    0    0  501  0.00000000000E+00  0.00000000000E+00  0.96413454403E+02  0.96413454535E+02  0.50400001928E-02 0.  1.
        1   -1    0    0  501    0  0.00000000000E+00  0.00000000000E+00 -0.93309529842E+03  0.93309529844E+03  0.50400001928E-02 0. -1.
    10030    2    1    2    0    0  0.00000000000E+00  0.00000000000E+00 -0.83668184402E+03  0.10295087530E+04  0.59987645756E+03 0.  0.
        3    1    3    3  502    0  0.14909564292E+03  0.25759692852E+03 -0.48203124383E+03  0.56651550601E+03  0.10100000352E+00 0. -1.
       -3    1    3    3    0  502 -0.14909564292E+03 -0.25759692852E+03 -0.35465060019E+03  0.46299324696E+03  0.10100000352E+00 0.  1.
</event>
<event>
 5   0  0.9411028E-02  0.5908034E+03  0.7818609E-02  0.9924672E-01
        1   -1    0    0  501    0  0.00000000000E+00  0.00000000000E+00  0.12786917365E+04  0.12786917365E+04  0.50400001928E-02 0. -1.
       -1   -1    0    0    0  501  0.00000000000E+00  0.00000000000E+00 -0.68243312812E+02  0.68243312998E+02  0.50400001928E-02 0.  1.
    10030    2    1    2    0    0  0.00000000000E+00  0.00000000000E+00  0.12104484237E+04  0.13469350495E+04  0.59080338623E+03 0.  0.
        4    1    3    3  502    0 -0.14003811305E+03 -0.19334748305E+03  0.10018543186E+04  0.10299066030E+04  0.12699999809E+01 0.  1.
       -4    1    3    3    0  502  0.14003811305E+03  0.19334748305E+03  0.20859410505E+03  0.31702844647E+03  0.12699999809E+01 0. -1.
</event>
<event>
 5   0  0.9420349E-02  0.5840844E+03  0.7818609E-02  0.9938987E-01
       -1   -1    0    0    0  501  0.00000000000E+00  0.00000000000E+00  0.14739454754E+03  0.14739454762E+03  0.50400001928E-02 0.  1.
        1   -1    0    0  501    0  0.00000000000E+00  0.00000000000E+00 -0.57864176516E+03  0.57864176518E+03  0.50400001928E-02 0. -1.
    10030    2    1    2    0    0  0.00000000000E+00  0.00000000000E+00 -0.43124721762E+03  0.72603631281E+03  0.58408438158E+03 0.  0.
        2    1    3    3  502    0  0.15282898821E+03 -0.22463657090E+03 -0.34875213767E+03  0.44209313743E+03  0.25500000920E-02 0. -1.
       -2    1    3    3    0  502 -0.15282898821E+03  0.22463657090E+03 -0.82495079954E+02  0.28394317538E+03  0.25500000920E-02 0.  1.
</event>
<event>
 5   0  0.1532571E-01  0.6099715E+03  0.7818609E-02  0.9884932E-01
       -2   -1    0    0    0  501  0.00000000000E+00  0.00000000000E+00  0.23505814836E+03  0.23505814838E+03  0.25500000920E-02 0.  1.
        2   -1    0    0  501    0  0.00000000000E+00  0.00000000000E+00 -0.39571613056E+03  0.39571613057E+03  0.25500000920E-02 0. -1.
    10030    2    1    2    0    0  0.00000000000E+00  0.00000000000E+00 -0.16065798220E+03  0.63077427895E+03  0.60997147781E+03 0.  0.
        1    1    3    3  502    0  0.27949702412E+03  0.73003387209E+02 -0.18148228307E+03  0.34115084659E+03  0.50400001928E-02 0. -1.
       -1    1    3    3    0  502 -0.27949702412E+03 -0.73003387209E+02  0.20824300870E+02  0.28962343236E+03  0.50400001928E-02 0.  1.
</event>
<event>
 5   0  0.9177281E-02  0.6078430E+03  0.7818609E-02  0.9889267E-01
        1   -1    0    0  501    0  0.00000000000E+00  0.00000000000E+00  0.22625034738E+03  0.22625034744E+03  0.50400001928E-02 0.  1.
       -1   -1    0    0    0  501  0.00000000000E+00  0.00000000000E+00 -0.40825699858E+03  0.40825699861E+03  0.50400001928E-02 0. -1.
    10030    2    1    2    0    0  0.00000000000E+00  0.00000000000E+00 -0.18200665120E+03  0.63450734605E+03  0.60784303164E+03 0.  0.
        1    1    3    3  502    0 -0.24547767887E+03 -0.17662747299E+03 -0.59483850097E+02  0.30821239995E+03  0.50400001928E-02 0. -1.
       -1    1    3    3    0  502  0.24547767887E+03  0.17662747299E+03 -0.12252280110E+03  0.32629494610E+03  0.50400001928E-02 0.  1.
</event>
<event>
 5   0  0.1532571E-01  0.6030243E+03  0.7818609E-02  0.9899151E-01
       -2   -1    0    0    0  501  0.00000000000E+00  0.00000000000E+00  0.74816940922E+03  0.74816940923E+03  0.25500000920E-02 0. -1.
        2   -1    0    0  501    0  0.00000000000E+00  0.00000000000E+00 -0.12150934170E+03  0.12150934172E+03  0.25500000920E-02 0.  1.
    10030    2    1    2    0    0  0.00000000000E+00  0.00000000000E+00  0.62666006752E+03  0.86967875095E+03  0.60302428610E+03 0.  0.
        1    1    3    3  502    0  0.17295990575E+03  0.24669754177E+03  0.33007231601E+03  0.44690327805E+03  0.50400001928E-02 0.  1.
       -1    1    3    3    0  502 -0.17295990575E+03 -0.24669754177E+03  0.29658775152E+03  0.42277547290E+03  0.50400001928E-02 0. -1.
</event>
<event>
 5   0  0.1502642E-01  0.5946344E+03  0.7818609E-02  0.9916601E-01
       -2   -1    0    0    0  501  0.00000000000E+00  0.00000000000E+00  0.16479647454E+03  0.16479647456E+03  0.25500000920E-02 0.  1.
        2   -1    0    0  501    0  0.00000000000E+00  0.00000000000E+00 -0.53640411324E+03  0.53640411324E+03  0.25500000920E-02 0. -1.
    10030    2    1    2    0    0  0.00000000000E+00  0.00000000000E+00 -0.37160763869E+03  0.70120058780E+03  0.59463436430E+03 0.  0.
        2    1    3    3  502    0  0.13799398044E+03  0.50023151158E+02 -0.49070017898E+03  0.51218289697E+03  0.25500000920E-02 0. -1.
       -2    1    3    3    0  502 -0.13799398044E+03 -0.50023151158E+02  0.11909254029E+03  0.18901769083E+03  0.25500000920E-02 0.  1.
</event>
<event>
 5   0  0.1483942E-01  0.6011254E+03  0.7818609E-02  0.9903074E-01
       -2   -1    0    0    0  501  0.00000000000E+00  0.00000000000E+00  0.43868367276E+02  0.43868367350E+02  0.25500000920E-02 0.  1.
        2   -1    0    0  501    0  0.00000000000E+00  0.00000000000E+00 -0.20592954693E+04  0.20592954693E+04  0.25500000920E-02 0. -1.
    10030    2    1    2    0    0  0.00000000000E+00  0.00000000000E+00 -0.20154271020E+04  0.21031638366E+04  0.60112537812E+03 0.  0.
        4    1    3    3  502    0 -0.11578286209E+03 -0.18196623375E+03 -0.27532937016E+03  0.34975027713E+03  0.12699999809E+01 0.  1.
       -4    1    3    3    0  502  0.11578286209E+03  0.18196623375E+03 -0.17400977318E+04  0.17534135595E+04  0.12699999809E+01 0. -1.
</event>
<event>
 5   0  0.9420349E-02  0.6047626E+03  0.7818609E-02  0.9895574E-01
        1   -1    0    0  501    0  0.00000000000E+00  0.00000000000E+00  0.10510756040E+04  0.10510756040E+04  0.50400001928E-02 0.  1.
       -1   -1    0    0    0  501  0.00000000000E+00  0.00000000000E+00 -0.86991319041E+02  0.86991319187E+02  0.50400001928E-02 0. -1.
    10030    2    1    2    0    0  0.00000000000E+00  0.00000000000E+00  0.96408428500E+03  0.11380669232E+04  0.60476260895E+03 0.  0.
        2    1    3    3  502    0 -0.17225620364E+03 -0.17627442127E+03  0.81171132862E+03  0.84830428050E+03  0.25500000920E-02 0.  1.
       -2    1    3    3    0  502  0.17225620364E+03  0.17627442127E+03  0.15237295637E+03  0.28976264274E+03  0.25500000920E-02 0. -1.
</event>
<event>
 5   0  0.9177281E-02  0.5857085E+03  0.7818609E-02  0.9935508E-01
        1   -1    0    0  501    0  0.00000000000E+00  0.00000000000E+00  0.14142279288E+04  0.14142279288E+04  0.50400001928E-02 0.  1.
       -1   -1    0    0    0  501  0.00000000000E+00  0.00000000000E+00 -0.60643412921E+02  0.60643413130E+02  0.50400001928E-02 0. -1.
    10030    2    1    2    0    0  0.00000000000E+00  0.00000000000E+00  0.13535845159E+04  0.14748713419E+04  0.58570848862E+03 0.  0.
        1    1    3    3  502    0 -0.25910309837E+03 -0.12055706996E+03  0.83793450583E+03  0.88532630074E+03  0.50400001928E-02 0.  1.
       -1    1    3    3    0  502  0.25910309837E+03  0.12055706996E+03  0.51565001002E+03  0.58954504117E+03  0.50400001928E-02 0. -1.
</event>
<event>
 5   0  0.1483942E-01  0.5441970E+03  0.7818609E-02  0.1002846E+00
       -2   -1    0    0    0  501  0.00000000000E+00  0.00000000000E+00  0.88119854570E+03  0.88119854570E+03  0.25500000920E-02 0.  1.
        2   -1    0    0  501    0  0.00000000000E+00  0.00000000000E+00 -0.84019192378E+02  0.84019192417E+02  0.25500000920E-02 0. -1.
    10030    2    1    2    0    0  0.00000000000E+00  0.00000000000E+00  0.79717935332E+03  0.96521773812E+03  0.54419698696E+03 0.  0.
        4    1    3    3  502    0 -0.17497367073E+03 -0.53403777313E+02  0.41347947556E+02  0.18756069564E+03  0.12699999809E+01 0. -1.
       -4    1    3    3    0  502  0.17497367073E+03  0.53403777313E+02  0.75583140577E+03  0.77765704248E+03  0.12699999809E+01 0.  1.
</event>
<event>
 5   0  0.1513339E-01  0.6010220E+03  0.7818609E-02  0.9903288E-01
       -2   -1    0    0    0  501  0.00000000000E+00  0.00000000000E+00  0.23564578403E+03  0.23564578405E+03  0.25500000920E-02 0.  1.
        2   -1    0    0  501    0  0.00000000000E+00  0.00000000000E+00 -0.38323132786E+03  0.38323132787E+03  0.25500000920E-02 0. -1.
    10030    2    1    2    0    0  0.00000000000E+00  0.00000000000E+00 -0.14758554383E+03  0.61887711192E+03  0.60102195210E+03 0.  0.
        3    1    3    3  502    0 -0.11756752071E+03  0.94865300111E+02 -0.34128960458E+03  0.37322935507E+03  0.10100000352E+00 0. -1.
       -3    1    3    3    0  502  0.11756752071E+03 -0.94865300111E+02  0.19370406075E+03  0.24564775685E+03  0.10100000352E+00 0.  1.
</event>
<event>
 5   0  0.6170500E-02  0.6013368E+03  0.7818609E-02  0.9902636E-01
       -4   -1    0    0    0  501  0.00000000000E+00  0.00000000000E+00  0.11644022603E+03  0.11644715169E+03  0.12699999809E+01 0. -1.
        4   -1    0    0  501    0  0.00000000000E+00  0.00000000000E+00 -0.77634631016E+03  0.77634734893E+03  0.12699999809E+01 0.  1.
    10030    2    1    2    0    0  0.00000000000E+00  0.00000000000E+00 -0.65990608413E+03  0.89279450062E+03  0.60133682780E+03 0.  0.
        4    1    3    3  502    0 -0.13978176323E+01  0.26574788079E+03 -0.12116633487E+03  0.29207325048E+03  0.12699999809E+01 0.  1.
       -4    1    3    3    0  502  0.13978176323E+01 -0.26574788079E+03 -0.53873974926E+03  0.60072125014E+03  0.12699999809E+01 0. -1.
</event>
<event>
 5   0  0.9497860E-02  0.5993147E+03  0.7818609E-02  0.9906829E-01
        1   -1    0    0  501    0  0.00000000000E+00  0.00000000000E+00  0.63568815929E+03  0.63568815931E+03  0.50400001928E-02 0.  1.
       -1   -1    0    0    0  501  0.00000000000E+00  0.00000000000E+00 -0.14125562681E+03  0.14125562690E+03  0.50400001928E-02 0. -1.
    10030    2    1    2    0    0  0.00000000000E+00  0.00000000000E+00  0.49443253248E+03  0.77694378622E+03  0.59931470678E+03 0.  0.
        5    1    3    3  502    0  0.18425967597E+03 -0.21264334041E+03  0.11372226158E+03  0.30351879873E+03  0.46999998093E+01 0. -1.
       -5    1    3    3    0  502 -0.18425967597E+03  0.21264334041E+03  0.38071027090E+03  0.47342498749E+03  0.46999998093E+01 0.  1.
</event>
<event>
 5   0  0.8860626E-02  0.5876864E+03  0.7818609E-02  0.9931287E-01
       -1   -1    0    0    0  501  0.00000000000E+00  0.00000000000E+00  0.59291169465E+02  0.59291169679E+02  0.50400001928E-02 0. -1.
        1   -1    0    0  501    0  0.00000000000E+00  0.00000000000E+00 -0.14562678041E+04  0.14562678041E+04  0.50400001928E-02 0.  1.
    10030    2    1    2    0    0  0.00000000000E+00  0.00000000000E+00 -0.13969766346E+04  0.15155589738E+04  0.58768638347E+03 0.  0.
        3    1    3    3  502    0 -0.20364391160E+03 -0.15580906232E+03 -0.10685924824E+04  0.10989254798E+04  0.10100000352E+00 0.  1.
       -3    1    3    3    0  502  0.20364391160E+03  0.15580906232E+03 -0.32838415226E+03  0.41663349396E+03  0.10100000352E+00 0. -1.
</event>
<event>
 5   0  0.1502642E-01  0.6077550E+03  0.7818609E-02  0.9889446E-01
       -2   -1    0    0    0  501  0.00000000000E+00  0.00000000000E+00  0.11122194170E+04  0.11122194171E+04  0.25500000920E-02 0. -1.
        2   -1    0    0  501    0  0.00000000000E+00  0.00000000000E+00 -0.83024564180E+02  0.83024564220E+02  0.25500000920E-02 0.  1.
    10030    2    1    2    0    0  0.00000000000E+00  0.00000000000E+00  0.10291948529E+04  0.11952439813E+04  0.60775499142E+03 0.  0.
        2    1    3    3  502    0 -0.12476876375E+03  0.27700941214E+03  0.50214777951E+03  0.58690190943E+03  0.25500000920E-02 0. -1.
       -2    1    3    3    0  502  0.12476876375E+03 -0.27700941214E+03  0.52704707336E+03  0.60834207184E+03  0.25500000920E-02 0.  1.
</event>
<event>
 5   0  0.1483942E-01  0.5421950E+03  0.7818609E-02  0.1003317E+00
        2   -1    0    0  501    0  0.00000000000E+00  0.00000000000E+00  0.45735086967E+03  0.45735086968E+03  0.25500000920E-02 0. -1.
       -2   -1    0    0    0  501  0.00000000000E+00  0.00000000000E+00 -0.16069468849E+03  0.16069468851E+03  0.25500000920E-02 0.  1.
    10030    2    1    2    0    0  0.00000000000E+00  0.00000000000E+00  0.29665618118E+03  0.61804555819E+03  0.54219500382E+03 0.  0.
        4    1    3    3  502    0  0.88526453350E+00 -0.56323407435E+02  0.45060274345E+03  0.45411183118E+03  0.12699999809E+01 0. -1.
       -4    1    3    3    0  502 -0.88526453350E+00  0.56323407435E+02 -0.15394656227E+03  0.16393372701E+03  0.12699999809E+01 0.  1.
</event>
<event>
 5   0  0.9177281E-02  0.6003763E+03  0.7818609E-02  0.9904626E-01
        1   -1    0    0  501    0  0.00000000000E+00  0.00000000000E+00  0.92556518574E+03  0.92556518575E+03  0.50400001928E-02 0.  1.
       -1   -1    0    0    0  501  0.00000000000E+00  0.00000000000E+00 -0.97359886117E+02  0.97359886248E+02  0.50400001928E-02 0. -1.
    10030    2    1    2    0    0  0.00000000000E+00  0.00000000000E+00  0.82820529962E+03  0.10229250720E+04  0.60037628584E+03 0.  0.
        1    1    3    3  502    0  0.19320517241E+03  0.74129387040E+02  0.78461503534E+03  0.81144572115E+03  0.50400001928E-02 0.  1.
       -1    1    3    3    0  502 -0.19320517241E+03 -0.74129387040E+02  0.43590264279E+02  0.21147935085E+03  0.50400001928E-02 0. -1.
</event>
<event>
 5   0  0.9177281E-02  0.5690130E+03  0.7818609E-02  0.9971865E-01
       -1   -1    0    0    0  501  0.00000000000E+00  0.00000000000E+00  0.19355969973E+03  0.19355969980E+03  0.50400001928E-02 0. -1.
        1   -1    0    0  501    0  0.00000000000E+00  0.00000000000E+00 -0.41818601101E+03  0.41818601104E+03  0.50400001928E-02 0.  1.
    10030    2    1    2    0    0  0.00000000000E+00  0.00000000000E+00 -0.22462631128E+03  0.61174571084E+03  0.56901303589E+03 0.  0.
        1    1    3    3  502    0 -0.71295503824E+02 -0.12066664999E+03  0.15387002930E+03  0.20813331119E+03  0.50400001928E-02 0. -1.
       -1    1    3    3    0  502  0.71295503824E+02  0.12066664999E+03 -0.37849634058E+03  0.40361239964E+03  0.50400001928E-02 0.  1.
</event>
<event>
 5   0  0.1513339E-01  0.6133873E+03  0.7818609E-02  0.9878014E-01
       -2   -1    0    0    0  501  0.00000000000E+00  0.00000000000E+00  0.59547559403E+03  0.59547559404E+03  0.25500000920E-02 0.  1.
        2   -1    0    0  501    0  0.00000000000E+00  0.00000000000E+00 -0.15795945243E+03  0.15795945245E+03  0.25500000920E-02 0. -1.
    10030    2    1    2    0    0  0.00000000000E+00  0.00000000000E+00  0.43751614161E+03  0.75343504649E+03  0.61338731248E+03 0.  0.
        3    1    3    3  502    0 -0.14169734091E+02  0.76512421585E+02  0.58314879214E+03  0.58831747891E+03  0.10100000352E+00 0.  1.
       -3    1    3    3    0  502  0.14169734091E+02 -0.76512421585E+02 -0.14563265053E+03  0.16511756758E+03  0.10100000352E+00 0. -1.
</event>
<event>
 5   0  0.9411028E-02  0.6059813E+03  0.7818609E-02  0.9893074E-01
        1   -1    0    0  501    0  0.00000000000E+00  0.00000000000E+00  0.26584060746E+03  0.26584060751E+03  0.50400001928E-02 0. -1.
       -1   -1    0    0    0  501  0.00000000000E+00  0.00000000000E+00 -0.34533222178E+03  0.34533222181E+03  0.50400001928E-02 0.  1.
    10030    2    1    2    0    0  0.00000000000E+00  0.00000000000E+00 -0.79491614318E+02  0.61117282932E+03  0.60598127904E+03 0.  0.
        4    1    3    3  502    0 -0.64735591547E+02 -0.51087585745E+02 -0.33379300443E+03  0.34383138445E+03  0.12699999809E+01 0.  1.
       -4    1    3    3    0  502  0.64735591547E+02  0.51087585745E+02  0.25430139011E+03  0.26734144486E+03  0.12699999809E+01 0. -1.
</event>
<event>
 5   0  0.9177281E-02  0.5542251E+03  0.7818609E-02  0.1000521E+00
        1   -1    0    0  501    0  0.00000000000E+00  0.00000000000E+00  0.31942347518E+03  0.31942347522E+03  0.50400001928E-02 0. -1.
       -1   -1    0    0    0  501  0.00000000000E+00  0.00000000000E+00 -0.24040610865E+03  0.24040610870E+03  0.50400001928E-02 0.  1.
    10030    2    1    2    0    0  0.00000000000E+00  0.00000000000E+00  0.79017366531E+02  0.55982958391E+03  0.55422506152E+03 0.  0.
        1    1    3    3  502    0  0.21062132911E+03  0.54554440589E+02 -0.13384797391E+03  0.25544629848E+03  0.50400001928E-02 0.  1.
       -1    1    3    3    0  502 -0.21062132911E+03 -0.54554440589E+02  0.21286534044E+03  0.30438328543E+03  0.50400001928E-02 0. -1.
</event>
<event>
 5   0  0.9497860E-02  0.5838616E+03  0.7818609E-02  0.9939465E-01
       -1   -1    0    0    0  501  0.00000000000E+00  0.00000000000E+00  0.13612133307E+03  0.13612133316E+03  0.50400001928E-02 0.  1.
        1   -1    0    0  501    0  0.00000000000E+00  0.00000000000E+00 -0.62608553832E+03  0.62608553834E+03  0.50400001928E-02 0. -1.
    10030    2    1    2    0    0  0.00000000000E+00  0.00000000000E+00 -0.48996420526E+03  0.76220687151E+03  0.58386162105E+03 0.  0.
        5    1    3    3  502    0  0.78257499695E+01 -0.11201652901E+03 -0.59671176576E+03  0.60720339798E+03  0.46999998093E+01 0. -1.
       -5    1    3    3    0  502 -0.78257499695E+01  0.11201652901E+03  0.10674756050E+03  0.15500347352E+03  0.46999998093E+01 0.  1.
</event>
<event>
 5   0  0.9177281E-02  0.5915360E+03  0.7818609E-02  0.9923123E-01
        1   -1    0    0  501    0  0.00000000000E+00  0.00000000000E+00  0.14996447494E+04  0.14996447494E+04  0.50400001928E-02 0. -1.
       -1   -1    0    0    0  501  0.00000000000E+00  0.00000000000E+00 -0.58332950116E+02  0.58332950334E+02  0.50400001928E-02 0.  1.
    10030    2    1    2    0    0  0.00000000000E+00  0.00000000000E+00  0.14413117993E+04  0.15579776998E+04  0.59153597536E+03 0.  0.
        1    1    3    3  502    0 -0.29471164440E+03  0.39548182252E+01  0.65570717326E+03  0.71890367298E+03  0.50400001928E-02 0.  1.
       -1    1    3    3    0  502  0.29471164440E+03 -0.39548182252E+01  0.78560462603E+03  0.83907402677E+03  0.50400001928E-02 0. -1.
</event>
<event>
 5   0  0.9177281E-02  0.6071868E+03  0.7818609E-02  0.9890607E-01
        1   -1    0    0  501    0  0.00000000000E+00  0.00000000000E+00  0.11853418515E+04  0.11853418515E+04  0.50400001928E-02 0.  1.
       -1   -1    0    0    0  501  0.00000000000E+00  0.00000000000E+00 -0.77757263881E+02  0.77757264045E+02  0.50400001928E-02 0. -1.
    10030    2    1    2    0    0  0.00000000000E+00  0.00000000000E+00  0.11075845876E+04  0.12630991156E+04  0.60718675627E+03 0.  0.
        1    1    3    3  502    0  0.25724227601E+03  0.45772225852E+02  0.87539255954E+03  0.91355394945E+03  0.50400001928E-02 0.  1.
       -1    1    3    3    0  502 -0.25724227601E+03 -0.45772225852E+02  0.23219202810E+03  0.34954516613E+03  0.50400001928E-02 0. -1.
</event>
<event>
 5   0  0.1488510E-01  0.5948609E+03  0.7818609E-02  0.9916126E-01
       -2   -1    0    0    0  501  0.00000000000E+00  0.00000000000E+00  0.30996864330E+03  0.30996864331E+03  0.25500000920E-02 0.  1.
        2   -1    0    0  501    0  0.00000000000E+00  0.00000000000E+00 -0.28539941178E+03  0.28539941180E+03  0.25500000920E-02 0. -1.
    10030    2    1    2    0    0  0.00000000000E+00  0.00000000000E+00  0.24569231517E+02  0.59536805511E+03  0.59486088618E+03 0.  0.
        5    1    3    3  502    0  0.10966197363E+02 -0.15606305549E+03  0.26541692194E+03  0.30813011411E+03  0.46999998093E+01 0.  1.
       -5    1    3    3    0  502 -0.10966197363E+02  0.15606305549E+03 -0.24084769042E+03  0.28723794100E+03  0.46999998093E+01 0. -1.
</event>
<event>
 5   0  0.9411028E-02  0.5981923E+03  0.7818609E-02  0.9909164E-01
        1   -1    0    0  501    0  0.00000000000E+00  0.00000000000E+00  0.31058048890E+03  0.31058048895E+03  0.50400001928E-02 0. -1.
       -1   -1    0    0    0  501  0.00000000000E+00  0.00000000000E+00 -0.28803645095E+03  0.28803645099E+03  0.50400001928E-02 0.  1.
    10030    2    1    2    0    0  0.00000000000E+00  0.00000000000E+00  0.22544037956E+02  0.59861693994E+03  0.59819228274E+03 0.  0.
        4    1    3    3  502    0 -0.15037630548E+03 -0.14353825618E+03 -0.20391696881E+03  0.29120440811E+03  0.12699999809E+01 0.  1.
       -4    1    3    3    0  502  0.15037630548E+03  0.14353825618E+03  0.22646100676E+03  0.30741253182E+03  0.12699999809E+01 0. -1.
</event>
<event>
 5   0  0.9177281E-02  0.5788645E+03  0.7818609E-02  0.9950252E-01
       -1   -1    0    0    0  501  0.00000000000E+00  0.00000000000E+00  0.73675964954E+02  0.73675965127E+02  0.50400001928E-02 0.  1.
        1   -1    0    0  501    0  0.00000000000E+00  0.00000000000E+00 -0.11370198656E+04  0.11370198656E+04  0.50400001928E-02 0. -1.
    10030    2    1    2    0    0  0.00000000000E+00  0.00000000000E+00 -0.10633439006E+04  0.12106958307E+04  0.57886452951E+03 0.  0.
        1    1    3    3  502    0 -0.15305873056E+03  0.11094936381E+03 -0.99006058293E+03  0.10079467715E+04  0.50400001928E-02 0. -1.
       -1    1    3    3    0  502  0.15305873056E+03 -0.11094936381E+03 -0.73283317712E+02  0.20274905921E+03  0.50400001928E-02 0.  1.
</event>
<event>
 5   0  0.9177281E-02  0.6304962E+03  0.7818609E-02  0.9844081E-01
        1   -1    0    0  501    0  0.00000000000E+00  0.00000000000E+00  0.56226449320E+03  0.56226449322E+03  0.50400001928E-02 0.  1.
       -1   -1    0    0    0  501  0.00000000000E+00  0.00000000000E+00 -0.17675201146E+03  0.17675201153E+03  0.50400001928E-02 0. -1.
    10030    2    1    2    0    0  0.00000000000E+00  0.00000000000E+00  0.38551248174E+03  0.73901650475E+03  0.63049624957E+03 0.  0.
        1    1    3    3  502    0  0.66068759708E+02  0.62155628555E+01 -0.16847256588E+03  0.18107103498E+03  0.50400001928E-02 0. -1.
       -1    1    3    3    0  502 -0.66068759708E+02 -0.62155628555E+01  0.55398504762E+03  0.55794546977E+03  0.50400001928E-02 0.  1.
</event>
<event>
 5   0  0.1488510E-01  0.6711639E+03  0.7818609E-02  0.9767858E-01
       -2   -1    0    0    0  501  0.00000000000E+00  0.00000000000E+00  0.32557159251E+03  0.32557159252E+03  0.25500000920E-02 0.  1.
        2   -1    0    0  501    0  0.00000000000E+00  0.00000000000E+00 -0.34590008287E+03  0.34590008288E+03  0.25500000920E-02 0. -1.
    10030    2    1    2    0    0  0.00000000000E+00  0.00000000000E+00 -0.20328490357E+02  0.67147167540E+03  0.67116388710E+03 0.  0.
        5    1    3    3  502    0  0.27885945089E+03  0.70520563466E+02  0.16270795746E+03  0.33050221276E+03  0.46999998093E+01 0.  1.
       -5    1    3    3    0  502 -0.27885945089E+03 -0.70520563466E+02 -0.18303644781E+03  0.34096946264E+03  0.46999998093E+01 0. -1.
</event>
<event>
 5   0  0.6170500E-02  0.5644694E+03  0.7818609E-02  0.9981992E-01
       -3   -1    0    0    0  501  0.00000000000E+00  0.00000000000E+00  0.41654362771E+03  0.41654363996E+03  0.10100000352E+00 0. -1.
        3   -1    0    0  501    0  0.00000000000E+00  0.00000000000E+00 -0.19123186272E+03  0.19123188939E+03  0.10100000352E+00 0.  1.
    10030    2    1    2    0    0  0.00000000000E+00  0.00000000000E+00  0.22531176500E+03  0.60777552934E+03  0.56446939919E+03 0.  0.
        1    1    3    3  502    0 -0.24003919103E+03  0.92451798731E+02  0.23771439129E+03  0.35024888318E+03  0.50400001928E-02 0. -1.
       -1    1    3    3    0  502  0.24003919103E+03 -0.92451798731E+02 -0.12402626291E+02  0.25752664616E+03  0.50400001928E-02 0.  1.
</event>
<event>
 5   0  0.1483942E-01  0.6231177E+03  0.7818609E-02  0.9858572E-01
       -2   -1    0    0    0  501  0.00000000000E+00  0.00000000000E+00  0.67658744883E+02  0.67658744931E+02  0.25500000920E-02 0. -1.
        2   -1    0    0  501    0  0.00000000000E+00  0.00000000000E+00 -0.14346841884E+04  0.14346841884E+04  0.25500000920E-02 0.  1.
    10030    2    1    2    0    0  0.00000000000E+00  0.00000000000E+00 -0.13670254435E+04  0.15023429333E+04  0.62311774658E+03 0.  0.
        4    1    3    3  502    0  0.15418683235E+03 -0.12981226794E+03 -0.12563115681E+04  0.12723777636E+04  0.12699999809E+01 0.  1.
       -4    1    3    3    0  502 -0.15418683235E+03  0.12981226794E+03 -0.11071387535E+03  0.22996516969E+03  0.12699999809E+01 0. -1.
</event>
<event>
 5   0  0.9497860E-02  0.5973900E+03  0.7818609E-02  0.9910836E-01
       -1   -1    0    0    0  501  0.00000000000E+00  0.00000000000E+00  0.74286284580E+02  0.74286284751E+02  0.50400001928E-02 0.  1.
        1   -1    0    0  501    0  0.00000000000E+00  0.00000000000E+00 -0.12010117845E+04  0.12010117845E+04  0.50400001928E-02 0. -1.
    10030    2    1    2    0    0  0.00000000000E+00  0.00000000000E+00 -0.11267254999E+04  0.12752980692E+04  0.59739000099E+03 0.  0.
        5    1    3    3  502    0 -0.13101571387E+03  0.26696118359E+03 -0.50438620379E+03  0.58554327201E+03  0.46999998093E+01 0.  1.
       -5    1    3    3    0  502  0.13101571387E+03 -0.26696118359E+03 -0.62233929609E+03  0.68975479722E+03  0.46999998093E+01 0. -1.
</event>
<event>
 5   0  0.1483942E-01  0.5632336E+03  0.7818609E-02  0.9984764E-01
       -2   -1    0    0    0  501  0.00000000000E+00  0.00000000000E+00  0.23459929313E+03  0.23459929314E+03  0.25500000920E-02 0.  1.
        2   -1    0    0  501    0  0.00000000000E+00  0.00000000000E+00 -0.33805737165E+03  0.33805737166E+03  0.25500000920E-02 0. -1.
    10030    2    1    2    0    0  0.00000000000E+00  0.00000000000E+00 -0.10345807852E+03  0.57265666480E+03  0.56323359428E+03 0.  0.
        4    1    3    3  502    0  0.23542562692E+03 -0.13422376770E+02  0.10479797506E+03  0.25804963570E+03  0.12699999809E+01 0.  1.
       -4    1    3    3    0  502 -0.23542562692E+03  0.13422376770E+02 -0.20825605358E+03  0.31460702910E+03  0.12699999809E+01 0. -1.
</event>
<event>
 5   0  0.8860626E-02  0.5914649E+03  0.7818609E-02  0.9923274E-01
        1   -1    0    0  501    0  0.00000000000E+00  0.00000000000E+00  0.32163745854E+03  0.32163745858E+03  0.50400001928E-02 0. -1.
       -1   -1    0    0    0  501  0.00000000000E+00  0.00000000000E+00 -0.27191386853E+03  0.27191386858E+03  0.50400001928E-02 0.  1.
    10030    2    1    2    0    0  0.00000000000E+00  0.00000000000E+00  0.49723590007E+02  0.59355132716E+03  0.59146491238E+03 0.  0.
        3    1    3    3  502    0 -0.14383127695E+03  0.51942390978E+02 -0.22915603688E+03  0.27549582147E+03  0.10100000352E+00 0.  1.
       -3    1    3    3    0  502  0.14383127695E+03 -0.51942390978E+02  0.27887962688E+03  0.31805550569E+03  0.10100000352E+00 0. -1.
</event>
<event>
 5   0  0.1502642E-01  0.6059279E+03  0.7818609E-02  0.9893183E-01
       -2   -1    0    0    0  501  0.00000000000E+00  0.00000000000E+00  0.15750261352E+03  0.15750261355E+03  0.25500000920E-02 0.  1.
        2   -1    0    0  501    0  0.00000000000E+00  0.00000000000E+00 -0.58276592929E+03  0.58276592930E+03  0.25500000920E-02 0. -1.
    10030    2    1    2    0    0  0.00000000000E+00  0.00000000000E+00 -0.42526331577E+03  0.74026854284E+03  0.60592790643E+03 0.  0.
        2    1    3    3  502    0  0.45391585070E+01  0.16047055038E+03  0.10126893702E+03  0.18980726833E+03  0.25500000920E-02 0.  1.
       -2    1    3    3    0  502 -0.45391585070E+01 -0.16047055038E+03 -0.52653225279E+03  0.55046127451E+03  0.25500000920E-02 0. -1.
</event>
<event>
 5   0  0.1532571E-01  0.5928962E+03  0.7818609E-02  0.9920255E-01
       -2   -1    0    0    0  501  0.00000000000E+00  0.00000000000E+00  0.26200214610E+03  0.26200214612E+03  0.25500000920E-02 0.  1.
        2   -1    0    0  501    0  0.00000000000E+00  0.00000000000E+00 -0.33542268840E+03  0.33542268841E+03  0.25500000920E-02 0. -1.
    10030    2    1    2    0    0  0.00000000000E+00  0.00000000000E+00 -0.73420542293E+02  0.59742483452E+03  0.59289616028E+03 0.  0.
        1    1    3    3  502    0 -0.41741429899E+02 -0.25230485265E+03 -0.18779344634E+03  0.31727978844E+03  0.50400001928E-02 0. -1.
       -1    1    3    3    0  502  0.41741429899E+02  0.25230485265E+03  0.11437290405E+03  0.28014504608E+03  0.50400001928E-02 0.  1.
</event>
<event>
 5   0  0.6170500E-02  0.6098626E+03  0.7818609E-02  0.9885153E-01
        3   -1    0    0  501    0  0.00000000000E+00  0.00000000000E+00  0.26839744531E+03  0.26839746431E+03  0.10100000352E+00 0.  1.
       -3   -1    0    0    0  501  0.00000000000E+00  0.00000000000E+00 -0.34643803692E+03  0.34643805164E+03  0.10100000352E+00 0. -1.
    10030    2    1    2    0    0  0.00000000000E+00  0.00000000000E+00 -0.78040591608E+02  0.61483551595E+03  0.60986258923E+03 0.  0.
        1    1    3    3  502    0 -0.19779556816E+03  0.15966999754E+03 -0.20881422999E+03  0.32896956937E+03  0.50400001928E-02 0. -1.
       -1    1    3    3    0  502  0.19779556816E+03 -0.15966999754E+03  0.13077363838E+03  0.28586594659E+03  0.50400001928E-02 0.  1.
</event>
<event>
 5   0  0.9420349E-02  0.7114412E+03  0.7818609E-02  0.9697864E-01
       -1   -1    0    0    0  501  0.00000000000E+00  0.00000000000E+00  0.10942248954E+03  0.10942248965E+03  0.50400001928E-02 0.  1.
        1   -1    0    0  501    0  0.00000000000E+00  0.00000000000E+00 -0.11564090516E+04  0.11564090516E+04  0.50400001928E-02 0. -1.
    10030    2    1    2    0    0  0.00000000000E+00  0.00000000000E+00 -0.10469865621E+04  0.12658315413E+04  0.71144123421E+03 0.  0.
        2    1    3    3  502    0 -0.23587114853E+03 -0.25797478565E+03 -0.64085591812E+03  0.72998801123E+03  0.25500000920E-02 0. -1.
       -2    1    3    3    0  502  0.23587114853E+03  0.25797478565E+03 -0.40613064397E+03  0.53584353007E+03  0.25500000920E-02 0.  1.
</event>
<event>
 5   0  0.1532571E-01  0.5704569E+03  0.7818609E-02  0.9968668E-01
       -2   -1    0    0    0  501  0.00000000000E+00  0.00000000000E+00  0.85786266165E+02  0.85786266202E+02  0.25500000920E-02 0. -1.
        2   -1    0    0  501    0  0.00000000000E+00  0.00000000000E+00 -0.94834842663E+03  0.94834842663E+03  0.25500000920E-02 0.  1.
    10030    2    1    2    0    0  0.00000000000E+00  0.00000000000E+00 -0.86256216046E+03  0.10341346928E+04  0.57045690657E+03 0.  0.
        1    1    3    3  502    0  0.31540973221E+02  0.59498059264E+02  0.71168629619E+02  0.97978701334E+02  0.50400001928E-02 0. -1.
       -1    1    3    3    0  502 -0.31540973221E+02 -0.59498059264E+02 -0.93373079008E+03  0.93615599150E+03  0.50400001928E-02 0.  1.
</event>
<event>
 5   0  0.6170500E-02  0.6040497E+03  0.7818609E-02  0.9897040E-01
       -4   -1    0    0    0  501  0.00000000000E+00  0.00000000000E+00  0.41436180277E+03  0.41436374902E+03  0.12699999809E+01 0.  1.
        4   -1    0    0  501    0  0.00000000000E+00  0.00000000000E+00 -0.22013906648E+03  0.22014272981E+03  0.12699999809E+01 0. -1.
    10030    2    1    2    0    0  0.00000000000E+00  0.00000000000E+00  0.19422273630E+03  0.63450647883E+03  0.60404966715E+03 0.  0.
        2    1    3    3  502    0  0.13591990791E+03 -0.17795185672E+03  0.31000742108E+03  0.38242082293E+03  0.25500000920E-02 0.  1.
       -2    1    3    3    0  502 -0.13591990791E+03  0.17795185672E+03 -0.11578468478E+03  0.25208565591E+03  0.25500000920E-02 0. -1.
</event>
<event>
 5   0  0.1483942E-01  0.6087303E+03  0.7818609E-02  0.9887457E-01
        2   -1    0    0  501    0  0.00000000000E+00  0.00000000000E+00  0.76411198489E+03  0.76411198490E+03  0.25500000920E-02 0. -1.
       -2   -1    0    0    0  501  0.00000000000E+00  0.00000000000E+00 -0.12123634645E+03  0.12123634648E+03  0.25500000920E-02 0.  1.
    10030    2    1    2    0    0  0.00000000000E+00  0.00000000000E+00  0.64287563844E+03  0.88534833137E+03  0.60873030265E+03 0.  0.
        4    1    3    3  502    0 -0.29081358342E+03  0.83989851907E+02  0.36765301177E+03  0.47623228102E+03  0.12699999809E+01 0. -1.
       -4    1    3    3    0  502  0.29081358342E+03 -0.83989851907E+02  0.27522262667E+03  0.40911605035E+03  0.12699999809E+01 0.  1.
</event>
<event>
 5   0  0.1513339E-01  0.6277307E+03  0.7818609E-02  0.9849487E-01
        2   -1    0    0  501    0  0.00000000000E+00  0.00000000000E+00  0.11830865838E+04  0.11830865838E+04  0.25500000920E-02 0.  1.
       -2   -1    0    0    0  501  0.00000000000E+00  0.00000000000E+00 -0.83266477657E+02  0.83266477696E+02  0.25500000920E-02 0. -1.
    10030    2    1    2    0    0  0.00000000000E+00  0.00000000000E+00  0.10998201062E+04  0.12663530615E+04  0.62773068309E+03 0.  0.
        3    1    3    3  502    0  0.14932178955E+03 -0.65999479576E+02  0.10906899819E+04  0.11028406843E+04  0.10100000352E+00 0.  1.
       -3    1    3    3    0  502 -0.14932178955E+03  0.65999479576E+02  0.91301242817E+01  0.16351237723E+03  0.10100000352E+00 0. -1.
</event>
<event>
 5   0  0.9420349E-02  0.5993549E+03  0.7818609E-02  0.9906745E-01
       -1   -1    0    0    0  501  0.00000000000E+00  0.00000000000E+00  0.27920181425E+03  0.27920181430E+03  0.50400001928E-02 0. -1.
        1   -1    0    0  501    0  0.00000000000E+00  0.00000000000E+00 -0.32165473323E+03  0.32165473326E+03  0.50400001928E-02 0.  1.
    10030    2    1    2    0    0  0.00000000000E+00  0.00000000000E+00 -0.42452918975E+02  0.60085654756E+03  0.59935493693E+03 0.  0.
        2    1    3    3  502    0  0.18394967342E+03  0.57086897994E+02  0.20893573891E+03  0.28416639364E+03  0.25500000920E-02 0. -1.
       -2    1    3    3    0  502 -0.18394967342E+03 -0.57086897994E+02 -0.25138865789E+03  0.31669015392E+03  0.25500000920E-02 0.  1.
</event>
<event>
 5   0  0.9411028E-02  0.5533607E+03  0.7818609E-02  0.1000719E+00
        1   -1    0    0  501    0  0.00000000000E+00  0.00000000000E+00  0.10931169182E+04  0.10931169182E+04  0.50400001928E-02 0. -1.
       -1   -1    0    0    0  501  0.00000000000E+00  0.00000000000E+00 -0.70030954161E+02  0.70030954342E+02  0.50400001928E-02 0.  1.
    10030    2    1    2    0    0  0.00000000000E+00  0.00000000000E+00  0.10230859641E+04  0.11631478726E+04  0.55336071745E+03 0.  0.
        4    1    3    3  502    0 -0.11892107301E+03 -0.81752219871E+02  0.10077360720E+04  0.10180173136E+04  0.12699999809E+01 0. -1.
       -4    1    3    3    0  502  0.11892107301E+03  0.81752219871E+02  0.15349892041E+02  0.14513055897E+03  0.12699999809E+01 0.  1.
</event>
<event>
 5   0  0.8860626E-02  0.6145413E+03  0.7818609E-02  0.9875688E-01
       -1   -1    0    0    0  501  0.00000000000E+00  0.00000000000E+00  0.20737714059E+03  0.20737714066E+03  0.50400001928E-02 0.  1.
        1   -1    0    0  501    0  0.00000000000E+00  0.00000000000E+00 -0.45528289735E+03  0.45528289738E+03  0.50400001928E-02 0. -1.
    10030    2    1    2    0    0  0.00000000000E+00  0.00000000000E+00 -0.24790575676E+03  0.66266003804E+03  0.61454134261E+03 0.  0.
        3    1    3    3  502    0  0.25671975376E+02 -0.14888728593E+03 -0.41246373479E+03  0.43926394907E+03  0.10100000352E+00 0. -1.
       -3    1    3    3    0  502 -0.25671975376E+02  0.14888728593E+03  0.16455797804E+03  0.22339608897E+03  0.10100000352E+00 0.  1.
</event>
<event>
 5   0  0.8860626E-02  0.6045439E+03  0.7818609E-02  0.9896023E-01
       -1   -1    0    0    0  501  0.00000000000E+00  0.00000000000E+00  0.32301264835E+03  0.32301264839E+03  0.50400001928E-02 0. -1.
        1   -1    0    0  501    0  0.00000000000E+00  0.00000000000E+00 -0.28286303748E+03  0.28286303753E+03  0.50400001928E-02 0.  1.
    10030    2    1    2    0    0  0.00000000000E+00  0.00000000000E+00  0.40149610863E+02  0.60587568592E+03  0.60454392357E+03 0.  0.
        3    1    3    3  502    0 -0.45862239460E+02  0.87052094717E+02  0.30651365143E+03  0.32191930808E+03  0.10100000352E+00 0. -1.
       -3    1    3    3    0  502  0.45862239460E+02 -0.87052094717E+02 -0.26636404057E+03  0.28395637783E+03  0.10100000352E+00 0.  1.
</event>
<event>
 5   0  0.1532571E-01  0.4522857E+03  0.7818609E-02  0.1027043E+00
        2   -1    0    0  501    0  0.00000000000E+00  0.00000000000E+00  0.33589883735E+03  0.33589883736E+03  0.25500000920E-02 0.  1.
       -2   -1    0    0    0  501  0.00000000000E+00  0.00000000000E+00 -0.15224997057E+03  0.15224997059E+03  0.25500000920E-02 0. -1.
    10030    2    1    2    0    0  0.00000000000E+00  0.00000000000E+00  0.18364886678E+03  0.48814880796E+03  0.45228569781E+03 0.  0.
        1    1    3    3  502    0 -0.11017929189E+03  0.18962114400E+03  0.15138081206E+03  0.26648040247E+03  0.50400001928E-02 0.  1.
       -1    1    3    3    0  502  0.11017929189E+03 -0.18962114400E+03  0.32268054714E+02  0.22166840549E+03  0.50400001928E-02 0. -1.
</event>
<event>
 5   0  0.1513339E-01  0.5865714E+03  0.7818609E-02  0.9933665E-01
       -2   -1    0    0    0  501  0.00000000000E+00  0.00000000000E+00  0.41732138636E+02  0.41732138714E+02  0.25500000920E-02 0.  1.
        2   -1    0    0  501    0  0.00000000000E+00  0.00000000000E+00 -0.20611571924E+04  0.20611571924E+04  0.25500000920E-02 0. -1.
    10030    2    1    2    0    0  0.00000000000E+00  0.00000000000E+00 -0.20194250538E+04  0.21028893311E+04  0.58657138623E+03 0.  0.
        3    1    3    3  502    0 -0.11506183533E+03 -0.93364662944E+02 -0.19170942612E+04  0.19228121600E+04  0.10100000352E+00 0. -1.
       -3    1    3    3    0  502  0.11506183533E+03  0.93364662944E+02 -0.10233079255E+03  0.18007717108E+03  0.10100000352E+00 0.  1.
</event>
<event>
 5   0  0.1502642E-01  0.6073756E+03  0.7818609E-02  0.9890221E-01
       -2   -1    0    0    0  501  0.00000000000E+00  0.00000000000E+00  0.10704659091E+03  0.10704659094E+03  0.25500000920E-02 0.  1.
        2   -1    0    0  501    0  0.00000000000E+00  0.00000000000E+00 -0.86155276336E+03  0.86155276336E+03  0.25500000920E-02 0. -1.
    10030    2    1    2    0    0  0.00000000000E+00  0.00000000000E+00 -0.75450617245E+03  0.96859935431E+03  0.60737562093E+03 0.  0.
        2    1    3    3  502    0  0.19051284187E+03  0.14422221674E+03 -0.78348440239E+02  0.25146305656E+03  0.25500000920E-02 0.  1.
       -2    1    3    3    0  502 -0.19051284187E+03 -0.14422221674E+03 -0.67615773221E+03  0.71713629775E+03  0.25500000920E-02 0. -1.
</event>
<event>
 5   0  0.9177281E-02  0.5878797E+03  0.7818609E-02  0.9930876E-01
        1   -1    0    0  501    0  0.00000000000E+00  0.00000000000E+00  0.15279109253E+04  0.15279109253E+04  0.50400001928E-02 0.  1.
       -1   -1    0    0    0  501  0.00000000000E+00  0.00000000000E+00 -0.56548222303E+02  0.56548222528E+02  0.50400001928E-02 0. -1.
    10030    2    1    2    0    0  0.00000000000E+00  0.00000000000E+00  0.14713627030E+04  0.15844591479E+04  0.58787973889E+03 0.  0.
        1    1    3    3  502    0  0.22547953409E+03  0.13500283928E+03  0.10905275810E+04  0.11217473833E+04  0.50400001928E-02 0.  1.
       -1    1    3    3    0  502 -0.22547953409E+03 -0.13500283928E+03  0.38083512201E+03  0.46271176458E+03  0.50400001928E-02 0. -1.
</event>
<event>
 5   0  0.1502642E-01  0.5646120E+03  0.7818609E-02  0.9981673E-01
       -2   -1    0    0    0  501  0.00000000000E+00  0.00000000000E+00  0.30375135321E+03  0.30375135322E+03  0.25500000920E-02 0. -1.
        2   -1    0    0  501    0  0.00000000000E+00  0.00000000000E+00 -0.26237475172E+03  0.26237475173E+03  0.25500000920E-02 0.  1.
    10030    2    1    2    0    0  0.00000000000E+00  0.00000000000E+00  0.41376601487E+02  0.56612610495E+03  0.56461202923E+03 0.  0.
        2    1    3    3  502    0  0.15778103412E+03 -0.26886538674E+02 -0.21248410885E+03  0.26602112174E+03  0.25500000920E-02 0.  1.
       -2    1    3    3    0  502 -0.15778103412E+03  0.26886538674E+02  0.25386071034E+03  0.30010498321E+03  0.25500000920E-02 0. -1.
</event>
<event>
 5   0  0.9177281E-02  0.6044183E+03  0.7818609E-02  0.9896282E-01
        1   -1    0    0  501    0  0.00000000000E+00  0.00000000000E+00  0.37855865616E+03  0.37855865619E+03  0.50400001928E-02 0.  1.
       -1   -1    0    0    0  501  0.00000000000E+00  0.00000000000E+00 -0.24125815990E+03  0.24125815995E+03  0.50400001928E-02 0. -1.
    10030    2    1    2    0    0  0.00000000000E+00  0.00000000000E+00  0.13730049626E+03  0.61981681614E+03  0.60441828174E+03 0.  0.
        1    1    3    3  502    0  0.11579921042E+03 -0.27407088778E+03  0.14328474607E+02  0.29787516491E+03  0.50400001928E-02 0.  1.
       -1    1    3    3    0  502 -0.11579921042E+03  0.27407088778E+03  0.12297202165E+03  0.32194165123E+03  0.50400001928E-02 0. -1.
</event>
<event>
 5   0  0.9497860E-02  0.6182086E+03  0.7818609E-02  0.9868333E-01
       -1   -1    0    0    0  501  0.00000000000E+00  0.00000000000E+00  0.29483250491E+03  0.29483250495E+03  0.50400001928E-02 0. -1.
        1   -1    0    0  501    0  0.00000000000E+00  0.00000000000E+00 -0.32406698582E+03  0.32406698586E+03  0.50400001928E-02 0.  1.
    10030    2    1    2    0    0  0.00000000000E+00  0.00000000000E+00 -0.29234480913E+02  0.61889949081E+03  0.61820864185E+03 0.  0.
        5    1    3    3  502    0  0.20953795878E+03  0.21864940394E+03  0.47174284799E+02  0.30653094649E+03  0.46999998093E+01 0.  1.
       -5    1    3    3    0  502 -0.20953795878E+03 -0.21864940394E+03 -0.76408765712E+02  0.31236854433E+03  0.46999998093E+01 0. -1.
</event>
<event>
 5   0  0.1483942E-01  0.5404722E+03  0.7818609E-02  0.1003724E+00
       -2   -1    0    0    0  501  0.00000000000E+00  0.00000000000E+00  0.17763547055E+03  0.17763547057E+03  0.25500000920E-02 0. -1.
        2   -1    0    0  501    0  0.00000000000E+00  0.00000000000E+00 -0.41110912055E+03  0.41110912056E+03  0.25500000920E-02 0.  1.
    10030    2    1    2    0    0  0.00000000000E+00  0.00000000000E+00 -0.23347365000E+03  0.58874459113E+03  0.54047224567E+03 0.  0.
        4    1    3    3  502    0  0.16814550493E+02  0.21302203370E+03 -0.29693481242E+03  0.36583194459E+03  0.12699999809E+01 0.  1.
       -4    1    3    3    0  502 -0.16814550493E+02 -0.21302203370E+03  0.63461162423E+02  0.22291264654E+03  0.12699999809E+01 0. -1.
</event>
<event>
 5   0  0.9177281E-02  0.5971183E+03  0.7818609E-02  0.9911403E-01
       -1   -1    0    0    0  501  0.00000000000E+00  0.00000000000E+00  0.47636908030E+03  0.47636908033E+03  0.50400001928E-02 0. -1.
        1   -1    0    0  501    0  0.00000000000E+00  0.00000000000E+00 -0.18711872629E+03  0.18711872636E+03  0.50400001928E-02 0.  1.
    10030    2    1    2    0    0  0.00000000000E+00  0.00000000000E+00  0.28925035401E+03  0.66348780669E+03  0.59711833193E+03 0.  0.
        1    1    3    3  502    0  0.13126827323E+03 -0.26154088678E+03  0.78864449882E+02  0.30307523241E+03  0.50400001928E-02 0. -1.
       -1    1    3    3    0  502 -0.13126827323E+03  0.26154088678E+03  0.21038590413E+03  0.36041257428E+03  0.50400001928E-02 0.  1.
</event>
<event>
 5   0  0.9497860E-02  0.6057617E+03  0.7818609E-02  0.9893524E-01
        1   -1    0    0  501    0  0.00000000000E+00  0.00000000000E+00  0.29485922110E+03  0.29485922115E+03  0.50400001928E-02 0.  1.
       -1   -1    0    0    0  501  0.00000000000E+00  0.00000000000E+00 -0.31112072431E+03  0.31112072435E+03  0.50400001928E-02 0. -1.
    10030    2    1    2    0    0  0.00000000000E+00  0.00000000000E+00 -0.16261503204E+02  0.60597994549E+03  0.60576171706E+03 0.  0.
        5    1    3    3  502    0  0.88280620403E+02 -0.11959990168E+03 -0.27207636883E+03  0.31007296705E+03  0.46999998093E+01 0. -1.
       -5    1    3    3    0  502 -0.88280620403E+02  0.11959990168E+03  0.25581486563E+03  0.29590697845E+03  0.46999998093E+01 0.  1.
</event>
<event>
 5   0  0.9177281E-02  0.6071759E+03  0.7818609E-02  0.9890629E-01
       -1   -1    0    0    0  501  0.00000000000E+00  0.00000000000E+00  0.43531133861E+03  0.43531133864E+03  0.50400001928E-02 0. -1.
        1   -1    0    0  501    0  0.00000000000E+00  0.00000000000E+00 -0.21172348927E+03  0.21172348933E+03  0.50400001928E-02 0.  1.
    10030    2    1    2    0    0  0.00000000000E+00  0.00000000000E+00  0.22358784935E+03  0.64703482797E+03  0.60717587421E+03 0.  0.
        1    1    3    3  502    0  0.29379473109E+03 -0.59300416408E+01  0.30530949127E+02  0.29543636927E+03  0.50400001928E-02 0.  1.
       -1    1    3    3    0  502 -0.29379473109E+03  0.59300416408E+01  0.19305690022E+03  0.35159845869E+03  0.50400001928E-02 0. -1.
</event>
<event>
 5   0  0.9420349E-02  0.5895943E+03  0.7818609E-02  0.9927233E-01
        1   -1    0    0  501    0  0.00000000000E+00  0.00000000000E+00  0.43740908336E+03  0.43740908339E+03  0.50400001928E-02 0.  1.
       -1   -1    0    0    0  501  0.00000000000E+00  0.00000000000E+00 -0.19868211457E+03  0.19868211463E+03  0.50400001928E-02 0. -1.
    10030    2    1    2    0    0  0.00000000000E+00  0.00000000000E+00  0.23872696879E+03  0.63609119802E+03  0.58959430676E+03 0.  0.
        2    1    3    3  502    0 -0.58019643189E+02  0.28025330915E+03  0.19562895680E+03  0.34666826366E+03  0.25500000920E-02 0. -1.
       -2    1    3    3    0  502  0.58019643189E+02 -0.28025330915E+03  0.43098011994E+02  0.28942293436E+03  0.25500000920E-02 0.  1.
</event>
<event>
 5   0  0.9420349E-02  0.5927066E+03  0.7818609E-02  0.9920654E-01
        1   -1    0    0  501    0  0.00000000000E+00  0.00000000000E+00  0.87685890824E+03  0.87685890825E+03  0.50400001928E-02 0.  1.
       -1   -1    0    0    0  501  0.00000000000E+00  0.00000000000E+00 -0.10015896571E+03  0.10015896583E+03  0.50400001928E-02 0. -1.
    10030    2    1    2    0    0  0.00000000000E+00  0.00000000000E+00  0.77669994253E+03  0.97701787409E+03  0.59270661002E+03 0.  0.
        2    1    3    3  502    0 -0.13606786726E+03  0.13307818230E+03  0.13901676187E+02  0.19083375936E+03  0.25500000920E-02 0. -1.
       -2    1    3    3    0  502  0.13606786726E+03 -0.13307818230E+03  0.76279826634E+03  0.78618411472E+03  0.25500000920E-02 0.  1.
</event>
<event>
 5   0  0.6170500E-02  0.5966648E+03  0.7818609E-02  0.9912350E-01
       -3   -1    0    0    0  501  0.00000000000E+00  0.00000000000E+00  0.77340809412E+03  0.77340810072E+03  0.10100000352E+00 0. -1.
        3   -1    0    0  501    0  0.00000000000E+00  0.00000000000E+00 -0.11507790970E+03  0.11507795403E+03  0.10100000352E+00 0.  1.
    10030    2    1    2    0    0  0.00000000000E+00  0.00000000000E+00  0.65833018442E+03  0.88848605474E+03  0.59666476162E+03 0.  0.
        1    1    3    3  502    0 -0.27459136458E+03 -0.10756015740E+03  0.26203045250E+03  0.39449912930E+03  0.50400001928E-02 0. -1.
       -1    1    3    3    0  502  0.27459136458E+03  0.10756015740E+03  0.39629973192E+03  0.49398692544E+03  0.50400001928E-02 0.  1.
</event>
<event>
 5   0  0.6170500E-02  0.5960035E+03  0.7818609E-02  0.9913732E-01
       -3   -1    0    0    0  501  0.00000000000E+00  0.00000000000E+00  0.51323686337E+03  0.51323687331E+03  0.10100000352E+00 0.  1.
        3   -1    0    0  501    0  0.00000000000E+00  0.00000000000E+00 -0.17302932781E+03  0.17302935728E+03  0.10100000352E+00 0. -1.
    10030    2    1    2    0    0  0.00000000000E+00  0.00000000000E+00  0.34020753557E+03  0.68626623059E+03  0.59600349999E+03 0.  0.
        3    1    3    3  502    0  0.73923950250E+02  0.16092549412E+03 -0.10586719417E+03  0.20632410931E+03  0.10100000352E+00 0. -1.
       -3    1    3    3    0  502 -0.73923950250E+02 -0.16092549412E+03  0.44607472973E+03  0.47994212129E+03  0.10100000352E+00 0.  1.
</event>
<event>
 5   0  0.9497860E-02  0.6244816E+03  0.7818609E-02  0.9855877E-01
       -1   -1    0    0    0  501  0.00000000000E+00  0.00000000000E+00  0.61990132052E+02  0.61990132257E+02  0.50400001928E-02 0.  1.
        1   -1    0    0  501    0  0.00000000000E+00  0.00000000000E+00 -0.15727392429E+04  0.15727392429E+04  0.50400001928E-02 0. -1.
    10030    2    1    2    0    0  0.00000000000E+00  0.00000000000E+00 -0.15107491109E+04  0.16347293752E+04  0.62448158828E+03 0.  0.
        5    1    3    3  502    0 -0.71492676259E+02  0.19244918118E+02 -0.15493335648E+04  0.15511086856E+04  0.46999998093E+01 0. -1.
       -5    1    3    3    0  502  0.71492676259E+02 -0.19244918118E+02  0.38584453955E+02  0.83620689529E+02  0.46999998093E+01 0.  1.
</event>
<event>
 5   0  0.1532571E-01  0.6021741E+03  0.7818609E-02  0.9900906E-01
        2   -1    0    0  501    0  0.00000000000E+00  0.00000000000E+00  0.14581194718E+04  0.14581194718E+04  0.25500000920E-02 0. -1.
       -2   -1    0    0    0  501  0.00000000000E+00  0.00000000000E+00 -0.62171447557E+02  0.62171447609E+02  0.25500000920E-02 0.  1.
    10030    2    1    2    0    0  0.00000000000E+00  0.00000000000E+00  0.13959480243E+04  0.15202909195E+04  0.60217405562E+03 0.  0.
        1    1    3    3  502    0 -0.16345230384E+03  0.23583123163E+03  0.46768349483E+03  0.54869014645E+03  0.50400001928E-02 0.  1.
       -1    1    3    3    0  502  0.16345230384E+03 -0.23583123163E+03  0.92826452945E+03  0.97160077301E+03  0.50400001928E-02 0. -1.
</event>
<event>
 5   0  0.6170500E-02  0.5754516E+03  0.7818609E-02  0.9957687E-01
       -4   -1    0    0    0  501  0.00000000000E+00  0.00000000000E+00  0.92118851862E+02  0.92127605897E+02  0.12699999809E+01 0. -1.
        4   -1    0    0  501    0  0.00000000000E+00  0.00000000000E+00 -0.89863656557E+03  0.89863746299E+03  0.12699999809E+01 0.  1.
    10030    2    1    2    0    0  0.00000000000E+00  0.00000000000E+00 -0.80651771371E+03  0.99076506888E+03  0.57545164800E+03 0.  0.
        5    1    3    3  502    0 -0.47322428714E+02 -0.24959629682E+03 -0.63569921511E+03  0.68459718502E+03  0.46999998093E+01 0. -1.
       -5    1    3    3    0  502  0.47322428714E+02  0.24959629682E+03 -0.17081849860E+03  0.30616788386E+03  0.46999998093E+01 0.  1.
</event>
<event>
 5   0  0.1513339E-01  0.5933098E+03  0.7818609E-02  0.9919384E-01
        2   -1    0    0  501    0  0.00000000000E+00  0.00000000000E+00  0.23567511913E+04  0.23567511913E+04  0.25500000920E-02 0. -1.
       -2   -1    0    0    0  501  0.00000000000E+00  0.00000000000E+00 -0.37341287918E+02  0.37341288005E+02  0.25500000920E-02 0.  1.
    10030    2    1    2    0    0  0.00000000000E+00  0.00000000000E+00  0.23194099034E+04  0.23940924793E+04  0.59330978381E+03 0.  0.
        3    1    3    3  502    0  0.21229260098E+03  0.18519116592E+03  0.15347826722E+04  0.15604235891E+04  0.10100000352E+00 0. -1.
       -3    1    3    3    0  502 -0.21229260098E+03 -0.18519116592E+03  0.78462723119E+03  0.83366889020E+03  0.10100000352E+00 0.  1.
</event>
<event>
 5   0  0.9411028E-02  0.6037969E+03  0.7818609E-02  0.9897560E-01
        1   -1    0    0  501    0  0.00000000000E+00  0.00000000000E+00  0.13119099890E+04  0.13119099890E+04  0.50400001928E-02 0.  1.
       -1   -1    0    0    0  501  0.00000000000E+00  0.00000000000E+00 -0.69473273107E+02  0.69473273290E+02  0.50400001928E-02 0. -1.
    10030    2    1    2    0    0  0.00000000000E+00  0.00000000000E+00  0.12424367159E+04  0.13813832623E+04  0.60379692311E+03 0.  0.
        4    1    3    3  502    0  0.16740675546E+03  0.18820995707E+03  0.10019410435E+04  0.10331192948E+04  0.12699999809E+01 0.  1.
       -4    1    3    3    0  502 -0.16740675546E+03 -0.18820995707E+03  0.24049567232E+03  0.34826396744E+03  0.12699999809E+01 0. -1.
</event>
<event>
 5   0  0.1532571E-01  0.6070424E+03  0.7818609E-02  0.9890902E-01
       -2   -1    0    0    0  501  0.00000000000E+00  0.00000000000E+00  0.10056775460E+03  0.10056775463E+03  0.25500000920E-02 0. -1.
        2   -1    0    0  501    0  0.00000000000E+00  0.00000000000E+00 -0.91605031753E+03  0.91605031753E+03  0.25500000920E-02 0.  1.
    10030    2    1    2    0    0  0.00000000000E+00  0.00000000000E+00 -0.81548256293E+03  0.10166180722E+04  0.60704241549E+03 0.  0.
        1    1    3    3  502    0 -0.70801301285E+02 -0.27735911270E+03 -0.23873505136E+03  0.37274029355E+03  0.50400001928E-02 0.  1.
       -1    1    3    3    0  502  0.70801301285E+02  0.27735911270E+03 -0.57674751157E+03  0.64387777861E+03  0.50400001928E-02 0. -1.
</event>
<event>
 5   0  0.9177281E-02  0.6037141E+03  0.7818609E-02  0.9897730E-01
       -1   -1    0    0    0  501  0.00000000000E+00  0.00000000000E+00  0.58273724065E+02  0.58273724283E+02  0.50400001928E-02 0.  1.
        1   -1    0    0  501    0  0.00000000000E+00  0.00000000000E+00 -0.15636152751E+04  0.15636152751E+04  0.50400001928E-02 0. -1.
    10030    2    1    2    0    0  0.00000000000E+00  0.00000000000E+00 -0.15053415511E+04  0.16218889994E+04  0.60371412198E+03 0.  0.
        1    1    3    3  502    0  0.36102095457E+01 -0.59628062171E+02  0.42235178388E+02  0.73159754853E+02  0.50400001928E-02 0.  1.
       -1    1    3    3    0  502 -0.36102095457E+01  0.59628062171E+02 -0.15475767295E+04  0.15487292446E+04  0.50400001928E-02 0. -1.
</event>
<event>
 5   0  0.1483942E-01  0.5982876E+03  0.7818609E-02  0.9908965E-01
       -2   -1    0    0    0  501  0.00000000000E+00  0.00000000000E+00  0.56195936587E+02  0.56195936645E+02  0.25500000920E-02 0.  1.
        2   -1    0    0  501    0  0.00000000000E+00  0.00000000000E+00 -0.15924106525E+04  0.15924106525E+04  0.25500000920E-02 0. -1.
    10030    2    1    2    0    0  0.00000000000E+00  0.00000000000E+00 -0.15362147159E+04  0.16486065891E+04  0.59828758335E+03 0.  0.
        4    1    3    3  502    0  0.13496118491E+03 -0.10466977099E+03 -0.14448446571E+04  0.14549048004E+04  0.12699999809E+01 0. -1.
       -4    1    3    3    0  502 -0.13496118491E+03  0.10466977099E+03 -0.91370058838E+02  0.19370178870E+03  0.12699999809E+01 0.  1.
</event>
<event>
 5   0  0.9497860E-02  0.5994929E+03  0.7818609E-02  0.9906459E-01
       -1   -1    0    0    0  501  0.00000000000E+00  0.00000000000E+00  0.92816132466E+02  0.92816132603E+02  0.50400001928E-02 0.  1.
        1   -1    0    0  501    0  0.00000000000E+00  0.00000000000E+00 -0.96802077747E+03  0.96802077748E+03  0.50400001928E-02 0. -1.
    10030    2    1    2    0    0  0.00000000000E+00  0.00000000000E+00 -0.87520464500E+03  0.10608369101E+04  0.59949293504E+03 0.  0.
        5    1    3    3  502    0 -0.28620060247E+02 -0.23906506671E+03 -0.75343052517E+03  0.79098094808E+03  0.46999998093E+01 0. -1.
       -5    1    3    3    0  502  0.28620060247E+02  0.23906506671E+03 -0.12177411983E+03  0.26985596200E+03  0.46999998093E+01 0.  1.
</event>
<event>
 5   0  0.1502642E-01  0.6026501E+03  0.7818609E-02  0.9899923E-01
        2   -1    0    0  501    0  0.00000000000E+00  0.00000000000E+00  0.47139783567E+03  0.47139783567E+03  0.25500000920E-02 0. -1.
       -2   -1    0    0    0  501  0.00000000000E+00  0.00000000000E+00 -0.19261180220E+03  0.19261180222E+03  0.25500000920E-02 0.  1.
    10030    2    1    2    0    0  0.00000000000E+00  0.00000000000E+00  0.27878603346E+03  0.66400963789E+03  0.60265010310E+03 0.  0.
        2    1    3    3  502    0 -0.14139633038E+03 -0.11212838323E+03 -0.12648755750E+03  0.22037422440E+03  0.25500000920E-02 0.  1.
       -2    1    3    3    0  502  0.14139633038E+03  0.11212838323E+03  0.40527359096E+03  0.44363541349E+03  0.25500000920E-02 0. -1.
</event>
<event>
 5   0  0.1488510E-01  0.7822636E+03  0.7818609E-02  0.9586051E-01
       -2   -1    0    0    0  501  0.00000000000E+00  0.00000000000E+00  0.52958316460E+03  0.52958316460E+03  0.25500000920E-02 0.  1.
        2   -1    0    0  501    0  0.00000000000E+00  0.00000000000E+00 -0.28887644022E+03  0.28887644023E+03  0.25500000920E-02 0. -1.
    10030    2    1    2    0    0  0.00000000000E+00  0.00000000000E+00  0.24070672438E+03  0.81845960484E+03  0.78226363688E+03 0.  0.
        5    1    3    3  502    0 -0.24368028903E+03 -0.23102038664E+03  0.33016002796E+03  0.47093336723E+03  0.46999998093E+01 0.  1.
       -5    1    3    3    0  502  0.24368028903E+03  0.23102038664E+03 -0.89453303584E+02  0.34752623761E+03  0.46999998093E+01 0. -1.
</event>
<event>
 5   0  0.1502642E-01  0.6017544E+03  0.7818609E-02  0.9901773E-01
        2   -1    0    0  501    0  0.00000000000E+00  0.00000000000E+00  0.15214779017E+04  0.15214779017E+04  0.25500000920E-02 0.  1.
       -2   -1    0    0    0  501  0.00000000000E+00  0.00000000000E+00 -0.59499439980E+02  0.59499440035E+02  0.25500000920E-02 0. -1.
    10030    2    1    2    0    0  0.00000000000E+00  0.00000000000E+00  0.14619784618E+04  0.15809773418E+04  0.60175437893E+03 0.  0.
        2    1    3    3  502    0  0.22574946593E+03  0.15573592489E+03  0.10560782178E+04  0.10911084739E+04  0.25500000920E-02 0.  1.
       -2    1    3    3    0  502 -0.22574946593E+03 -0.15573592489E+03  0.40590024393E+03  0.48986886786E+03  0.25500000920E-02 0. -1.
</event>
<event>
 5   0  0.1513339E-01  0.5859431E+03  0.7818609E-02  0.9935007E-01
       -2   -1    0    0    0  501  0.00000000000E+00  0.00000000000E+00  0.27653990900E+03  0.27653990901E+03  0.25500000920E-02 0. -1.
        2   -1    0    0  501    0  0.00000000000E+00  0.00000000000E+00 -0.31037948676E+03  0.31037948677E+03  0.25500000920E-02 0.  1.
    10030    2    1    2    0    0  0.00000000000E+00  0.00000000000E+00 -0.33839577757E+02  0.58691939578E+03  0.58594305194E+03 0.  0.
        3    1    3    3  502    0  0.20598214184E+03 -0.20556068405E+03 -0.50865300538E+02  0.29541686916E+03  0.10100000352E+00 0.  1.
       -3    1    3    3    0  502 -0.20598214184E+03  0.20556068405E+03  0.17025722781E+02  0.29150252662E+03  0.10100000352E+00 0. -1.
</event>
<event>
 5   0  0.1513339E-01  0.6127844E+03  0.7818609E-02  0.9879232E-01
        2   -1    0    0  501    0  0.00000000000E+00  0.00000000000E+00  0.78951654002E+03  0.78951654002E+03  0.25500000920E-02 0. -1.
       -2   -1    0    0    0  501  0.00000000000E+00  0.00000000000E+00 -0.11890338178E+03  0.11890338180E+03  0.25500000920E-02 0.  1.
    10030    2    1    2    0    0  0.00000000000E+00  0.00000000000E+00  0.67061315824E+03  0.90841992183E+03  0.61278442079E+03 0.  0.
        3    1    3    3  502    0  0.43986005269E+02  0.10633245482E+02  0.78453508374E+03  0.78583913264E+03  0.10100000352E+00 0. -1.
       -3    1    3    3    0  502 -0.43986005269E+02 -0.10633245482E+02 -0.11392192549E+03  0.12258078919E+03  0.10100000352E+00 0.  1.
</event>
<event>
 5   0  0.1502642E-01  0.6233996E+03  0.7818609E-02  0.9858014E-01
        2   -1    0    0  501    0  0.00000000000E+00  0.00000000000E+00  0.28283871447E+03  0.28283871448E+03  0.25500000920E-02 0.  1.
       -2   -1    0    0    0  501  0.00000000000E+00  0.00000000000E+00 -0.34350592749E+03  0.34350592750E+03  0.25500000920E-02 0. -1.
    10030    2    1    2    0    0  0.00000000000E+00  0.00000000000E+00 -0.60667213022E+02  0.62634464198E+03  0.62339963090E+03 0.  0.
        2    1    3    3  502    0 -0.27670709194E+03 -0.10760060745E+03  0.65046783026E+02  0.30393385702E+03  0.25500000920E-02 0.  1.
       -2    1    3    3    0  502  0.27670709194E+03  0.10760060745E+03 -0.12571399605E+03  0.32241078497E+03  0.25500000920E-02 0. -1.
</event>
<event>
 5   0  0.9497860E-02  0.6098505E+03  0.7818609E-02  0.9885178E-01
       -1   -1    0    0    0  501  0.00000000000E+00  0.00000000000E+00  0.22641856574E+03  0.22641856580E+03  0.50400001928E-02 0.  1.
        1   -1    0    0  501    0  0.00000000000E+00  0.00000000000E+00 -0.41065274511E+03  0.41065274514E+03  0.50400001928E-02 0. -1.
    10030    2    1    2    0    0  0.00000000000E+00  0.00000000000E+00 -0.18423417937E+03  0.63707131094E+03  0.60985049182E+03 0.  0.
        5    1    3    3  502    0 -0.22373246971E+03  0.17796996195E+03  0.18573783857E+02  0.28652504394E+03  0.46999998093E+01 0.  1.
       -5    1    3    3    0  502  0.22373246971E+03 -0.17796996195E+03 -0.20280796323E+03  0.35054626700E+03  0.46999998093E+01 0. -1.
</event>
<event>
 5   0  0.1488510E-01  0.6011898E+03  0.7818609E-02  0.9902941E-01
        2   -1    0    0  501    0  0.00000000000E+00  0.00000000000E+00  0.98641510908E+03  0.98641510909E+03  0.25500000920E-02 0.  1.
       -2   -1    0    0    0  501  0.00000000000E+00  0.00000000000E+00 -0.91601693269E+02  0.91601693305E+02  0.25500000920E-02 0. -1.
    10030    2    1    2    0    0  0.00000000000E+00  0.00000000000E+00  0.89481341581E+03  0.10780168024E+04  0.60118980124E+03 0.  0.
        5    1    3    3  502    0 -0.16539816584E+03 -0.21776346114E+03  0.67106602006E+03  0.72465796866E+03  0.46999998093E+01 0.  1.
       -5    1    3    3    0  502  0.16539816584E+03  0.21776346114E+03  0.22374739576E+03  0.35335883373E+03  0.46999998093E+01 0. -1.
</event>
<event>
 5   0  0.1513339E-01  0.5942752E+03  0.7818609E-02  0.9917355E-01
        2   -1    0    0  501    0  0.00000000000E+00  0.00000000000E+00  0.15934618618E+04  0.15934618618E+04  0.25500000920E-02 0. -1.
       -2   -1    0    0    0  501  0.00000000000E+00  0.00000000000E+00 -0.55408137481E+02  0.55408137540E+02  0.25500000920E-02 0.  1.
    10030    2    1    2    0    0  0.00000000000E+00  0.00000000000E+00  0.15380537243E+04  0.16488699993E+04  0.59427520210E+03 0.  0.
        3    1    3    3  502    0  0.18091053313E+03  0.22504122406E+03  0.57443788002E+03  0.64292383820E+03  0.10100000352E+00 0.  1.
       -3    1    3    3    0  502 -0.18091053313E+03 -0.22504122406E+03  0.96361584425E+03  0.10059461611E+04  0.10100000352E+00 0. -1.
</event>
<event>
 5   0  0.9411028E-02  0.6046703E+03  0.7818609E-02  0.9895764E-01
        1   -1    0    0  501    0  0.00000000000E+00  0.00000000000E+00  0.19396664120E+03  0.19396664126E+03  0.50400001928E-02 0. -1.
       -1   -1    0    0    0  501  0.00000000000E+00  0.00000000000E+00 -0.47124877492E+03  0.47124877495E+03  0.50400001928E-02 0.  1.
    10030    2    1    2    0    0  0.00000000000E+00  0.00000000000E+00 -0.27728213372E+03  0.66521541621E+03  0.60467029717E+03 0.  0.
        4    1    3    3  502    0 -0.84021953255E+02  0.28999122599E+03 -0.12123504242E+03  0.32535234468E+03  0.12699999809E+01 0.  1.
       -4    1    3    3    0  502  0.84021953255E+02 -0.28999122599E+03 -0.15604709131E+03  0.33986307152E+03  0.12699999809E+01 0. -1.
</event>
<event>
 5   0  0.1532571E-01  0.6049327E+03  0.7818609E-02  0.9895225E-01
        2   -1    0    0  501    0  0.00000000000E+00  0.00000000000E+00  0.41254468431E+03  0.41254468432E+03  0.25500000920E-02 0. -1.
       -2   -1    0    0    0  501  0.00000000000E+00  0.00000000000E+00 -0.22175994381E+03  0.22175994383E+03  0.25500000920E-02 0.  1.
    10030    2    1    2    0    0  0.00000000000E+00  0.00000000000E+00  0.19078474050E+03  0.63430462815E+03  0.60493267731E+03 0.  0.
        1    1    3    3  502    0  0.73055499255E+02 -0.18297763296E+03  0.33603031405E+03  0.38953086158E+03  0.50400001928E-02 0.  1.
       -1    1    3    3    0  502 -0.73055499255E+02  0.18297763296E+03 -0.14524557356E+03  0.24477376657E+03  0.50400001928E-02 0. -1.
</event>
<event>
 5   0  0.1502642E-01  0.5154736E+03  0.7818609E-02  0.1009817E+00
        2   -1    0    0  501    0  0.00000000000E+00  0.00000000000E+00  0.43119701793E+03  0.43119701793E+03  0.25500000920E-02 0. -1.
       -2   -1    0    0    0  501  0.00000000000E+00  0.00000000000E+00 -0.15405545632E+03  0.15405545634E+03  0.25500000920E-02 0.  1.
    10030    2    1    2    0    0  0.00000000000E+00  0.00000000000E+00  0.27714156160E+03  0.58525247428E+03  0.51547358175E+03 0.  0.
        2    1    3    3  502    0  0.13662446613E+03 -0.17042600169E+03 -0.16759028966E+02  0.21907106576E+03  0.25500000920E-02 0.  1.
       -2    1    3    3    0  502 -0.13662446613E+03  0.17042600169E+03  0.29390059057E+03  0.36618140851E+03  0.25500000920E-02 0. -1.
</event>
<event>
 5   0  0.9420349E-02  0.5834985E+03  0.7818609E-02  0.9940245E-01
       -1   -1    0    0    0  501  0.00000000000E+00  0.00000000000E+00  0.53749056634E+03  0.53749056636E+03  0.50400001928E-02 0. -1.
        1   -1    0    0  501    0  0.00000000000E+00  0.00000000000E+00 -0.15836114340E+03  0.15836114348E+03  0.50400001928E-02 0.  1.
    10030    2    1    2    0    0  0.00000000000E+00  0.00000000000E+00  0.37912942294E+03  0.69585170984E+03  0.58349848565E+03 0.  0.
        2    1    3    3  502    0  0.19602379288E+03  0.12145888053E+03 -0.23565320513E+02  0.23180360517E+03  0.25500000920E-02 0.  1.
       -2    1    3    3    0  502 -0.19602379288E+03 -0.12145888053E+03  0.40269474345E+03  0.46404810467E+03  0.25500000920E-02 0. -1.
</event>
<event>
 5   0  0.1488510E-01  0.5979803E+03  0.7818609E-02  0.9909605E-01
        2   -1    0    0  501    0  0.00000000000E+00  0.00000000000E+00  0.28057867535E+03  0.28057867536E+03  0.25500000920E-02 0.  1.
       -2   -1    0    0    0  501  0.00000000000E+00  0.00000000000E+00 -0.31860974555E+03  0.31860974556E+03  0.25500000920E-02 0. -1.
    10030    2    1    2    0    0  0.00000000000E+00  0.00000000000E+00 -0.38031070202E+02  0.59918842092E+03  0.59798026845E+03 0.  0.
        5    1    3    3  502    0 -0.25433290675E+02 -0.29279837089E+03 -0.73855188165E+02  0.30307493643E+03  0.46999998093E+01 0.  1.
       -5    1    3    3    0  502  0.25433290675E+02  0.29279837089E+03  0.35824117964E+02  0.29611348449E+03  0.46999998093E+01 0. -1.
</event>
<event>
 5   0  0.8860626E-02  0.6061900E+03  0.7818609E-02  0.9892646E-01
        1   -1    0    0  501    0  0.00000000000E+00  0.00000000000E+00  0.96130160197E+03  0.96130160199E+03  0.50400001928E-02 0.  1.
       -1   -1    0    0    0  501  0.00000000000E+00  0.00000000000E+00 -0.95564795594E+02  0.95564795727E+02  0.50400001928E-02 0. -1.
    10030    2    1    2    0    0  0.00000000000E+00  0.00000000000E+00  0.86573680638E+03  0.10568663977E+04  0.60619004008E+03 0.  0.
        3    1    3    3  502    0  0.15456643602E+03  0.24005771806E+03  0.61022256682E+03  0.67371365016E+03  0.10100000352E+00 0.  1.
       -3    1    3    3    0  502 -0.15456643602E+03 -0.24005771806E+03  0.25551423955E+03  0.38315274756E+03  0.10100000352E+00 0. -1.
</event>
<event>
 5   0  0.8860626E-02  0.5044575E+03  0.7818609E-02  0.1012622E+00
       -1   -1    0    0    0  501  0.00000000000E+00  0.00000000000E+00  0.46064282081E+02  0.46064282357E+02  0.50400001928E-02 0. -1.
        1   -1    0    0  501    0  0.00000000000E+00  0.00000000000E+00 -0.13810992832E+04  0.13810992832E+04  0.50400001928E-02 0.  1.
    10030    2    1    2    0    0  0.00000000000E+00  0.00000000000E+00 -0.13350350011E+04  0.14271635656E+04  0.50445751919E+03 0.  0.
        3    1    3    3  502    0  0.28741939025E+02 -0.18339787613E+03 -0.11506112506E+04  0.11654900858E+04  0.10100000352E+00 0.  1.
       -3    1    3    3    0  502 -0.28741939025E+02  0.18339787613E+03 -0.18442375053E+03  0.26167347972E+03  0.10100000352E+00 0. -1.
</event>
<event>
 5   0  0.9420349E-02  0.3845821E+03  0.7818609E-02  0.1049253E+00
       -1   -1    0    0    0  501  0.00000000000E+00  0.00000000000E+00  0.48028889971E+02  0.48028890235E+02  0.50400001928E-02 0.  1.
        1   -1    0    0  501    0  0.00000000000E+00  0.00000000000E+00 -0.76986667529E+03  0.76986667530E+03  0.50400001928E-02 0. -1.
    10030    2    1    2    0    0  0.00000000000E+00  0.00000000000E+00 -0.72183778531E+03  0.81789556554E+03  0.38458206903E+03 0.  0.
        2    1    3    3  502    0 -0.14476554140E+03 -0.29275264709E+02 -0.62278743327E+03  0.64006116126E+03  0.25500000920E-02 0. -1.
       -2    1    3    3    0  502  0.14476554140E+03  0.29275264709E+02 -0.99050352039E+02  0.17783440428E+03  0.25500000920E-02 0.  1.
</event>
<event>
 5   0  0.1483942E-01  0.5986301E+03  0.7818609E-02  0.9908252E-01
        2   -1    0    0  501    0  0.00000000000E+00  0.00000000000E+00  0.61795113227E+03  0.61795113228E+03  0.25500000920E-02 0.  1.
       -2   -1    0    0    0  501  0.00000000000E+00  0.00000000000E+00 -0.14497830135E+03  0.14497830137E+03  0.25500000920E-02 0. -1.
    10030    2    1    2    0    0  0.00000000000E+00  0.00000000000E+00  0.47297283092E+03  0.76292943365E+03  0.59863012114E+03 0.  0.
        4    1    3    3  502    0  0.18286700912E+03 -0.92953184330E+02 -0.41296654895E+02  0.20925502170E+03  0.12699999809E+01 0. -1.
       -4    1    3    3    0  502 -0.18286700912E+03  0.92953184330E+02  0.51426948582E+03  0.55367441195E+03  0.12699999809E+01 0.  1.
</event>
<event>
 5   0  0.1502642E-01  0.6008667E+03  0.7818609E-02  0.9903610E-01
        2   -1    0    0  501    0  0.00000000000E+00  0.00000000000E+00  0.79778561737E+03  0.79778561738E+03  0.25500000920E-02 0. -1.
       -2   -1    0    0    0  501  0.00000000000E+00  0.00000000000E+00 -0.11313841610E+03  0.11313841613E+03  0.25500000920E-02 0.  1.
    10030    2    1    2    0    0  0.00000000000E+00  0.00000000000E+00  0.68464720127E+03  0.91092403350E+03  0.60086671118E+03 0.  0.
        2    1    3    3  502    0 -0.14072857527E+02 -0.28571517194E+03  0.20313875595E+03  0.35085119206E+03  0.25500000920E-02 0.  1.
       -2    1    3    3    0  502  0.14072857527E+02  0.28571517194E+03  0.48150844533E+03  0.56007284144E+03  0.25500000920E-02 0. -1.
</event>
<event>
 5   0  0.1483942E-01  0.6165437E+03  0.7818609E-02  0.9871665E-01
       -2   -1    0    0    0  501  0.00000000000E+00  0.00000000000E+00  0.18948945261E+03  0.18948945262E+03  0.25500000920E-02 0. -1.
        2   -1    0    0  501    0  0.00000000000E+00  0.00000000000E+00 -0.50151355255E+03  0.50151355255E+03  0.25500000920E-02 0.  1.
    10030    2    1    2    0    0  0.00000000000E+00  0.00000000000E+00 -0.31202409994E+03  0.69100300518E+03  0.61654368395E+03 0.  0.
        4    1    3    3  502    0 -0.17793353892E+03  0.33854705986E+02  0.12355955374E+03  0.21926025999E+03  0.12699999809E+01 0. -1.
       -4    1    3    3    0  502  0.17793353892E+03 -0.33854705986E+02 -0.43558365368E+03  0.47174274519E+03  0.12699999809E+01 0.  1.
</event>
<event>
 5   0  0.1532571E-01  0.5963218E+03  0.7818609E-02  0.9913067E-01
       -2   -1    0    0    0  501  0.00000000000E+00  0.00000000000E+00  0.98284211807E+02  0.98284211840E+02  0.25500000920E-02 0. -1.
        2   -1    0    0  501    0  0.00000000000E+00  0.00000000000E+00 -0.90451890414E+03  0.90451890414E+03  0.25500000920E-02 0.  1.
    10030    2    1    2    0    0  0.00000000000E+00  0.00000000000E+00 -0.80623469233E+03  0.10028031160E+04  0.59632181773E+03 0.  0.
        1    1    3    3  502    0  0.23772189761E+03 -0.10381611501E+03 -0.65032777751E+03  0.70015405774E+03  0.50400001928E-02 0.  1.
       -1    1    3    3    0  502 -0.23772189761E+03  0.10381611501E+03 -0.15590691482E+03  0.30264905824E+03  0.50400001928E-02 0. -1.
</event>
<event>
 5   0  0.1513339E-01  0.5992282E+03  0.7818609E-02  0.9907009E-01
       -2   -1    0    0    0  501  0.00000000000E+00  0.00000000000E+00  0.30190113087E+03  0.30190113088E+03  0.25500000920E-02 0.  1.
        2   -1    0    0  501    0  0.00000000000E+00  0.00000000000E+00 -0.29734435661E+03  0.29734435662E+03  0.25500000920E-02 0. -1.
    10030    2    1    2    0    0  0.00000000000E+00  0.00000000000E+00  0.45567742585E+01  0.59924548750E+03  0.59922816197E+03 0.  0.
        3    1    3    3  502    0 -0.78018126942E+02 -0.21070705474E+03  0.20048678243E+03  0.30112995729E+03  0.10100000352E+00 0.  1.
       -3    1    3    3    0  502  0.78018126942E+02  0.21070705474E+03 -0.19593000817E+03  0.29811553021E+03  0.10100000352E+00 0. -1.
</event>
<event>
 5   0  0.9177281E-02  0.5990794E+03  0.7818609E-02  0.9907318E-01
       -1   -1    0    0    0  501  0.00000000000E+00  0.00000000000E+00  0.30766721442E+03  0.30766721447E+03  0.50400001928E-02 0.  1.
        1   -1    0    0  501    0  0.00000000000E+00  0.00000000000E+00 -0.29162683822E+03  0.29162683826E+03  0.50400001928E-02 0. -1.
    10030    2    1    2    0    0  0.00000000000E+00  0.00000000000E+00  0.16040376205E+02  0.59929405273E+03  0.59907935031E+03 0.  0.
        1    1    3    3  502    0 -0.23978126930E+03 -0.12715258075E+02 -0.17111738808E+03  0.29485232817E+03  0.50400001928E-02 0. -1.
       -1    1    3    3    0  502  0.23978126930E+03  0.12715258075E+02  0.18715776428E+03  0.30444172456E+03  0.50400001928E-02 0.  1.
</event>
<event>
 5   0  0.1502642E-01  0.5885939E+03  0.7818609E-02  0.9929357E-01
        2   -1    0    0  501    0  0.00000000000E+00  0.00000000000E+00  0.11423655030E+04  0.11423655030E+04  0.25500000920E-02 0. -1.
       -2   -1    0    0    0  501  0.00000000000E+00  0.00000000000E+00 -0.75816981495E+02  0.75816981538E+02  0.25500000920E-02 0.  1.
    10030    2    1    2    0    0  0.00000000000E+00  0.00000000000E+00  0.10665485215E+04  0.12181824845E+04  0.58859393210E+03 0.  0.
        2    1    3    3  502    0  0.28182195192E+02 -0.16849349170E+03  0.10292408359E+04  0.10433220937E+04  0.25500000920E-02 0. -1.
       -2    1    3    3    0  502 -0.28182195192E+02  0.16849349170E+03  0.37307685577E+02  0.17486039083E+03  0.25500000920E-02 0.  1.
</event>
<event>
 5   0  0.9420349E-02  0.5117169E+03  0.7818609E-02  0.1010765E+00
        1   -1    0    0  501    0  0.00000000000E+00  0.00000000000E+00  0.31271985781E+03  0.31271985786E+03  0.50400001928E-02 0.  1.
       -1   -1    0    0    0  501  0.00000000000E+00  0.00000000000E+00 -0.20933606716E+03  0.20933606722E+03  0.50400001928E-02 0. -1.
    10030    2    1    2    0    0  0.00000000000E+00  0.00000000000E+00  0.10338379065E+03  0.52205592508E+03  0.51171689511E+03 0.  0.
        2    1    3    3  502    0  0.36693226504E+02 -0.13466067640E+03 -0.16707873340E+03  0.21770437249E+03  0.25500000920E-02 0. -1.
       -2    1    3    3    0  502 -0.36693226504E+02  0.13466067640E+03  0.27046252405E+03  0.30435155259E+03  0.25500000920E-02 0.  1.
</event>
<event>
 5   0  0.1502642E-01  0.5241447E+03  0.7818609E-02  0.1007662E+00
       -2   -1    0    0    0  501  0.00000000000E+00  0.00000000000E+00  0.16821117609E+03  0.16821117611E+03  0.25500000920E-02 0. -1.
        2   -1    0    0  501    0  0.00000000000E+00  0.00000000000E+00 -0.40830774346E+03  0.40830774347E+03  0.25500000920E-02 0.  1.
    10030    2    1    2    0    0  0.00000000000E+00  0.00000000000E+00 -0.24009656738E+03  0.57651891958E+03  0.52414473475E+03 0.  0.
        2    1    3    3  502    0 -0.66661500031E+02  0.73082703498E+02  0.14688900822E+03  0.17709098757E+03  0.25500000920E-02 0. -1.
       -2    1    3    3    0  502  0.66661500031E+02 -0.73082703498E+02 -0.38698557560E+03  0.39942793200E+03  0.25500000920E-02 0.  1.
</event>
<event>
 5   0  0.1483942E-01  0.6009508E+03  0.7818609E-02  0.9903435E-01
       -2   -1    0    0    0  501  0.00000000000E+00  0.00000000000E+00  0.83600465753E+02  0.83600465792E+02  0.25500000920E-02 0.  1.
        2   -1    0    0  501    0  0.00000000000E+00  0.00000000000E+00 -0.10799636433E+04  0.10799636433E+04  0.25500000920E-02 0. -1.
    10030    2    1    2    0    0  0.00000000000E+00  0.00000000000E+00 -0.99636317751E+03  0.11635641091E+04  0.60095079199E+03 0.  0.
        4    1    3    3  502    0  0.47927032511E+02 -0.23143723993E+02 -0.10707591663E+04  0.10720818241E+04  0.12699999809E+01 0. -1.
       -4    1    3    3    0  502 -0.47927032511E+02  0.23143723993E+02  0.74395988824E+02  0.91482284944E+02  0.12699999809E+01 0.  1.
</event>
<event>
 5   0  0.9411028E-02  0.5976111E+03  0.7818609E-02  0.9910375E-01
        1   -1    0    0  501    0  0.00000000000E+00  0.00000000000E+00  0.19949995188E+03  0.19949995195E+03  0.50400001928E-02 0.  1.
       -1   -1    0    0    0  501  0.00000000000E+00  0.00000000000E+00 -0.44754275686E+03  0.44754275689E+03  0.50400001928E-02 0. -1.
    10030    2    1    2    0    0  0.00000000000E+00  0.00000000000E+00 -0.24804280498E+03  0.64704270884E+03  0.59761110595E+03 0.  0.
        4    1    3    3  502    0  0.16381719098E+03 -0.21885308936E+03  0.65811715307E+01  0.27345506304E+03  0.12699999809E+01 0.  1.
       -4    1    3    3    0  502 -0.16381719098E+03  0.21885308936E+03 -0.25462397651E+03  0.37358764580E+03  0.12699999809E+01 0. -1.
</event>
<event>
 5   0  0.8860626E-02  0.6038416E+03  0.7818609E-02  0.9897468E-01
        1   -1    0    0  501    0  0.00000000000E+00  0.00000000000E+00  0.97349669011E+02  0.97349669142E+02  0.50400001928E-02 0. -1.
       -1   -1    0    0    0  501  0.00000000000E+00  0.00000000000E+00 -0.93637884382E+03  0.93637884383E+03  0.50400001928E-02 0.  1.
    10030    2    1    2    0    0  0.00000000000E+00  0.00000000000E+00 -0.83902917481E+03  0.10337285130E+04  0.60384160370E+03 0.  0.
        3    1    3    3  502    0 -0.24660660693E+03  0.17057569499E+03 -0.35910359935E+03  0.46783147775E+03  0.10100000352E+00 0. -1.
       -3    1    3    3    0  502  0.24660660693E+03 -0.17057569499E+03 -0.47992557546E+03  0.56589703523E+03  0.10100000352E+00 0.  1.
</event>
<event>
 5   0  0.1513339E-01  0.6824383E+03  0.7818609E-02  0.9747746E-01
        2   -1    0    0  501    0  0.00000000000E+00  0.00000000000E+00  0.70721661411E+03  0.70721661412E+03  0.25500000920E-02 0.  1.
       -2   -1    0    0    0  501  0.00000000000E+00  0.00000000000E+00 -0.16463201239E+03  0.16463201241E+03  0.25500000920E-02 0. -1.
    10030    2    1    2    0    0  0.00000000000E+00  0.00000000000E+00  0.54258460172E+03  0.87184862652E+03  0.68243825914E+03 0.  0.
        3    1    3    3  502    0 -0.17309070837E+03 -0.46245845039E+02 -0.99706417232E+02  0.20503768275E+03  0.10100000352E+00 0. -1.
       -3    1    3    3    0  502  0.17309070837E+03  0.46245845039E+02  0.64229101896E+03  0.66681094378E+03  0.10100000352E+00 0.  1.
</event>
<event>
 5   0  0.9497860E-02  0.5485871E+03  0.7818609E-02  0.1001821E+00
        1   -1    0    0  501    0  0.00000000000E+00  0.00000000000E+00  0.10024179415E+04  0.10024179415E+04  0.50400001928E-02 0.  1.
       -1   -1    0    0    0  501  0.00000000000E+00  0.00000000000E+00 -0.75055484358E+02  0.75055484528E+02  0.50400001928E-02 0. -1.
    10030    2    1    2    0    0  0.00000000000E+00  0.00000000000E+00  0.92736245716E+03  0.10774734261E+04  0.54858714614E+03 0.  0.
        5    1    3    3  502    0 -0.28263858353E+02 -0.39139727282E+02 -0.66564731934E+02  0.82363326040E+02  0.46999998093E+01 0. -1.
       -5    1    3    3    0  502  0.28263858353E+02  0.39139727282E+02  0.99392718910E+03  0.99511010002E+03  0.46999998093E+01 0.  1.
</event>
<event>
 5   0  0.9411028E-02  0.5900086E+03  0.7818609E-02  0.9926355E-01
        1   -1    0    0  501    0  0.00000000000E+00  0.00000000000E+00  0.67525893653E+03  0.67525893654E+03  0.50400001928E-02 0.  1.
       -1   -1    0    0    0  501  0.00000000000E+00  0.00000000000E+00 -0.12888023025E+03  0.12888023035E+03  0.50400001928E-02 0. -1.
    10030    2    1    2    0    0  0.00000000000E+00  0.00000000000E+00  0.54637870628E+03  0.80413916689E+03  0.59000856693E+03 0.  0.
        4    1    3    3  502    0  0.17329153713E+03  0.16088805620E+03  0.51358678280E+03  0.56540951517E+03  0.12699999809E+01 0.  1.
       -4    1    3    3    0  502 -0.17329153713E+03 -0.16088805620E+03  0.32791923474E+02  0.23872965173E+03  0.12699999809E+01 0. -1.
</event>
<event>
 5   0  0.6170500E-02  0.5817964E+03  0.7818609E-02  0.9943909E-01
       -3   -1    0    0    0  501  0.00000000000E+00  0.00000000000E+00  0.47908232180E+03  0.47908233245E+03  0.10100000352E+00 0.  1.
        3   -1    0    0  501    0  0.00000000000E+00  0.00000000000E+00 -0.17663297784E+03  0.17663300671E+03  0.10100000352E+00 0. -1.
    10030    2    1    2    0    0  0.00000000000E+00  0.00000000000E+00  0.30244934397E+03  0.65571533916E+03  0.58179635642E+03 0.  0.
        5    1    3    3  502    0 -0.19047847863E+03  0.97369734797E+02 -0.70884121187E+02  0.22540977066E+03  0.46999998093E+01 0. -1.
       -5    1    3    3    0  502  0.19047847863E+03 -0.97369734797E+02  0.37333346516E+03  0.43030556850E+03  0.46999998093E+01 0.  1.
</event>
<event>
 5   0  0.1483942E-01  0.6211730E+03  0.7818609E-02  0.9862427E-01
        2   -1    0    0  501    0  0.00000000000E+00  0.00000000000E+00  0.13338689905E+04  0.13338689905E+04  0.25500000920E-02 0.  1.
       -2   -1    0    0    0  501  0.00000000000E+00  0.00000000000E+00 -0.72318929265E+02  0.72318929310E+02  0.25500000920E-02 0. -1.
    10030    2    1    2    0    0  0.00000000000E+00  0.00000000000E+00  0.12615500612E+04  0.14061879198E+04  0.62117301038E+03 0.  0.
        4    1    3    3  502    0  0.18564350923E+03 -0.19359724063E+03  0.27630313359E+03  0.38508237902E+03  0.12699999809E+01 0. -1.
       -4    1    3    3    0  502 -0.18564350923E+03  0.19359724063E+03  0.98524692766E+03  0.10211055408E+04  0.12699999809E+01 0.  1.
</event>
<event>
 5   0  0.1532571E-01  0.6135463E+03  0.7818609E-02  0.9877694E-01
        2   -1    0    0  501    0  0.00000000000E+00  0.00000000000E+00  0.58871840904E+03  0.58871840905E+03  0.25500000920E-02 0.  1.
       -2   -1    0    0    0  501  0.00000000000E+00  0.00000000000E+00 -0.15985532901E+03  0.15985532903E+03  0.25500000920E-02 0. -1.
    10030    2    1    2    0    0  0.00000000000E+00  0.00000000000E+00  0.42886308003E+03  0.74857373808E+03  0.61354633071E+03 0.  0.
        1    1    3    3  502    0 -0.18559453685E+03  0.20260437713E+03  0.38089899882E+03  0.46965722934E+03  0.50400001928E-02 0.  1.
       -1    1    3    3    0  502  0.18559453685E+03 -0.20260437713E+03  0.47964081206E+02  0.27891650874E+03  0.50400001928E-02 0. -1.
</event>
<event>
 5   0  0.9420349E-02  0.6087467E+03  0.7818609E-02  0.9887424E-01
       -1   -1    0    0    0  501  0.00000000000E+00  0.00000000000E+00  0.12168933279E+04  0.12168933279E+04  0.50400001928E-02 0. -1.
        1   -1    0    0  501    0  0.00000000000E+00  0.00000000000E+00 -0.76130864527E+02  0.76130864694E+02  0.50400001928E-02 0.  1.
    10030    2    1    2    0    0  0.00000000000E+00  0.00000000000E+00  0.11407624634E+04  0.12930241926E+04  0.60874671647E+03 0.  0.
        2    1    3    3  502    0  0.11965333638E+03  0.15656861038E+03  0.77648327278E+02  0.21180158970E+03  0.25500000920E-02 0.  1.
       -2    1    3    3    0  502 -0.11965333638E+03 -0.15656861038E+03  0.10631141361E+04  0.10812226029E+04  0.25500000920E-02 0. -1.
</event>
<event>
 5   0  0.1502642E-01  0.6001931E+03  0.7818609E-02  0.9905006E-01
        2   -1    0    0  501    0  0.00000000000E+00  0.00000000000E+00  0.16470304983E+03  0.16470304985E+03  0.25500000920E-02 0.  1.
       -2   -1    0    0    0  501  0.00000000000E+00  0.00000000000E+00 -0.54678968194E+03  0.54678968194E+03  0.25500000920E-02 0. -1.
    10030    2    1    2    0    0  0.00000000000E+00  0.00000000000E+00 -0.38208663211E+03  0.71149273179E+03  0.60019306307E+03 0.  0.
        2    1    3    3  502    0  0.93497113976E+02  0.60580578571E+02 -0.52136693761E+03  0.53313713101E+03  0.25500000920E-02 0. -1.
       -2    1    3    3    0  502 -0.93497113976E+02 -0.60580578571E+02  0.13928030550E+03  0.17835560078E+03  0.25500000920E-02 0.  1.
</event>
<event>
 5   0  0.6170500E-02  0.6046809E+03  0.7818609E-02  0.9895742E-01
       -3   -1    0    0    0  501  0.00000000000E+00  0.00000000000E+00  0.46483131880E+03  0.46483132977E+03  0.10100000352E+00 0. -1.
        3   -1    0    0  501    0  0.00000000000E+00  0.00000000000E+00 -0.19665141364E+03  0.19665143958E+03  0.10100000352E+00 0.  1.
    10030    2    1    2    0    0  0.00000000000E+00  0.00000000000E+00  0.26817990516E+03  0.66148276935E+03  0.60468090148E+03 0.  0.
        2    1    3    3  502    0  0.34670467086E+02 -0.74882472828E+02 -0.18409401460E+03  0.20174248992E+03  0.25500000920E-02 0.  1.
       -2    1    3    3    0  502 -0.34670467086E+02  0.74882472828E+02  0.45227391976E+03  0.45974027942E+03  0.25500000920E-02 0. -1.
</event>
<event>
 5   0  0.1532571E-01  0.5935996E+03  0.7818609E-02  0.9918774E-01
        2   -1    0    0  501    0  0.00000000000E+00  0.00000000000E+00  0.60036312076E+03  0.60036312077E+03  0.25500000920E-02 0. -1.
       -2   -1    0    0    0  501  0.00000000000E+00  0.00000000000E+00 -0.14672808044E+03  0.14672808046E+03  0.25500000920E-02 0.  1.
    10030    2    1    2    0    0  0.00000000000E+00  0.00000000000E+00  0.45363504032E+03  0.74709120123E+03  0.59359962361E+03 0.  0.
        1    1    3    3  502    0 -0.25924245328E+03  0.13297301322E+03  0.15560319420E+03  0.33030414151E+03  0.50400001928E-02 0.  1.
       -1    1    3    3    0  502  0.25924245328E+03 -0.13297301322E+03  0.29803184612E+03  0.41678705973E+03  0.50400001928E-02 0. -1.
</event>
<event>
 5   0  0.1513339E-01  0.6118927E+03  0.7818609E-02  0.9881035E-01
       -2   -1    0    0    0  501  0.00000000000E+00  0.00000000000E+00  0.21308492170E+03  0.21308492172E+03  0.25500000920E-02 0.  1.
        2   -1    0    0  501    0  0.00000000000E+00  0.00000000000E+00 -0.43927633665E+03  0.43927633666E+03  0.25500000920E-02 0. -1.
    10030    2    1    2    0    0  0.00000000000E+00  0.00000000000E+00 -0.22619141495E+03  0.65236125838E+03  0.61189268278E+03 0.  0.
        3    1    3    3  502    0 -0.10029588313E+03  0.40263931686E+02 -0.41824688106E+03  0.43198485168E+03  0.10100000352E+00 0. -1.
       -3    1    3    3    0  502  0.10029588313E+03 -0.40263931686E+02  0.19205546611E+03  0.22037640670E+03  0.10100000352E+00 0.  1.
</event>
<event>
 5   0  0.1502642E-01  0.5951091E+03  0.7818609E-02  0.9915605E-01
        2   -1    0    0  501    0  0.00000000000E+00  0.00000000000E+00  0.12088049370E+04  0.12088049370E+04  0.25500000920E-02 0. -1.
       -2   -1    0    0    0  501  0.00000000000E+00  0.00000000000E+00 -0.73244839518E+02  0.73244839562E+02  0.25500000920E-02 0.  1.
    10030    2    1    2    0    0  0.00000000000E+00  0.00000000000E+00  0.11355600975E+04  0.12820497766E+04  0.59510914512E+03 0.  0.
        2    1    3    3  502    0 -0.86120546194E+02  0.77107849662E+02  0.11584554631E+04  0.11642084989E+04  0.25500000920E-02 0. -1.
       -2    1    3    3    0  502  0.86120546194E+02 -0.77107849662E+02 -0.22895365576E+02  0.11784127769E+03  0.25500000920E-02 0.  1.
</event>
<event>
 5   0  0.9497860E-02  0.5799373E+03  0.7818609E-02  0.9947927E-01
        1   -1    0    0  501    0  0.00000000000E+00  0.00000000000E+00  0.53702669275E+03  0.53702669277E+03  0.50400001928E-02 0.  1.
       -1   -1    0    0    0  501  0.00000000000E+00  0.00000000000E+00 -0.15656914681E+03  0.15656914689E+03  0.50400001928E-02 0. -1.
    10030    2    1    2    0    0  0.00000000000E+00  0.00000000000E+00  0.38045754594E+03  0.69359583966E+03  0.57993727638E+03 0.  0.
        5    1    3    3  502    0 -0.20726162938E+03  0.12381275452E+03 -0.17732261712E+01  0.24147922380E+03  0.46999998093E+01 0. -1.
       -5    1    3    3    0  502  0.20726162938E+03 -0.12381275452E+03  0.38223077211E+03  0.45211661586E+03  0.46999998093E+01 0.  1.
</event>
<event>
 5   0  0.1483942E-01  0.5975619E+03  0.7818609E-02  0.9910477E-01
       -2   -1    0    0    0  501  0.00000000000E+00  0.00000000000E+00  0.43022811904E+02  0.43022811980E+02  0.25500000920E-02 0.  1.
        2   -1    0    0  501    0  0.00000000000E+00  0.00000000000E+00 -0.20749467300E+04  0.20749467300E+04  0.25500000920E-02 0. -1.
    10030    2    1    2    0    0  0.00000000000E+00  0.00000000000E+00 -0.20319239181E+04  0.21179695420E+04  0.59756185607E+03 0.  0.
        4    1    3    3  502    0 -0.28412799925E+03  0.84874498302E+02 -0.88640973011E+03  0.93469579166E+03  0.12699999809E+01 0. -1.
       -4    1    3    3    0  502  0.28412799925E+03 -0.84874498302E+02 -0.11455141880E+04  0.11832737503E+04  0.12699999809E+01 0.  1.
</event>
<event>
 5   0  0.9177281E-02  0.6074051E+03  0.7818609E-02  0.9890161E-01
       -1   -1    0    0    0  501  0.00000000000E+00  0.00000000000E+00  0.99473783609E+02  0.99473783737E+02  0.50400001928E-02 0.  1.
        1   -1    0    0  501    0  0.00000000000E+00  0.00000000000E+00 -0.92723171849E+03  0.92723171850E+03  0.50400001928E-02 0. -1.
    10030    2    1    2    0    0  0.00000000000E+00  0.00000000000E+00 -0.82775793488E+03  0.10267055022E+04  0.60740512804E+03 0.  0.
        1    1    3    3  502    0  0.45559946418E+02  0.12587649575E+03 -0.87467066277E+03  0.88485556405E+03  0.50400001928E-02 0. -1.
       -1    1    3    3    0  502 -0.45559946418E+02 -0.12587649575E+03  0.46912727890E+02  0.14184993819E+03  0.50400001928E-02 0.  1.
</event>
<event>
 5   0  0.9177281E-02  0.5920902E+03  0.7818609E-02  0.9921954E-01
       -1   -1    0    0    0  501  0.00000000000E+00  0.00000000000E+00  0.18802748945E+03  0.18802748951E+03  0.50400001928E-02 0.  1.
        1   -1    0    0  501    0  0.00000000000E+00  0.00000000000E+00 -0.46611645701E+03  0.46611645704E+03  0.50400001928E-02 0. -1.
    10030    2    1    2    0    0  0.00000000000E+00  0.00000000000E+00 -0.27808896757E+03  0.65414394656E+03  0.59209022027E+03 0.  0.
        1    1    3    3  502    0  0.25492626643E+03 -0.14340647678E+03 -0.18955094928E+03  0.34854322731E+03  0.50400001928E-02 0. -1.
       -1    1    3    3    0  502 -0.25492626643E+03  0.14340647678E+03 -0.88538018282E+02  0.30560071925E+03  0.50400001928E-02 0.  1.
</event>
<event>
 5   0  0.1513339E-01  0.6071256E+03  0.7818609E-02  0.9890732E-01
        2   -1    0    0  501    0  0.00000000000E+00  0.00000000000E+00  0.16369146324E+04  0.16369146324E+04  0.25500000920E-02 0.  1.
       -2   -1    0    0    0  501  0.00000000000E+00  0.00000000000E+00 -0.56295164954E+02  0.56295165012E+02  0.25500000920E-02 0. -1.
    10030    2    1    2    0    0  0.00000000000E+00  0.00000000000E+00  0.15806194675E+04  0.16932097974E+04  0.60712561895E+03 0.  0.
        3    1    3    3  502    0 -0.12909971627E+03  0.62737703851E+02  0.15362942061E+04  0.15429849818E+04  0.10100000352E+00 0.  1.
       -3    1    3    3    0  502  0.12909971627E+03 -0.62737703851E+02  0.44325261340E+02  0.15022481559E+03  0.10100000352E+00 0. -1.
</event>
<event>
 5   0  0.9497860E-02  0.6052600E+03  0.7818609E-02  0.9894553E-01
       -1   -1    0    0    0  501  0.00000000000E+00  0.00000000000E+00  0.90008860428E+03  0.90008860429E+03  0.50400001928E-02 0. -1.
        1   -1    0    0  501    0  0.00000000000E+00  0.00000000000E+00 -0.10175100965E+03  0.10175100978E+03  0.50400001928E-02 0.  1.
    10030    2    1    2    0    0  0.00000000000E+00  0.00000000000E+00  0.79833759462E+03  0.10018396141E+04  0.60526002455E+03 0.  0.
        5    1    3    3  502    0 -0.11487755529E+03  0.12159702903E+02  0.86209301874E+03  0.86981099904E+03  0.46999998093E+01 0. -1.
       -5    1    3    3    0  502  0.11487755529E+03 -0.12159702903E+02 -0.63755424119E+02  0.13202861503E+03  0.46999998093E+01 0.  1.
</event>
<event>
 5   0  0.8860626E-02  0.5167208E+03  0.7818609E-02  0.1009504E+00
        1   -1    0    0  501    0  0.00000000000E+00  0.00000000000E+00  0.33915652015E+03  0.33915652019E+03  0.50400001928E-02 0. -1.
       -1   -1    0    0    0  501  0.00000000000E+00  0.00000000000E+00 -0.19681208077E+03  0.19681208084E+03  0.50400001928E-02 0.  1.
    10030    2    1    2    0    0  0.00000000000E+00  0.00000000000E+00  0.14234443938E+03  0.53596860103E+03  0.51672081617E+03 0.  0.
        3    1    3    3  502    0 -0.16520590275E+03 -0.46672212088E+01 -0.13480825685E+03  0.21327927600E+03  0.10100000352E+00 0.  1.
       -3    1    3    3    0  502  0.16520590275E+03  0.46672212088E+01  0.27715269623E+03  0.32268932502E+03  0.10100000352E+00 0. -1.
</event>
<event>
 5   0  0.9411028E-02  0.5861962E+03  0.7818609E-02  0.9934466E-01
        1   -1    0    0  501    0  0.00000000000E+00  0.00000000000E+00  0.82543680307E+03  0.82543680309E+03  0.50400001928E-02 0.  1.
       -1   -1    0    0    0  501  0.00000000000E+00  0.00000000000E+00 -0.10407398184E+03  0.10407398196E+03  0.50400001928E-02 0. -1.
    10030    2    1    2    0    0  0.00000000000E+00  0.00000000000E+00  0.72136282123E+03  0.92951078505E+03  0.58619619555E+03 0.  0.
        4    1    3    3  502    0  0.96423197000E+02 -0.11877502406E+03  0.75709747679E+03  0.77240089431E+03  0.12699999809E+01 0.  1.
       -4    1    3    3    0  502 -0.96423197000E+02  0.11877502406E+03 -0.35734655564E+02  0.15710989074E+03  0.12699999809E+01 0. -1.
</event>
<event>
 5   0  0.9497860E-02  0.6077542E+03  0.7818609E-02  0.9889448E-01
        1   -1    0    0  501    0  0.00000000000E+00  0.00000000000E+00  0.29729838235E+03  0.29729838240E+03  0.50400001928E-02 0. -1.
       -1   -1    0    0    0  501  0.00000000000E+00  0.00000000000E+00 -0.31060139857E+03  0.31060139861E+03  0.50400001928E-02 0.  1.
    10030    2    1    2    0    0  0.00000000000E+00  0.00000000000E+00 -0.13303016212E+02  0.60789978100E+03  0.60775420484E+03 0.  0.
        5    1    3    3  502    0 -0.25396093051E+03  0.82260002814E+01  0.15998786367E+03  0.30030322647E+03  0.46999998093E+01 0. -1.
       -5    1    3    3    0  502  0.25396093051E+03 -0.82260002814E+01 -0.17329087989E+03  0.30759655453E+03  0.46999998093E+01 0.  1.
</event>
<event>
 5   0  0.9411028E-02  0.6268576E+03  0.7818609E-02  0.9851200E-01
        1   -1    0    0  501    0  0.00000000000E+00  0.00000000000E+00  0.63414944709E+03  0.63414944711E+03  0.50400001928E-02 0. -1.
       -1   -1    0    0    0  501  0.00000000000E+00  0.00000000000E+00 -0.15491239624E+03  0.15491239632E+03  0.50400001928E-02 0.  1.
    10030    2    1    2    0    0  0.00000000000E+00  0.00000000000E+00  0.47923705085E+03  0.78906184343E+03  0.62685759296E+03 0.  0.
        4    1    3    3  502    0  0.97210583084E+02  0.29655814382E+03  0.27608705141E+03  0.41668009670E+03  0.12699999809E+01 0. -1.
       -4    1    3    3    0  502 -0.97210583084E+02 -0.29655814382E+03  0.20314999944E+03  0.37238174673E+03  0.12699999809E+01 0.  1.
</event>
<event>
 5   0  0.1532571E-01  0.6129275E+03  0.7818609E-02  0.9878943E-01
        2   -1    0    0  501    0  0.00000000000E+00  0.00000000000E+00  0.64014839186E+03  0.64014839187E+03  0.25500000920E-02 0. -1.
       -2   -1    0    0    0  501  0.00000000000E+00  0.00000000000E+00 -0.14671601220E+03  0.14671601222E+03  0.25500000920E-02 0.  1.
    10030    2    1    2    0    0  0.00000000000E+00  0.00000000000E+00  0.49343237966E+03  0.78686440409E+03  0.61292746481E+03 0.  0.
        1    1    3    3  502    0 -0.28063539767E+03 -0.19634033966E+01  0.88649802332E+02  0.29431083714E+03  0.50400001928E-02 0.  1.
       -1    1    3    3    0  502  0.28063539767E+03  0.19634033966E+01  0.40478257733E+03  0.49255356695E+03  0.50400001928E-02 0. -1.
</event>
<event>
 5   0  0.9411028E-02  0.5981787E+03  0.7818609E-02  0.9909192E-01
        1   -1    0    0  501    0  0.00000000000E+00  0.00000000000E+00  0.71644482630E+03  0.71644482632E+03  0.50400001928E-02 0. -1.
       -1   -1    0    0    0  501  0.00000000000E+00  0.00000000000E+00 -0.12485878676E+03  0.12485878687E+03  0.50400001928E-02 0.  1.
    10030    2    1    2    0    0  0.00000000000E+00  0.00000000000E+00  0.59158603954E+03  0.84130361319E+03  0.59817867513E+03 0.  0.
        4    1    3    3  502    0 -0.10969622521E+02  0.16272267998E+03 -0.56811318738E+02  0.17270825700E+03  0.12699999809E+01 0.  1.
       -4    1    3    3    0  502  0.10969622521E+02 -0.16272267998E+03  0.64839735828E+03  0.66859535619E+03  0.12699999809E+01 0. -1.
</event>
<event>
 5   0  0.1513339E-01  0.5691799E+03  0.7818609E-02  0.9971495E-01
        2   -1    0    0  501    0  0.00000000000E+00  0.00000000000E+00  0.88923200570E+03  0.88923200570E+03  0.25500000920E-02 0.  1.
       -2   -1    0    0    0  501  0.00000000000E+00  0.00000000000E+00 -0.91080222207E+02  0.91080222243E+02  0.25500000920E-02 0. -1.
    10030    2    1    2    0    0  0.00000000000E+00  0.00000000000E+00  0.79815178349E+03  0.98031222794E+03  0.56917993180E+03 0.  0.
        3    1    3    3  502    0 -0.88324602895E+02  0.13211740895E+03  0.80568733449E+03  0.82121150527E+03  0.10100000352E+00 0.  1.
       -3    1    3    3    0  502  0.88324602895E+02 -0.13211740895E+03 -0.75355510012E+01  0.15910072267E+03  0.10100000352E+00 0. -1.
</event>
<event>
 5   0  0.1483942E-01  0.6138527E+03  0.7818609E-02  0.9877076E-01
       -2   -1    0    0    0  501  0.00000000000E+00  0.00000000000E+00  0.43085819978E+03  0.43085819978E+03  0.25500000920E-02 0.  1.
        2   -1    0    0  501    0  0.00000000000E+00  0.00000000000E+00 -0.21864221314E+03  0.21864221315E+03  0.25500000920E-02 0. -1.
    10030    2    1    2    0    0  0.00000000000E+00  0.00000000000E+00  0.21221598664E+03  0.64950041294E+03  0.61385271965E+03 0.  0.
        4    1    3    3  502    0  0.10699380013E+03  0.25422046272E+03  0.24856104327E+03  0.37129492598E+03  0.12699999809E+01 0.  1.
       -4    1    3    3    0  502 -0.10699380013E+03 -0.25422046272E+03 -0.36345056631E+02  0.27820548695E+03  0.12699999809E+01 0. -1.
</event>
<event>
 5   0  0.9411028E-02  0.5913944E+03  0.7818609E-02  0.9923423E-01
       -1   -1    0    0    0  501  0.00000000000E+00  0.00000000000E+00  0.91251083836E+02  0.91251083976E+02  0.50400001928E-02 0. -1.
        1   -1    0    0  501    0  0.00000000000E+00  0.00000000000E+00 -0.95820046920E+03  0.95820046921E+03  0.50400001928E-02 0.  1.
    10030    2    1    2    0    0  0.00000000000E+00  0.00000000000E+00 -0.86694938536E+03  0.10494515532E+04  0.59139439100E+03 0.  0.
        4    1    3    3  502    0  0.28179859035E+03  0.54714532119E+02 -0.30760639308E+03  0.42074627926E+03  0.12699999809E+01 0. -1.
       -4    1    3    3    0  502 -0.28179859035E+03 -0.54714532119E+02 -0.55934299228E+03  0.62870527392E+03  0.12699999809E+01 0.  1.
</event>
<event>
 5   0  0.9177281E-02  0.5994232E+03  0.7818609E-02  0.9906604E-01
       -1   -1    0    0    0  501  0.00000000000E+00  0.00000000000E+00  0.50977496841E+03  0.50977496844E+03  0.50400001928E-02 0.  1.
        1   -1    0    0  501    0  0.00000000000E+00  0.00000000000E+00 -0.17620918418E+03  0.17620918425E+03  0.50400001928E-02 0. -1.
    10030    2    1    2    0    0  0.00000000000E+00  0.00000000000E+00  0.33356578424E+03  0.68598415269E+03  0.59942316048E+03 0.  0.
        1    1    3    3  502    0 -0.17154785467E+03 -0.12950282937E+03  0.40581714598E+03  0.45922456952E+03  0.50400001928E-02 0.  1.
       -1    1    3    3    0  502  0.17154785467E+03  0.12950282937E+03 -0.72251361745E+02  0.22675958316E+03  0.50400001928E-02 0. -1.
</event>
<event>
 5   0  0.1502642E-01  0.6010024E+03  0.7818609E-02  0.9903329E-01
        2   -1    0    0  501    0  0.00000000000E+00  0.00000000000E+00  0.28078129721E+03  0.28078129722E+03  0.25500000920E-02 0. -1.
       -2   -1    0    0    0  501  0.00000000000E+00  0.00000000000E+00 -0.32160609078E+03  0.32160609079E+03  0.25500000920E-02 0.  1.
    10030    2    1    2    0    0  0.00000000000E+00  0.00000000000E+00 -0.40824793564E+02  0.60238738801E+03  0.60100241386E+03 0.  0.
        2    1    3    3  502    0 -0.15553853679E+03 -0.20200915999E+03  0.13901715516E+03  0.29038888853E+03  0.25500000920E-02 0.  1.
       -2    1    3    3    0  502  0.15553853679E+03  0.20200915999E+03 -0.17984194872E+03  0.31199849948E+03  0.25500000920E-02 0. -1.
</event>
<event>
 5   0  0.1513339E-01  0.6112129E+03  0.7818609E-02  0.9882412E-01
        2   -1    0    0  501    0  0.00000000000E+00  0.00000000000E+00  0.49907938812E+03  0.49907938813E+03  0.25500000920E-02 0. -1.
       -2   -1    0    0    0  501  0.00000000000E+00  0.00000000000E+00 -0.18713513486E+03  0.18713513488E+03  0.25500000920E-02 0.  1.
    10030    2    1    2    0    0  0.00000000000E+00  0.00000000000E+00  0.31194425326E+03  0.68621452301E+03  0.61121285527E+03 0.  0.
        3    1    3    3  502    0 -0.29308154938E+02 -0.18971843880E+03  0.42293920629E+03  0.46446704553E+03  0.10100000352E+00 0. -1.
       -3    1    3    3    0  502  0.29308154938E+02  0.18971843880E+03 -0.11099495303E+03  0.22174747747E+03  0.10100000352E+00 0.  1.
</event>
<event>
 5   0  0.9411028E-02  0.5800786E+03  0.7818609E-02  0.9947621E-01
       -1   -1    0    0    0  501  0.00000000000E+00  0.00000000000E+00  0.93536040615E+02  0.93536040750E+02  0.50400001928E-02 0.  1.
        1   -1    0    0  501    0  0.00000000000E+00  0.00000000000E+00 -0.89936235202E+03  0.89936235203E+03  0.50400001928E-02 0. -1.
    10030    2    1    2    0    0  0.00000000000E+00  0.00000000000E+00 -0.80582631140E+03  0.99289839278E+03  0.58007859316E+03 0.  0.
        4    1    3    3  502    0 -0.17380972562E+03  0.19435913665E+03 -0.18548570365E+03  0.31998727143E+03  0.12699999809E+01 0.  1.
       -4    1    3    3    0  502  0.17380972562E+03 -0.19435913665E+03 -0.62034060775E+03  0.67291112135E+03  0.12699999809E+01 0. -1.
</event>
<event>
 5   0  0.9420349E-02  0.6080414E+03  0.7818609E-02  0.9888862E-01
       -1   -1    0    0    0  501  0.00000000000E+00  0.00000000000E+00  0.77382475523E+02  0.77382475687E+02  0.50400001928E-02 0.  1.
        1   -1    0    0  501    0  0.00000000000E+00  0.00000000000E+00 -0.11944383542E+04  0.11944383542E+04  0.50400001928E-02 0. -1.
    10030    2    1    2    0    0  0.00000000000E+00  0.00000000000E+00 -0.11170558787E+04  0.12718208299E+04  0.60804143549E+03 0.  0.
        2    1    3    3  502    0 -0.27710519545E+02  0.99394354702E+02  0.39636040499E+02  0.11053563386E+03  0.25500000920E-02 0.  1.
       -2    1    3    3    0  502  0.27710519545E+02 -0.99394354702E+02 -0.11566919192E+04  0.11612851960E+04  0.25500000920E-02 0. -1.
</event>
<event>
 5   0  0.9411028E-02  0.6264801E+03  0.7818609E-02  0.9851942E-01
       -1   -1    0    0    0  501  0.00000000000E+00  0.00000000000E+00  0.19481500640E+03  0.19481500646E+03  0.50400001928E-02 0. -1.
        1   -1    0    0  501    0  0.00000000000E+00  0.00000000000E+00 -0.50365383755E+03  0.50365383757E+03  0.50400001928E-02 0.  1.
    10030    2    1    2    0    0  0.00000000000E+00  0.00000000000E+00 -0.30883883115E+03  0.69846884404E+03  0.62648008944E+03 0.  0.
        4    1    3    3  502    0  0.18202241715E+03  0.42732239268E+02 -0.43461361173E+03  0.47312663106E+03  0.12699999809E+01 0.  1.
       -4    1    3    3    0  502 -0.18202241715E+03 -0.42732239268E+02  0.12577478058E+03  0.22534221298E+03  0.12699999809E+01 0. -1.
</event>
<event>
 5   0  0.1502642E-01  0.6458951E+03  0.7818609E-02  0.9814512E-01
        2   -1    0    0  501    0  0.00000000000E+00  0.00000000000E+00  0.20373223607E+03  0.20373223609E+03  0.25500000920E-02 0. -1.
       -2   -1    0    0    0  501  0.00000000000E+00  0.00000000000E+00 -0.51192253622E+03  0.51192253623E+03  0.25500000920E-02 0.  1.
    10030    2    1    2    0    0  0.00000000000E+00  0.00000000000E+00 -0.30819030015E+03  0.71565477232E+03  0.64589510916E+03 0.  0.
        2    1    3    3  502    0  0.23455916171E+02 -0.47419568042E+02 -0.50708867573E+03  0.50984087762E+03  0.25500000920E-02 0.  1.
       -2    1    3    3    0  502 -0.23455916171E+02  0.47419568042E+02  0.19889837558E+03  0.20581389470E+03  0.25500000920E-02 0. -1.
</event>
<event>
 5   0  0.6170500E-02  0.5977973E+03  0.7818609E-02  0.9909987E-01
        3   -1    0    0  501    0  0.00000000000E+00  0.00000000000E+00  0.25483561285E+03  0.25483563286E+03  0.10100000352E+00 0. -1.
       -3   -1    0    0    0  501  0.00000000000E+00  0.00000000000E+00 -0.35058048422E+03  0.35058049877E+03  0.10100000352E+00 0.  1.
    10030    2    1    2    0    0  0.00000000000E+00  0.00000000000E+00 -0.95744871373E+02  0.60541613163E+03  0.59779730013E+03 0.  0.
        4    1    3    3  502    0  0.20467880582E+03 -0.77789404766E+02  0.15817618326E+03  0.27012205185E+03  0.12699999809E+01 0. -1.
       -4    1    3    3    0  502 -0.20467880582E+03  0.77789404766E+02 -0.25392105463E+03  0.33529407978E+03  0.12699999809E+01 0.  1.
</event>
<event>
 5   0  0.8860626E-02  0.5967475E+03  0.7818609E-02  0.9912177E-01
        1   -1    0    0  501    0  0.00000000000E+00  0.00000000000E+00  0.30482284326E+03  0.30482284330E+03  0.50400001928E-02 0.  1.
       -1   -1    0    0    0  501  0.00000000000E+00  0.00000000000E+00 -0.29206109856E+03  0.29206109860E+03  0.50400001928E-02 0. -1.
    10030    2    1    2    0    0  0.00000000000E+00  0.00000000000E+00  0.12761744700E+02  0.59688394190E+03  0.59674749935E+03 0.  0.
        3    1    3    3  502    0 -0.89283632830E+01 -0.18404332612E+03  0.24111563931E+03  0.30346074421E+03  0.10100000352E+00 0.  1.
       -3    1    3    3    0  502  0.89283632830E+01  0.18404332612E+03 -0.22835389461E+03  0.29342319769E+03  0.10100000352E+00 0. -1.
</event>
<event>
 5   0  0.9177281E-02  0.5659041E+03  0.7818609E-02  0.9978783E-01
        1   -1    0    0  501    0  0.00000000000E+00  0.00000000000E+00  0.14709080141E+03  0.14709080150E+03  0.50400001928E-02 0.  1.
       -1   -1    0    0    0  501  0.00000000000E+00  0.00000000000E+00 -0.54430231106E+03  0.54430231108E+03  0.50400001928E-02 0. -1.
    10030    2    1    2    0    0  0.00000000000E+00  0.00000000000E+00 -0.39721150965E+03  0.69139311258E+03  0.56590410206E+03 0.  0.
        1    1    3    3  502    0  0.11340901830E+03  0.14842726045E+03 -0.45826593762E+03  0.49487364719E+03  0.50400001928E-02 0. -1.
       -1    1    3    3    0  502 -0.11340901830E+03 -0.14842726045E+03  0.61054427971E+02  0.19651946539E+03  0.50400001928E-02 0.  1.
</event>
<event>
 5   0  0.1513339E-01  0.5906024E+03  0.7818609E-02  0.9925097E-01
        2   -1    0    0  501    0  0.00000000000E+00  0.00000000000E+00  0.69186285666E+03  0.69186285667E+03  0.25500000920E-02 0. -1.
       -2   -1    0    0    0  501  0.00000000000E+00  0.00000000000E+00 -0.12604058764E+03  0.12604058767E+03  0.25500000920E-02 0.  1.
    10030    2    1    2    0    0  0.00000000000E+00  0.00000000000E+00  0.56582226902E+03  0.81790344434E+03  0.59060240784E+03 0.  0.
        3    1    3    3  502    0  0.22693797777E+03  0.14673559615E+03  0.44776574412E+03  0.52299746915E+03  0.10100000352E+00 0. -1.
       -3    1    3    3    0  502 -0.22693797777E+03 -0.14673559615E+03  0.11805652490E+03  0.29490597519E+03  0.10100000352E+00 0.  1.
</event>
<event>
 5   0  0.1513339E-01  0.5849369E+03  0.7818609E-02  0.9937160E-01
        2   -1    0    0  501    0  0.00000000000E+00  0.00000000000E+00  0.51658431196E+03  0.51658431196E+03  0.25500000920E-02 0. -1.
       -2   -1    0    0    0  501  0.00000000000E+00  0.00000000000E+00 -0.16558339798E+03  0.16558339800E+03  0.25500000920E-02 0.  1.
    10030    2    1    2    0    0  0.00000000000E+00  0.00000000000E+00  0.35100091397E+03  0.68216770997E+03  0.58493687088E+03 0.  0.
        3    1    3    3  502    0 -0.51245308738E+02  0.58354776647E+02  0.50433940000E+03  0.51028384475E+03  0.10100000352E+00 0. -1.
       -3    1    3    3    0  502  0.51245308738E+02 -0.58354776647E+02 -0.15333848602E+03  0.17188386522E+03  0.10100000352E+00 0.  1.
</event>
<event>
 5   0  0.9411028E-02  0.5981625E+03  0.7818609E-02  0.9909226E-01
        1   -1    0    0  501    0  0.00000000000E+00  0.00000000000E+00  0.82418192101E+03  0.82418192103E+03  0.50400001928E-02 0. -1.
       -1   -1    0    0    0  501  0.00000000000E+00  0.00000000000E+00 -0.10853138745E+03  0.10853138757E+03  0.50400001928E-02 0.  1.
    10030    2    1    2    0    0  0.00000000000E+00  0.00000000000E+00  0.71565053356E+03  0.93271330859E+03  0.59816254467E+03 0.  0.
        4    1    3    3  502    0  0.72516794679E+02  0.28980395095E+03  0.38004068946E+03  0.48340206251E+03  0.12699999809E+01 0.  1.
       -4    1    3    3    0  502 -0.72516794679E+02 -0.28980395095E+03  0.33560984410E+03  0.44931124608E+03  0.12699999809E+01 0. -1.
</event>
<event>
 5   0  0.6170500E-02  0.6169058E+03  0.7818609E-02  0.9870940E-01
        3   -1    0    0  501    0  0.00000000000E+00  0.00000000000E+00  0.86878868303E+03  0.86878868890E+03  0.10100000352E+00 0. -1.
       -3   -1    0    0    0  501  0.00000000000E+00  0.00000000000E+00 -0.10951245023E+03  0.10951249680E+03  0.10100000352E+00 0.  1.
    10030    2    1    2    0    0  0.00000000000E+00  0.00000000000E+00  0.75927623280E+03  0.97830118570E+03  0.61690583743E+03 0.  0.
        1    1    3    3  502    0  0.25891293364E+03  0.12533175201E+03  0.55622212416E+03  0.62620045249E+03  0.50400001928E-02 0. -1.
       -1    1    3    3    0  502 -0.25891293364E+03 -0.12533175201E+03  0.20305410864E+03  0.35210073322E+03  0.50400001928E-02 0.  1.
</event>
<event>
 5   0  0.1532571E-01  0.6026040E+03  0.7818609E-02  0.9900018E-01
        2   -1    0    0  501    0  0.00000000000E+00  0.00000000000E+00  0.42410683749E+03  0.42410683750E+03  0.25500000920E-02 0.  1.
       -2   -1    0    0    0  501  0.00000000000E+00  0.00000000000E+00 -0.21405669745E+03  0.21405669747E+03  0.25500000920E-02 0. -1.
    10030    2    1    2    0    0  0.00000000000E+00  0.00000000000E+00  0.21005014004E+03  0.63816353497E+03  0.60260404582E+03 0.  0.
        1    1    3    3  502    0 -0.23155540084E+03  0.19276191145E+03  0.10205779683E+03  0.31810509596E+03  0.50400001928E-02 0. -1.
       -1    1    3    3    0  502  0.23155540084E+03 -0.19276191145E+03  0.10799234321E+03  0.32005843901E+03  0.50400001928E-02 0.  1.
</event>
<event>
 5   0  0.9420349E-02  0.5953798E+03  0.7818609E-02  0.9915038E-01
       -1   -1    0    0    0  501  0.00000000000E+00  0.00000000000E+00  0.51220115670E+03  0.51220115672E+03  0.50400001928E-02 0.  1.
        1   -1    0    0  501    0  0.00000000000E+00  0.00000000000E+00 -0.17301653299E+03  0.17301653306E+03  0.50400001928E-02 0. -1.
    10030    2    1    2    0    0  0.00000000000E+00  0.00000000000E+00  0.33918462371E+03  0.68521768979E+03  0.59537977245E+03 0.  0.
        2    1    3    3  502    0 -0.20241232668E+03 -0.12326663260E+03 -0.37740310473E+02  0.23997863185E+03  0.25500000920E-02 0. -1.
       -2    1    3    3    0  502  0.20241232668E+03  0.12326663260E+03  0.37692493418E+03  0.44523905794E+03  0.25500000920E-02 0.  1.
</event>
<event>
 5   0  0.9177281E-02  0.6349177E+03  0.7818609E-02  0.9835499E-01
        1   -1    0    0  501    0  0.00000000000E+00  0.00000000000E+00  0.82019904471E+03  0.82019904473E+03  0.50400001928E-02 0. -1.
       -1   -1    0    0    0  501  0.00000000000E+00  0.00000000000E+00 -0.12287277279E+03  0.12287277289E+03  0.50400001928E-02 0.  1.
    10030    2    1    2    0    0  0.00000000000E+00  0.00000000000E+00  0.69732627193E+03  0.94307181762E+03  0.63491772984E+03 0.  0.
        1    1    3    3  502    0  0.16584067072E+02  0.21690746195E+03  0.69208391344E+03  0.72546813962E+03  0.50400001928E-02 0. -1.
       -1    1    3    3    0  502 -0.16584067072E+02 -0.21690746195E+03  0.52423584875E+01  0.21760367800E+03  0.50400001928E-02 0.  1.
</event>
<event>
 5   0  0.1488510E-01  0.5992177E+03  0.7818609E-02  0.9907030E-01
       -2   -1    0    0    0  501  0.00000000000E+00  0.00000000000E+00  0.26209348980E+03  0.26209348981E+03  0.25500000920E-02 0. -1.
        2   -1    0    0  501    0  0.00000000000E+00  0.00000000000E+00 -0.34249411268E+03  0.34249411269E+03  0.25500000920E-02 0.  1.
    10030    2    1    2    0    0  0.00000000000E+00  0.00000000000E+00 -0.80400622883E+02  0.60458760250E+03  0.59921774751E+03 0.  0.
        5    1    3    3  502    0 -0.42646772900E+01  0.24117208663E+03 -0.21944714445E+03  0.32613080512E+03  0.46999998093E+01 0.  1.
       -5    1    3    3    0  502  0.42646772900E+01 -0.24117208663E+03  0.13904652157E+03  0.27845679737E+03  0.46999998093E+01 0. -1.
</event>
<event>
 5   0  0.1532571E-01  0.6036553E+03  0.7818609E-02  0.9897851E-01
       -2   -1    0    0    0  501  0.00000000000E+00  0.00000000000E+00  0.66345397511E+02  0.66345397560E+02  0.25500000920E-02 0. -1.
        2   -1    0    0  501    0  0.00000000000E+00  0.00000000000E+00 -0.13731160229E+04  0.13731160229E+04  0.25500000920E-02 0.  1.
    10030    2    1    2    0    0  0.00000000000E+00  0.00000000000E+00 -0.13067706254E+04  0.14394614205E+04  0.60365529371E+03 0.  0.
        1    1    3    3  502    0 -0.18156783250E+03 -0.15000278632E+03 -0.11035095768E+04  0.11283621315E+04  0.50400001928E-02 0.  1.
       -1    1    3    3    0  502  0.18156783250E+03  0.15000278632E+03 -0.20326104865E+03  0.31109928902E+03  0.50400001928E-02 0. -1.
</event>
<event>
 5   0  0.9420349E-02  0.6180043E+03  0.7818609E-02  0.9868741E-01
       -1   -1    0    0    0  501  0.00000000000E+00  0.00000000000E+00  0.10459360245E+03  0.10459360257E+03  0.50400001928E-02 0.  1.
        1   -1    0    0  501    0  0.00000000000E+00  0.00000000000E+00 -0.91288880072E+03  0.91288880073E+03  0.50400001928E-02 0. -1.
    10030    2    1    2    0    0  0.00000000000E+00  0.00000000000E+00 -0.80829519827E+03  0.10174824033E+04  0.61800429891E+03 0.  0.
        2    1    3    3  502    0 -0.30712157559E+02  0.13127867157E+03 -0.86190904189E+03  0.87239012072E+03  0.25500000920E-02 0. -1.
       -2    1    3    3    0  502  0.30712157559E+02 -0.13127867157E+03  0.53613843614E+02  0.14509228258E+03  0.25500000920E-02 0.  1.
</event>
<event>
 5   0  0.9420349E-02  0.6065118E+03  0.7818609E-02  0.9891987E-01
        1   -1    0    0  501    0  0.00000000000E+00  0.00000000000E+00  0.60743203157E+03  0.60743203159E+03  0.50400001928E-02 0.  1.
       -1   -1    0    0    0  501  0.00000000000E+00  0.00000000000E+00 -0.15139825822E+03  0.15139825830E+03  0.50400001928E-02 0. -1.
    10030    2    1    2    0    0  0.00000000000E+00  0.00000000000E+00  0.45603377335E+03  0.75883028989E+03  0.60651183535E+03 0.  0.
        2    1    3    3  502    0 -0.16249675480E+03  0.13275108091E+03 -0.45911322134E+02  0.21479267750E+03  0.25500000920E-02 0. -1.
       -2    1    3    3    0  502  0.16249675480E+03 -0.13275108091E+03  0.50194509549E+03  0.54403761239E+03  0.25500000920E-02 0.  1.
</event>
<event>
 5   0  0.1502642E-01  0.5930116E+03  0.7818609E-02  0.9920012E-01
       -2   -1    0    0    0  501  0.00000000000E+00  0.00000000000E+00  0.46383068233E+02  0.46383068303E+02  0.25500000920E-02 0. -1.
        2   -1    0    0  501    0  0.00000000000E+00  0.00000000000E+00 -0.18954261650E+04  0.18954261650E+04  0.25500000920E-02 0.  1.
    10030    2    1    2    0    0  0.00000000000E+00  0.00000000000E+00 -0.18490430968E+04  0.19418092333E+04  0.59301157227E+03 0.  0.
        2    1    3    3  502    0  0.13438057641E+03  0.25234397606E+03 -0.66710306556E+03  0.72578379815E+03  0.25500000920E-02 0. -1.
       -2    1    3    3    0  502 -0.13438057641E+03 -0.25234397606E+03 -0.11819400312E+04  0.12160254352E+04  0.25500000920E-02 0.  1.
</event>
<event>
 5   0  0.9497860E-02  0.6023214E+03  0.7818609E-02  0.9900602E-01
       -1   -1    0    0    0  501  0.00000000000E+00  0.00000000000E+00  0.14986042431E+03  0.14986042440E+03  0.50400001928E-02 0. -1.
        1   -1    0    0  501    0  0.00000000000E+00  0.00000000000E+00 -0.60521484769E+03  0.60521484771E+03  0.50400001928E-02 0.  1.
    10030    2    1    2    0    0  0.00000000000E+00  0.00000000000E+00 -0.45535442338E+03  0.75507527211E+03  0.60232135580E+03 0.  0.
        5    1    3    3  502    0  0.24622258385E+03  0.81489488975E+02 -0.35872765594E+02  0.26186836945E+03  0.46999998093E+01 0. -1.
       -5    1    3    3    0  502 -0.24622258385E+03 -0.81489488975E+02 -0.41948165779E+03  0.49320690266E+03  0.46999998093E+01 0.  1.
</event>
<event>
 5   0  0.9177281E-02  0.5605994E+03  0.7818609E-02  0.9990699E-01
       -1   -1    0    0    0  501  0.00000000000E+00  0.00000000000E+00  0.21732173423E+03  0.21732173429E+03  0.50400001928E-02 0. -1.
        1   -1    0    0  501    0  0.00000000000E+00  0.00000000000E+00 -0.36152820183E+03  0.36152820186E+03  0.50400001928E-02 0.  1.
    10030    2    1    2    0    0  0.00000000000E+00  0.00000000000E+00 -0.14420646760E+03  0.57884993615E+03  0.56059944995E+03 0.  0.
        1    1    3    3  502    0 -0.24430092256E+03 -0.11631882148E+03 -0.14766291064E+03  0.30824883487E+03  0.50400001928E-02 0.  1.
       -1    1    3    3    0  502  0.24430092256E+03  0.11631882148E+03  0.34564430420E+01  0.27060110129E+03  0.50400001928E-02 0. -1.
</event>
<event>
 5   0  0.1488510E-01  0.5987630E+03  0.7818609E-02  0.9907976E-01
       -2   -1    0    0    0  501  0.00000000000E+00  0.00000000000E+00  0.97259468731E+02  0.97259468764E+02  0.25500000920E-02 0. -1.
        2   -1    0    0  501    0  0.00000000000E+00  0.00000000000E+00 -0.92154824000E+03  0.92154824001E+03  0.25500000920E-02 0.  1.
    10030    2    1    2    0    0  0.00000000000E+00  0.00000000000E+00 -0.82428877127E+03  0.10188077088E+04  0.59876303243E+03 0.  0.
        5    1    3    3  502    0 -0.85524189486E+02 -0.78694425728E+02 -0.88152978790E+03  0.88917043168E+03  0.46999998093E+01 0.  1.
       -5    1    3    3    0  502  0.85524189486E+02  0.78694425728E+02  0.57241016627E+02  0.12963727709E+03  0.46999998093E+01 0. -1.
</event>
<event>
 5   0  0.8860626E-02  0.5633187E+03  0.7818609E-02  0.9984573E-01
       -1   -1    0    0    0  501  0.00000000000E+00  0.00000000000E+00  0.48356216564E+03  0.48356216567E+03  0.50400001928E-02 0. -1.
        1   -1    0    0  501    0  0.00000000000E+00  0.00000000000E+00 -0.16405747244E+03  0.16405747252E+03  0.50400001928E-02 0.  1.
    10030    2    1    2    0    0  0.00000000000E+00  0.00000000000E+00  0.31950469320E+03  0.64761963819E+03  0.56331869026E+03 0.  0.
        3    1    3    3  502    0  0.34718742494E+02 -0.14956385972E+02 -0.16112764589E+03  0.16550290944E+03  0.10100000352E+00 0.  1.
       -3    1    3    3    0  502 -0.34718742494E+02  0.14956385972E+02  0.48063233909E+03  0.48211672875E+03  0.10100000352E+00 0. -1.
</event>
<event>
 5   0  0.1502642E-01  0.5280002E+03  0.7818609E-02  0.1006718E+00
       -2   -1    0    0    0  501  0.00000000000E+00  0.00000000000E+00  0.18105378707E+03  0.18105378709E+03  0.25500000920E-02 0. -1.
        2   -1    0    0  501    0  0.00000000000E+00  0.00000000000E+00 -0.38494674279E+03  0.38494674280E+03  0.25500000920E-02 0.  1.
    10030    2    1    2    0    0  0.00000000000E+00  0.00000000000E+00 -0.20389295572E+03  0.56600052989E+03  0.52800024852E+03 0.  0.
        2    1    3    3  502    0 -0.72515233465E+02  0.25164943947E+03 -0.13766361966E+03  0.29586681405E+03  0.25500000920E-02 0.  1.
       -2    1    3    3    0  502  0.72515233465E+02 -0.25164943947E+03 -0.66229336059E+02  0.27013371584E+03  0.25500000920E-02 0. -1.
</event>
<event>
 5   0  0.1502642E-01  0.6106797E+03  0.7818609E-02  0.9883493E-01
        2   -1    0    0  501    0  0.00000000000E+00  0.00000000000E+00  0.44243352874E+03  0.44243352874E+03  0.25500000920E-02 0. -1.
       -2   -1    0    0    0  501  0.00000000000E+00  0.00000000000E+00 -0.21072643087E+03  0.21072643089E+03  0.25500000920E-02 0.  1.
    10030    2    1    2    0    0  0.00000000000E+00  0.00000000000E+00  0.23170709787E+03  0.65315995963E+03  0.61067974722E+03 0.  0.
        2    1    3    3  502    0  0.30180655233E+03  0.17503671226E+02  0.16171850111E+03  0.34285047344E+03  0.25500000920E-02 0. -1.
       -2    1    3    3    0  502 -0.30180655233E+03 -0.17503671226E+02  0.69988596758E+02  0.31030948619E+03  0.25500000920E-02 0.  1.
</event>
<event>
 5   0  0.9177281E-02  0.6021299E+03  0.7818609E-02  0.9900997E-01
        1   -1    0    0  501    0  0.00000000000E+00  0.00000000000E+00  0.19325175866E+03  0.19325175873E+03  0.50400001928E-02 0.  1.
       -1   -1    0    0    0  501  0.00000000000E+00  0.00000000000E+00 -0.46902600167E+03  0.46902600169E+03  0.50400001928E-02 0. -1.
    10030    2    1    2    0    0  0.00000000000E+00  0.00000000000E+00 -0.27577424300E+03  0.66227776042E+03  0.60212988536E+03 0.  0.
        1    1    3    3  502    0  0.69321067044E+02  0.46270077679E+02  0.18031022391E+03  0.19864064865E+03  0.50400001928E-02 0.  1.
       -1    1    3    3    0  502 -0.69321067044E+02 -0.46270077679E+02 -0.45608446691E+03  0.46363711177E+03  0.50400001928E-02 0. -1.
</event>
<event>
 5   0  0.1513339E-01  0.6396809E+03  0.7818609E-02  0.9826337E-01
       -2   -1    0    0    0  501  0.00000000000E+00  0.00000000000E+00  0.25868884898E+03  0.25868884899E+03  0.25500000920E-02 0. -1.
        2   -1    0    0  501    0  0.00000000000E+00  0.00000000000E+00 -0.39544772347E+03  0.39544772347E+03  0.25500000920E-02 0.  1.
    10030    2    1    2    0    0  0.00000000000E+00  0.00000000000E+00 -0.13675887449E+03  0.65413657246E+03  0.63968090927E+03 0.  0.
        3    1    3    3  502    0 -0.21080471891E+03 -0.17860976501E+03 -0.23313467153E+03  0.36151329566E+03  0.10100000352E+00 0.  1.
       -3    1    3    3    0  502  0.21080471891E+03  0.17860976501E+03  0.96375797039E+02  0.29262327680E+03  0.10100000352E+00 0. -1.
</event>
<event>
 5   0  0.1502642E-01  0.6065618E+03  0.7818609E-02  0.9891885E-01
       -2   -1    0    0    0  501  0.00000000000E+00  0.00000000000E+00  0.37421937138E+03  0.37421937139E+03  0.25500000920E-02 0.  1.
        2   -1    0    0  501    0  0.00000000000E+00  0.00000000000E+00 -0.24578976363E+03  0.24578976364E+03  0.25500000920E-02 0. -1.
    10030    2    1    2    0    0  0.00000000000E+00  0.00000000000E+00  0.12842960775E+03  0.62000913503E+03  0.60656175561E+03 0.  0.
        2    1    3    3  502    0 -0.43048431708E+02  0.19867621475E+03  0.29426862146E+03  0.35765825499E+03  0.25500000920E-02 0.  1.
       -2    1    3    3    0  502  0.43048431708E+02 -0.19867621475E+03 -0.16583901371E+03  0.26235088004E+03  0.25500000920E-02 0. -1.
</event>
<event>
 5   0  0.8860626E-02  0.6072468E+03  0.7818609E-02  0.9890484E-01
       -1   -1    0    0    0  501  0.00000000000E+00  0.00000000000E+00  0.65503562890E+02  0.65503563084E+02  0.50400001928E-02 0.  1.
        1   -1    0    0  501    0  0.00000000000E+00  0.00000000000E+00 -0.14073611964E+04  0.14073611964E+04  0.50400001928E-02 0. -1.
    10030    2    1    2    0    0  0.00000000000E+00  0.00000000000E+00 -0.13418576335E+04  0.14728647595E+04  0.60724681238E+03 0.  0.
        3    1    3    3  502    0  0.15621508102E+03  0.24048072466E+03 -0.42895112472E+03  0.51597791432E+03  0.10100000352E+00 0.  1.
       -3    1    3    3    0  502 -0.15621508102E+03 -0.24048072466E+03 -0.91290650880E+03  0.95688684518E+03  0.10100000352E+00 0. -1.
</event>
<event>
 5   0  0.8860626E-02  0.5786809E+03  0.7818609E-02  0.9950651E-01
       -1   -1    0    0    0  501  0.00000000000E+00  0.00000000000E+00  0.42192018680E+03  0.42192018683E+03  0.50400001928E-02 0.  1.
        1   -1    0    0  501    0  0.00000000000E+00  0.00000000000E+00 -0.19842114025E+03  0.19842114031E+03  0.50400001928E-02 0. -1.
    10030    2    1    2    0    0  0.00000000000E+00  0.00000000000E+00  0.22349904655E+03  0.62034132714E+03  0.57868086053E+03 0.  0.
        3    1    3    3  502    0  0.19155685733E+03 -0.21585515545E+03  0.89509970785E+02  0.30215810893E+03  0.10100000352E+00 0.  1.
       -3    1    3    3    0  502 -0.19155685733E+03  0.21585515545E+03  0.13398907576E+03  0.31818321821E+03  0.10100000352E+00 0. -1.
</event>
<event>
 5   0  0.9411028E-02  0.6073421E+03  0.7818609E-02  0.9890290E-01
        1   -1    0    0  501    0  0.00000000000E+00  0.00000000000E+00  0.11393876778E+04  0.11393876778E+04  0.50400001928E-02 0.  1.
       -1   -1    0    0    0  501  0.00000000000E+00  0.00000000000E+00 -0.80934784704E+02  0.80934784861E+02  0.50400001928E-02 0. -1.
    10030    2    1    2    0    0  0.00000000000E+00  0.00000000000E+00  0.10584528931E+04  0.12203224627E+04  0.60734206672E+03 0.  0.
        4    1    3    3  502    0 -0.16509772106E+03  0.24539265832E+03  0.66755609238E+03  0.73014215303E+03  0.12699999809E+01 0.  1.
       -4    1    3    3    0  502  0.16509772106E+03 -0.24539265832E+03  0.39089680074E+03  0.49018030967E+03  0.12699999809E+01 0. -1.
</event>
<event>
 5   0  0.1513339E-01  0.6038474E+03  0.7818609E-02  0.9897456E-01
        2   -1    0    0  501    0  0.00000000000E+00  0.00000000000E+00  0.84046647575E+03  0.84046647576E+03  0.25500000920E-02 0. -1.
       -2   -1    0    0    0  501  0.00000000000E+00  0.00000000000E+00 -0.10846111743E+03  0.10846111746E+03  0.25500000920E-02 0.  1.
    10030    2    1    2    0    0  0.00000000000E+00  0.00000000000E+00  0.73200535832E+03  0.94892759322E+03  0.60384744147E+03 0.  0.
        3    1    3    3  502    0 -0.24476397416E+03  0.14163297303E+03  0.53222683010E+03  0.60268956435E+03  0.10100000352E+00 0. -1.
       -3    1    3    3    0  502  0.24476397416E+03 -0.14163297303E+03  0.19977852822E+03  0.34623802887E+03  0.10100000352E+00 0.  1.
</event>
<event>
 5   0  0.1502642E-01  0.6475235E+03  0.7818609E-02  0.9811437E-01
        2   -1    0    0  501    0  0.00000000000E+00  0.00000000000E+00  0.16433448789E+04  0.16433448789E+04  0.25500000920E-02 0.  1.
       -2   -1    0    0    0  501  0.00000000000E+00  0.00000000000E+00 -0.63785559379E+02  0.63785559430E+02  0.25500000920E-02 0. -1.
    10030    2    1    2    0    0  0.00000000000E+00  0.00000000000E+00  0.15795593195E+04  0.17071304383E+04  0.64752350506E+03 0.  0.
        2    1    3    3  502    0  0.10552055796E+03 -0.22108270758E+03  0.23169984203E+03  0.33718981086E+03  0.25500000920E-02 0. -1.
       -2    1    3    3    0  502 -0.10552055796E+03  0.22108270758E+03  0.13478594775E+04  0.13699406275E+04  0.25500000920E-02 0.  1.
</event>
<event>
 5   0  0.1483942E-01  0.6011005E+03  0.7818609E-02  0.9903125E-01
       -2   -1    0    0    0  501  0.00000000000E+00  0.00000000000E+00  0.39918954689E+03  0.39918954690E+03  0.25500000920E-02 0.  1.
        2   -1    0    0  501    0  0.00000000000E+00  0.00000000000E+00 -0.22628463726E+03  0.22628463728E+03  0.25500000920E-02 0. -1.
    10030    2    1    2    0    0  0.00000000000E+00  0.00000000000E+00  0.17290490963E+03  0.62547418418E+03  0.60110053011E+03 0.  0.
        4    1    3    3  502    0  0.16036468735E+03  0.23545422624E+03  0.18611354391E+03  0.34028721652E+03  0.12699999809E+01 0.  1.
       -4    1    3    3    0  502 -0.16036468735E+03 -0.23545422624E+03 -0.13208634278E+02  0.28518696766E+03  0.12699999809E+01 0. -1.
</event>
<event>
 5   0  0.9420349E-02  0.6019583E+03  0.7818609E-02  0.9901351E-01
        1   -1    0    0  501    0  0.00000000000E+00  0.00000000000E+00  0.23389658933E+04  0.23389658934E+04  0.50400001928E-02 0. -1.
       -1   -1    0    0    0  501  0.00000000000E+00  0.00000000000E+00 -0.38730129833E+02  0.38730130161E+02  0.50400001928E-02 0.  1.
    10030    2    1    2    0    0  0.00000000000E+00  0.00000000000E+00  0.23002357635E+04  0.23776960235E+04  0.60195831457E+03 0.  0.
        2    1    3    3  502    0 -0.54480078896E+01  0.29902991776E+03  0.12834760425E+04  0.13178616484E+04  0.25500000920E-02 0. -1.
       -2    1    3    3    0  502  0.54480078896E+01 -0.29902991776E+03  0.10167597210E+04  0.10598343752E+04  0.25500000920E-02 0.  1.
</event>
<event>
 5   0  0.9497860E-02  0.6029291E+03  0.7818609E-02  0.9899348E-01
        1   -1    0    0  501    0  0.00000000000E+00  0.00000000000E+00  0.23678917458E+03  0.23678917464E+03  0.50400001928E-02 0.  1.
       -1   -1    0    0    0  501  0.00000000000E+00  0.00000000000E+00 -0.38380498547E+03  0.38380498550E+03  0.50400001928E-02 0. -1.
    10030    2    1    2    0    0  0.00000000000E+00  0.00000000000E+00 -0.14701581089E+03  0.62059416014E+03  0.60292906958E+03 0.  0.
        5    1    3    3  502    0  0.14204189751E+03  0.19485856996E+03 -0.25967449074E+03  0.35439906049E+03  0.46999998093E+01 0. -1.
       -5    1    3    3    0  502 -0.14204189751E+03 -0.19485856996E+03  0.11265867986E+03  0.26619509965E+03  0.46999998093E+01 0.  1.
</event>
<event>
 5   0  0.1532571E-01  0.6078456E+03  0.7818609E-02  0.9889261E-01
       -2   -1    0    0    0  501  0.00000000000E+00  0.00000000000E+00  0.47891877074E+02  0.47891877142E+02  0.25500000920E-02 0. -1.
        2   -1    0    0  501    0  0.00000000000E+00  0.00000000000E+00 -0.19286999065E+04  0.19286999065E+04  0.25500000920E-02 0.  1.
    10030    2    1    2    0    0  0.00000000000E+00  0.00000000000E+00 -0.18808080294E+04  0.19765917836E+04  0.60784556888E+03 0.  0.
        1    1    3    3  502    0  0.19218173791E+02  0.23453094488E+03 -0.15658574634E+04  0.15834404624E+04  0.50400001928E-02 0.  1.
       -1    1    3    3    0  502 -0.19218173791E+02 -0.23453094488E+03 -0.31495056600E+03  0.39315132120E+03  0.50400001928E-02 0. -1.
</event>
<event>
 5   0  0.1502642E-01  0.5987465E+03  0.7818609E-02  0.9908010E-01
       -2   -1    0    0    0  501  0.00000000000E+00  0.00000000000E+00  0.93185158384E+02  0.93185158419E+02  0.25500000920E-02 0. -1.
        2   -1    0    0  501    0  0.00000000000E+00  0.00000000000E+00 -0.96178760464E+03  0.96178760465E+03  0.25500000920E-02 0.  1.
    10030    2    1    2    0    0  0.00000000000E+00  0.00000000000E+00 -0.86860244626E+03  0.10549727631E+04  0.59874645816E+03 0.  0.
        2    1    3    3  502    0  0.65928018727E+02 -0.81815292365E+02 -0.92823143268E+03  0.93415942876E+03  0.25500000920E-02 0.  1.
       -2    1    3    3    0  502 -0.65928018727E+02  0.81815292365E+02  0.59628986421E+02  0.12081333431E+03  0.25500000920E-02 0. -1.
</event>
<event>
 5   0  0.9177281E-02  0.6035673E+03  0.7818609E-02  0.9898033E-01
        1   -1    0    0  501    0  0.00000000000E+00  0.00000000000E+00  0.16378249633E+04  0.16378249633E+04  0.50400001928E-02 0.  1.
       -1   -1    0    0    0  501  0.00000000000E+00  0.00000000000E+00 -0.55606289833E+02  0.55606290061E+02  0.50400001928E-02 0. -1.
    10030    2    1    2    0    0  0.00000000000E+00  0.00000000000E+00  0.15822186734E+04  0.16934312534E+04  0.60356729469E+03 0.  0.
        1    1    3    3  502    0 -0.67779906051E+02 -0.24088796253E+03  0.12643696984E+04  0.12888955972E+04  0.50400001928E-02 0.  1.
       -1    1    3    3    0  502  0.67779906051E+02  0.24088796253E+03  0.31784897507E+03  0.40453565620E+03  0.50400001928E-02 0. -1.
</event>
<event>
 5   0  0.8860626E-02  0.5626439E+03  0.7818609E-02  0.9986090E-01
       -1   -1    0    0    0  501  0.00000000000E+00  0.00000000000E+00  0.60844430520E+02  0.60844430728E+02  0.50400001928E-02 0. -1.
        1   -1    0    0  501    0  0.00000000000E+00  0.00000000000E+00 -0.13007278519E+04  0.13007278519E+04  0.50400001928E-02 0.  1.
    10030    2    1    2    0    0  0.00000000000E+00  0.00000000000E+00 -0.12398834214E+04  0.13615722826E+04  0.56264392135E+03 0.  0.
        3    1    3    3  502    0 -0.13101697812E+03  0.21713390027E+03 -0.91463461766E+03  0.94914122933E+03  0.10100000352E+00 0.  1.
       -3    1    3    3    0  502  0.13101697812E+03 -0.21713390027E+03 -0.32524880371E+03  0.41243105329E+03  0.10100000352E+00 0. -1.
</event>
<event>
 5   0  0.9420349E-02  0.6050711E+03  0.7818609E-02  0.9894941E-01
       -1   -1    0    0    0  501  0.00000000000E+00  0.00000000000E+00  0.26773756314E+03  0.26773756319E+03  0.50400001928E-02 0.  1.
        1   -1    0    0  501    0  0.00000000000E+00  0.00000000000E+00 -0.34185619373E+03  0.34185619376E+03  0.50400001928E-02 0. -1.
    10030    2    1    2    0    0  0.00000000000E+00  0.00000000000E+00 -0.74118630586E+02  0.60959375695E+03  0.60507105129E+03 0.  0.
        2    1    3    3  502    0 -0.88962873867E+02 -0.83361822502E+02  0.24189322465E+03  0.27087989684E+03  0.25500000920E-02 0.  1.
       -2    1    3    3    0  502  0.88962873867E+02  0.83361822502E+02 -0.31601185523E+03  0.33871386011E+03  0.25500000920E-02 0. -1.
</event>
<event>
 5   0  0.9497860E-02  0.5969904E+03  0.7818609E-02  0.9911670E-01
        1   -1    0    0  501    0  0.00000000000E+00  0.00000000000E+00  0.52777798425E+03  0.52777798427E+03  0.50400001928E-02 0.  1.
       -1   -1    0    0    0  501  0.00000000000E+00  0.00000000000E+00 -0.16881980963E+03  0.16881980970E+03  0.50400001928E-02 0. -1.
    10030    2    1    2    0    0  0.00000000000E+00  0.00000000000E+00  0.35895817462E+03  0.69659779398E+03  0.59699038137E+03 0.  0.
        5    1    3    3  502    0 -0.12644056718E+03 -0.59872423982E+02 -0.12814753998E+03  0.18977830799E+03  0.46999998093E+01 0. -1.
       -5    1    3    3    0  502  0.12644056718E+03  0.59872423982E+02  0.48710571460E+03  0.50681948599E+03  0.46999998093E+01 0.  1.
</event>
<event>
 5   0  0.9177281E-02  0.5417079E+03  0.7818609E-02  0.1003432E+00
        1   -1    0    0  501    0  0.00000000000E+00  0.00000000000E+00  0.47286555739E+03  0.47286555741E+03  0.50400001928E-02 0.  1.
       -1   -1    0    0    0  501  0.00000000000E+00  0.00000000000E+00 -0.15514316517E+03  0.15514316525E+03  0.50400001928E-02 0. -1.
    10030    2    1    2    0    0  0.00000000000E+00  0.00000000000E+00  0.31772239222E+03  0.62800872266E+03  0.54170788920E+03 0.  0.
        1    1    3    3  502    0 -0.88653827927E+02  0.18084839229E+03 -0.51087117972E+02  0.20778723697E+03  0.50400001928E-02 0.  1.
       -1    1    3    3    0  502  0.88653827927E+02 -0.18084839229E+03  0.36880951019E+03  0.42022148569E+03  0.50400001928E-02 0. -1.
</event>
<event>
 5   0  0.1513339E-01  0.6180138E+03  0.7818609E-02  0.9868722E-01
        2   -1    0    0  501    0  0.00000000000E+00  0.00000000000E+00  0.57955578396E+03  0.57955578397E+03  0.25500000920E-02 0.  1.
       -2   -1    0    0    0  501  0.00000000000E+00  0.00000000000E+00 -0.16475597557E+03  0.16475597559E+03  0.25500000920E-02 0. -1.
    10030    2    1    2    0    0  0.00000000000E+00  0.00000000000E+00  0.41479980839E+03  0.74431175956E+03  0.61801384643E+03 0.  0.
        3    1    3    3  502    0  0.16106810486E+03  0.26206328163E+03  0.17197509629E+03  0.35241387874E+03  0.10100000352E+00 0. -1.
       -3    1    3    3    0  502 -0.16106810486E+03 -0.26206328163E+03  0.24282471210E+03  0.39189788082E+03  0.10100000352E+00 0.  1.
</event>
<event>
 5   0  0.6170500E-02  0.5973867E+03  0.7818609E-02  0.9910843E-01
        3   -1    0    0  501    0  0.00000000000E+00  0.00000000000E+00  0.42849777964E+03  0.42849779155E+03  0.10100000352E+00 0. -1.
       -3   -1    0    0    0  501  0.00000000000E+00  0.00000000000E+00 -0.20821045273E+03  0.20821047723E+03  0.10100000352E+00 0.  1.
    10030    2    1    2    0    0  0.00000000000E+00  0.00000000000E+00  0.22028732691E+03  0.63670826877E+03  0.59738673665E+03 0.  0.
        5    1    3    3  502    0 -0.12961852639E+03  0.37272807717E+01  0.39688912525E+03  0.41756187894E+03  0.46999998093E+01 0. -1.
       -5    1    3    3    0  502  0.12961852639E+03 -0.37272807717E+01 -0.17660179833E+03  0.21914638984E+03  0.46999998093E+01 0.  1.
</event>
<event>
 5   0  0.9420349E-02  0.6247214E+03  0.7818609E-02  0.9855404E-01
        1   -1    0    0  501    0  0.00000000000E+00  0.00000000000E+00  0.45834225436E+03  0.45834225438E+03  0.50400001928E-02 0.  1.
       -1   -1    0    0    0  501  0.00000000000E+00  0.00000000000E+00 -0.21287415428E+03  0.21287415434E+03  0.50400001928E-02 0. -1.
    10030    2    1    2    0    0  0.00000000000E+00  0.00000000000E+00  0.24546810008E+03  0.67121640872E+03  0.62472144127E+03 0.  0.
        2    1    3    3  502    0  0.18355614294E+03 -0.10317977686E+03  0.37062210107E+03  0.42626243767E+03  0.25500000920E-02 0.  1.
       -2    1    3    3    0  502 -0.18355614294E+03  0.10317977686E+03 -0.12515400099E+03  0.24495397105E+03  0.25500000920E-02 0. -1.
</event>
<event>
 5   0  0.6170500E-02  0.6005265E+03  0.7818609E-02  0.9904314E-01
        3   -1    0    0  501    0  0.00000000000E+00  0.00000000000E+00  0.93020235590E+03  0.93020236138E+03  0.10100000352E+00 0.  1.
       -3   -1    0    0    0  501  0.00000000000E+00  0.00000000000E+00 -0.96922970900E+02  0.96923023525E+02  0.10100000352E+00 0. -1.
    10030    2    1    2    0    0  0.00000000000E+00  0.00000000000E+00  0.83327938500E+03  0.10271253849E+04  0.60052645475E+03 0.  0.
        3    1    3    3  502    0 -0.23747696156E+03  0.63351808292E+02  0.12163479101E+03  0.27423309696E+03  0.10100000352E+00 0. -1.
       -3    1    3    3    0  502  0.23747696156E+03 -0.63351808292E+02  0.71164459399E+03  0.75289228794E+03  0.10100000352E+00 0.  1.
</event>
<event>
 5   0  0.1532571E-01  0.6465771E+03  0.7818609E-02  0.9813223E-01
       -2   -1    0    0    0  501  0.00000000000E+00  0.00000000000E+00  0.87791486136E+02  0.87791486173E+02  0.25500000920E-02 0. -1.
        2   -1    0    0  501    0  0.00000000000E+00  0.00000000000E+00 -0.11904969285E+04  0.11904969285E+04  0.25500000920E-02 0.  1.
    10030    2    1    2    0    0  0.00000000000E+00  0.00000000000E+00 -0.11027054424E+04  0.12782884147E+04  0.64657712492E+03 0.  0.
        1    1    3    3  502    0  0.11784313073E+02 -0.32202482629E+03 -0.60277910730E+03  0.68350677466E+03  0.50400001928E-02 0.  1.
       -1    1    3    3    0  502 -0.11784313073E+02  0.32202482629E+03 -0.49992633506E+03  0.59478164001E+03  0.50400001928E-02 0. -1.
</event>
<event>
 5   0  0.9420349E-02  0.5890210E+03  0.7818609E-02  0.9928449E-01
        1   -1    0    0  501    0  0.00000000000E+00  0.00000000000E+00  0.51514833061E+03  0.51514833063E+03  0.50400001928E-02 0. -1.
       -1   -1    0    0    0  501  0.00000000000E+00  0.00000000000E+00 -0.16837175954E+03  0.16837175961E+03  0.50400001928E-02 0.  1.
    10030    2    1    2    0    0  0.00000000000E+00  0.00000000000E+00  0.34677657107E+03  0.68352009025E+03  0.58902098734E+03 0.  0.
        2    1    3    3  502    0 -0.29911851700E+02  0.15121249428E+03 -0.11782404017E+03  0.19401660173E+03  0.25500000920E-02 0.  1.
       -2    1    3    3    0  502  0.29911851700E+02 -0.15121249428E+03  0.46460061124E+03  0.48950348852E+03  0.25500000920E-02 0. -1.
</event>
<event>
 5   0  0.8860626E-02  0.6165156E+03  0.7818609E-02  0.9871722E-01
       -1   -1    0    0    0  501  0.00000000000E+00  0.00000000000E+00  0.32686053443E+03  0.32686053447E+03  0.50400001928E-02 0. -1.
        1   -1    0    0  501    0  0.00000000000E+00  0.00000000000E+00 -0.29071378617E+03  0.29071378621E+03  0.50400001928E-02 0.  1.
    10030    2    1    2    0    0  0.00000000000E+00  0.00000000000E+00  0.36146748269E+02  0.61757432068E+03  0.61651557495E+03 0.  0.
        3    1    3    3  502    0  0.97698377104E+02  0.19871174945E+03  0.23289799963E+03  0.32136088855E+03  0.10100000352E+00 0. -1.
       -3    1    3    3    0  502 -0.97698377104E+02 -0.19871174945E+03 -0.19675125136E+03  0.29621343213E+03  0.10100000352E+00 0.  1.
</event>
<event>
 5   0  0.1483942E-01  0.5914929E+03  0.7818609E-02  0.9923214E-01
       -2   -1    0    0    0  501  0.00000000000E+00  0.00000000000E+00  0.47226744919E+02  0.47226744987E+02  0.25500000920E-02 0. -1.
        2   -1    0    0  501    0  0.00000000000E+00  0.00000000000E+00 -0.18520431855E+04  0.18520431855E+04  0.25500000920E-02 0.  1.
    10030    2    1    2    0    0  0.00000000000E+00  0.00000000000E+00 -0.18048164406E+04  0.18992699305E+04  0.59149292867E+03 0.  0.
        4    1    3    3  502    0 -0.27186016601E+03 -0.67411326200E+02 -0.12072332710E+04  0.12393006174E+04  0.12699999809E+01 0.  1.
       -4    1    3    3    0  502  0.27186016601E+03  0.67411326200E+02 -0.59758316958E+03  0.65996931310E+03  0.12699999809E+01 0. -1.
</event>
<event>
 5   0  0.9411028E-02  0.5857464E+03  0.7818609E-02  0.9935427E-01
        1   -1    0    0  501    0  0.00000000000E+00  0.00000000000E+00  0.42730231495E+03  0.42730231498E+03  0.50400001928E-02 0.  1.
       -1   -1    0    0    0  501  0.00000000000E+00  0.00000000000E+00 -0.20073542528E+03  0.20073542535E+03  0.50400001928E-02 0. -1.
    10030    2    1    2    0    0  0.00000000000E+00  0.00000000000E+00  0.22656688966E+03  0.62803774032E+03  0.58574640227E+03 0.  0.
        4    1    3    3  502    0 -0.16943372975E+03 -0.21915123720E+03  0.11350780899E+02  0.27724629243E+03  0.12699999809E+01 0.  1.
       -4    1    3    3    0  502  0.16943372975E+03  0.21915123720E+03  0.21521610876E+03  0.35079144789E+03  0.12699999809E+01 0. -1.
</event>
<event>
 5   0  0.1502642E-01  0.5966070E+03  0.7818609E-02  0.9912471E-01
        2   -1    0    0  501    0  0.00000000000E+00  0.00000000000E+00  0.80543858099E+03  0.80543858100E+03  0.25500000920E-02 0.  1.
       -2   -1    0    0    0  501  0.00000000000E+00  0.00000000000E+00 -0.11048014796E+03  0.11048014799E+03  0.25500000920E-02 0. -1.
    10030    2    1    2    0    0  0.00000000000E+00  0.00000000000E+00  0.69495843303E+03  0.91591872899E+03  0.59660698494E+03 0.  0.
        2    1    3    3  502    0  0.19721214982E+03 -0.21329186063E+03  0.24336819412E+03  0.37896454684E+03  0.25500000920E-02 0.  1.
       -2    1    3    3    0  502 -0.19721214982E+03  0.21329186063E+03  0.45159023891E+03  0.53695418215E+03  0.25500000920E-02 0. -1.
</event>
<event>
 5   0  0.8860626E-02  0.5944285E+03  0.7818609E-02  0.9917033E-01
       -1   -1    0    0    0  501  0.00000000000E+00  0.00000000000E+00  0.29796071069E+03  0.29796071073E+03  0.50400001928E-02 0. -1.
        1   -1    0    0  501    0  0.00000000000E+00  0.00000000000E+00 -0.29646969099E+03  0.29646969103E+03  0.50400001928E-02 0.  1.
    10030    2    1    2    0    0  0.00000000000E+00  0.00000000000E+00  0.14910197009E+01  0.59443040176E+03  0.59442853179E+03 0.  0.
        3    1    3    3  502    0  0.21439565523E+03 -0.11221364147E+03 -0.17182070554E+03  0.29678235016E+03  0.10100000352E+00 0.  1.
       -3    1    3    3    0  502 -0.21439565523E+03  0.11221364147E+03  0.17331172524E+03  0.29764805160E+03  0.10100000352E+00 0. -1.
</event>
<event>
 5   0  0.1513339E-01  0.6101539E+03  0.7818609E-02  0.9884561E-01
        2   -1    0    0  501    0  0.00000000000E+00  0.00000000000E+00  0.39956789622E+03  0.39956789623E+03  0.25500000920E-02 0. -1.
       -2   -1    0    0    0  501  0.00000000000E+00  0.00000000000E+00 -0.23293147738E+03  0.23293147739E+03  0.25500000920E-02 0.  1.
    10030    2    1    2    0    0  0.00000000000E+00  0.00000000000E+00  0.16663641884E+03  0.63249937362E+03  0.61015388350E+03 0.  0.
        3    1    3    3  502    0 -0.13723913537E+03  0.88182278121E+01 -0.19897756434E+03  0.24187687514E+03  0.10100000352E+00 0.  1.
       -3    1    3    3    0  502  0.13723913537E+03 -0.88182278121E+01  0.36561398318E+03  0.39062249848E+03  0.10100000352E+00 0. -1.
</event>
<event>
 5   0  0.9420349E-02  0.5950077E+03  0.7818609E-02  0.9915818E-01
       -1   -1    0    0    0  501  0.00000000000E+00  0.00000000000E+00  0.61228685814E+02  0.61228686021E+02  0.50400001928E-02 0. -1.
        1   -1    0    0  501    0  0.00000000000E+00  0.00000000000E+00 -0.14455403557E+04  0.14455403557E+04  0.50400001928E-02 0.  1.
    10030    2    1    2    0    0  0.00000000000E+00  0.00000000000E+00 -0.13843116698E+04  0.15067690417E+04  0.59500768543E+03 0.  0.
        2    1    3    3  502    0 -0.20814122419E+03 -0.66023060834E+02 -0.12038333966E+04  0.12234772824E+04  0.25500000920E-02 0.  1.
       -2    1    3    3    0  502  0.20814122419E+03  0.66023060834E+02 -0.18047827328E+03  0.28329175933E+03  0.25500000920E-02 0. -1.
</event>
<event>
 5   0  0.1502642E-01  0.6052718E+03  0.7818609E-02  0.9894529E-01
        2   -1    0    0  501    0  0.00000000000E+00  0.00000000000E+00  0.26710280941E+03  0.26710280943E+03  0.25500000920E-02 0.  1.
       -2   -1    0    0    0  501  0.00000000000E+00  0.00000000000E+00 -0.34289605908E+03  0.34289605909E+03  0.25500000920E-02 0. -1.
    10030    2    1    2    0    0  0.00000000000E+00  0.00000000000E+00 -0.75793249664E+02  0.60999886851E+03  0.60527184214E+03 0.  0.
        2    1    3    3  502    0 -0.14023994800E+03 -0.26488903144E+03 -0.80117223329E+02  0.31024540524E+03  0.25500000920E-02 0. -1.
       -2    1    3    3    0  502  0.14023994800E+03  0.26488903144E+03  0.43239736652E+01  0.29975346327E+03  0.25500000920E-02 0.  1.
</event>
<event>
 5   0  0.1532571E-01  0.5998404E+03  0.7818609E-02  0.9905737E-01
        2   -1    0    0  501    0  0.00000000000E+00  0.00000000000E+00  0.39364247149E+03  0.39364247149E+03  0.25500000920E-02 0.  1.
       -2   -1    0    0    0  501  0.00000000000E+00  0.00000000000E+00 -0.22851224050E+03  0.22851224051E+03  0.25500000920E-02 0. -1.
    10030    2    1    2    0    0  0.00000000000E+00  0.00000000000E+00  0.16513023099E+03  0.62215471200E+03  0.59984038917E+03 0.  0.
        1    1    3    3  502    0  0.10782118953E+03  0.99629094157E+02 -0.18869949969E+03  0.23907920554E+03  0.50400001928E-02 0. -1.
       -1    1    3    3    0  502 -0.10782118953E+03 -0.99629094157E+02  0.35382973068E+03  0.38307550646E+03  0.50400001928E-02 0.  1.
</event>
<event>
 5   0  0.9177281E-02  0.6102282E+03  0.7818609E-02  0.9884410E-01
        1   -1    0    0  501    0  0.00000000000E+00  0.00000000000E+00  0.43148029221E+03  0.43148029224E+03  0.50400001928E-02 0. -1.
       -1   -1    0    0    0  501  0.00000000000E+00  0.00000000000E+00 -0.21575633661E+03  0.21575633667E+03  0.50400001928E-02 0.  1.
    10030    2    1    2    0    0  0.00000000000E+00  0.00000000000E+00  0.21572395560E+03  0.64723662891E+03  0.61022817764E+03 0.  0.
        1    1    3    3  502    0 -0.18367181251E+03 -0.21709397194E+03  0.22515571442E+03  0.36271231455E+03  0.50400001928E-02 0. -1.
       -1    1    3    3    0  502  0.18367181251E+03  0.21709397194E+03 -0.94317588134E+01  0.28452431436E+03  0.50400001928E-02 0.  1.
</event>
<event>
 5   0  0.9420349E-02  0.6173723E+03  0.7818609E-02  0.9870005E-01
       -1   -1    0    0    0  501  0.00000000000E+00  0.00000000000E+00  0.75662632743E+02  0.75662632910E+02  0.50400001928E-02 0. -1.
        1   -1    0    0  501    0  0.00000000000E+00  0.00000000000E+00 -0.12593685101E+04  0.12593685101E+04  0.50400001928E-02 0.  1.
    10030    2    1    2    0    0  0.00000000000E+00  0.00000000000E+00 -0.11837058774E+04  0.13350311430E+04  0.61737229348E+03 0.  0.
        2    1    3    3  502    0  0.94932411032E+02  0.26979447169E+03 -0.84297479433E+03  0.89017286159E+03  0.25500000920E-02 0.  1.
       -2    1    3    3    0  502 -0.94932411032E+02 -0.26979447169E+03 -0.34073108305E+03  0.44485828146E+03  0.25500000920E-02 0. -1.
</event>
<event>
 5   0  0.1502642E-01  0.5968099E+03  0.7818609E-02  0.9912047E-01
        2   -1    0    0  501    0  0.00000000000E+00  0.00000000000E+00  0.98774718164E+03  0.98774718164E+03  0.25500000920E-02 0. -1.
       -2   -1    0    0    0  501  0.00000000000E+00  0.00000000000E+00 -0.90150099558E+02  0.90150099595E+02  0.25500000920E-02 0.  1.
    10030    2    1    2    0    0  0.00000000000E+00  0.00000000000E+00  0.89759708208E+03  0.10778972812E+04  0.59680987520E+03 0.  0.
        2    1    3    3  502    0  0.68742799515E+02  0.24959667697E+03  0.71681666653E+03  0.76213529446E+03  0.25500000920E-02 0. -1.
       -2    1    3    3    0  502 -0.68742799515E+02 -0.24959667697E+03  0.18078041555E+03  0.31576198677E+03  0.25500000920E-02 0.  1.
</event>
<event>
 5   0  0.1483942E-01  0.5934687E+03  0.7818609E-02  0.9919050E-01
       -2   -1    0    0    0  501  0.00000000000E+00  0.00000000000E+00  0.17766558410E+03  0.17766558412E+03  0.25500000920E-02 0. -1.
        2   -1    0    0  501    0  0.00000000000E+00  0.00000000000E+00 -0.49560110914E+03  0.49560110915E+03  0.25500000920E-02 0.  1.
    10030    2    1    2    0    0  0.00000000000E+00  0.00000000000E+00 -0.31793552504E+03  0.67326669327E+03  0.59346865307E+03 0.  0.
        4    1    3    3  502    0 -0.14015928954E+03  0.21492982219E+03 -0.32803735638E+03  0.41647277821E+03  0.12699999809E+01 0.  1.
       -4    1    3    3    0  502  0.14015928954E+03 -0.21492982219E+03  0.10101831337E+02  0.25679391505E+03  0.12699999809E+01 0. -1.
</event>
<event>
 5   0  0.1513339E-01  0.6239620E+03  0.7818609E-02  0.9856903E-01
       -2   -1    0    0    0  501  0.00000000000E+00  0.00000000000E+00  0.22741562467E+03  0.22741562468E+03  0.25500000920E-02 0. -1.
        2   -1    0    0  501    0  0.00000000000E+00  0.00000000000E+00 -0.42799233954E+03  0.42799233955E+03  0.25500000920E-02 0.  1.
    10030    2    1    2    0    0  0.00000000000E+00  0.00000000000E+00 -0.20057671487E+03  0.65540796423E+03  0.62396200287E+03 0.  0.
        3    1    3    3  502    0 -0.28401512709E+02 -0.25113298452E+02 -0.42556368702E+03  0.42724909081E+03  0.10100000352E+00 0.  1.
       -3    1    3    3    0  502  0.28401512709E+02  0.25113298452E+02  0.22498697215E+03  0.22815887342E+03  0.10100000352E+00 0. -1.
</event>
<event>
 5   0  0.1488510E-01  0.5751305E+03  0.7818609E-02  0.9958389E-01
       -2   -1    0    0    0  501  0.00000000000E+00  0.00000000000E+00  0.12291052841E+03  0.12291052843E+03  0.25500000920E-02 0. -1.
        2   -1    0    0  501    0  0.00000000000E+00  0.00000000000E+00 -0.67279659427E+03  0.67279659427E+03  0.25500000920E-02 0.  1.
    10030    2    1    2    0    0  0.00000000000E+00  0.00000000000E+00 -0.54988606586E+03  0.79570712271E+03  0.57513054144E+03 0.  0.
        5    1    3    3  502    0 -0.21158066892E+03  0.11077672357E+03 -0.53432903922E+02  0.24477546275E+03  0.46999998093E+01 0. -1.
       -5    1    3    3    0  502  0.21158066892E+03 -0.11077672357E+03 -0.49645316194E+03  0.55093165996E+03  0.46999998093E+01 0.  1.
</event>
<event>
 5   0  0.9411028E-02  0.5161618E+03  0.7818609E-02  0.1009644E+00
        1   -1    0    0  501    0  0.00000000000E+00  0.00000000000E+00  0.17156885827E+03  0.17156885835E+03  0.50400001928E-02 0. -1.
       -1   -1    0    0    0  501  0.00000000000E+00  0.00000000000E+00 -0.38821584903E+03  0.38821584906E+03  0.50400001928E-02 0.  1.
    10030    2    1    2    0    0  0.00000000000E+00  0.00000000000E+00 -0.21664699076E+03  0.55978470741E+03  0.51616179638E+03 0.  0.
        4    1    3    3  502    0 -0.21189985531E+03  0.88660911031E+02  0.19271002888E+02  0.23051093310E+03  0.12699999809E+01 0. -1.
       -4    1    3    3    0  502  0.21189985531E+03 -0.88660911031E+02 -0.23591799365E+03  0.32927377431E+03  0.12699999809E+01 0.  1.
</event>
<event>
 5   0  0.8860626E-02  0.5114295E+03  0.7818609E-02  0.1010838E+00
       -1   -1    0    0    0  501  0.00000000000E+00  0.00000000000E+00  0.85451926825E+03  0.85451926826E+03  0.50400001928E-02 0. -1.
        1   -1    0    0  501    0  0.00000000000E+00  0.00000000000E+00 -0.76522608213E+02  0.76522608378E+02  0.50400001928E-02 0.  1.
    10030    2    1    2    0    0  0.00000000000E+00  0.00000000000E+00  0.77799666003E+03  0.93104187664E+03  0.51142953868E+03 0.  0.
        3    1    3    3  502    0 -0.43287692101E+02 -0.23921730899E+03  0.53339367254E+03  0.58618048868E+03  0.10100000352E+00 0. -1.
       -3    1    3    3    0  502  0.43287692101E+02  0.23921730899E+03  0.24460298749E+03  0.34486138795E+03  0.10100000352E+00 0.  1.
</event>
<event>
 5   0  0.9411028E-02  0.5951802E+03  0.7818609E-02  0.9915456E-01
       -1   -1    0    0    0  501  0.00000000000E+00  0.00000000000E+00  0.30036127019E+03  0.30036127024E+03  0.50400001928E-02 0. -1.
        1   -1    0    0  501    0  0.00000000000E+00  0.00000000000E+00 -0.29484449988E+03  0.29484449993E+03  0.50400001928E-02 0.  1.
    10030    2    1    2    0    0  0.00000000000E+00  0.00000000000E+00  0.55167703106E+01  0.59520577016E+03  0.59518020303E+03 0.  0.
        4    1    3    3  502    0 -0.29070187407E+03 -0.44802077695E+02 -0.42448090420E+02  0.29718388084E+03  0.12699999809E+01 0.  1.
       -4    1    3    3    0  502  0.29070187407E+03  0.44802077695E+02  0.47964860730E+02  0.29802188932E+03  0.12699999809E+01 0. -1.
</event>
<event>
 5   0  0.1483942E-01  0.5916815E+03  0.7818609E-02  0.9922816E-01
        2   -1    0    0  501    0  0.00000000000E+00  0.00000000000E+00  0.78515940360E+03  0.78515940360E+03  0.25500000920E-02 0. -1.
       -2   -1    0    0    0  501  0.00000000000E+00  0.00000000000E+00 -0.11147002667E+03  0.11147002670E+03  0.25500000920E-02 0.  1.
    10030    2    1    2    0    0  0.00000000000E+00  0.00000000000E+00  0.67368937693E+03  0.89662943030E+03  0.59168146725E+03 0.  0.
        4    1    3    3  502    0  0.33989238073E+02  0.25906030193E+02  0.78045288507E+03  0.78162312493E+03  0.12699999809E+01 0. -1.
       -4    1    3    3    0  502 -0.33989238073E+02 -0.25906030193E+02 -0.10676350814E+03  0.11500630537E+03  0.12699999809E+01 0.  1.
</event>
<event>
 5   0  0.1483942E-01  0.6144642E+03  0.7818609E-02  0.9875844E-01
       -2   -1    0    0    0  501  0.00000000000E+00  0.00000000000E+00  0.44522660202E+02  0.44522660275E+02  0.25500000920E-02 0. -1.
        2   -1    0    0  501    0  0.00000000000E+00  0.00000000000E+00 -0.21200789696E+04  0.21200789696E+04  0.25500000920E-02 0.  1.
    10030    2    1    2    0    0  0.00000000000E+00  0.00000000000E+00 -0.20755563094E+04  0.21646016299E+04  0.61446417518E+03 0.  0.
        4    1    3    3  502    0  0.30245112786E+03 -0.14488832360E+02 -0.12209383446E+04  0.12579263354E+04  0.12699999809E+01 0.  1.
       -4    1    3    3    0  502 -0.30245112786E+03  0.14488832360E+02 -0.85461796478E+03  0.90667529449E+03  0.12699999809E+01 0. -1.
</event>
<event>
 5   0  0.9497860E-02  0.5453541E+03  0.7818609E-02  0.1002575E+00
        1   -1    0    0  501    0  0.00000000000E+00  0.00000000000E+00  0.82095684316E+03  0.82095684318E+03  0.50400001928E-02 0.  1.
       -1   -1    0    0    0  501  0.00000000000E+00  0.00000000000E+00 -0.90568426399E+02  0.90568426540E+02  0.50400001928E-02 0. -1.
    10030    2    1    2    0    0  0.00000000000E+00  0.00000000000E+00  0.73038841676E+03  0.91152526972E+03  0.54535408497E+03 0.  0.
        5    1    3    3  502    0  0.52772906052E+02  0.12533860907E+02  0.81177967091E+03  0.81360334401E+03  0.46999998093E+01 0.  1.
       -5    1    3    3    0  502 -0.52772906052E+02 -0.12533860907E+02 -0.81391254153E+02  0.97921925702E+02  0.46999998093E+01 0. -1.
</event>
<event>
 5   0  0.1502642E-01  0.5898448E+03  0.7818609E-02  0.9926702E-01
       -2   -1    0    0    0  501  0.00000000000E+00  0.00000000000E+00  0.59560819646E+02  0.59560819700E+02  0.25500000920E-02 0. -1.
        2   -1    0    0  501    0  0.00000000000E+00  0.00000000000E+00 -0.14603426969E+04  0.14603426969E+04  0.25500000920E-02 0.  1.
    10030    2    1    2    0    0  0.00000000000E+00  0.00000000000E+00 -0.14007818772E+04  0.15199035166E+04  0.58984475257E+03 0.  0.
        2    1    3    3  502    0  0.15304365231E+03  0.12612506753E+02 -0.51584275180E+02  0.16199497613E+03  0.25500000920E-02 0. -1.
       -2    1    3    3    0  502 -0.15304365231E+03 -0.12612506753E+02 -0.13491976021E+04  0.13579085405E+04  0.25500000920E-02 0.  1.
</event>
<event>
 5   0  0.9420349E-02  0.6283018E+03  0.7818609E-02  0.9848368E-01
       -1   -1    0    0    0  501  0.00000000000E+00  0.00000000000E+00  0.29348943577E+03  0.29348943581E+03  0.50400001928E-02 0.  1.
        1   -1    0    0  501    0  0.00000000000E+00  0.00000000000E+00 -0.33626695760E+03  0.33626695764E+03  0.50400001928E-02 0. -1.
    10030    2    1    2    0    0  0.00000000000E+00  0.00000000000E+00 -0.42777521830E+02  0.62975639345E+03  0.62830183727E+03 0.  0.
        2    1    3    3  502    0 -0.28746830864E+03  0.53788011718E+02  0.93592203338E+02  0.30706787394E+03  0.25500000920E-02 0.  1.
       -2    1    3    3    0  502  0.28746830864E+03 -0.53788011718E+02 -0.13636972517E+03  0.32268851951E+03  0.25500000920E-02 0. -1.
</event>
<event>
 5   0  0.8860626E-02  0.6028613E+03  0.7818609E-02  0.9899487E-01
        1   -1    0    0  501    0  0.00000000000E+00  0.00000000000E+00  0.13136313532E+04  0.13136313532E+04  0.50400001928E-02 0.  1.
       -1   -1    0    0    0  501  0.00000000000E+00  0.00000000000E+00 -0.69167383666E+02  0.69167383849E+02  0.50400001928E-02 0. -1.
    10030    2    1    2    0    0  0.00000000000E+00  0.00000000000E+00  0.12444639695E+04  0.13827987371E+04  0.60286132381E+03 0.  0.
        3    1    3    3  502    0  0.10129058412E+03 -0.11291272128E+02 -0.28447441347E+02  0.10581371545E+03  0.10100000352E+00 0. -1.
       -3    1    3    3    0  502 -0.10129058412E+03  0.11291272128E+02  0.12729114109E+04  0.12769850216E+04  0.10100000352E+00 0.  1.
</event>
<event>
 5   0  0.1513339E-01  0.5848345E+03  0.7818609E-02  0.9937379E-01
        2   -1    0    0  501    0  0.00000000000E+00  0.00000000000E+00  0.12118716539E+04  0.12118716539E+04  0.25500000920E-02 0.  1.
       -2   -1    0    0    0  501  0.00000000000E+00  0.00000000000E+00 -0.70558490654E+02  0.70558490700E+02  0.25500000920E-02 0. -1.
    10030    2    1    2    0    0  0.00000000000E+00  0.00000000000E+00  0.11413131632E+04  0.12824301446E+04  0.58483445451E+03 0.  0.
        3    1    3    3  502    0  0.29773669128E+02  0.14682838803E+03  0.11213213809E+04  0.11312854177E+04  0.10100000352E+00 0.  1.
       -3    1    3    3    0  502 -0.29773669128E+02 -0.14682838803E+03  0.19991782368E+02  0.15114472689E+03  0.10100000352E+00 0. -1.
</event>
<event>
 5   0  0.1532571E-01  0.6080375E+03  0.7818609E-02  0.9888870E-01
       -2   -1    0    0    0  501  0.00000000000E+00  0.00000000000E+00  0.17917637315E+03  0.17917637317E+03  0.25500000920E-02 0. -1.
        2   -1    0    0  501    0  0.00000000000E+00  0.00000000000E+00 -0.51584596323E+03  0.51584596324E+03  0.25500000920E-02 0.  1.
    10030    2    1    2    0    0  0.00000000000E+00  0.00000000000E+00 -0.33666959008E+03  0.69502233641E+03  0.60803752781E+03 0.  0.
        1    1    3    3  502    0 -0.89161636495E+02 -0.16183991325E+03 -0.44429627711E+03  0.48118721598E+03  0.50400001928E-02 0.  1.
       -1    1    3    3    0  502  0.89161636495E+02  0.16183991325E+03  0.10762668703E+03  0.21383512043E+03  0.50400001928E-02 0. -1.
</event>
<event>
 5   0  0.9411028E-02  0.5993111E+03  0.7818609E-02  0.9906836E-01
        1   -1    0    0  501    0  0.00000000000E+00  0.00000000000E+00  0.63966263787E+03  0.63966263789E+03  0.50400001928E-02 0. -1.
       -1   -1    0    0    0  501  0.00000000000E+00  0.00000000000E+00 -0.14037628133E+03  0.14037628142E+03  0.50400001928E-02 0.  1.
    10030    2    1    2    0    0  0.00000000000E+00  0.00000000000E+00  0.49928635654E+03  0.78003891931E+03  0.59931114608E+03 0.  0.
        4    1    3    3  502    0  0.33362486279E+02 -0.24597695268E+03  0.46811186391E+03  0.52985662851E+03  0.12699999809E+01 0. -1.
       -4    1    3    3    0  502 -0.33362486279E+02  0.24597695268E+03  0.31174492632E+02  0.25018229081E+03  0.12699999809E+01 0.  1.
</event>
<event>
 5   0  0.9420349E-02  0.4781593E+03  0.7818609E-02  0.1019642E+00
        1   -1    0    0  501    0  0.00000000000E+00  0.00000000000E+00  0.80504272896E+03  0.80504272897E+03  0.50400001928E-02 0. -1.
       -1   -1    0    0    0  501  0.00000000000E+00  0.00000000000E+00 -0.71001284822E+02  0.71001285001E+02  0.50400001928E-02 0.  1.
    10030    2    1    2    0    0  0.00000000000E+00  0.00000000000E+00  0.73404144413E+03  0.87604401397E+03  0.47815925455E+03 0.  0.
        2    1    3    3  502    0  0.11518153499E+03  0.18691800621E+03  0.19365609973E+03  0.29275896573E+03  0.25500000920E-02 0. -1.
       -2    1    3    3    0  502 -0.11518153499E+03 -0.18691800621E+03  0.54038534441E+03  0.58328504824E+03  0.25500000920E-02 0.  1.
</event>
<event>
 5   0  0.8860626E-02  0.5611158E+03  0.7818609E-02  0.9989533E-01
       -1   -1    0    0    0  501  0.00000000000E+00  0.00000000000E+00  0.11834149619E+03  0.11834149630E+03  0.50400001928E-02 0.  1.
        1   -1    0    0  501    0  0.00000000000E+00  0.00000000000E+00 -0.66513225236E+03  0.66513225238E+03  0.50400001928E-02 0. -1.
    10030    2    1    2    0    0  0.00000000000E+00  0.00000000000E+00 -0.54679075617E+03  0.78347374869E+03  0.56111583817E+03 0.  0.
        3    1    3    3  502    0 -0.23532604235E+03  0.12295118625E+03 -0.39996777752E+03  0.48007246710E+03  0.10100000352E+00 0. -1.
       -3    1    3    3    0  502  0.23532604235E+03 -0.12295118625E+03 -0.14682297865E+03  0.30340128159E+03  0.10100000352E+00 0.  1.
</event>
<event>
 5   0  0.1483942E-01  0.5975512E+03  0.7818609E-02  0.9910500E-01
       -2   -1    0    0    0  501  0.00000000000E+00  0.00000000000E+00  0.53033143385E+02  0.53033143447E+02  0.25500000920E-02 0.  1.
        2   -1    0    0  501    0  0.00000000000E+00  0.00000000000E+00 -0.16832278357E+04  0.16832278357E+04  0.25500000920E-02 0. -1.
    10030    2    1    2    0    0  0.00000000000E+00  0.00000000000E+00 -0.16301946923E+04  0.17362609791E+04  0.59755121358E+03 0.  0.
        4    1    3    3  502    0  0.20487876830E+03  0.16291156292E+02 -0.18500798778E+03  0.27653260190E+03  0.12699999809E+01 0.  1.
       -4    1    3    3    0  502 -0.20487876830E+03 -0.16291156292E+02 -0.14451867045E+04  0.14597283772E+04  0.12699999809E+01 0. -1.
</event>
<event>
 5   0  0.9497860E-02  0.6061956E+03  0.7818609E-02  0.9892635E-01
        1   -1    0    0  501    0  0.00000000000E+00  0.00000000000E+00  0.81814980509E+03  0.81814980511E+03  0.50400001928E-02 0.  1.
       -1   -1    0    0    0  501  0.00000000000E+00  0.00000000000E+00 -0.11228784575E+03  0.11228784586E+03  0.50400001928E-02 0. -1.
    10030    2    1    2    0    0  0.00000000000E+00  0.00000000000E+00  0.70586195935E+03  0.93043765097E+03  0.60619560926E+03 0.  0.
        5    1    3    3  502    0  0.15105173316E+03  0.90806218550E+02 -0.25484062157E+02  0.17814017750E+03  0.46999998093E+01 0. -1.
       -5    1    3    3    0  502 -0.15105173316E+03 -0.90806218550E+02  0.73134602150E+03  0.75229747347E+03  0.46999998093E+01 0.  1.
</event>
<event>
 5   0  0.1513339E-01  0.6047127E+03  0.7818609E-02  0.9895677E-01
       -2   -1    0    0    0  501  0.00000000000E+00  0.00000000000E+00  0.12069469709E+03  0.12069469712E+03  0.25500000920E-02 0. -1.
        2   -1    0    0  501    0  0.00000000000E+00  0.00000000000E+00 -0.75744311957E+03  0.75744311957E+03  0.25500000920E-02 0.  1.
    10030    2    1    2    0    0  0.00000000000E+00  0.00000000000E+00 -0.63674842248E+03  0.87813781669E+03  0.60471271821E+03 0.  0.
        3    1    3    3  502    0  0.15664759831E+03 -0.23811805201E+03 -0.17185249696E+03  0.33282422938E+03  0.10100000352E+00 0.  1.
       -3    1    3    3    0  502 -0.15664759831E+03  0.23811805201E+03 -0.46489592551E+03  0.54531358731E+03  0.10100000352E+00 0. -1.
</event>
<event>
 5   0  0.1513339E-01  0.6137171E+03  0.7818609E-02  0.9877349E-01
       -2   -1    0    0    0  501  0.00000000000E+00  0.00000000000E+00  0.79848102588E+02  0.79848102629E+02  0.25500000920E-02 0.  1.
        2   -1    0    0  501    0  0.00000000000E+00  0.00000000000E+00 -0.11792661877E+04  0.11792661877E+04  0.25500000920E-02 0. -1.
    10030    2    1    2    0    0  0.00000000000E+00  0.00000000000E+00 -0.10994180851E+04  0.12591142903E+04  0.61371709300E+03 0.  0.
        3    1    3    3  502    0  0.15306083387E+03  0.10648869096E+03 -0.49708161040E+02  0.19297246343E+03  0.10100000352E+00 0.  1.
       -3    1    3    3    0  502 -0.15306083387E+03 -0.10648869096E+03 -0.10497099240E+04  0.10661418269E+04  0.10100000352E+00 0. -1.
</event>
<event>
 5   0  0.9497860E-02  0.5976574E+03  0.7818609E-02  0.9910278E-01
        1   -1    0    0  501    0  0.00000000000E+00  0.00000000000E+00  0.79707725215E+03  0.79707725217E+03  0.50400001928E-02 0.  1.
       -1   -1    0    0    0  501  0.00000000000E+00  0.00000000000E+00 -0.11203253388E+03  0.11203253399E+03  0.50400001928E-02 0. -1.
    10030    2    1    2    0    0  0.00000000000E+00  0.00000000000E+00  0.68504471827E+03  0.90910978616E+03  0.59765737446E+03 0.  0.
        5    1    3    3  502    0 -0.28663899723E+03  0.70296390479E+02  0.41343009532E+03  0.50798625076E+03  0.46999998093E+01 0.  1.
       -5    1    3    3    0  502  0.28663899723E+03 -0.70296390479E+02  0.27161462296E+03  0.40112353540E+03  0.46999998093E+01 0. -1.
</event>
<event>
 5   0  0.6170500E-02  0.4615343E+03  0.7818609E-02  0.1024337E+00
        3   -1    0    0  501    0  0.00000000000E+00  0.00000000000E+00  0.14067824267E+03  0.14067827893E+03  0.10100000352E+00 0. -1.
       -3   -1    0    0    0  501  0.00000000000E+00  0.00000000000E+00 -0.37854796639E+03  0.37854797986E+03  0.10100000352E+00 0.  1.
    10030    2    1    2    0    0  0.00000000000E+00  0.00000000000E+00 -0.23786972372E+03  0.51922625879E+03  0.46153429164E+03 0.  0.
        1    1    3    3  502    0  0.39665891954E+01 -0.89383188310E+02 -0.35824121393E+03  0.36924498042E+03  0.50400001928E-02 0.  1.
       -1    1    3    3    0  502 -0.39665891954E+01  0.89383188310E+02  0.12037149021E+03  0.14998127837E+03  0.50400001928E-02 0. -1.
</event>
<event>
 5   0  0.6170500E-02  0.6193926E+03  0.7818609E-02  0.9865970E-01
       -3   -1    0    0    0  501  0.00000000000E+00  0.00000000000E+00  0.56889458668E+03  0.56889459564E+03  0.10100000352E+00 0. -1.
        3   -1    0    0  501    0  0.00000000000E+00  0.00000000000E+00 -0.16859326164E+03  0.16859329189E+03  0.10100000352E+00 0.  1.
    10030    2    1    2    0    0  0.00000000000E+00  0.00000000000E+00  0.40030132504E+03  0.73748788754E+03  0.61939263269E+03 0.  0.
        4    1    3    3  502    0 -0.30380796113E+03 -0.47556592683E+02  0.24388688794E+03  0.39248354585E+03  0.12699999809E+01 0. -1.
       -4    1    3    3    0  502  0.30380796113E+03  0.47556592683E+02  0.15641443709E+03  0.34500434169E+03  0.12699999809E+01 0.  1.
</event>
<event>
 5   0  0.9497860E-02  0.6216117E+03  0.7818609E-02  0.9861556E-01
       -1   -1    0    0    0  501  0.00000000000E+00  0.00000000000E+00  0.19113793127E+03  0.19113793134E+03  0.50400001928E-02 0.  1.
        1   -1    0    0  501    0  0.00000000000E+00  0.00000000000E+00 -0.50539561462E+03  0.50539561464E+03  0.50400001928E-02 0. -1.
    10030    2    1    2    0    0  0.00000000000E+00  0.00000000000E+00 -0.31425768335E+03  0.69653354598E+03  0.62161168677E+03 0.  0.
        5    1    3    3  502    0 -0.18552919425E+03 -0.10514590711E+03 -0.41043131460E+03  0.46255021101E+03  0.46999998093E+01 0. -1.
       -5    1    3    3    0  502  0.18552919425E+03  0.10514590711E+03  0.96173631249E+02  0.23398333497E+03  0.46999998093E+01 0.  1.
</event>
<event>
 5   0  0.1513339E-01  0.5766188E+03  0.7818609E-02  0.9955138E-01
        2   -1    0    0  501    0  0.00000000000E+00  0.00000000000E+00  0.20047245461E+03  0.20047245463E+03  0.25500000920E-02 0.  1.
       -2   -1    0    0    0  501  0.00000000000E+00  0.00000000000E+00 -0.41463213357E+03  0.41463213358E+03  0.25500000920E-02 0. -1.
    10030    2    1    2    0    0  0.00000000000E+00  0.00000000000E+00 -0.21415967896E+03  0.61510458821E+03  0.57661883974E+03 0.  0.
        3    1    3    3  502    0 -0.43498216178E+02 -0.10661217710E+02 -0.41089880991E+03  0.41333231008E+03  0.10100000352E+00 0. -1.
       -3    1    3    3    0  502  0.43498216178E+02  0.10661217710E+02  0.19673913095E+03  0.20177227813E+03  0.10100000352E+00 0.  1.
</event>
<event>
 5   0  0.9497860E-02  0.4107960E+03  0.7818609E-02  0.1040104E+00
       -1   -1    0    0    0  501  0.00000000000E+00  0.00000000000E+00  0.21578335643E+02  0.21578336232E+02  0.50400001928E-02 0.  1.
        1   -1    0    0  501    0  0.00000000000E+00  0.00000000000E+00 -0.19551246693E+04  0.19551246693E+04  0.50400001928E-02 0. -1.
    10030    2    1    2    0    0  0.00000000000E+00  0.00000000000E+00 -0.19335463337E+04  0.19767030056E+04  0.41079599281E+03 0.  0.
        5    1    3    3  502    0  0.13797891009E+03 -0.11287913874E+03 -0.47637700409E+03  0.50866198955E+03  0.46999998093E+01 0. -1.
       -5    1    3    3    0  502 -0.13797891009E+03  0.11287913874E+03 -0.14571693296E+04  0.14680410160E+04  0.46999998093E+01 0.  1.
</event>
<event>
 5   0  0.1502642E-01  0.5844267E+03  0.7818609E-02  0.9938253E-01
        2   -1    0    0  501    0  0.00000000000E+00  0.00000000000E+00  0.22049455657E+03  0.22049455659E+03  0.25500000920E-02 0. -1.
       -2   -1    0    0    0  501  0.00000000000E+00  0.00000000000E+00 -0.38725957594E+03  0.38725957595E+03  0.25500000920E-02 0.  1.
    10030    2    1    2    0    0  0.00000000000E+00  0.00000000000E+00 -0.16676501937E+03  0.60775413254E+03  0.58442665402E+03 0.  0.
        2    1    3    3  502    0  0.20020642257E+03  0.12002204632E+03 -0.26618505654E+03  0.35403726862E+03  0.25500000920E-02 0.  1.
       -2    1    3    3    0  502 -0.20020642257E+03 -0.12002204632E+03  0.99420037163E+02  0.25371686392E+03  0.25500000920E-02 0. -1.
</event>
<event>
 5   0  0.1532571E-01  0.5646340E+03  0.7818609E-02  0.9981624E-01
        2   -1    0    0  501    0  0.00000000000E+00  0.00000000000E+00  0.29325171164E+03  0.29325171165E+03  0.25500000920E-02 0. -1.
       -2   -1    0    0    0  501  0.00000000000E+00  0.00000000000E+00 -0.27179005868E+03  0.27179005869E+03  0.25500000920E-02 0.  1.
    10030    2    1    2    0    0  0.00000000000E+00  0.00000000000E+00  0.21461652958E+02  0.56504177034E+03  0.56463404049E+03 0.  0.
        1    1    3    3  502    0  0.13600751139E+03 -0.88295355632E+01 -0.23668624857E+03  0.27312338630E+03  0.50400001928E-02 0.  1.
       -1    1    3    3    0  502 -0.13600751139E+03  0.88295355632E+01  0.25814790153E+03  0.29191838404E+03  0.50400001928E-02 0. -1.
</event>
<event>
 5   0  0.9177281E-02  0.6008170E+03  0.7818609E-02  0.9903713E-01
       -1   -1    0    0    0  501  0.00000000000E+00  0.00000000000E+00  0.65215926873E+02  0.65215927068E+02  0.50400001928E-02 0.  1.
        1   -1    0    0  501    0  0.00000000000E+00  0.00000000000E+00 -0.13837917723E+04  0.13837917723E+04  0.50400001928E-02 0. -1.
    10030    2    1    2    0    0  0.00000000000E+00  0.00000000000E+00 -0.13185758455E+04  0.14490076994E+04  0.60081698771E+03 0.  0.
        1    1    3    3  502    0  0.22497721034E+03  0.19135850650E+03 -0.52691849530E+03  0.60404960384E+03  0.50400001928E-02 0. -1.
       -1    1    3    3    0  502 -0.22497721034E+03 -0.19135850650E+03 -0.79165735016E+03  0.84495809557E+03  0.50400001928E-02 0.  1.
</event>
<event>
 5   0  0.1483942E-01  0.6087545E+03  0.7818609E-02  0.9887408E-01
       -2   -1    0    0    0  501  0.00000000000E+00  0.00000000000E+00  0.13538069615E+03  0.13538069617E+03  0.25500000920E-02 0. -1.
        2   -1    0    0  501    0  0.00000000000E+00  0.00000000000E+00 -0.68433313176E+03  0.68433313176E+03  0.25500000920E-02 0.  1.
    10030    2    1    2    0    0  0.00000000000E+00  0.00000000000E+00 -0.54895243561E+03  0.81971382794E+03  0.60875445226E+03 0.  0.
        4    1    3    3  502    0 -0.21963147989E+03 -0.18578036836E+03 -0.40839833318E+03  0.49954293476E+03  0.12699999809E+01 0.  1.
       -4    1    3    3    0  502  0.21963147989E+03  0.18578036836E+03 -0.14055410243E+03  0.32017089317E+03  0.12699999809E+01 0. -1.
</event>
<event>
 5   0  0.1483942E-01  0.5879529E+03  0.7818609E-02  0.9930720E-01
       -2   -1    0    0    0  501  0.00000000000E+00  0.00000000000E+00  0.48213896753E+02  0.48213896821E+02  0.25500000920E-02 0. -1.
        2   -1    0    0  501    0  0.00000000000E+00  0.00000000000E+00 -0.17924739537E+04  0.17924739537E+04  0.25500000920E-02 0.  1.
    10030    2    1    2    0    0  0.00000000000E+00  0.00000000000E+00 -0.17442600569E+04  0.18406878505E+04  0.58795290356E+03 0.  0.
        4    1    3    3  502    0 -0.77422720811E+02 -0.11640160747E+03 -0.16817398510E+04  0.16875408591E+04  0.12699999809E+01 0.  1.
       -4    1    3    3    0  502  0.77422720811E+02  0.11640160747E+03 -0.62520205947E+02  0.15314699138E+03  0.12699999809E+01 0. -1.
</event>
<event>
 5   0  0.1513339E-01  0.6079305E+03  0.7818609E-02  0.9889088E-01
       -2   -1    0    0    0  501  0.00000000000E+00  0.00000000000E+00  0.52306870303E+02  0.52306870365E+02  0.25500000920E-02 0. -1.
        2   -1    0    0  501    0  0.00000000000E+00  0.00000000000E+00 -0.17664003967E+04  0.17664003967E+04  0.25500000920E-02 0.  1.
    10030    2    1    2    0    0  0.00000000000E+00  0.00000000000E+00 -0.17140935264E+04  0.18187072671E+04  0.60793051087E+03 0.  0.
        3    1    3    3  502    0 -0.16384083824E+03 -0.23979307424E+03 -0.11254672368E+04  0.11623343108E+04  0.10100000352E+00 0.  1.
       -3    1    3    3    0  502  0.16384083824E+03  0.23979307424E+03 -0.58862628960E+03  0.65637295628E+03  0.10100000352E+00 0. -1.
</event>
<event>
 5   0  0.6170500E-02  0.5937184E+03  0.7818609E-02  0.9918525E-01
       -3   -1    0    0    0  501  0.00000000000E+00  0.00000000000E+00  0.31004312060E+03  0.31004313705E+03  0.10100000352E+00 0.  1.
        3   -1    0    0  501    0  0.00000000000E+00  0.00000000000E+00 -0.28423588264E+03  0.28423590058E+03  0.10100000352E+00 0. -1.
    10030    2    1    2    0    0  0.00000000000E+00  0.00000000000E+00  0.25807237964E+02  0.59427903764E+03  0.59371841898E+03 0.  0.
        1    1    3    3  502    0 -0.15565971275E+03  0.22751348296E+03 -0.97350556598E+02  0.29235160680E+03  0.50400001928E-02 0. -1.
       -1    1    3    3    0  502  0.15565971275E+03 -0.22751348296E+03  0.12315779456E+03  0.30192743083E+03  0.50400001928E-02 0.  1.
</event>
<event>
 5   0  0.9411028E-02  0.5960755E+03  0.7818609E-02  0.9913582E-01
       -1   -1    0    0    0  501  0.00000000000E+00  0.00000000000E+00  0.11172863198E+03  0.11172863210E+03  0.50400001928E-02 0.  1.
        1   -1    0    0  501    0  0.00000000000E+00  0.00000000000E+00 -0.79502004236E+03  0.79502004238E+03  0.50400001928E-02 0. -1.
    10030    2    1    2    0    0  0.00000000000E+00  0.00000000000E+00 -0.68329141038E+03  0.90674867448E+03  0.59607550459E+03 0.  0.
        4    1    3    3  502    0  0.38194096597E+02  0.23068483103E+03 -0.60530149505E+02  0.24153631648E+03  0.12699999809E+01 0.  1.
       -4    1    3    3    0  502 -0.38194096597E+02 -0.23068483103E+03 -0.62276126088E+03  0.66521235799E+03  0.12699999809E+01 0. -1.
</event>
<event>
 5   0  0.6170500E-02  0.5916324E+03  0.7818609E-02  0.9922920E-01
        4   -1    0    0  501    0  0.00000000000E+00  0.00000000000E+00  0.16234175199E+03  0.16234671952E+03  0.12699999809E+01 0. -1.
       -4   -1    0    0    0  501  0.00000000000E+00  0.00000000000E+00 -0.53901700338E+03  0.53901849953E+03  0.12699999809E+01 0.  1.
    10030    2    1    2    0    0  0.00000000000E+00  0.00000000000E+00 -0.37667525140E+03  0.70136521905E+03  0.59163242429E+03 0.  0.
        5    1    3    3  502    0 -0.25967666311E+03  0.14070623052E+03 -0.20726549039E+03  0.36084800980E+03  0.46999998093E+01 0. -1.
       -5    1    3    3    0  502  0.25967666311E+03 -0.14070623052E+03 -0.16940976100E+03  0.34051720924E+03  0.46999998093E+01 0.  1.
</event>
<event>
 5   0  0.1513339E-01  0.5951146E+03  0.7818609E-02  0.9915594E-01
       -2   -1    0    0    0  501  0.00000000000E+00  0.00000000000E+00  0.89520344115E+02  0.89520344151E+02  0.25500000920E-02 0. -1.
        2   -1    0    0  501    0  0.00000000000E+00  0.00000000000E+00 -0.98905279937E+03  0.98905279938E+03  0.25500000920E-02 0.  1.
    10030    2    1    2    0    0  0.00000000000E+00  0.00000000000E+00 -0.89953245526E+03  0.10785731435E+04  0.59511460062E+03 0.  0.
        3    1    3    3  502    0  0.21082243485E+02  0.24636969789E+03 -0.74975653336E+03  0.78947916917E+03  0.10100000352E+00 0.  1.
       -3    1    3    3    0  502 -0.21082243485E+02 -0.24636969789E+03 -0.14977592190E+03  0.28909397436E+03  0.10100000352E+00 0. -1.
</event>
<event>
 5   0  0.1483942E-01  0.5954424E+03  0.7818609E-02  0.9914907E-01
       -2   -1    0    0    0  501  0.00000000000E+00  0.00000000000E+00  0.15397128325E+03  0.15397128327E+03  0.25500000920E-02 0. -1.
        2   -1    0    0  501    0  0.00000000000E+00  0.00000000000E+00 -0.57567822624E+03  0.57567822625E+03  0.25500000920E-02 0.  1.
    10030    2    1    2    0    0  0.00000000000E+00  0.00000000000E+00 -0.42170694300E+03  0.72964950952E+03  0.59544240777E+03 0.  0.
        4    1    3    3  502    0 -0.20235550257E+03 -0.19843162242E+03 -0.32258224323E+03  0.42939931851E+03  0.12699999809E+01 0.  1.
       -4    1    3    3    0  502  0.20235550257E+03  0.19843162242E+03 -0.99124699765E+02  0.30025019100E+03  0.12699999809E+01 0. -1.
</event>
<event>
 5   0  0.1483942E-01  0.5970283E+03  0.7818609E-02  0.9911591E-01
        2   -1    0    0  501    0  0.00000000000E+00  0.00000000000E+00  0.69016960227E+03  0.69016960228E+03  0.25500000920E-02 0.  1.
       -2   -1    0    0    0  501  0.00000000000E+00  0.00000000000E+00 -0.12911421778E+03  0.12911421780E+03  0.25500000920E-02 0. -1.
    10030    2    1    2    0    0  0.00000000000E+00  0.00000000000E+00  0.56105538449E+03  0.81928382008E+03  0.59702833549E+03 0.  0.
        4    1    3    3  502    0 -0.35158854030E+02  0.23620385513E+03  0.34739350389E+02  0.24132310615E+03  0.12699999809E+01 0. -1.
       -4    1    3    3    0  502  0.35158854030E+02 -0.23620385513E+03  0.52631603410E+03  0.57796071393E+03  0.12699999809E+01 0.  1.
</event>
<event>
 5   0  0.8860626E-02  0.5985611E+03  0.7818609E-02  0.9908396E-01
        1   -1    0    0  501    0  0.00000000000E+00  0.00000000000E+00  0.77701177538E+03  0.77701177540E+03  0.50400001928E-02 0. -1.
       -1   -1    0    0    0  501  0.00000000000E+00  0.00000000000E+00 -0.11527349322E+03  0.11527349333E+03  0.50400001928E-02 0.  1.
    10030    2    1    2    0    0  0.00000000000E+00  0.00000000000E+00  0.66173828217E+03  0.89228526873E+03  0.59856114700E+03 0.  0.
        3    1    3    3  502    0 -0.12657811677E+02  0.53785329389E+02  0.76934212277E+03  0.77132379318E+03  0.10100000352E+00 0. -1.
       -3    1    3    3    0  502  0.12657811677E+02 -0.53785329389E+02 -0.10760384060E+03  0.12096147555E+03  0.10100000352E+00 0.  1.
</event>
<event>
 5   0  0.9177281E-02  0.6003200E+03  0.7818609E-02  0.9904742E-01
       -1   -1    0    0    0  501  0.00000000000E+00  0.00000000000E+00  0.33266563382E+02  0.33266563763E+02  0.50400001928E-02 0.  1.
        1   -1    0    0  501    0  0.00000000000E+00  0.00000000000E+00 -0.27083058799E+04  0.27083058799E+04  0.50400001928E-02 0. -1.
    10030    2    1    2    0    0  0.00000000000E+00  0.00000000000E+00 -0.26750393165E+04  0.27415724437E+04  0.60032001380E+03 0.  0.
        1    1    3    3  502    0  0.39035385638E+01  0.61663714542E+02 -0.26789492757E+04  0.26796617087E+04  0.50400001928E-02 0. -1.
       -1    1    3    3    0  502 -0.39035385638E+01 -0.61663714542E+02  0.39099591277E+01  0.61910735016E+02  0.50400001928E-02 0.  1.
</event>
<event>
 5   0  0.9420349E-02  0.5801756E+03  0.7818609E-02  0.9947411E-01
        1   -1    0    0  501    0  0.00000000000E+00  0.00000000000E+00  0.79147622294E+03  0.79147622296E+03  0.50400001928E-02 0.  1.
       -1   -1    0    0    0  501  0.00000000000E+00  0.00000000000E+00 -0.10632150702E+03  0.10632150714E+03  0.50400001928E-02 0. -1.
    10030    2    1    2    0    0  0.00000000000E+00  0.00000000000E+00  0.68515471592E+03  0.89779773010E+03  0.58017564531E+03 0.  0.
        2    1    3    3  502    0 -0.11879235561E+03  0.20900389256E+03  0.59380329583E+03  0.64062204536E+03  0.25500000920E-02 0.  1.
       -2    1    3    3    0  502  0.11879235561E+03 -0.20900389256E+03  0.91351420093E+02  0.25717568473E+03  0.25500000920E-02 0. -1.
</event>
<event>
 5   0  0.1532571E-01  0.5875568E+03  0.7818609E-02  0.9931563E-01
       -2   -1    0    0    0  501  0.00000000000E+00  0.00000000000E+00  0.98625690004E+02  0.98625690036E+02  0.25500000920E-02 0.  1.
        2   -1    0    0  501    0  0.00000000000E+00  0.00000000000E+00 -0.87508393527E+03  0.87508393527E+03  0.25500000920E-02 0. -1.
    10030    2    1    2    0    0  0.00000000000E+00  0.00000000000E+00 -0.77645824526E+03  0.97370962531E+03  0.58755682940E+03 0.  0.
        1    1    3    3  502    0  0.96572181459E+02  0.22414048479E+03 -0.65922661370E+03  0.70295438784E+03  0.50400001928E-02 0. -1.
       -1    1    3    3    0  502 -0.96572181459E+02 -0.22414048479E+03 -0.11723163157E+03  0.27075523747E+03  0.50400001928E-02 0.  1.
</event>
<event>
 5   0  0.1483942E-01  0.5939631E+03  0.7818609E-02  0.9918010E-01
       -2   -1    0    0    0  501  0.00000000000E+00  0.00000000000E+00  0.10614111676E+03  0.10614111680E+03  0.25500000920E-02 0.  1.
        2   -1    0    0  501    0  0.00000000000E+00  0.00000000000E+00 -0.83095074697E+03  0.83095074698E+03  0.25500000920E-02 0. -1.
    10030    2    1    2    0    0  0.00000000000E+00  0.00000000000E+00 -0.72480963021E+03  0.93709186377E+03  0.59396309743E+03 0.  0.
        4    1    3    3  502    0  0.29212198692E+03  0.44185786914E+01 -0.44650711391E+03  0.53359628442E+03  0.12699999809E+01 0.  1.
       -4    1    3    3    0  502 -0.29212198692E+03 -0.44185786914E+01 -0.27830251630E+03  0.40349557935E+03  0.12699999809E+01 0. -1.
</event>
<event>
 5   0  0.9497860E-02  0.5999722E+03  0.7818609E-02  0.9905464E-01
        1   -1    0    0  501    0  0.00000000000E+00  0.00000000000E+00  0.13120629621E+04  0.13120629621E+04  0.50400001928E-02 0. -1.
       -1   -1    0    0    0  501  0.00000000000E+00  0.00000000000E+00 -0.68587913128E+02  0.68587913313E+02  0.50400001928E-02 0.  1.
    10030    2    1    2    0    0  0.00000000000E+00  0.00000000000E+00  0.12434750490E+04  0.13806508754E+04  0.59997220134E+03 0.  0.
        5    1    3    3  502    0  0.18283347031E+03  0.20891442427E+03  0.36041035295E+03  0.45496266555E+03  0.46999998093E+01 0.  1.
       -5    1    3    3    0  502 -0.18283347031E+03 -0.20891442427E+03  0.88306469601E+03  0.92568820986E+03  0.46999998093E+01 0. -1.
</event>
<event>
 5   0  0.1483942E-01  0.6065415E+03  0.7818609E-02  0.9891927E-01
       -2   -1    0    0    0  501  0.00000000000E+00  0.00000000000E+00  0.43686163628E+02  0.43686163702E+02  0.25500000920E-02 0. -1.
        2   -1    0    0  501    0  0.00000000000E+00  0.00000000000E+00 -0.21053153478E+04  0.21053153478E+04  0.25500000920E-02 0.  1.
    10030    2    1    2    0    0  0.00000000000E+00  0.00000000000E+00 -0.20616291841E+04  0.21490015115E+04  0.60654151005E+03 0.  0.
        4    1    3    3  502    0 -0.22899716880E+03 -0.13482081388E+03 -0.51305537457E+03  0.57779216458E+03  0.12699999809E+01 0. -1.
       -4    1    3    3    0  502  0.22899716880E+03  0.13482081388E+03 -0.15485738096E+04  0.15712093469E+04  0.12699999809E+01 0.  1.
</event>
<event>
 5   0  0.9177281E-02  0.5293795E+03  0.7818609E-02  0.1006383E+00
        1   -1    0    0  501    0  0.00000000000E+00  0.00000000000E+00  0.28605576800E+03  0.28605576804E+03  0.50400001928E-02 0.  1.
       -1   -1    0    0    0  501  0.00000000000E+00  0.00000000000E+00 -0.24491958792E+03  0.24491958797E+03  0.50400001928E-02 0. -1.
    10030    2    1    2    0    0  0.00000000000E+00  0.00000000000E+00  0.41136180080E+02  0.53097535602E+03  0.52937948901E+03 0.  0.
        1    1    3    3  502    0 -0.18603474946E+03  0.12838320734E+03  0.15871304314E+03  0.27619016279E+03  0.50400001928E-02 0.  1.
       -1    1    3    3    0  502  0.18603474946E+03 -0.12838320734E+03 -0.11757686306E+03  0.25478519323E+03  0.50400001928E-02 0. -1.
</event>
<event>
 5   0  0.9497860E-02  0.6076379E+03  0.7818609E-02  0.9889685E-01
        1   -1    0    0  501    0  0.00000000000E+00  0.00000000000E+00  0.15955817432E+03  0.15955817440E+03  0.50400001928E-02 0. -1.
       -1   -1    0    0    0  501  0.00000000000E+00  0.00000000000E+00 -0.57850969942E+03  0.57850969945E+03  0.50400001928E-02 0.  1.
    10030    2    1    2    0    0  0.00000000000E+00  0.00000000000E+00 -0.41895152510E+03  0.73806787385E+03  0.60763789054E+03 0.  0.
        5    1    3    3  502    0  0.13743959801E+03  0.15311844563E+03  0.61989759917E+02  0.21494120551E+03  0.46999998093E+01 0. -1.
       -5    1    3    3    0  502 -0.13743959801E+03 -0.15311844563E+03 -0.48094128502E+03  0.52312666834E+03  0.46999998093E+01 0.  1.
</event>
<event>
 5   0  0.9497860E-02  0.6164713E+03  0.7818609E-02  0.9871810E-01
        1   -1    0    0  501    0  0.00000000000E+00  0.00000000000E+00  0.57451084165E+03  0.57451084168E+03  0.50400001928E-02 0.  1.
       -1   -1    0    0    0  501  0.00000000000E+00  0.00000000000E+00 -0.16537411738E+03  0.16537411746E+03  0.50400001928E-02 0. -1.
    10030    2    1    2    0    0  0.00000000000E+00  0.00000000000E+00  0.40913672427E+03  0.73988495913E+03  0.61647132424E+03 0.  0.
        5    1    3    3  502    0  0.28460099460E+03 -0.10620455982E+03  0.14208910397E+03  0.33539310982E+03  0.46999998093E+01 0. -1.
       -5    1    3    3    0  502 -0.28460099460E+03  0.10620455982E+03  0.26704762030E+03  0.40449184931E+03  0.46999998093E+01 0.  1.
</event>
<event>
 5   0  0.1488510E-01  0.5290331E+03  0.7818609E-02  0.1006467E+00
        2   -1    0    0  501    0  0.00000000000E+00  0.00000000000E+00  0.30252568664E+03  0.30252568665E+03  0.25500000920E-02 0.  1.
       -2   -1    0    0    0  501  0.00000000000E+00  0.00000000000E+00 -0.23128287073E+03  0.23128287075E+03  0.25500000920E-02 0. -1.
    10030    2    1    2    0    0  0.00000000000E+00  0.00000000000E+00  0.71242815907E+02  0.53380855740E+03  0.52903311535E+03 0.  0.
        5    1    3    3  502    0 -0.12361112783E+03 -0.37129141525E+02 -0.19730566672E+03  0.23581751460E+03  0.46999998093E+01 0. -1.
       -5    1    3    3    0  502  0.12361112783E+03  0.37129141525E+02  0.26854848262E+03  0.29799104280E+03  0.46999998093E+01 0.  1.
</event>
<event>
 5   0  0.1488510E-01  0.6453083E+03  0.7818609E-02  0.9815623E-01
        2   -1    0    0  501    0  0.00000000000E+00  0.00000000000E+00  0.11839983003E+04  0.11839983003E+04  0.25500000920E-02 0.  1.
       -2   -1    0    0    0  501  0.00000000000E+00  0.00000000000E+00 -0.87927242096E+02  0.87927242133E+02  0.25500000920E-02 0. -1.
    10030    2    1    2    0    0  0.00000000000E+00  0.00000000000E+00  0.10960710582E+04  0.12719255424E+04  0.64530831458E+03 0.  0.
        5    1    3    3  502    0 -0.31444203007E+03  0.71834692541E+02  0.53415380090E+03  0.62400030957E+03  0.46999998093E+01 0. -1.
       -5    1    3    3    0  502  0.31444203007E+03 -0.71834692541E+02  0.56191725730E+03  0.64792523286E+03  0.46999998093E+01 0.  1.
</event>
<event>
 5   0  0.1502642E-01  0.6147654E+03  0.7818609E-02  0.9875237E-01
       -2   -1    0    0    0  501  0.00000000000E+00  0.00000000000E+00  0.55630049654E+03  0.55630049654E+03  0.25500000920E-02 0. -1.
        2   -1    0    0  501    0  0.00000000000E+00  0.00000000000E+00 -0.16984367335E+03  0.16984367336E+03  0.25500000920E-02 0.  1.
    10030    2    1    2    0    0  0.00000000000E+00  0.00000000000E+00  0.38645682319E+03  0.72614416991E+03  0.61476538557E+03 0.  0.
        2    1    3    3  502    0 -0.33396912042E+01  0.10106199112E+03 -0.14963625600E+03  0.18059814147E+03  0.25500000920E-02 0.  1.
       -2    1    3    3    0  502  0.33396912042E+01 -0.10106199112E+03  0.53609307919E+03  0.54554602844E+03  0.25500000920E-02 0. -1.
</event>
<event>
 5   0  0.9177281E-02  0.6310476E+03  0.7818609E-02  0.9843007E-01
        1   -1    0    0  501    0  0.00000000000E+00  0.00000000000E+00  0.17472732667E+04  0.17472732667E+04  0.50400001928E-02 0. -1.
       -1   -1    0    0    0  501  0.00000000000E+00  0.00000000000E+00 -0.56977495962E+02  0.56977496185E+02  0.50400001928E-02 0.  1.
    10030    2    1    2    0    0  0.00000000000E+00  0.00000000000E+00  0.16902957707E+04  0.18042507628E+04  0.63104755987E+03 0.  0.
        1    1    3    3  502    0  0.23373685375E+03 -0.12482397921E+03  0.13348980364E+04  0.13609433163E+04  0.50400001928E-02 0. -1.
       -1    1    3    3    0  502 -0.23373685375E+03  0.12482397921E+03  0.35539773426E+03  0.44330744651E+03  0.50400001928E-02 0.  1.
</event>
<event>
 5   0  0.1488510E-01  0.6083443E+03  0.7818609E-02  0.9888244E-01
       -2   -1    0    0    0  501  0.00000000000E+00  0.00000000000E+00  0.82739035258E+02  0.82739035298E+02  0.25500000920E-02 0. -1.
        2   -1    0    0  501    0  0.00000000000E+00  0.00000000000E+00 -0.11182231693E+04  0.11182231693E+04  0.25500000920E-02 0.  1.
    10030    2    1    2    0    0  0.00000000000E+00  0.00000000000E+00 -0.10354841340E+04  0.12009622046E+04  0.60834433097E+03 0.  0.
        5    1    3    3  502    0  0.12533819810E+03 -0.50224065604E+01 -0.10647050092E+04  0.10720791645E+04  0.46999998093E+01 0.  1.
       -5    1    3    3    0  502 -0.12533819810E+03  0.50224065604E+01  0.29220875148E+02  0.12888304005E+03  0.46999998093E+01 0. -1.
</event>
<event>
 5   0  0.8860626E-02  0.5632795E+03  0.7818609E-02  0.9984661E-01
        1   -1    0    0  501    0  0.00000000000E+00  0.00000000000E+00  0.14229869891E+03  0.14229869900E+03  0.50400001928E-02 0.  1.
       -1   -1    0    0    0  501  0.00000000000E+00  0.00000000000E+00 -0.55742574793E+03  0.55742574795E+03  0.50400001928E-02 0. -1.
    10030    2    1    2    0    0  0.00000000000E+00  0.00000000000E+00 -0.41512704902E+03  0.69972444695E+03  0.56327953525E+03 0.  0.
        3    1    3    3  502    0 -0.10379805978E+03 -0.20223671978E+03 -0.10118061176E+01  0.22732083493E+03  0.10100000352E+00 0.  1.
       -3    1    3    3    0  502  0.10379805978E+03  0.20223671978E+03 -0.41411524290E+03  0.47240361201E+03  0.10100000352E+00 0. -1.
</event>
<event>
 5   0  0.1513339E-01  0.6016829E+03  0.7818609E-02  0.9901921E-01
        2   -1    0    0  501    0  0.00000000000E+00  0.00000000000E+00  0.12469511863E+04  0.12469511863E+04  0.25500000920E-02 0. -1.
       -2   -1    0    0    0  501  0.00000000000E+00  0.00000000000E+00 -0.72581493121E+02  0.72581493166E+02  0.25500000920E-02 0.  1.
    10030    2    1    2    0    0  0.00000000000E+00  0.00000000000E+00  0.11743696932E+04  0.13195326794E+04  0.60168290313E+03 0.  0.
        3    1    3    3  502    0  0.98659200854E+01  0.93131495684E+02 -0.39798299751E+02  0.10175817771E+03  0.10100000352E+00 0.  1.
       -3    1    3    3    0  502 -0.98659200854E+01 -0.93131495684E+02  0.12141679929E+04  0.12177745017E+04  0.10100000352E+00 0. -1.
</event>
<event>
 5   0  0.1488510E-01  0.6063899E+03  0.7818609E-02  0.9892237E-01
       -2   -1    0    0    0  501  0.00000000000E+00  0.00000000000E+00  0.13998883210E+03  0.13998883212E+03  0.25500000920E-02 0. -1.
        2   -1    0    0  501    0  0.00000000000E+00  0.00000000000E+00 -0.65667516466E+03  0.65667516467E+03  0.25500000920E-02 0.  1.
    10030    2    1    2    0    0  0.00000000000E+00  0.00000000000E+00 -0.51668633256E+03  0.79666399679E+03  0.60638993850E+03 0.  0.
        5    1    3    3  502    0 -0.14129448077E+03 -0.25315037932E+03 -0.37478791837E+03  0.47385368903E+03  0.46999998093E+01 0.  1.
       -5    1    3    3    0  502  0.14129448077E+03  0.25315037932E+03 -0.14189841420E+03  0.32281030776E+03  0.46999998093E+01 0. -1.
</event>
<event>
 5   0  0.9411028E-02  0.5953070E+03  0.7818609E-02  0.9915191E-01
        1   -1    0    0  501    0  0.00000000000E+00  0.00000000000E+00  0.35852875264E+03  0.35852875267E+03  0.50400001928E-02 0. -1.
       -1   -1    0    0    0  501  0.00000000000E+00  0.00000000000E+00 -0.24711432815E+03  0.24711432820E+03  0.50400001928E-02 0.  1.
    10030    2    1    2    0    0  0.00000000000E+00  0.00000000000E+00  0.11141442448E+03  0.60564308088E+03  0.59530695228E+03 0.  0.
        4    1    3    3  502    0  0.11478947881E+03 -0.16452052987E+02  0.33459949478E+03  0.35412671362E+03  0.12699999809E+01 0. -1.
       -4    1    3    3    0  502 -0.11478947881E+03  0.16452052987E+02 -0.22318507030E+03  0.25151636725E+03  0.12699999809E+01 0.  1.
</event>
<event>
 5   0  0.1513339E-01  0.5912725E+03  0.7818609E-02  0.9923680E-01
        2   -1    0    0  501    0  0.00000000000E+00  0.00000000000E+00  0.25034174195E+03  0.25034174197E+03  0.25500000920E-02 0.  1.
       -2   -1    0    0    0  501  0.00000000000E+00  0.00000000000E+00 -0.34912589926E+03  0.34912589927E+03  0.25500000920E-02 0. -1.
    10030    2    1    2    0    0  0.00000000000E+00  0.00000000000E+00 -0.98784157304E+02  0.59946764123E+03  0.59127247792E+03 0.  0.
        3    1    3    3  502    0  0.20604529587E+03  0.44131626888E+02 -0.25962696767E+03  0.33437768614E+03  0.10100000352E+00 0. -1.
       -3    1    3    3    0  502 -0.20604529587E+03 -0.44131626888E+02  0.16084281037E+03  0.26508995509E+03  0.10100000352E+00 0.  1.
</event>
<event>
 5   0  0.1502642E-01  0.5820747E+03  0.7818609E-02  0.9943309E-01
       -2   -1    0    0    0  501  0.00000000000E+00  0.00000000000E+00  0.44169823938E+02  0.44169824011E+02  0.25500000920E-02 0.  1.
        2   -1    0    0  501    0  0.00000000000E+00  0.00000000000E+00 -0.19176605311E+04  0.19176605311E+04  0.25500000920E-02 0. -1.
    10030    2    1    2    0    0  0.00000000000E+00  0.00000000000E+00 -0.18734907072E+04  0.19618303551E+04  0.58207466224E+03 0.  0.
        2    1    3    3  502    0 -0.91795773036E+02  0.35321461551E+02 -0.13544184182E+02  0.99285016619E+02  0.25500000920E-02 0.  1.
       -2    1    3    3    0  502  0.91795773036E+02 -0.35321461551E+02 -0.18599465230E+04  0.18625453385E+04  0.25500000920E-02 0. -1.
</event>
<event>
 5   0  0.1483942E-01  0.6115697E+03  0.7818609E-02  0.9881689E-01
       -2   -1    0    0    0  501  0.00000000000E+00  0.00000000000E+00  0.49991998263E+02  0.49991998328E+02  0.25500000920E-02 0. -1.
        2   -1    0    0  501    0  0.00000000000E+00  0.00000000000E+00 -0.18703866317E+04  0.18703866317E+04  0.25500000920E-02 0.  1.
    10030    2    1    2    0    0  0.00000000000E+00  0.00000000000E+00 -0.18203946335E+04  0.19203786301E+04  0.61156966998E+03 0.  0.
        4    1    3    3  502    0 -0.19044934031E+02 -0.30517331909E+03 -0.90062742522E+03  0.95111767734E+03  0.12699999809E+01 0. -1.
       -4    1    3    3    0  502  0.19044934031E+02  0.30517331909E+03 -0.91976720826E+03  0.96926095273E+03  0.12699999809E+01 0.  1.
</event>
<event>
 5   0  0.1513339E-01  0.6098044E+03  0.7818609E-02  0.9885271E-01
        2   -1    0    0  501    0  0.00000000000E+00  0.00000000000E+00  0.20567287162E+03  0.20567287163E+03  0.25500000920E-02 0. -1.
       -2   -1    0    0    0  501  0.00000000000E+00  0.00000000000E+00 -0.45200594697E+03  0.45200594698E+03  0.25500000920E-02 0.  1.
    10030    2    1    2    0    0  0.00000000000E+00  0.00000000000E+00 -0.24633307535E+03  0.65767881861E+03  0.60980443130E+03 0.  0.
        3    1    3    3  502    0  0.23585906901E+03  0.57005354984E+02  0.75952519730E+02  0.25425952565E+03  0.10100000352E+00 0. -1.
       -3    1    3    3    0  502 -0.23585906901E+03 -0.57005354984E+02 -0.32228559508E+03  0.40341929296E+03  0.10100000352E+00 0.  1.
</event>
<event>
 5   0  0.1532571E-01  0.5903876E+03  0.7818609E-02  0.9925552E-01
       -2   -1    0    0    0  501  0.00000000000E+00  0.00000000000E+00  0.69840820182E+02  0.69840820229E+02  0.25500000920E-02 0. -1.
        2   -1    0    0  501    0  0.00000000000E+00  0.00000000000E+00 -0.12476855229E+04  0.12476855229E+04  0.25500000920E-02 0.  1.
    10030    2    1    2    0    0  0.00000000000E+00  0.00000000000E+00 -0.11778447027E+04  0.13175263431E+04  0.59038760245E+03 0.  0.
        1    1    3    3  502    0 -0.15871784159E+03 -0.16158049524E+03 -0.16644377723E+03  0.28107497342E+03  0.50400001928E-02 0. -1.
       -1    1    3    3    0  502  0.15871784159E+03  0.16158049524E+03 -0.10114009255E+04  0.10364513697E+04  0.50400001928E-02 0.  1.
</event>
<event>
 5   0  0.1532571E-01  0.6394039E+03  0.7818609E-02  0.9826868E-01
       -2   -1    0    0    0  501  0.00000000000E+00  0.00000000000E+00  0.15629488001E+03  0.15629488003E+03  0.25500000920E-02 0. -1.
        2   -1    0    0  501    0  0.00000000000E+00  0.00000000000E+00 -0.65395190403E+03  0.65395190404E+03  0.25500000920E-02 0.  1.
    10030    2    1    2    0    0  0.00000000000E+00  0.00000000000E+00 -0.49765702402E+03  0.81024678407E+03  0.63940389234E+03 0.  0.
        1    1    3    3  502    0 -0.28067930973E+03  0.79181010533E+02 -0.82837016282E+02  0.30317070873E+03  0.50400001928E-02 0. -1.
       -1    1    3    3    0  502  0.28067930973E+03 -0.79181010533E+02 -0.41482000774E+03  0.50707607534E+03  0.50400001928E-02 0.  1.
</event>
<event>
 5   0  0.9177281E-02  0.5989072E+03  0.7818609E-02  0.9907676E-01
        1   -1    0    0  501    0  0.00000000000E+00  0.00000000000E+00  0.73283449114E+02  0.73283449287E+02  0.50400001928E-02 0.  1.
       -1   -1    0    0    0  501  0.00000000000E+00  0.00000000000E+00 -0.12236384844E+04  0.12236384844E+04  0.50400001928E-02 0. -1.
    10030    2    1    2    0    0  0.00000000000E+00  0.00000000000E+00 -0.11503550353E+04  0.12969219337E+04  0.59890716717E+03 0.  0.
        1    1    3    3  502    0  0.69745520827E+02  0.25551662298E+03 -0.27263524111E+03  0.38010940138E+03  0.50400001928E-02 0.  1.
       -1    1    3    3    0  502 -0.69745520827E+02 -0.25551662298E+03 -0.87771979415E+03  0.91681253229E+03  0.50400001928E-02 0. -1.
</event>
<event>
 5   0  0.6170500E-02  0.6495666E+03  0.7818609E-02  0.9807593E-01
       -4   -1    0    0    0  501  0.00000000000E+00  0.00000000000E+00  0.28894904869E+03  0.28895183966E+03  0.12699999809E+01 0.  1.
        4   -1    0    0  501    0  0.00000000000E+00  0.00000000000E+00 -0.36505594606E+03  0.36505815517E+03  0.12699999809E+01 0. -1.
    10030    2    1    2    0    0  0.00000000000E+00  0.00000000000E+00 -0.76106897366E+02  0.65400999482E+03  0.64956663515E+03 0.  0.
        5    1    3    3  502    0 -0.25431911294E+03  0.11499151514E+03  0.12909679278E+03  0.30755378662E+03  0.46999998093E+01 0.  1.
       -5    1    3    3    0  502  0.25431911294E+03 -0.11499151514E+03 -0.20520369014E+03  0.34645620821E+03  0.46999998093E+01 0. -1.
</event>
<event>
 5   0  0.1532571E-01  0.5949243E+03  0.7818609E-02  0.9915993E-01
       -2   -1    0    0    0  501  0.00000000000E+00  0.00000000000E+00  0.18660951450E+03  0.18660951451E+03  0.25500000920E-02 0.  1.
        2   -1    0    0  501    0  0.00000000000E+00  0.00000000000E+00 -0.47416512846E+03  0.47416512846E+03  0.25500000920E-02 0. -1.
    10030    2    1    2    0    0  0.00000000000E+00  0.00000000000E+00 -0.28755561396E+03  0.66077464298E+03  0.59492427895E+03 0.  0.
        1    1    3    3  502    0  0.94848762663E+02  0.53342028344E+02  0.16370814109E+03  0.19657572396E+03  0.50400001928E-02 0.  1.
       -1    1    3    3    0  502 -0.94848762663E+02 -0.53342028344E+02 -0.45126375505E+03  0.46419891901E+03  0.50400001928E-02 0. -1.
</event>
<event>
 5   0  0.8860626E-02  0.5925822E+03  0.7818609E-02  0.9920916E-01
       -1   -1    0    0    0  501  0.00000000000E+00  0.00000000000E+00  0.11573969180E+03  0.11573969191E+03  0.50400001928E-02 0. -1.
        1   -1    0    0  501    0  0.00000000000E+00  0.00000000000E+00 -0.75849886747E+03  0.75849886749E+03  0.50400001928E-02 0.  1.
    10030    2    1    2    0    0  0.00000000000E+00  0.00000000000E+00 -0.64275917567E+03  0.87423855940E+03  0.59258223129E+03 0.  0.
        3    1    3    3  502    0  0.20209180786E+03 -0.19257824054E+03 -0.17487863972E+03  0.32940860093E+03  0.10100000352E+00 0. -1.
       -3    1    3    3    0  502 -0.20209180786E+03  0.19257824054E+03 -0.46788053594E+03  0.54482995847E+03  0.10100000352E+00 0.  1.
</event>
<event>
 5   0  0.1488510E-01  0.5487409E+03  0.7818609E-02  0.1001786E+00
       -2   -1    0    0    0  501  0.00000000000E+00  0.00000000000E+00  0.86779715752E+02  0.86779715790E+02  0.25500000920E-02 0.  1.
        2   -1    0    0  501    0  0.00000000000E+00  0.00000000000E+00 -0.86747410312E+03  0.86747410313E+03  0.25500000920E-02 0. -1.
    10030    2    1    2    0    0  0.00000000000E+00  0.00000000000E+00 -0.78069438737E+03  0.95425381892E+03  0.54874094475E+03 0.  0.
        5    1    3    3  502    0  0.73527911169E+02 -0.96396735507E+02 -0.81828797061E+03  0.82723393135E+03  0.46999998093E+01 0. -1.
       -5    1    3    3    0  502 -0.73527911169E+02  0.96396735507E+02  0.37593583241E+02  0.12701988756E+03  0.46999998093E+01 0.  1.
</event>
<event>
 5   0  0.8860626E-02  0.6156800E+03  0.7818609E-02  0.9873399E-01
       -1   -1    0    0    0  501  0.00000000000E+00  0.00000000000E+00  0.27483961029E+03  0.27483961033E+03  0.50400001928E-02 0. -1.
        1   -1    0    0  501    0  0.00000000000E+00  0.00000000000E+00 -0.34480279279E+03  0.34480279282E+03  0.50400001928E-02 0.  1.
    10030    2    1    2    0    0  0.00000000000E+00  0.00000000000E+00 -0.69963182499E+02  0.61964240316E+03  0.61567999877E+03 0.  0.
        3    1    3    3  502    0 -0.29454699304E+03 -0.15951641325E+02 -0.12359978837E+03  0.31982699051E+03  0.10100000352E+00 0. -1.
       -3    1    3    3    0  502  0.29454699304E+03  0.15951641325E+02  0.53636605871E+02  0.29981541265E+03  0.10100000352E+00 0.  1.
</event>
<event>
 5   0  0.1502642E-01  0.5982697E+03  0.7818609E-02  0.9909002E-01
       -2   -1    0    0    0  501  0.00000000000E+00  0.00000000000E+00  0.95597287097E+02  0.95597287131E+02  0.25500000920E-02 0. -1.
        2   -1    0    0  501    0  0.00000000000E+00  0.00000000000E+00 -0.93602719072E+03  0.93602719073E+03  0.25500000920E-02 0.  1.
    10030    2    1    2    0    0  0.00000000000E+00  0.00000000000E+00 -0.84042990363E+03  0.10316244779E+04  0.59826970540E+03 0.  0.
        2    1    3    3  502    0  0.29609113600E+03 -0.26522736514E+02 -0.36281093718E+03  0.46904711119E+03  0.25500000920E-02 0.  1.
       -2    1    3    3    0  502 -0.29609113600E+03  0.26522736514E+02 -0.47761896644E+03  0.56257736666E+03  0.25500000920E-02 0. -1.
</event>
<event>
 5   0  0.9420349E-02  0.5861476E+03  0.7818609E-02  0.9934570E-01
        1   -1    0    0  501    0  0.00000000000E+00  0.00000000000E+00  0.73830485266E+03  0.73830485267E+03  0.50400001928E-02 0.  1.
       -1   -1    0    0    0  501  0.00000000000E+00  0.00000000000E+00 -0.11633708932E+03  0.11633708943E+03  0.50400001928E-02 0. -1.
    10030    2    1    2    0    0  0.00000000000E+00  0.00000000000E+00  0.62196776334E+03  0.85464194210E+03  0.58614755017E+03 0.  0.
        2    1    3    3  502    0 -0.85203383484E+02 -0.39546611922E+02 -0.93793490787E+02  0.13274324839E+03  0.25500000920E-02 0. -1.
       -2    1    3    3    0  502  0.85203383484E+02  0.39546611922E+02  0.71576125413E+03  0.72189869371E+03  0.25500000920E-02 0.  1.
</event>
<event>
 5   0  0.9497860E-02  0.6009435E+03  0.7818609E-02  0.9903450E-01
       -1   -1    0    0    0  501  0.00000000000E+00  0.00000000000E+00  0.70247901740E+03  0.70247901742E+03  0.50400001928E-02 0. -1.
        1   -1    0    0  501    0  0.00000000000E+00  0.00000000000E+00 -0.12852096137E+03  0.12852096147E+03  0.50400001928E-02 0.  1.
    10030    2    1    2    0    0  0.00000000000E+00  0.00000000000E+00  0.57395805603E+03  0.83099997889E+03  0.60094352050E+03 0.  0.
        5    1    3    3  502    0  0.20938576490E+03 -0.20605757456E+03  0.37398793923E+03  0.47559561737E+03  0.46999998093E+01 0. -1.
       -5    1    3    3    0  502 -0.20938576490E+03  0.20605757456E+03  0.19997011679E+03  0.35540436151E+03  0.46999998093E+01 0.  1.
</event>
<event>
 5   0  0.9177281E-02  0.5770158E+03  0.7818609E-02  0.9954273E-01
        1   -1    0    0  501    0  0.00000000000E+00  0.00000000000E+00  0.72877927349E+03  0.72877927351E+03  0.50400001928E-02 0.  1.
       -1   -1    0    0    0  501  0.00000000000E+00  0.00000000000E+00 -0.11421402550E+03  0.11421402561E+03  0.50400001928E-02 0. -1.
    10030    2    1    2    0    0  0.00000000000E+00  0.00000000000E+00  0.61456524799E+03  0.84299329912E+03  0.57701582156E+03 0.  0.
        1    1    3    3  502    0  0.29281488229E+02  0.21594192888E+03  0.31056171249E+02  0.22011998547E+03  0.50400001928E-02 0. -1.
       -1    1    3    3    0  502 -0.29281488229E+02 -0.21594192888E+03  0.58350907674E+03  0.62287331366E+03  0.50400001928E-02 0.  1.
</event>
<event>
 5   0  0.9420349E-02  0.5967729E+03  0.7818609E-02  0.9912124E-01
       -1   -1    0    0    0  501  0.00000000000E+00  0.00000000000E+00  0.43122388448E+03  0.43122388451E+03  0.50400001928E-02 0. -1.
        1   -1    0    0  501    0  0.00000000000E+00  0.00000000000E+00 -0.20646924024E+03  0.20646924030E+03  0.50400001928E-02 0.  1.
    10030    2    1    2    0    0  0.00000000000E+00  0.00000000000E+00  0.22475464424E+03  0.63769312481E+03  0.59677288085E+03 0.  0.
        2    1    3    3  502    0 -0.16249723554E+03 -0.24806367938E+03  0.14771332798E+03  0.33130072118E+03  0.25500000920E-02 0.  1.
       -2    1    3    3    0  502  0.16249723554E+03  0.24806367938E+03  0.77041316262E+02  0.30639240363E+03  0.25500000920E-02 0. -1.
</event>
<event>
 5   0  0.1513339E-01  0.6126391E+03  0.7818609E-02  0.9879525E-01
        2   -1    0    0  501    0  0.00000000000E+00  0.00000000000E+00  0.24981710751E+04  0.24981710751E+04  0.25500000920E-02 0.  1.
       -2   -1    0    0    0  501  0.00000000000E+00  0.00000000000E+00 -0.37560145161E+02  0.37560145247E+02  0.25500000920E-02 0. -1.
    10030    2    1    2    0    0  0.00000000000E+00  0.00000000000E+00  0.24606109299E+04  0.25357312204E+04  0.61263910528E+03 0.  0.
        3    1    3    3  502    0 -0.60618617650E+01  0.63200425669E+02  0.24706380867E+04  0.24714537434E+04  0.10100000352E+00 0.  1.
       -3    1    3    3    0  502  0.60618617650E+01 -0.63200425669E+02 -0.10027156761E+02  0.64277476977E+02  0.10100000352E+00 0. -1.
</event>
<event>
 5   0  0.1532571E-01  0.5891357E+03  0.7818609E-02  0.9928206E-01
        2   -1    0    0  501    0  0.00000000000E+00  0.00000000000E+00  0.15002014229E+04  0.15002014229E+04  0.25500000920E-02 0. -1.
       -2   -1    0    0    0  501  0.00000000000E+00  0.00000000000E+00 -0.57839045375E+02  0.57839045431E+02  0.25500000920E-02 0.  1.
    10030    2    1    2    0    0  0.00000000000E+00  0.00000000000E+00  0.14423623776E+04  0.15580404684E+04  0.58913569988E+03 0.  0.
        1    1    3    3  502    0 -0.66259862532E+01 -0.28822180574E+03  0.56130724617E+03  0.63101627366E+03  0.50400001928E-02 0.  1.
       -1    1    3    3    0  502  0.66259862532E+01  0.28822180574E+03  0.88105513139E+03  0.92702419471E+03  0.50400001928E-02 0. -1.
</event>
<event>
 5   0  0.6170500E-02  0.6060907E+03  0.7818609E-02  0.9892850E-01
       -4   -1    0    0    0  501  0.00000000000E+00  0.00000000000E+00  0.88628733294E+03  0.88628824286E+03  0.12699999809E+01 0. -1.
        4   -1    0    0  501    0  0.00000000000E+00  0.00000000000E+00 -0.10361444744E+03  0.10362223033E+03  0.12699999809E+01 0.  1.
    10030    2    1    2    0    0  0.00000000000E+00  0.00000000000E+00  0.78267288550E+03  0.98991047319E+03  0.60609066914E+03 0.  0.
        1    1    3    3  502    0 -0.83525416821E+02 -0.24776779923E+02  0.86539631998E+03  0.86977075987E+03  0.50400001928E-02 0. -1.
       -1    1    3    3    0  502  0.83525416821E+02  0.24776779923E+02 -0.82723434472E+02  0.12013971331E+03  0.50400001928E-02 0.  1.
</event>
<event>
 5   0  0.9420349E-02  0.5938931E+03  0.7818609E-02  0.9918157E-01
        1   -1    0    0  501    0  0.00000000000E+00  0.00000000000E+00  0.42136098488E+03  0.42136098491E+03  0.50400001928E-02 0. -1.
       -1   -1    0    0    0  501  0.00000000000E+00  0.00000000000E+00 -0.20926774414E+03  0.20926774420E+03  0.50400001928E-02 0.  1.
    10030    2    1    2    0    0  0.00000000000E+00  0.00000000000E+00  0.21209324074E+03  0.63062872911E+03  0.59389313113E+03 0.  0.
        2    1    3    3  502    0 -0.12382400021E+03 -0.21336371284E+03  0.28156079722E+03  0.37434334443E+03  0.25500000920E-02 0. -1.
       -2    1    3    3    0  502  0.12382400021E+03  0.21336371284E+03 -0.69467556481E+02  0.25628538467E+03  0.25500000920E-02 0.  1.
</event>
<event>
 5   0  0.8860626E-02  0.5988739E+03  0.7818609E-02  0.9907745E-01
       -1   -1    0    0    0  501  0.00000000000E+00  0.00000000000E+00  0.16030593539E+03  0.16030593547E+03  0.50400001928E-02 0.  1.
        1   -1    0    0  501    0  0.00000000000E+00  0.00000000000E+00 -0.55932108306E+03  0.55932108308E+03  0.50400001928E-02 0. -1.
    10030    2    1    2    0    0  0.00000000000E+00  0.00000000000E+00 -0.39901514767E+03  0.71962701855E+03  0.59887390806E+03 0.  0.
        3    1    3    3  502    0  0.20669078451E+03  0.19540910882E+03 -0.31195299726E+03  0.42216167864E+03  0.10100000352E+00 0. -1.
       -3    1    3    3    0  502 -0.20669078451E+03 -0.19540910882E+03 -0.87062150412E+02  0.29746533991E+03  0.10100000352E+00 0.  1.
</event>
<event>
 5   0  0.9411028E-02  0.5357488E+03  0.7818609E-02  0.1004847E+00
       -1   -1    0    0    0  501  0.00000000000E+00  0.00000000000E+00  0.19089287449E+03  0.19089287456E+03  0.50400001928E-02 0. -1.
        1   -1    0    0  501    0  0.00000000000E+00  0.00000000000E+00 -0.37590034177E+03  0.37590034181E+03  0.50400001928E-02 0.  1.
    10030    2    1    2    0    0  0.00000000000E+00  0.00000000000E+00 -0.18500746728E+03  0.56679321636E+03  0.53574880976E+03 0.  0.
        4    1    3    3  502    0 -0.14363701275E+03  0.84857592514E+02 -0.31422525595E+03  0.35576892334E+03  0.12699999809E+01 0.  1.
       -4    1    3    3    0  502  0.14363701275E+03 -0.84857592514E+02  0.12921778866E+03  0.21102429302E+03  0.12699999809E+01 0. -1.
</event>
<event>
 5   0  0.1502642E-01  0.5869624E+03  0.7818609E-02  0.9932830E-01
        2   -1    0    0  501    0  0.00000000000E+00  0.00000000000E+00  0.13484279229E+04  0.13484279229E+04  0.25500000920E-02 0. -1.
       -2   -1    0    0    0  501  0.00000000000E+00  0.00000000000E+00 -0.63875279681E+02  0.63875279732E+02  0.25500000920E-02 0.  1.
    10030    2    1    2    0    0  0.00000000000E+00  0.00000000000E+00  0.12845526432E+04  0.14123032026E+04  0.58696238633E+03 0.  0.
        2    1    3    3  502    0 -0.39625895139E+02 -0.78513029525E+02  0.13159763607E+04  0.13189117822E+04  0.25500000920E-02 0. -1.
       -2    1    3    3    0  502  0.39625895139E+02  0.78513029525E+02 -0.31423717514E+02  0.93391420375E+02  0.25500000920E-02 0.  1.
</event>
<event>
 5   0  0.1532571E-01  0.6097743E+03  0.7818609E-02  0.9885332E-01
        2   -1    0    0  501    0  0.00000000000E+00  0.00000000000E+00  0.31586897892E+03  0.31586897893E+03  0.25500000920E-02 0. -1.
       -2   -1    0    0    0  501  0.00000000000E+00  0.00000000000E+00 -0.29428715306E+03  0.29428715307E+03  0.25500000920E-02 0.  1.
    10030    2    1    2    0    0  0.00000000000E+00  0.00000000000E+00  0.21581825865E+02  0.61015613201E+03  0.60977432729E+03 0.  0.
        1    1    3    3  502    0  0.43467705668E+02  0.28508714440E+03  0.10980771681E+03  0.30858038829E+03  0.50400001928E-02 0. -1.
       -1    1    3    3    0  502 -0.43467705668E+02 -0.28508714440E+03 -0.88225890946E+02  0.30157574372E+03  0.50400001928E-02 0.  1.
</event>
<event>
 5   0  0.9497860E-02  0.6020896E+03  0.7818609E-02  0.9901080E-01
        1   -1    0    0  501    0  0.00000000000E+00  0.00000000000E+00  0.45195683573E+03  0.45195683575E+03  0.50400001928E-02 0. -1.
       -1   -1    0    0    0  501  0.00000000000E+00  0.00000000000E+00 -0.20052350043E+03  0.20052350050E+03  0.50400001928E-02 0.  1.
    10030    2    1    2    0    0  0.00000000000E+00  0.00000000000E+00  0.25143333529E+03  0.65248033625E+03  0.60208958395E+03 0.  0.
        5    1    3    3  502    0  0.14792608336E+03 -0.74564135273E+02  0.39807515989E+03  0.43119352886E+03  0.46999998093E+01 0. -1.
       -5    1    3    3    0  502 -0.14792608336E+03  0.74564135273E+02 -0.14664182459E+03  0.22128680740E+03  0.46999998093E+01 0.  1.
</event>
<event>
 5   0  0.9177281E-02  0.6153411E+03  0.7818609E-02  0.9874079E-01
       -1   -1    0    0    0  501  0.00000000000E+00  0.00000000000E+00  0.12787226124E+03  0.12787226134E+03  0.50400001928E-02 0.  1.
        1   -1    0    0  501    0  0.00000000000E+00  0.00000000000E+00 -0.74027924107E+03  0.74027924109E+03  0.50400001928E-02 0. -1.
    10030    2    1    2    0    0  0.00000000000E+00  0.00000000000E+00 -0.61240697983E+03  0.86815150242E+03  0.61534114295E+03 0.  0.
        1    1    3    3  502    0 -0.23458636578E+03  0.15141120119E+03 -0.12385437448E+03  0.30544397352E+03  0.50400001928E-02 0.  1.
       -1    1    3    3    0  502  0.23458636578E+03 -0.15141120119E+03 -0.48855260536E+03  0.56270752890E+03  0.50400001928E-02 0. -1.
</event>
<event>
 5   0  0.1502642E-01  0.5913779E+03  0.7818609E-02  0.9923457E-01
       -2   -1    0    0    0  501  0.00000000000E+00  0.00000000000E+00  0.25883166328E+03  0.25883166329E+03  0.25500000920E-02 0. -1.
        2   -1    0    0  501    0  0.00000000000E+00  0.00000000000E+00 -0.33779469062E+03  0.33779469063E+03  0.25500000920E-02 0.  1.
    10030    2    1    2    0    0  0.00000000000E+00  0.00000000000E+00 -0.78963027341E+02  0.59662635392E+03  0.59137792190E+03 0.  0.
        2    1    3    3  502    0  0.22814316683E+03  0.31333209678E+02 -0.22660234856E+03  0.32307847187E+03  0.25500000920E-02 0.  1.
       -2    1    3    3    0  502 -0.22814316683E+03 -0.31333209678E+02  0.14763932122E+03  0.27354788206E+03  0.25500000920E-02 0. -1.
</event>
<event>
 5   0  0.9177281E-02  0.6186510E+03  0.7818609E-02  0.9867449E-01
       -1   -1    0    0    0  501  0.00000000000E+00  0.00000000000E+00  0.76757080296E+02  0.76757080462E+02  0.50400001928E-02 0.  1.
        1   -1    0    0  501    0  0.00000000000E+00  0.00000000000E+00 -0.12465592876E+04  0.12465592876E+04  0.50400001928E-02 0. -1.
    10030    2    1    2    0    0  0.00000000000E+00  0.00000000000E+00 -0.11698022073E+04  0.13233163680E+04  0.61865095634E+03 0.  0.
        1    1    3    3  502    0 -0.30866938011E+03  0.19166614350E+02 -0.59810539924E+03  0.67333068692E+03  0.50400001928E-02 0. -1.
       -1    1    3    3    0  502  0.30866938011E+03 -0.19166614350E+02 -0.57169680802E+03  0.64998568111E+03  0.50400001928E-02 0.  1.
</event>
<event>
 5   0  0.1532571E-01  0.6020864E+03  0.7818609E-02  0.9901087E-01
       -2   -1    0    0    0  501  0.00000000000E+00  0.00000000000E+00  0.53116150799E+02  0.53116150860E+02  0.25500000920E-02 0.  1.
        2   -1    0    0  501    0  0.00000000000E+00  0.00000000000E+00 -0.17062045720E+04  0.17062045720E+04  0.25500000920E-02 0. -1.
    10030    2    1    2    0    0  0.00000000000E+00  0.00000000000E+00 -0.16530884212E+04  0.17593207229E+04  0.60208643697E+03 0.  0.
        1    1    3    3  502    0 -0.11918841616E+03  0.90827694816E+02 -0.15894791525E+04  0.15965273330E+04  0.50400001928E-02 0. -1.
       -1    1    3    3    0  502  0.11918841616E+03 -0.90827694816E+02 -0.63609268659E+02  0.16279338984E+03  0.50400001928E-02 0.  1.
</event>
<event>
 5   0  0.8860626E-02  0.6093098E+03  0.7818609E-02  0.9886277E-01
        1   -1    0    0  501    0  0.00000000000E+00  0.00000000000E+00  0.27619596781E+03  0.27619596786E+03  0.50400001928E-02 0. -1.
       -1   -1    0    0    0  501  0.00000000000E+00  0.00000000000E+00 -0.33604616023E+03  0.33604616026E+03  0.50400001928E-02 0.  1.
    10030    2    1    2    0    0  0.00000000000E+00  0.00000000000E+00 -0.59850192415E+02  0.61224212812E+03  0.60930975531E+03 0.  0.
        3    1    3    3  502    0  0.23028665346E+03  0.12806292107E+03  0.12372428884E+03  0.29110095219E+03  0.10100000352E+00 0. -1.
       -3    1    3    3    0  502 -0.23028665346E+03 -0.12806292107E+03 -0.18357448126E+03  0.32114117594E+03  0.10100000352E+00 0.  1.
</event>
<event>
 5   0  0.1488510E-01  0.5992233E+03  0.7818609E-02  0.9907019E-01
       -2   -1    0    0    0  501  0.00000000000E+00  0.00000000000E+00  0.11740869340E+03  0.11740869343E+03  0.25500000920E-02 0. -1.
        2   -1    0    0  501    0  0.00000000000E+00  0.00000000000E+00 -0.76456991972E+03  0.76456991972E+03  0.25500000920E-02 0.  1.
    10030    2    1    2    0    0  0.00000000000E+00  0.00000000000E+00 -0.64716122632E+03  0.88197861316E+03  0.59922334836E+03 0.  0.
        5    1    3    3  502    0 -0.62693767240E+01  0.24513337195E+03 -0.70284773557E+02  0.25513077925E+03  0.46999998093E+01 0.  1.
       -5    1    3    3    0  502  0.62693767240E+01 -0.24513337195E+03 -0.57687645276E+03  0.62684783391E+03  0.46999998093E+01 0. -1.
</event>
<event>
 5   0  0.1532571E-01  0.6015945E+03  0.7818609E-02  0.9902103E-01
        2   -1    0    0  501    0  0.00000000000E+00  0.00000000000E+00  0.12066005203E+04  0.12066005203E+04  0.25500000920E-02 0.  1.
       -2   -1    0    0    0  501  0.00000000000E+00  0.00000000000E+00 -0.74986707526E+02  0.74986707569E+02  0.25500000920E-02 0. -1.
    10030    2    1    2    0    0  0.00000000000E+00  0.00000000000E+00  0.11316138127E+04  0.12815872278E+04  0.60159454899E+03 0.  0.
        1    1    3    3  502    0  0.11687046341E+03  0.27715859449E+03  0.56187382989E+03  0.63732079242E+03  0.50400001928E-02 0.  1.
       -1    1    3    3    0  502 -0.11687046341E+03 -0.27715859449E+03  0.56973998284E+03  0.64426643540E+03  0.50400001928E-02 0. -1.
</event>
<event>
 5   0  0.9420349E-02  0.5732192E+03  0.7818609E-02  0.9962580E-01
        1   -1    0    0  501    0  0.00000000000E+00  0.00000000000E+00  0.97477735596E+02  0.97477735726E+02  0.50400001928E-02 0.  1.
       -1   -1    0    0    0  501  0.00000000000E+00  0.00000000000E+00 -0.84270586639E+03  0.84270586640E+03  0.50400001928E-02 0. -1.
    10030    2    1    2    0    0  0.00000000000E+00  0.00000000000E+00 -0.74522813079E+03  0.94018360213E+03  0.57321918913E+03 0.  0.
        2    1    3    3  502    0  0.58873460615E+02  0.27864111627E+03 -0.42546008855E+03  0.51197972909E+03  0.25500000920E-02 0. -1.
       -2    1    3    3    0  502 -0.58873460615E+02 -0.27864111627E+03 -0.31976804224E+03  0.42820387304E+03  0.25500000920E-02 0.  1.
</event>
<event>
 5   0  0.1502642E-01  0.5848105E+03  0.7818609E-02  0.9937430E-01
       -2   -1    0    0    0  501  0.00000000000E+00  0.00000000000E+00  0.63389255678E+02  0.63389255729E+02  0.25500000920E-02 0.  1.
        2   -1    0    0  501    0  0.00000000000E+00  0.00000000000E+00 -0.13488219521E+04  0.13488219521E+04  0.25500000920E-02 0. -1.
    10030    2    1    2    0    0  0.00000000000E+00  0.00000000000E+00 -0.12854326964E+04  0.14122112078E+04  0.58481046373E+03 0.  0.
        2    1    3    3  502    0  0.51186788422E+02  0.23352090411E+03 -0.23613144983E+03  0.33602107310E+03  0.25500000920E-02 0.  1.
       -2    1    3    3    0  502 -0.51186788422E+02 -0.23352090411E+03 -0.10493012466E+04  0.10761901347E+04  0.25500000920E-02 0. -1.
</event>
<event>
 5   0  0.1532571E-01  0.5492306E+03  0.7818609E-02  0.1001672E+00
       -2   -1    0    0    0  501  0.00000000000E+00  0.00000000000E+00  0.42778026696E+02  0.42778026772E+02  0.25500000920E-02 0. -1.
        2   -1    0    0  501    0  0.00000000000E+00  0.00000000000E+00 -0.17629043064E+04  0.17629043064E+04  0.25500000920E-02 0.  1.
    10030    2    1    2    0    0  0.00000000000E+00  0.00000000000E+00 -0.17201262797E+04  0.18056823332E+04  0.54923061660E+03 0.  0.
        1    1    3    3  502    0 -0.20157956561E+03 -0.18428815722E+03 -0.95404193930E+03  0.99236710351E+03  0.50400001928E-02 0.  1.
       -1    1    3    3    0  502  0.20157956561E+03  0.18428815722E+03 -0.76608434039E+03  0.81331522965E+03  0.50400001928E-02 0. -1.
</event>
<event>
 5   0  0.9420349E-02  0.6079302E+03  0.7818609E-02  0.9889089E-01
        1   -1    0    0  501    0  0.00000000000E+00  0.00000000000E+00  0.18242970504E+03  0.18242970511E+03  0.50400001928E-02 0. -1.
       -1   -1    0    0    0  501  0.00000000000E+00  0.00000000000E+00 -0.50646781151E+03  0.50646781153E+03  0.50400001928E-02 0.  1.
    10030    2    1    2    0    0  0.00000000000E+00  0.00000000000E+00 -0.32403810647E+03  0.68889751664E+03  0.60793017197E+03 0.  0.
        2    1    3    3  502    0  0.16784161418E+03 -0.60181058897E+02  0.11694300476E+03  0.21323281565E+03  0.25500000920E-02 0. -1.
       -2    1    3    3    0  502 -0.16784161418E+03  0.60181058897E+02 -0.44098111123E+03  0.47566470099E+03  0.25500000920E-02 0.  1.
</event>
<event>
 5   0  0.9411028E-02  0.5975402E+03  0.7818609E-02  0.9910522E-01
        1   -1    0    0  501    0  0.00000000000E+00  0.00000000000E+00  0.43537095755E+03  0.43537095758E+03  0.50400001928E-02 0. -1.
       -1   -1    0    0    0  501  0.00000000000E+00  0.00000000000E+00 -0.20502878498E+03  0.20502878505E+03  0.50400001928E-02 0.  1.
    10030    2    1    2    0    0  0.00000000000E+00  0.00000000000E+00  0.23034217257E+03  0.64039974263E+03  0.59754021948E+03 0.  0.
        4    1    3    3  502    0  0.11053130896E+02  0.14710904764E+03  0.39361118650E+03  0.42035059491E+03  0.12699999809E+01 0. -1.
       -4    1    3    3    0  502 -0.11053130896E+02 -0.14710904764E+03 -0.16326901394E+03  0.22004914772E+03  0.12699999809E+01 0.  1.
</event>
<event>
 5   0  0.1488510E-01  0.5835654E+03  0.7818609E-02  0.9940102E-01
       -2   -1    0    0    0  501  0.00000000000E+00  0.00000000000E+00  0.73931060701E+02  0.73931060745E+02  0.25500000920E-02 0. -1.
        2   -1    0    0  501    0  0.00000000000E+00  0.00000000000E+00 -0.11515746692E+04  0.11515746692E+04  0.25500000920E-02 0.  1.
    10030    2    1    2    0    0  0.00000000000E+00  0.00000000000E+00 -0.10776436085E+04  0.12255057299E+04  0.58356537525E+03 0.  0.
        5    1    3    3  502    0 -0.25837779772E+03  0.80032359136E+02 -0.30924712236E+03  0.41087727796E+03  0.46999998093E+01 0.  1.
       -5    1    3    3    0  502  0.25837779772E+03 -0.80032359136E+02 -0.76839648612E+03  0.81462845196E+03  0.46999998093E+01 0. -1.
</event>
<event>
 5   0  0.8860626E-02  0.6114056E+03  0.7818609E-02  0.9882022E-01
       -1   -1    0    0    0  501  0.00000000000E+00  0.00000000000E+00  0.12996402554E+03  0.12996402564E+03  0.50400001928E-02 0.  1.
        1   -1    0    0  501    0  0.00000000000E+00  0.00000000000E+00 -0.71907739713E+03  0.71907739714E+03  0.50400001928E-02 0. -1.
    10030    2    1    2    0    0  0.00000000000E+00  0.00000000000E+00 -0.58911337159E+03  0.84904142278E+03  0.61140557163E+03 0.  0.
        3    1    3    3  502    0  0.29142809930E+03 -0.16926867555E+02 -0.42059211484E+03  0.51197128159E+03  0.10100000352E+00 0. -1.
       -3    1    3    3    0  502 -0.29142809930E+03  0.16926867555E+02 -0.16852125674E+03  0.33707014119E+03  0.10100000352E+00 0.  1.
</event>
<event>
 5   0  0.9177281E-02  0.6726959E+03  0.7818609E-02  0.9765100E-01
        1   -1    0    0  501    0  0.00000000000E+00  0.00000000000E+00  0.25557821356E+03  0.25557821361E+03  0.50400001928E-02 0.  1.
       -1   -1    0    0    0  501  0.00000000000E+00  0.00000000000E+00 -0.44264315459E+03  0.44264315462E+03  0.50400001928E-02 0. -1.
    10030    2    1    2    0    0  0.00000000000E+00  0.00000000000E+00 -0.18706494104E+03  0.69822136823E+03  0.67269590967E+03 0.  0.
        1    1    3    3  502    0 -0.19178083921E+03 -0.44619538798E+02  0.18950345676E+03  0.27328072322E+03  0.50400001928E-02 0.  1.
       -1    1    3    3    0  502  0.19178083921E+03  0.44619538798E+02 -0.37656839780E+03  0.42494064501E+03  0.50400001928E-02 0. -1.
</event>
<event>
 5   0  0.1513339E-01  0.6211897E+03  0.7818609E-02  0.9862394E-01
       -2   -1    0    0    0  501  0.00000000000E+00  0.00000000000E+00  0.12429491365E+03  0.12429491367E+03  0.25500000920E-02 0. -1.
        2   -1    0    0  501    0  0.00000000000E+00  0.00000000000E+00 -0.77613114437E+03  0.77613114437E+03  0.25500000920E-02 0.  1.
    10030    2    1    2    0    0  0.00000000000E+00  0.00000000000E+00 -0.65183623072E+03  0.90042605804E+03  0.62118967661E+03 0.  0.
        3    1    3    3  502    0 -0.59471813339E+02  0.11918094927E+02  0.11562680629E+03  0.13056992801E+03  0.10100000352E+00 0. -1.
       -3    1    3    3    0  502  0.59471813339E+02 -0.11918094927E+02 -0.76746303701E+03  0.76985613003E+03  0.10100000352E+00 0.  1.
</event>
<event>
 5   0  0.1488510E-01  0.6029248E+03  0.7818609E-02  0.9899357E-01
        2   -1    0    0  501    0  0.00000000000E+00  0.00000000000E+00  0.97632196205E+03  0.97632196206E+03  0.25500000920E-02 0. -1.
       -2   -1    0    0    0  501  0.00000000000E+00  0.00000000000E+00 -0.93083606910E+02  0.93083606945E+02  0.25500000920E-02 0.  1.
    10030    2    1    2    0    0  0.00000000000E+00  0.00000000000E+00  0.88323835514E+03  0.10694055690E+04  0.60292477061E+03 0.  0.
        5    1    3    3  502    0  0.17586943893E+03 -0.67433428892E+02  0.24215386045E+02  0.18996263264E+03  0.46999998093E+01 0.  1.
       -5    1    3    3    0  502 -0.17586943893E+03  0.67433428892E+02  0.85902296910E+03  0.87944293636E+03  0.46999998093E+01 0. -1.
</event>
<event>
 5   0  0.9497860E-02  0.6052018E+03  0.7818609E-02  0.9894672E-01
       -1   -1    0    0    0  501  0.00000000000E+00  0.00000000000E+00  0.37734526230E+03  0.37734526234E+03  0.50400001928E-02 0.  1.
        1   -1    0    0  501    0  0.00000000000E+00  0.00000000000E+00 -0.24266186936E+03  0.24266186941E+03  0.50400001928E-02 0. -1.
    10030    2    1    2    0    0  0.00000000000E+00  0.00000000000E+00  0.13468339295E+03  0.62000713175E+03  0.60520180691E+03 0.  0.
        5    1    3    3  502    0 -0.11172482231E+03 -0.96504511308E+02 -0.20322074987E+03  0.25122961569E+03  0.46999998093E+01 0. -1.
       -5    1    3    3    0  502  0.11172482231E+03  0.96504511308E+02  0.33790414281E+03  0.36877751606E+03  0.46999998093E+01 0.  1.
</event>
<event>
 5   0  0.9420349E-02  0.5911811E+03  0.7818609E-02  0.9923873E-01
       -1   -1    0    0    0  501  0.00000000000E+00  0.00000000000E+00  0.10958565724E+03  0.10958565735E+03  0.50400001928E-02 0.  1.
        1   -1    0    0  501    0  0.00000000000E+00  0.00000000000E+00 -0.79731018709E+03  0.79731018710E+03  0.50400001928E-02 0. -1.
    10030    2    1    2    0    0  0.00000000000E+00  0.00000000000E+00 -0.68772452985E+03  0.90689584445E+03  0.59118105833E+03 0.  0.
        2    1    3    3  502    0 -0.15017267049E+02  0.10371145573E+03 -0.76785785864E+03  0.77497566120E+03  0.25500000920E-02 0. -1.
       -2    1    3    3    0  502  0.15017267049E+02 -0.10371145573E+03  0.80133328794E+02  0.13192018326E+03  0.25500000920E-02 0.  1.
</event>
<event>
 5   0  0.1483942E-01  0.5877019E+03  0.7818609E-02  0.9931254E-01
       -2   -1    0    0    0  501  0.00000000000E+00  0.00000000000E+00  0.78441452828E+02  0.78441452869E+02  0.25500000920E-02 0.  1.
        2   -1    0    0  501    0  0.00000000000E+00  0.00000000000E+00 -0.11008003441E+04  0.11008003441E+04  0.25500000920E-02 0. -1.
    10030    2    1    2    0    0  0.00000000000E+00  0.00000000000E+00 -0.10223588913E+04  0.11792417970E+04  0.58770189142E+03 0.  0.
        4    1    3    3  502    0  0.70530699510E+02 -0.22529055849E+03 -0.86227269816E+03  0.89400572381E+03  0.12699999809E+01 0. -1.
       -4    1    3    3    0  502 -0.70530699510E+02  0.22529055849E+03 -0.16008619315E+03  0.28523607320E+03  0.12699999809E+01 0.  1.
</event>
<event>
 5   0  0.1488510E-01  0.5989108E+03  0.7818609E-02  0.9907668E-01
        2   -1    0    0  501    0  0.00000000000E+00  0.00000000000E+00  0.69306033777E+03  0.69306033778E+03  0.25500000920E-02 0. -1.
       -2   -1    0    0    0  501  0.00000000000E+00  0.00000000000E+00 -0.12938776209E+03  0.12938776211E+03  0.25500000920E-02 0.  1.
    10030    2    1    2    0    0  0.00000000000E+00  0.00000000000E+00  0.56367257568E+03  0.82244809989E+03  0.59891076500E+03 0.  0.
        5    1    3    3  502    0 -0.88098579433E+02  0.28292193892E+03  0.22284684028E+03  0.37079507473E+03  0.46999998093E+01 0.  1.
       -5    1    3    3    0  502  0.88098579433E+02 -0.28292193892E+03  0.34082573540E+03  0.45165302516E+03  0.46999998093E+01 0. -1.
</event>
<event>
 5   0  0.9411028E-02  0.5928633E+03  0.7818609E-02  0.9920324E-01
        1   -1    0    0  501    0  0.00000000000E+00  0.00000000000E+00  0.42038345321E+03  0.42038345324E+03  0.50400001928E-02 0. -1.
       -1   -1    0    0    0  501  0.00000000000E+00  0.00000000000E+00 -0.20902755886E+03  0.20902755892E+03  0.50400001928E-02 0.  1.
    10030    2    1    2    0    0  0.00000000000E+00  0.00000000000E+00  0.21135589434E+03  0.62941101216E+03  0.59286331321E+03 0.  0.
        4    1    3    3  502    0 -0.74343578493E+02  0.15929626489E+03  0.35907097528E+03  0.39979475466E+03  0.12699999809E+01 0. -1.
       -4    1    3    3    0  502  0.74343578493E+02 -0.15929626489E+03 -0.14771508093E+03  0.22961625750E+03  0.12699999809E+01 0.  1.
</event>
<event>
 5   0  0.1502642E-01  0.6131334E+03  0.7818609E-02  0.9878527E-01
        2   -1    0    0  501    0  0.00000000000E+00  0.00000000000E+00  0.94331841458E+03  0.94331841459E+03  0.25500000920E-02 0. -1.
       -2   -1    0    0    0  501  0.00000000000E+00  0.00000000000E+00 -0.99630359199E+02  0.99630359231E+02  0.25500000920E-02 0.  1.
    10030    2    1    2    0    0  0.00000000000E+00  0.00000000000E+00  0.84368805538E+03  0.10429487738E+04  0.61313343573E+03 0.  0.
        2    1    3    3  502    0 -0.11028380710E+03 -0.28271410328E+03  0.34782800474E+03  0.46159950519E+03  0.25500000920E-02 0.  1.
       -2    1    3    3    0  502  0.11028380710E+03  0.28271410328E+03  0.49586005065E+03  0.58134926863E+03  0.25500000920E-02 0. -1.
</event>
<event>
 5   0  0.6170500E-02  0.6325007E+03  0.7818609E-02  0.9840181E-01
       -3   -1    0    0    0  501  0.00000000000E+00  0.00000000000E+00  0.47857806827E+03  0.47857807893E+03  0.10100000352E+00 0.  1.
        3   -1    0    0  501    0  0.00000000000E+00  0.00000000000E+00 -0.20898213971E+03  0.20898216412E+03  0.10100000352E+00 0. -1.
    10030    2    1    2    0    0  0.00000000000E+00  0.00000000000E+00  0.26959592856E+03  0.68756024305E+03  0.63250069021E+03 0.  0.
        4    1    3    3  502    0 -0.84370870707E+02 -0.21071184800E+03 -0.10458711385E+03  0.24991599387E+03  0.12699999809E+01 0. -1.
       -4    1    3    3    0  502  0.84370870707E+02  0.21071184800E+03  0.37418304241E+03  0.43764424917E+03  0.12699999809E+01 0.  1.
</event>
<event>
 5   0  0.9420349E-02  0.6220393E+03  0.7818609E-02  0.9860708E-01
        1   -1    0    0  501    0  0.00000000000E+00  0.00000000000E+00  0.29779088103E+03  0.29779088107E+03  0.50400001928E-02 0.  1.
       -1   -1    0    0    0  501  0.00000000000E+00  0.00000000000E+00 -0.32483612703E+03  0.32483612707E+03  0.50400001928E-02 0. -1.
    10030    2    1    2    0    0  0.00000000000E+00  0.00000000000E+00 -0.27045246001E+02  0.62262700814E+03  0.62203934437E+03 0.  0.
        2    1    3    3  502    0  0.11275143455E+03  0.49693502825E+02 -0.29936360575E+03  0.32372966912E+03  0.25500000920E-02 0. -1.
       -2    1    3    3    0  502 -0.11275143455E+03 -0.49693502825E+02  0.27231835975E+03  0.29889733903E+03  0.25500000920E-02 0.  1.
</event>
<event>
 5   0  0.1532571E-01  0.5856171E+03  0.7818609E-02  0.9935704E-01
        2   -1    0    0  501    0  0.00000000000E+00  0.00000000000E+00  0.17374632676E+04  0.17374632676E+04  0.25500000920E-02 0. -1.
       -2   -1    0    0    0  501  0.00000000000E+00  0.00000000000E+00 -0.49345990910E+02  0.49345990976E+02  0.25500000920E-02 0.  1.
    10030    2    1    2    0    0  0.00000000000E+00  0.00000000000E+00  0.16881172767E+04  0.17868092586E+04  0.58561709903E+03 0.  0.
        1    1    3    3  502    0 -0.17618167187E+03  0.11105417190E+03  0.21605510887E+03  0.30008802157E+03  0.50400001928E-02 0.  1.
       -1    1    3    3    0  502  0.17618167187E+03 -0.11105417190E+03  0.14720621678E+04  0.14867212370E+04  0.50400001928E-02 0. -1.
</event>
<event>
 5   0  0.9177281E-02  0.6129456E+03  0.7818609E-02  0.9878906E-01
       -1   -1    0    0    0  501  0.00000000000E+00  0.00000000000E+00  0.30101379015E+03  0.30101379019E+03  0.50400001928E-02 0. -1.
        1   -1    0    0  501    0  0.00000000000E+00  0.00000000000E+00 -0.31203085438E+03  0.31203085442E+03  0.50400001928E-02 0.  1.
    10030    2    1    2    0    0  0.00000000000E+00  0.00000000000E+00 -0.11017064231E+02  0.61304464462E+03  0.61294564244E+03 0.  0.
        1    1    3    3  502    0 -0.26139798019E+03 -0.13930965429E+03  0.73177590552E+02  0.30510824900E+03  0.50400001928E-02 0. -1.
       -1    1    3    3    0  502  0.26139798019E+03  0.13930965429E+03 -0.84194654783E+02  0.30793639562E+03  0.50400001928E-02 0.  1.
</event>
<event>
 5   0  0.8860626E-02  0.5954913E+03  0.7818609E-02  0.9914805E-01
       -1   -1    0    0    0  501  0.00000000000E+00  0.00000000000E+00  0.47572536780E+02  0.47572537047E+02  0.50400001928E-02 0. -1.
        1   -1    0    0  501    0  0.00000000000E+00  0.00000000000E+00 -0.18635217689E+04  0.18635217689E+04  0.50400001928E-02 0.  1.
    10030    2    1    2    0    0  0.00000000000E+00  0.00000000000E+00 -0.18159492321E+04  0.19110943059E+04  0.59549125317E+03 0.  0.
        3    1    3    3  502    0  0.17043492781E+03 -0.94127307616E+02 -0.18503681276E+03  0.26860127873E+03  0.10100000352E+00 0. -1.
       -3    1    3    3    0  502 -0.17043492781E+03  0.94127307616E+02 -0.16309124193E+04  0.16424930272E+04  0.10100000352E+00 0.  1.
</event>
<event>
 5   0  0.1483942E-01  0.6215676E+03  0.7818609E-02  0.9861644E-01
       -2   -1    0    0    0  501  0.00000000000E+00  0.00000000000E+00  0.70912744491E+02  0.70912744537E+02  0.25500000920E-02 0.  1.
        2   -1    0    0  501    0  0.00000000000E+00  0.00000000000E+00 -0.13620479631E+04  0.13620479631E+04  0.25500000920E-02 0. -1.
    10030    2    1    2    0    0  0.00000000000E+00  0.00000000000E+00 -0.12911352186E+04  0.14329607076E+04  0.62156756423E+03 0.  0.
        4    1    3    3  502    0  0.16416534875E+03  0.21918730930E+03 -0.98432472978E+03  0.10217094131E+04  0.12699999809E+01 0. -1.
       -4    1    3    3    0  502 -0.16416534875E+03 -0.21918730930E+03 -0.30681048881E+03  0.41125129451E+03  0.12699999809E+01 0.  1.
</event>
<event>
 5   0  0.1532571E-01  0.6017983E+03  0.7818609E-02  0.9901682E-01
       -2   -1    0    0    0  501  0.00000000000E+00  0.00000000000E+00  0.69079008193E+02  0.69079008241E+02  0.25500000920E-02 0. -1.
        2   -1    0    0  501    0  0.00000000000E+00  0.00000000000E+00 -0.13106773501E+04  0.13106773501E+04  0.25500000920E-02 0.  1.
    10030    2    1    2    0    0  0.00000000000E+00  0.00000000000E+00 -0.12415983419E+04  0.13797563583E+04  0.60179827663E+03 0.  0.
        1    1    3    3  502    0 -0.11027934891E+03 -0.12239822403E+03 -0.43518128848E+02  0.17040154813E+03  0.50400001928E-02 0. -1.
       -1    1    3    3    0  502  0.11027934891E+03  0.12239822403E+03 -0.11980802130E+04  0.12093548102E+04  0.50400001928E-02 0.  1.
</event>
<event>
 5   0  0.1488510E-01  0.5444916E+03  0.7818609E-02  0.1002777E+00
       -2   -1    0    0    0  501  0.00000000000E+00  0.00000000000E+00  0.13970717144E+03  0.13970717146E+03  0.25500000920E-02 0. -1.
        2   -1    0    0  501    0  0.00000000000E+00  0.00000000000E+00 -0.53052239626E+03  0.53052239627E+03  0.25500000920E-02 0.  1.
    10030    2    1    2    0    0  0.00000000000E+00  0.00000000000E+00 -0.39081522483E+03  0.67022956773E+03  0.54449162849E+03 0.  0.
        5    1    3    3  502    0  0.22105163187E+03 -0.11074104277E+03 -0.55231585073E+02  0.25337722963E+03  0.46999998093E+01 0. -1.
       -5    1    3    3    0  502 -0.22105163187E+03  0.11074104277E+03 -0.33558363975E+03  0.41685233810E+03  0.46999998093E+01 0.  1.
</event>
<event>
 5   0  0.9411028E-02  0.5980211E+03  0.7818609E-02  0.9909520E-01
        1   -1    0    0  501    0  0.00000000000E+00  0.00000000000E+00  0.13090117164E+03  0.13090117174E+03  0.50400001928E-02 0. -1.
       -1   -1    0    0    0  501  0.00000000000E+00  0.00000000000E+00 -0.68301372056E+03  0.68301372057E+03  0.50400001928E-02 0.  1.
    10030    2    1    2    0    0  0.00000000000E+00  0.00000000000E+00 -0.55211254892E+03  0.81391489231E+03  0.59802105753E+03 0.  0.
        4    1    3    3  502    0  0.63764366866E+02 -0.46440491210E+02 -0.66859272383E+03  0.67323135471E+03  0.12699999809E+01 0.  1.
       -4    1    3    3    0  502 -0.63764366866E+02  0.46440491210E+02  0.11648017491E+03  0.14068353760E+03  0.12699999809E+01 0. -1.
</event>
<event>
 5   0  0.9497860E-02  0.6025246E+03  0.7818609E-02  0.9900182E-01
       -1   -1    0    0    0  501  0.00000000000E+00  0.00000000000E+00  0.19661696695E+03  0.19661696701E+03  0.50400001928E-02 0. -1.
        1   -1    0    0  501    0  0.00000000000E+00  0.00000000000E+00 -0.46160298038E+03  0.46160298041E+03  0.50400001928E-02 0.  1.
    10030    2    1    2    0    0  0.00000000000E+00  0.00000000000E+00 -0.26498601343E+03  0.65821994742E+03  0.60252461516E+03 0.  0.
        5    1    3    3  502    0  0.25274522506E+03  0.32265206825E+02  0.43031661718E+02  0.25844729883E+03  0.46999998093E+01 0. -1.
       -5    1    3    3    0  502 -0.25274522506E+03 -0.32265206825E+02 -0.30801767515E+03  0.39977264859E+03  0.46999998093E+01 0.  1.
</event>
<event>
 5   0  0.1502642E-01  0.5782093E+03  0.7818609E-02  0.9951675E-01
       -2   -1    0    0    0  501  0.00000000000E+00  0.00000000000E+00  0.10602285310E+03  0.10602285313E+03  0.25500000920E-02 0. -1.
        2   -1    0    0  501    0  0.00000000000E+00  0.00000000000E+00 -0.78833466974E+03  0.78833466975E+03  0.25500000920E-02 0.  1.
    10030    2    1    2    0    0  0.00000000000E+00  0.00000000000E+00 -0.68231181664E+03  0.89435752288E+03  0.57820927319E+03 0.  0.
        2    1    3    3  502    0  0.17987660714E+03  0.22630117543E+03 -0.33543597046E+03  0.44281497952E+03  0.25500000920E-02 0. -1.
       -2    1    3    3    0  502 -0.17987660714E+03 -0.22630117543E+03 -0.34687584618E+03  0.45154254336E+03  0.25500000920E-02 0.  1.
</event>
<event>
 5   0  0.9411028E-02  0.5615159E+03  0.7818609E-02  0.9988630E-01
       -1   -1    0    0    0  501  0.00000000000E+00  0.00000000000E+00  0.33382499737E+03  0.33382499741E+03  0.50400001928E-02 0.  1.
        1   -1    0    0  501    0  0.00000000000E+00  0.00000000000E+00 -0.23612683096E+03  0.23612683101E+03  0.50400001928E-02 0. -1.
    10030    2    1    2    0    0  0.00000000000E+00  0.00000000000E+00  0.97698166409E+02  0.56995182842E+03  0.56151594367E+03 0.  0.
        4    1    3    3  502    0  0.18959708829E+03  0.16184707031E+03 -0.82249730273E+02  0.26250364014E+03  0.12699999809E+01 0. -1.
       -4    1    3    3    0  502 -0.18959708829E+03 -0.16184707031E+03  0.17994789668E+03  0.30744818828E+03  0.12699999809E+01 0.  1.
</event>
<event>
 5   0  0.1488510E-01  0.4421995E+03  0.7818609E-02  0.1030074E+00
        2   -1    0    0  501    0  0.00000000000E+00  0.00000000000E+00  0.57437088503E+03  0.57437088503E+03  0.25500000920E-02 0.  1.
       -2   -1    0    0    0  501  0.00000000000E+00  0.00000000000E+00 -0.85110685509E+02  0.85110685547E+02  0.25500000920E-02 0. -1.
    10030    2    1    2    0    0  0.00000000000E+00  0.00000000000E+00  0.48926019952E+03  0.65948157058E+03  0.44219950147E+03 0.  0.
        5    1    3    3  502    0 -0.62049480520E+02 -0.17053277641E+03  0.43287013021E+03  0.46939344423E+03  0.46999998093E+01 0.  1.
       -5    1    3    3    0  502  0.62049480520E+02  0.17053277641E+03  0.56390069308E+02  0.19008812635E+03  0.46999998093E+01 0. -1.
</event>
<event>
 5   0  0.9497860E-02  0.5952481E+03  0.7818609E-02  0.9915314E-01
       -1   -1    0    0    0  501  0.00000000000E+00  0.00000000000E+00  0.18764016398E+03  0.18764016404E+03  0.50400001928E-02 0.  1.
        1   -1    0    0  501    0  0.00000000000E+00  0.00000000000E+00 -0.47207409571E+03  0.47207409574E+03  0.50400001928E-02 0. -1.
    10030    2    1    2    0    0  0.00000000000E+00  0.00000000000E+00 -0.28443393174E+03  0.65971425978E+03  0.59524805169E+03 0.  0.
        5    1    3    3  502    0  0.97919546281E+02 -0.70463626231E+02  0.15928300727E+03  0.19986627172E+03  0.46999998093E+01 0.  1.
       -5    1    3    3    0  502 -0.97919546281E+02  0.70463626231E+02 -0.44371693901E+03  0.45984798806E+03  0.46999998093E+01 0. -1.
</event>
<event>
 5   0  0.9411028E-02  0.5939196E+03  0.7818609E-02  0.9918102E-01
       -1   -1    0    0    0  501  0.00000000000E+00  0.00000000000E+00  0.33625500767E+02  0.33625501144E+02  0.50400001928E-02 0.  1.
        1   -1    0    0  501    0  0.00000000000E+00  0.00000000000E+00 -0.26225667870E+04  0.26225667870E+04  0.50400001928E-02 0. -1.
    10030    2    1    2    0    0  0.00000000000E+00  0.00000000000E+00 -0.25889412862E+04  0.26561922881E+04  0.59391959730E+03 0.  0.
        4    1    3    3  502    0 -0.10998290743E+03 -0.77623581502E+02 -0.24782551517E+04  0.24819089165E+04  0.12699999809E+01 0. -1.
       -4    1    3    3    0  502  0.10998290743E+03  0.77623581502E+02 -0.11068613454E+03  0.17428337159E+03  0.12699999809E+01 0.  1.
</event>
<event>
 5   0  0.1502642E-01  0.6176712E+03  0.7818609E-02  0.9869407E-01
       -2   -1    0    0    0  501  0.00000000000E+00  0.00000000000E+00  0.38453930458E+02  0.38453930543E+02  0.25500000920E-02 0. -1.
        2   -1    0    0  501    0  0.00000000000E+00  0.00000000000E+00 -0.24803556295E+04  0.24803556295E+04  0.25500000920E-02 0.  1.
    10030    2    1    2    0    0  0.00000000000E+00  0.00000000000E+00 -0.24419016991E+04  0.25188095601E+04  0.61767118436E+03 0.  0.
        2    1    3    3  502    0 -0.29371907367E+02 -0.22326019330E+02  0.29435153056E+02  0.47197333860E+02  0.25500000920E-02 0. -1.
       -2    1    3    3    0  502  0.29371907367E+02  0.22326019330E+02 -0.24713368521E+04  0.24716122262E+04  0.25500000920E-02 0.  1.
</event>
<event>
 5   0  0.9497860E-02  0.5964942E+03  0.7818609E-02  0.9912706E-01
       -1   -1    0    0    0  501  0.00000000000E+00  0.00000000000E+00  0.84818318398E+02  0.84818318547E+02  0.50400001928E-02 0.  1.
        1   -1    0    0  501    0  0.00000000000E+00  0.00000000000E+00 -0.10487278421E+04  0.10487278421E+04  0.50400001928E-02 0. -1.
    10030    2    1    2    0    0  0.00000000000E+00  0.00000000000E+00 -0.96390952366E+03  0.11335461606E+04  0.59649419817E+03 0.  0.
        5    1    3    3  502    0 -0.12607955889E+03 -0.28086272795E+02  0.28826462894E+02  0.13243092105E+03  0.46999998093E+01 0.  1.
       -5    1    3    3    0  502  0.12607955889E+03  0.28086272795E+02 -0.99273598656E+03  0.10011152396E+04  0.46999998093E+01 0. -1.
</event>
<event>
 5   0  0.1532571E-01  0.5676256E+03  0.7818609E-02  0.9974947E-01
        2   -1    0    0  501    0  0.00000000000E+00  0.00000000000E+00  0.12363346381E+04  0.12363346381E+04  0.25500000920E-02 0. -1.
       -2   -1    0    0    0  501  0.00000000000E+00  0.00000000000E+00 -0.65152028978E+02  0.65152029027E+02  0.25500000920E-02 0.  1.
    10030    2    1    2    0    0  0.00000000000E+00  0.00000000000E+00  0.11711826091E+04  0.13014866671E+04  0.56762561676E+03 0.  0.
        1    1    3    3  502    0  0.43441123315E+02 -0.11359079800E+03 -0.23820966954E+01  0.12163747365E+03  0.50400001928E-02 0.  1.
       -1    1    3    3    0  502 -0.43441123315E+02  0.11359079800E+03  0.11735647058E+04  0.11798491935E+04  0.50400001928E-02 0. -1.
</event>
<event>
 5   0  0.9411028E-02  0.5904327E+03  0.7818609E-02  0.9925456E-01
       -1   -1    0    0    0  501  0.00000000000E+00  0.00000000000E+00  0.12468756698E+03  0.12468756708E+03  0.50400001928E-02 0.  1.
        1   -1    0    0  501    0  0.00000000000E+00  0.00000000000E+00 -0.69896853311E+03  0.69896853313E+03  0.50400001928E-02 0. -1.
    10030    2    1    2    0    0  0.00000000000E+00  0.00000000000E+00 -0.57428096614E+03  0.82365610021E+03  0.59043267469E+03 0.  0.
        4    1    3    3  502    0  0.26042474789E+03  0.12784154521E+03 -0.21090426005E+03  0.35867356998E+03  0.12699999809E+01 0.  1.
       -4    1    3    3    0  502 -0.26042474789E+03 -0.12784154521E+03 -0.36337670609E+03  0.46498253023E+03  0.12699999809E+01 0. -1.
</event>
<event>
 5   0  0.9420349E-02  0.5896953E+03  0.7818609E-02  0.9927019E-01
       -1   -1    0    0    0  501  0.00000000000E+00  0.00000000000E+00  0.68623520399E+02  0.68623520584E+02  0.50400001928E-02 0. -1.
        1   -1    0    0  501    0  0.00000000000E+00  0.00000000000E+00 -0.12668415256E+04  0.12668415256E+04  0.50400001928E-02 0.  1.
    10030    2    1    2    0    0  0.00000000000E+00  0.00000000000E+00 -0.11982180052E+04  0.13354650462E+04  0.58969526166E+03 0.  0.
        2    1    3    3  502    0  0.24635999777E+03 -0.15945485846E+03 -0.53441610225E+03  0.60968817501E+03  0.25500000920E-02 0. -1.
       -2    1    3    3    0  502 -0.24635999777E+03  0.15945485846E+03 -0.66380190296E+03  0.72577687120E+03  0.25500000920E-02 0.  1.
</event>
<event>
 5   0  0.1483942E-01  0.5817861E+03  0.7818609E-02  0.9943932E-01
       -2   -1    0    0    0  501  0.00000000000E+00  0.00000000000E+00  0.22672739195E+03  0.22672739196E+03  0.25500000920E-02 0. -1.
        2   -1    0    0  501    0  0.00000000000E+00  0.00000000000E+00 -0.37321815826E+03  0.37321815827E+03  0.25500000920E-02 0.  1.
    10030    2    1    2    0    0  0.00000000000E+00  0.00000000000E+00 -0.14649076631E+03  0.59994555023E+03  0.58178614510E+03 0.  0.
        4    1    3    3  502    0 -0.40531290184E+02 -0.16123249538E+03  0.17290687805E+03  0.23986893176E+03  0.12699999809E+01 0. -1.
       -4    1    3    3    0  502  0.40531290184E+02  0.16123249538E+03 -0.31939764436E+03  0.36007661847E+03  0.12699999809E+01 0.  1.
</event>
<event>
 5   0  0.1502642E-01  0.6143090E+03  0.7818609E-02  0.9876156E-01
        2   -1    0    0  501    0  0.00000000000E+00  0.00000000000E+00  0.88890560221E+03  0.88890560222E+03  0.25500000920E-02 0.  1.
       -2   -1    0    0    0  501  0.00000000000E+00  0.00000000000E+00 -0.10613489273E+03  0.10613489276E+03  0.25500000920E-02 0. -1.
    10030    2    1    2    0    0  0.00000000000E+00  0.00000000000E+00  0.78277070948E+03  0.99504049497E+03  0.61430904520E+03 0.  0.
        2    1    3    3  502    0  0.19906681060E+03 -0.23365920909E+03  0.40910536796E+03  0.51146008953E+03  0.25500000920E-02 0. -1.
       -2    1    3    3    0  502 -0.19906681060E+03  0.23365920909E+03  0.37366534152E+03  0.48358040545E+03  0.25500000920E-02 0.  1.
</event>
<event>
 5   0  0.1483942E-01  0.6032507E+03  0.7818609E-02  0.9898685E-01
       -2   -1    0    0    0  501  0.00000000000E+00  0.00000000000E+00  0.15908066895E+03  0.15908066897E+03  0.25500000920E-02 0. -1.
        2   -1    0    0  501    0  0.00000000000E+00  0.00000000000E+00 -0.57189763104E+03  0.57189763105E+03  0.25500000920E-02 0.  1.
    10030    2    1    2    0    0  0.00000000000E+00  0.00000000000E+00 -0.41281696209E+03  0.73097830002E+03  0.60325071978E+03 0.  0.
        4    1    3    3  502    0 -0.12055668325E+03  0.12394631350E+03  0.93062591789E+02  0.19636410414E+03  0.12699999809E+01 0. -1.
       -4    1    3    3    0  502  0.12055668325E+03 -0.12394631350E+03 -0.50587955388E+03  0.53461419588E+03  0.12699999809E+01 0.  1.
</event>
<event>
 5   0  0.6170500E-02  0.6272038E+03  0.7818609E-02  0.9850521E-01
        4   -1    0    0  501    0  0.00000000000E+00  0.00000000000E+00  0.11334215966E+03  0.11334927462E+03  0.12699999809E+01 0. -1.
       -4   -1    0    0    0  501  0.00000000000E+00  0.00000000000E+00 -0.86765791161E+03  0.86765884107E+03  0.12699999809E+01 0.  1.
    10030    2    1    2    0    0  0.00000000000E+00  0.00000000000E+00 -0.75431575195E+03  0.98100811569E+03  0.62720384996E+03 0.  0.
        1    1    3    3  502    0 -0.15561358161E+03 -0.20047954826E+03 -0.66530242394E+03  0.71206386748E+03  0.50400001928E-02 0.  1.
       -1    1    3    3    0  502  0.15561358161E+03  0.20047954826E+03 -0.89013328011E+02  0.26894424820E+03  0.50400001928E-02 0. -1.
</event>
<event>
 5   0  0.1532571E-01  0.5950059E+03  0.7818609E-02  0.9915822E-01
       -2   -1    0    0    0  501  0.00000000000E+00  0.00000000000E+00  0.54021620406E+02  0.54021620466E+02  0.25500000920E-02 0.  1.
        2   -1    0    0  501    0  0.00000000000E+00  0.00000000000E+00 -0.16383812106E+04  0.16383812106E+04  0.25500000920E-02 0. -1.
    10030    2    1    2    0    0  0.00000000000E+00  0.00000000000E+00 -0.15843595902E+04  0.16924028311E+04  0.59500590885E+03 0.  0.
        1    1    3    3  502    0 -0.12881750033E+03 -0.26812149600E+03 -0.80637956706E+03  0.85949467201E+03  0.50400001928E-02 0. -1.
       -1    1    3    3    0  502  0.12881750033E+03  0.26812149600E+03 -0.77798002312E+03  0.83290815905E+03  0.50400001928E-02 0.  1.
</event>
<event>
 5   0  0.9411028E-02  0.6152572E+03  0.7818609E-02  0.9874248E-01
       -1   -1    0    0    0  501  0.00000000000E+00  0.00000000000E+00  0.99523731026E+03  0.99523731027E+03  0.50400001928E-02 0. -1.
        1   -1    0    0  501    0  0.00000000000E+00  0.00000000000E+00 -0.95088233009E+02  0.95088233142E+02  0.50400001928E-02 0.  1.
    10030    2    1    2    0    0  0.00000000000E+00  0.00000000000E+00  0.90014907725E+03  0.10903255434E+04  0.61525720585E+03 0.  0.
        4    1    3    3  502    0  0.24078317843E+03  0.14527382961E+03  0.22906925715E+03  0.36270561349E+03  0.12699999809E+01 0.  1.
       -4    1    3    3    0  502 -0.24078317843E+03 -0.14527382961E+03  0.67107982010E+03  0.72761992993E+03  0.12699999809E+01 0. -1.
</event>
<event>
 5   0  0.9420349E-02  0.6199500E+03  0.7818609E-02  0.9864859E-01
        1   -1    0    0  501    0  0.00000000000E+00  0.00000000000E+00  0.45456100557E+03  0.45456100560E+03  0.50400001928E-02 0.  1.
       -1   -1    0    0    0  501  0.00000000000E+00  0.00000000000E+00 -0.21137864553E+03  0.21137864559E+03  0.50400001928E-02 0. -1.
    10030    2    1    2    0    0  0.00000000000E+00  0.00000000000E+00  0.24318236004E+03  0.66593965118E+03  0.61994996474E+03 0.  0.
        2    1    3    3  502    0  0.62343451137E+02 -0.81256871363E+01  0.44764020917E+03  0.45203372614E+03  0.25500000920E-02 0.  1.
       -2    1    3    3    0  502 -0.62343451137E+02  0.81256871363E+01 -0.20445784913E+03  0.21390592505E+03  0.25500000920E-02 0. -1.
</event>
<event>
 5   0  0.9411028E-02  0.5907149E+03  0.7818609E-02  0.9924859E-01
        1   -1    0    0  501    0  0.00000000000E+00  0.00000000000E+00  0.38813858142E+03  0.38813858146E+03  0.50400001928E-02 0.  1.
       -1   -1    0    0    0  501  0.00000000000E+00  0.00000000000E+00 -0.22475480686E+03  0.22475480691E+03  0.50400001928E-02 0. -1.
    10030    2    1    2    0    0  0.00000000000E+00  0.00000000000E+00  0.16338377457E+03  0.61289338837E+03  0.59071486160E+03 0.  0.
        4    1    3    3  502    0  0.10193607095E+03 -0.20502255702E+03 -0.11188521424E+03  0.25484333524E+03  0.12699999809E+01 0. -1.
       -4    1    3    3    0  502 -0.10193607095E+03  0.20502255702E+03  0.27526898881E+03  0.35805005313E+03  0.12699999809E+01 0.  1.
</event>
<event>
 5   0  0.1483942E-01  0.6030771E+03  0.7818609E-02  0.9899043E-01
       -2   -1    0    0    0  501  0.00000000000E+00  0.00000000000E+00  0.74385358534E+02  0.74385358578E+02  0.25500000920E-02 0. -1.
        2   -1    0    0  501    0  0.00000000000E+00  0.00000000000E+00 -0.12223574002E+04  0.12223574002E+04  0.25500000920E-02 0.  1.
    10030    2    1    2    0    0  0.00000000000E+00  0.00000000000E+00 -0.11479720417E+04  0.12967427588E+04  0.60307708795E+03 0.  0.
        4    1    3    3  502    0 -0.25931235563E+03 -0.72088558640E+02 -0.86632154721E+03  0.90716828325E+03  0.12699999809E+01 0.  1.
       -4    1    3    3    0  502  0.25931235563E+03  0.72088558640E+02 -0.28165049448E+03  0.38957447556E+03  0.12699999809E+01 0. -1.
</event>
<event>
 5   0  0.9177281E-02  0.6055527E+03  0.7818609E-02  0.9893952E-01
        1   -1    0    0  501    0  0.00000000000E+00  0.00000000000E+00  0.70073570616E+03  0.70073570618E+03  0.50400001928E-02 0.  1.
       -1   -1    0    0    0  501  0.00000000000E+00  0.00000000000E+00 -0.13082468104E+03  0.13082468114E+03  0.50400001928E-02 0. -1.
    10030    2    1    2    0    0  0.00000000000E+00  0.00000000000E+00  0.56991102512E+03  0.83156038732E+03  0.60555272372E+03 0.  0.
        1    1    3    3  502    0 -0.26267367682E+02 -0.27822150529E+02  0.69740229250E+03  0.69845114666E+03  0.50400001928E-02 0.  1.
       -1    1    3    3    0  502  0.26267367682E+02  0.27822150529E+02 -0.12749126738E+03  0.13310924066E+03  0.50400001928E-02 0. -1.
</event>
<event>
 5   0  0.9497860E-02  0.5995014E+03  0.7818609E-02  0.9906441E-01
       -1   -1    0    0    0  501  0.00000000000E+00  0.00000000000E+00  0.24922155892E+03  0.24922155897E+03  0.50400001928E-02 0. -1.
        1   -1    0    0  501    0  0.00000000000E+00  0.00000000000E+00 -0.36052446432E+03  0.36052446436E+03  0.50400001928E-02 0.  1.
    10030    2    1    2    0    0  0.00000000000E+00  0.00000000000E+00 -0.11130290541E+03  0.60974602333E+03  0.59950135631E+03 0.  0.
        5    1    3    3  502    0 -0.11144594629E+03  0.10838084606E+03  0.20497296803E+03  0.25729868705E+03  0.46999998093E+01 0. -1.
       -5    1    3    3    0  502  0.11144594629E+03 -0.10838084606E+03 -0.31627587343E+03  0.35244733628E+03  0.46999998093E+01 0.  1.
</event>
<event>
 5   0  0.8860626E-02  0.6005928E+03  0.7818609E-02  0.9904177E-01
       -1   -1    0    0    0  501  0.00000000000E+00  0.00000000000E+00  0.23406471011E+03  0.23406471016E+03  0.50400001928E-02 0.  1.
        1   -1    0    0  501    0  0.00000000000E+00  0.00000000000E+00 -0.38526917233E+03  0.38526917236E+03  0.50400001928E-02 0. -1.
    10030    2    1    2    0    0  0.00000000000E+00  0.00000000000E+00 -0.15120446222E+03  0.61933388252E+03  0.60059276440E+03 0.  0.
        3    1    3    3  502    0 -0.10656076110E+03  0.94891270244E+02 -0.34807904955E+03  0.37618955848E+03  0.10100000352E+00 0. -1.
       -3    1    3    3    0  502  0.10656076110E+03 -0.94891270244E+02  0.19687458733E+03  0.24314432404E+03  0.10100000352E+00 0.  1.
</event>
<event>
 5   0  0.1502642E-01  0.6658239E+03  0.7818609E-02  0.9777532E-01
       -2   -1    0    0    0  501  0.00000000000E+00  0.00000000000E+00  0.28946164788E+03  0.28946164789E+03  0.25500000920E-02 0.  1.
        2   -1    0    0  501    0  0.00000000000E+00  0.00000000000E+00 -0.38288449087E+03  0.38288449087E+03  0.25500000920E-02 0. -1.
    10030    2    1    2    0    0  0.00000000000E+00  0.00000000000E+00 -0.93422842988E+02  0.67234613876E+03  0.66582392771E+03 0.  0.
        2    1    3    3  502    0  0.16938215561E+03  0.24024624677E+03 -0.20451700637E+03  0.35810023685E+03  0.25500000920E-02 0. -1.
       -2    1    3    3    0  502 -0.16938215561E+03 -0.24024624677E+03  0.11109416338E+03  0.31424590192E+03  0.25500000920E-02 0.  1.
</event>
<event>
 5   0  0.1502642E-01  0.6034551E+03  0.7818609E-02  0.9898264E-01
       -2   -1    0    0    0  501  0.00000000000E+00  0.00000000000E+00  0.42159138632E+02  0.42159138709E+02  0.25500000920E-02 0. -1.
        2   -1    0    0  501    0  0.00000000000E+00  0.00000000000E+00 -0.21594253783E+04  0.21594253783E+04  0.25500000920E-02 0.  1.
    10030    2    1    2    0    0  0.00000000000E+00  0.00000000000E+00 -0.21172662397E+04  0.22015845170E+04  0.60345509850E+03 0.  0.
        2    1    3    3  502    0 -0.24032591030E+03  0.15064599071E+03 -0.14340492060E+04  0.14618303195E+04  0.25500000920E-02 0.  1.
       -2    1    3    3    0  502  0.24032591030E+03 -0.15064599071E+03 -0.68321703368E+03  0.73975419756E+03  0.25500000920E-02 0. -1.
</event>
<event>
 5   0  0.6170500E-02  0.6019450E+03  0.7818609E-02  0.9901379E-01
       -3   -1    0    0    0  501  0.00000000000E+00  0.00000000000E+00  0.45992772088E+02  0.45992882986E+02  0.10100000352E+00 0.  1.
        3   -1    0    0  501    0  0.00000000000E+00  0.00000000000E+00 -0.19695342490E+04  0.19695342516E+04  0.10100000352E+00 0. -1.
    10030    2    1    2    0    0  0.00000000000E+00  0.00000000000E+00 -0.19235414769E+04  0.20155271346E+04  0.60194502806E+03 0.  0.
        4    1    3    3  502    0 -0.25096489354E+03 -0.15963108081E+03 -0.80769602093E+03  0.86072059048E+03  0.12699999809E+01 0. -1.
       -4    1    3    3    0  502  0.25096489354E+03  0.15963108081E+03 -0.11158454560E+04  0.11548065441E+04  0.12699999809E+01 0.  1.
</event>
<event>
 5   0  0.1483942E-01  0.5985096E+03  0.7818609E-02  0.9908503E-01
        2   -1    0    0  501    0  0.00000000000E+00  0.00000000000E+00  0.16139661922E+03  0.16139661924E+03  0.25500000920E-02 0.  1.
       -2   -1    0    0    0  501  0.00000000000E+00  0.00000000000E+00 -0.55486569793E+03  0.55486569794E+03  0.25500000920E-02 0. -1.
    10030    2    1    2    0    0  0.00000000000E+00  0.00000000000E+00 -0.39346907871E+03  0.71626231718E+03  0.59850964162E+03 0.  0.
        4    1    3    3  502    0 -0.26127636009E+03  0.79249476000E+02 -0.50134630722E+02  0.27759846881E+03  0.12699999809E+01 0.  1.
       -4    1    3    3    0  502  0.26127636009E+03 -0.79249476000E+02 -0.34333444799E+03  0.43866384837E+03  0.12699999809E+01 0. -1.
</event>
<event>
 5   0  0.6170500E-02  0.6620669E+03  0.7818609E-02  0.9784396E-01
        3   -1    0    0  501    0  0.00000000000E+00  0.00000000000E+00  0.27885175085E+03  0.27885176914E+03  0.10100000352E+00 0.  1.
       -3   -1    0    0    0  501  0.00000000000E+00  0.00000000000E+00 -0.39297992060E+03  0.39297993358E+03  0.10100000352E+00 0. -1.
    10030    2    1    2    0    0  0.00000000000E+00  0.00000000000E+00 -0.11412816976E+03  0.67183170272E+03  0.66206691327E+03 0.  0.
        4    1    3    3  502    0 -0.13075197299E+03 -0.14584913433E+03 -0.32785852186E+03  0.38191736237E+03  0.12699999809E+01 0. -1.
       -4    1    3    3    0  502  0.13075197299E+03  0.14584913433E+03  0.21373035210E+03  0.28991434034E+03  0.12699999809E+01 0.  1.
</event>
<event>
 5   0  0.9497860E-02  0.6081452E+03  0.7818609E-02  0.9888650E-01
       -1   -1    0    0    0  501  0.00000000000E+00  0.00000000000E+00  0.19276369511E+03  0.19276369518E+03  0.50400001928E-02 0.  1.
        1   -1    0    0  501    0  0.00000000000E+00  0.00000000000E+00 -0.47965532713E+03  0.47965532716E+03  0.50400001928E-02 0. -1.
    10030    2    1    2    0    0  0.00000000000E+00  0.00000000000E+00 -0.28689163203E+03  0.67241902234E+03  0.60814515790E+03 0.  0.
        5    1    3    3  502    0 -0.11630662500E+03  0.27644232716E+03 -0.19862456197E+03  0.35975185598E+03  0.46999998093E+01 0. -1.
       -5    1    3    3    0  502  0.11630662500E+03 -0.27644232716E+03 -0.88267070054E+02  0.31266716636E+03  0.46999998093E+01 0.  1.
</event>
<event>
 5   0  0.9177281E-02  0.5995956E+03  0.7818609E-02  0.9906245E-01
        1   -1    0    0  501    0  0.00000000000E+00  0.00000000000E+00  0.12627069892E+04  0.12627069892E+04  0.50400001928E-02 0.  1.
       -1   -1    0    0    0  501  0.00000000000E+00  0.00000000000E+00 -0.71179402207E+02  0.71179402385E+02  0.50400001928E-02 0. -1.
    10030    2    1    2    0    0  0.00000000000E+00  0.00000000000E+00  0.11915275870E+04  0.13338863916E+04  0.59959562632E+03 0.  0.
        1    1    3    3  502    0 -0.53390001964E+01 -0.24918778677E+03  0.22513748059E+03  0.33587191485E+03  0.50400001928E-02 0. -1.
       -1    1    3    3    0  502  0.53390001964E+01  0.24918778677E+03  0.96639010638E+03  0.99801447671E+03  0.50400001928E-02 0.  1.
</event>
<event>
 5   0  0.9420349E-02  0.6018056E+03  0.7818609E-02  0.9901667E-01
       -1   -1    0    0    0  501  0.00000000000E+00  0.00000000000E+00  0.15483253334E+03  0.15483253342E+03  0.50400001928E-02 0.  1.
        1   -1    0    0  501    0  0.00000000000E+00  0.00000000000E+00 -0.58477685215E+03  0.58477685217E+03  0.50400001928E-02 0. -1.
    10030    2    1    2    0    0  0.00000000000E+00  0.00000000000E+00 -0.42994431881E+03  0.73960938559E+03  0.60180555495E+03 0.  0.
        2    1    3    3  502    0  0.44468307935E+02  0.16734734517E+03 -0.51741190054E+03  0.54561675118E+03  0.25500000920E-02 0. -1.
       -2    1    3    3    0  502 -0.44468307935E+02 -0.16734734517E+03  0.87467581727E+02  0.19399263441E+03  0.25500000920E-02 0.  1.
</event>
<event>
 5   0  0.1488510E-01  0.5969012E+03  0.7818609E-02  0.9911856E-01
       -2   -1    0    0    0  501  0.00000000000E+00  0.00000000000E+00  0.10870958046E+03  0.10870958049E+03  0.25500000920E-02 0.  1.
        2   -1    0    0  501    0  0.00000000000E+00  0.00000000000E+00 -0.81936443361E+03  0.81936443361E+03  0.25500000920E-02 0. -1.
    10030    2    1    2    0    0  0.00000000000E+00  0.00000000000E+00 -0.71065485315E+03  0.92807401410E+03  0.59690121071E+03 0.  0.
        5    1    3    3  502    0  0.20045320099E+03  0.19805403537E+03 -0.20263975916E+03  0.34711935801E+03  0.46999998093E+01 0. -1.
       -5    1    3    3    0  502 -0.20045320099E+03 -0.19805403537E+03 -0.50801509399E+03  0.58095465609E+03  0.46999998093E+01 0.  1.
</event>
<event>
 5   0  0.8860626E-02  0.6227611E+03  0.7818609E-02  0.9859278E-01
        1   -1    0    0  501    0  0.00000000000E+00  0.00000000000E+00  0.34497267183E+03  0.34497267186E+03  0.50400001928E-02 0.  1.
       -1   -1    0    0    0  501  0.00000000000E+00  0.00000000000E+00 -0.28105951159E+03  0.28105951163E+03  0.50400001928E-02 0. -1.
    10030    2    1    2    0    0  0.00000000000E+00  0.00000000000E+00  0.63913160240E+02  0.62603218349E+03  0.62276111208E+03 0.  0.
        3    1    3    3  502    0  0.20568321673E+03 -0.22969021223E+03  0.75712917275E+02  0.31748328347E+03  0.10100000352E+00 0. -1.
       -3    1    3    3    0  502 -0.20568321673E+03  0.22969021223E+03 -0.11799757035E+02  0.30854890002E+03  0.10100000352E+00 0.  1.
</event>
<event>
 5   0  0.9420349E-02  0.6117819E+03  0.7818609E-02  0.9881259E-01
        1   -1    0    0  501    0  0.00000000000E+00  0.00000000000E+00  0.16159969661E+04  0.16159969661E+04  0.50400001928E-02 0.  1.
       -1   -1    0    0    0  501  0.00000000000E+00  0.00000000000E+00 -0.57901880688E+02  0.57901880907E+02  0.50400001928E-02 0. -1.
    10030    2    1    2    0    0  0.00000000000E+00  0.00000000000E+00  0.15580950854E+04  0.16738988470E+04  0.61178186868E+03 0.  0.
        2    1    3    3  502    0  0.17720920891E+03  0.14842943796E+02  0.14600343623E+04  0.14708241757E+04  0.25500000920E-02 0.  1.
       -2    1    3    3    0  502 -0.17720920891E+03 -0.14842943796E+02  0.98060723077E+02  0.20307467129E+03  0.25500000920E-02 0. -1.
</event>
<event>
 5   0  0.1513339E-01  0.6023559E+03  0.7818609E-02  0.9900530E-01
       -2   -1    0    0    0  501  0.00000000000E+00  0.00000000000E+00  0.10217948941E+03  0.10217948944E+03  0.25500000920E-02 0.  1.
        2   -1    0    0  501    0  0.00000000000E+00  0.00000000000E+00 -0.88773366209E+03  0.88773366209E+03  0.25500000920E-02 0. -1.
    10030    2    1    2    0    0  0.00000000000E+00  0.00000000000E+00 -0.78555417269E+03  0.98991315153E+03  0.60235594905E+03 0.  0.
        3    1    3    3  502    0  0.98187508465E+02 -0.17460598624E+03 -0.76237868316E+03  0.78825713063E+03  0.10100000352E+00 0. -1.
       -3    1    3    3    0  502 -0.98187508465E+02  0.17460598624E+03 -0.23175489522E+02  0.20165602090E+03  0.10100000352E+00 0.  1.
</event>
<event>
 5   0  0.8860626E-02  0.5970978E+03  0.7818609E-02  0.9911446E-01
        1   -1    0    0  501    0  0.00000000000E+00  0.00000000000E+00  0.20230136733E+03  0.20230136740E+03  0.50400001928E-02 0.  1.
       -1   -1    0    0    0  501  0.00000000000E+00  0.00000000000E+00 -0.44058739397E+03  0.44058739400E+03  0.50400001928E-02 0. -1.
    10030    2    1    2    0    0  0.00000000000E+00  0.00000000000E+00 -0.23828602664E+03  0.64288876139E+03  0.59709775501E+03 0.  0.
        3    1    3    3  502    0  0.25935134395E+02  0.29635212352E+03 -0.14625784116E+03  0.33149446242E+03  0.10100000352E+00 0. -1.
       -3    1    3    3    0  502 -0.25935134395E+02 -0.29635212352E+03 -0.92028185477E+02  0.31139429898E+03  0.10100000352E+00 0.  1.
</event>
<event>
 5   0  0.8860626E-02  0.6034068E+03  0.7818609E-02  0.9898363E-01
        1   -1    0    0  501    0  0.00000000000E+00  0.00000000000E+00  0.15676075963E+04  0.15676075963E+04  0.50400001928E-02 0. -1.
       -1   -1    0    0    0  501  0.00000000000E+00  0.00000000000E+00 -0.58066146177E+02  0.58066146395E+02  0.50400001928E-02 0.  1.
    10030    2    1    2    0    0  0.00000000000E+00  0.00000000000E+00  0.15095414501E+04  0.16256737427E+04  0.60340676833E+03 0.  0.
        3    1    3    3  502    0  0.23299599854E+02 -0.72413330840E+02 -0.31805393399E+02  0.82450925326E+02  0.10100000352E+00 0.  1.
       -3    1    3    3    0  502 -0.23299599854E+02  0.72413330840E+02  0.15413468435E+04  0.15432228174E+04  0.10100000352E+00 0. -1.
</event>
<event>
 5   0  0.9177281E-02  0.5886122E+03  0.7818609E-02  0.9929318E-01
        1   -1    0    0  501    0  0.00000000000E+00  0.00000000000E+00  0.39753237353E+03  0.39753237357E+03  0.50400001928E-02 0. -1.
       -1   -1    0    0    0  501  0.00000000000E+00  0.00000000000E+00 -0.21788435124E+03  0.21788435130E+03  0.50400001928E-02 0.  1.
    10030    2    1    2    0    0  0.00000000000E+00  0.00000000000E+00  0.17964802229E+03  0.61541672486E+03  0.58861220963E+03 0.  0.
        1    1    3    3  502    0  0.22828149877E+03 -0.15301588743E+03  0.19992759880E+03  0.33984900952E+03  0.50400001928E-02 0. -1.
       -1    1    3    3    0  502 -0.22828149877E+03  0.15301588743E+03 -0.20279576505E+02  0.27556771534E+03  0.50400001928E-02 0.  1.
</event>
<event>
 5   0  0.1488510E-01  0.5934926E+03  0.7818609E-02  0.9919000E-01
       -2   -1    0    0    0  501  0.00000000000E+00  0.00000000000E+00  0.54161529102E+03  0.54161529103E+03  0.25500000920E-02 0.  1.
        2   -1    0    0  501    0  0.00000000000E+00  0.00000000000E+00 -0.16258470217E+03  0.16258470219E+03  0.25500000920E-02 0. -1.
    10030    2    1    2    0    0  0.00000000000E+00  0.00000000000E+00  0.37903058885E+03  0.70419999322E+03  0.59349258055E+03 0.  0.
        5    1    3    3  502    0  0.25523921268E+03 -0.93369096724E+01  0.36868622431E+03  0.44853746283E+03  0.46999998093E+01 0.  1.
       -5    1    3    3    0  502 -0.25523921268E+03  0.93369096724E+01  0.10344364538E+02  0.25566253039E+03  0.46999998093E+01 0. -1.
</event>
<event>
 5   0  0.9420349E-02  0.6017159E+03  0.7818609E-02  0.9901852E-01
       -1   -1    0    0    0  501  0.00000000000E+00  0.00000000000E+00  0.14242863070E+03  0.14242863079E+03  0.50400001928E-02 0.  1.
        1   -1    0    0  501    0  0.00000000000E+00  0.00000000000E+00 -0.63551491989E+03  0.63551491991E+03  0.50400001928E-02 0. -1.
    10030    2    1    2    0    0  0.00000000000E+00  0.00000000000E+00 -0.49308628920E+03  0.77794355070E+03  0.60171594585E+03 0.  0.
        2    1    3    3  502    0 -0.18820762588E+03 -0.22389897295E+02 -0.54862279642E+03  0.58043982522E+03  0.25500000920E-02 0. -1.
       -2    1    3    3    0  502  0.18820762588E+03  0.22389897295E+02  0.55536507226E+02  0.19750372548E+03  0.25500000920E-02 0.  1.
</event>
<event>
 5   0  0.9420349E-02  0.5896294E+03  0.7818609E-02  0.9927158E-01
        1   -1    0    0  501    0  0.00000000000E+00  0.00000000000E+00  0.11176547499E+04  0.11176547499E+04  0.50400001928E-02 0.  1.
       -1   -1    0    0    0  501  0.00000000000E+00  0.00000000000E+00 -0.77766157940E+02  0.77766158103E+02  0.50400001928E-02 0. -1.
    10030    2    1    2    0    0  0.00000000000E+00  0.00000000000E+00  0.10398885920E+04  0.11954209080E+04  0.58962942908E+03 0.  0.
        2    1    3    3  502    0 -0.10154418731E+03  0.22993249229E+03  0.83229413100E+03  0.86942147057E+03  0.25500000920E-02 0.  1.
       -2    1    3    3    0  502  0.10154418731E+03 -0.22993249229E+03  0.20759446098E+03  0.32599943746E+03  0.25500000920E-02 0. -1.
</event>
<event>
 5   0  0.1513339E-01  0.5682295E+03  0.7818609E-02  0.9973604E-01
       -2   -1    0    0    0  501  0.00000000000E+00  0.00000000000E+00  0.35805280104E+02  0.35805280195E+02  0.25500000920E-02 0. -1.
        2   -1    0    0  501    0  0.00000000000E+00  0.00000000000E+00 -0.22544492983E+04  0.22544492983E+04  0.25500000920E-02 0.  1.
    10030    2    1    2    0    0  0.00000000000E+00  0.00000000000E+00 -0.22186440182E+04  0.22902545785E+04  0.56822949136E+03 0.  0.
        3    1    3    3  502    0  0.23229780636E+03  0.16233909447E+03 -0.11904270532E+04  0.12236963805E+04  0.10100000352E+00 0. -1.
       -3    1    3    3    0  502 -0.23229780636E+03 -0.16233909447E+03 -0.10282169650E+04  0.10665581980E+04  0.10100000352E+00 0.  1.
</event>
<event>
 5   0  0.1483942E-01  0.5976392E+03  0.7818609E-02  0.9910316E-01
        2   -1    0    0  501    0  0.00000000000E+00  0.00000000000E+00  0.39026389010E+03  0.39026389011E+03  0.25500000920E-02 0.  1.
       -2   -1    0    0    0  501  0.00000000000E+00  0.00000000000E+00 -0.22880201420E+03  0.22880201422E+03  0.25500000920E-02 0. -1.
    10030    2    1    2    0    0  0.00000000000E+00  0.00000000000E+00  0.16146187590E+03  0.61906590433E+03  0.59763923610E+03 0.  0.
        4    1    3    3  502    0 -0.12087743828E+03 -0.27225621885E+03  0.56289491711E+02  0.30315824839E+03  0.12699999809E+01 0. -1.
       -4    1    3    3    0  502  0.12087743828E+03  0.27225621885E+03  0.10517238419E+03  0.31590765594E+03  0.12699999809E+01 0.  1.
</event>
<event>
 5   0  0.1483942E-01  0.5872645E+03  0.7818609E-02  0.9932186E-01
        2   -1    0    0  501    0  0.00000000000E+00  0.00000000000E+00  0.99472503142E+03  0.99472503142E+03  0.25500000920E-02 0. -1.
       -2   -1    0    0    0  501  0.00000000000E+00  0.00000000000E+00 -0.86677107810E+02  0.86677107848E+02  0.25500000920E-02 0.  1.
    10030    2    1    2    0    0  0.00000000000E+00  0.00000000000E+00  0.90804792361E+03  0.10814021393E+04  0.58726446789E+03 0.  0.
        4    1    3    3  502    0  0.19010879132E+03 -0.77815118779E+02  0.84037942319E+03  0.86512180245E+03  0.12699999809E+01 0. -1.
       -4    1    3    3    0  502 -0.19010879132E+03  0.77815118779E+02  0.67668500413E+02  0.21628033682E+03  0.12699999809E+01 0.  1.
</event>
<event>
 5   0  0.9497860E-02  0.6240509E+03  0.7818609E-02  0.9856727E-01
        1   -1    0    0  501    0  0.00000000000E+00  0.00000000000E+00  0.15150842121E+04  0.15150842122E+04  0.50400001928E-02 0.  1.
       -1   -1    0    0    0  501  0.00000000000E+00  0.00000000000E+00 -0.64260366587E+02  0.64260366785E+02  0.50400001928E-02 0. -1.
    10030    2    1    2    0    0  0.00000000000E+00  0.00000000000E+00  0.14508238456E+04  0.15793445789E+04  0.62405085385E+03 0.  0.
        5    1    3    3  502    0 -0.14911021112E+03  0.50394735324E+01  0.31962517183E+02  0.15265301784E+03  0.46999998093E+01 0. -1.
       -5    1    3    3    0  502  0.14911021112E+03 -0.50394735324E+01  0.14188613284E+04  0.14266915611E+04  0.46999998093E+01 0.  1.
</event>
<event>
 5   0  0.8860626E-02  0.5785801E+03  0.7818609E-02  0.9950870E-01
       -1   -1    0    0    0  501  0.00000000000E+00  0.00000000000E+00  0.90728782772E+02  0.90728782912E+02  0.50400001928E-02 0. -1.
        1   -1    0    0  501    0  0.00000000000E+00  0.00000000000E+00 -0.92240554379E+03  0.92240554380E+03  0.50400001928E-02 0.  1.
    10030    2    1    2    0    0  0.00000000000E+00  0.00000000000E+00 -0.83167676102E+03  0.10131343267E+04  0.57858009744E+03 0.  0.
        3    1    3    3  502    0  0.96751203439E+02 -0.12545237626E+03  0.80133008512E+01  0.15862949684E+03  0.10100000352E+00 0. -1.
       -3    1    3    3    0  502 -0.96751203439E+02  0.12545237626E+03 -0.83969006187E+03  0.85450482987E+03  0.10100000352E+00 0.  1.
</event>
<event>
 5   0  0.1483942E-01  0.6038142E+03  0.7818609E-02  0.9897524E-01
       -2   -1    0    0    0  501  0.00000000000E+00  0.00000000000E+00  0.18095410395E+03  0.18095410396E+03  0.25500000920E-02 0. -1.
        2   -1    0    0  501    0  0.00000000000E+00  0.00000000000E+00 -0.50370733059E+03  0.50370733060E+03  0.25500000920E-02 0.  1.
    10030    2    1    2    0    0  0.00000000000E+00  0.00000000000E+00 -0.32275322665E+03  0.68466143457E+03  0.60381423854E+03 0.  0.
        4    1    3    3  502    0  0.12169581239E+03 -0.18663216660E+03  0.69628710737E+02  0.23343351649E+03  0.12699999809E+01 0. -1.
       -4    1    3    3    0  502 -0.12169581239E+03  0.18663216660E+03 -0.39238193739E+03  0.45122791807E+03  0.12699999809E+01 0.  1.
</event>
<event>
 5   0  0.6170500E-02  0.6246982E+03  0.7818609E-02  0.9855450E-01
       -3   -1    0    0    0  501  0.00000000000E+00  0.00000000000E+00  0.56553682444E+02  0.56553772633E+02  0.10100000352E+00 0. -1.
        3   -1    0    0  501    0  0.00000000000E+00  0.00000000000E+00 -0.17251198267E+04  0.17251198296E+04  0.10100000352E+00 0.  1.
    10030    2    1    2    0    0  0.00000000000E+00  0.00000000000E+00 -0.16685661442E+04  0.17816736023E+04  0.62469820500E+03 0.  0.
        4    1    3    3  502    0 -0.25868224669E+03  0.78969401445E+02 -0.12798583825E+04  0.13081252858E+04  0.12699999809E+01 0.  1.
       -4    1    3    3    0  502  0.25868224669E+03 -0.78969401445E+02 -0.38870776168E+03  0.47354831645E+03  0.12699999809E+01 0. -1.
</event>
<event>
 5   0  0.1488510E-01  0.5986898E+03  0.7818609E-02  0.9908128E-01
        2   -1    0    0  501    0  0.00000000000E+00  0.00000000000E+00  0.84769296945E+03  0.84769296945E+03  0.25500000920E-02 0.  1.
       -2   -1    0    0    0  501  0.00000000000E+00  0.00000000000E+00 -0.10570735599E+03  0.10570735602E+03  0.25500000920E-02 0. -1.
    10030    2    1    2    0    0  0.00000000000E+00  0.00000000000E+00  0.74198561345E+03  0.95340032547E+03  0.59868984461E+03 0.  0.
        5    1    3    3  502    0  0.27845591308E+03 -0.97080864836E+01  0.19688500862E+03  0.34120043829E+03  0.46999998093E+01 0.  1.
       -5    1    3    3    0  502 -0.27845591308E+03  0.97080864836E+01  0.54510060483E+03  0.61219988718E+03  0.46999998093E+01 0. -1.
</event>
<event>
 5   0  0.8860626E-02  0.6000614E+03  0.7818609E-02  0.9905279E-01
        1   -1    0    0  501    0  0.00000000000E+00  0.00000000000E+00  0.21102212362E+03  0.21102212368E+03  0.50400001928E-02 0.  1.
       -1   -1    0    0    0  501  0.00000000000E+00  0.00000000000E+00 -0.42658279486E+03  0.42658279489E+03  0.50400001928E-02 0. -1.
    10030    2    1    2    0    0  0.00000000000E+00  0.00000000000E+00 -0.21556067124E+03  0.63760491857E+03  0.60006135453E+03 0.  0.
        3    1    3    3  502    0  0.17787987254E+03 -0.10711825336E+03 -0.33790094452E+03  0.39660134615E+03  0.10100000352E+00 0. -1.
       -3    1    3    3    0  502 -0.17787987254E+03  0.10711825336E+03  0.12234027328E+03  0.24100357243E+03  0.10100000352E+00 0.  1.
</event>
<event>
 5   0  0.9177281E-02  0.5927222E+03  0.7818609E-02  0.9920621E-01
        1   -1    0    0  501    0  0.00000000000E+00  0.00000000000E+00  0.51511199242E+03  0.51511199244E+03  0.50400001928E-02 0. -1.
       -1   -1    0    0    0  501  0.00000000000E+00  0.00000000000E+00 -0.17050641844E+03  0.17050641851E+03  0.50400001928E-02 0.  1.
    10030    2    1    2    0    0  0.00000000000E+00  0.00000000000E+00  0.34460557398E+03  0.68561841095E+03  0.59272219784E+03 0.  0.
        1    1    3    3  502    0 -0.22805710421E+03  0.18427818607E+03  0.12239686299E+03  0.31772548644E+03  0.50400001928E-02 0. -1.
       -1    1    3    3    0  502  0.22805710421E+03 -0.18427818607E+03  0.22220871100E+03  0.36789292451E+03  0.50400001928E-02 0.  1.
</event>
<event>
 5   0  0.1502642E-01  0.6009350E+03  0.7818609E-02  0.9903468E-01
        2   -1    0    0  501    0  0.00000000000E+00  0.00000000000E+00  0.21861990337E+03  0.21861990339E+03  0.25500000920E-02 0.  1.
       -2   -1    0    0    0  501  0.00000000000E+00  0.00000000000E+00 -0.41295741710E+03  0.41295741710E+03  0.25500000920E-02 0. -1.
    10030    2    1    2    0    0  0.00000000000E+00  0.00000000000E+00 -0.19433751373E+03  0.63157732049E+03  0.60093497362E+03 0.  0.
        2    1    3    3  502    0 -0.23621999689E+03 -0.13021978984E+03  0.41958135325E+02  0.27297905730E+03  0.25500000920E-02 0.  1.
       -2    1    3    3    0  502  0.23621999689E+03  0.13021978984E+03 -0.23629564905E+03  0.35859826319E+03  0.25500000920E-02 0. -1.
</event>
<event>
 5   0  0.1488510E-01  0.6012929E+03  0.7818609E-02  0.9902727E-01
       -2   -1    0    0    0  501  0.00000000000E+00  0.00000000000E+00  0.88393243527E+03  0.88393243528E+03  0.25500000920E-02 0.  1.
        2   -1    0    0  501    0  0.00000000000E+00  0.00000000000E+00 -0.10225701392E+03  0.10225701395E+03  0.25500000920E-02 0. -1.
    10030    2    1    2    0    0  0.00000000000E+00  0.00000000000E+00  0.78167542136E+03  0.98618944923E+03  0.60129291149E+03 0.  0.
        5    1    3    3  502    0  0.10413166129E+03  0.87654479093E+02  0.83043589545E+03  0.84152990264E+03  0.46999998093E+01 0.  1.
       -5    1    3    3    0  502 -0.10413166129E+03 -0.87654479093E+02 -0.48760474089E+02  0.14465954659E+03  0.46999998093E+01 0. -1.
</event>
<event>
 5   0  0.1532571E-01  0.7560453E+03  0.7818609E-02  0.9625914E-01
        2   -1    0    0  501    0  0.00000000000E+00  0.00000000000E+00  0.13616867990E+03  0.13616867992E+03  0.25500000920E-02 0. -1.
       -2   -1    0    0    0  501  0.00000000000E+00  0.00000000000E+00 -0.10494418908E+04  0.10494418908E+04  0.25500000920E-02 0.  1.
    10030    2    1    2    0    0  0.00000000000E+00  0.00000000000E+00 -0.91327321090E+03  0.11856105707E+04  0.75604528149E+03 0.  0.
        1    1    3    3  502    0  0.65559272186E+02 -0.27636841575E+03 -0.84781225621E+03  0.89412702744E+03  0.50400001928E-02 0.  1.
       -1    1    3    3    0  502 -0.65559272186E+02  0.27636841575E+03 -0.65460954692E+02  0.29148354329E+03  0.50400001928E-02 0. -1.
</event>
<event>
 5   0  0.1483942E-01  0.6233015E+03  0.7818609E-02  0.9858208E-01
        2   -1    0    0  501    0  0.00000000000E+00  0.00000000000E+00  0.45364345361E+03  0.45364345361E+03  0.25500000920E-02 0. -1.
       -2   -1    0    0    0  501  0.00000000000E+00  0.00000000000E+00 -0.21410246313E+03  0.21410246314E+03  0.25500000920E-02 0.  1.
    10030    2    1    2    0    0  0.00000000000E+00  0.00000000000E+00  0.23954099048E+03  0.66774591675E+03  0.62330147058E+03 0.  0.
        4    1    3    3  502    0 -0.16245967951E+02  0.14207182682E+03  0.41641989378E+03  0.44029021825E+03  0.12699999809E+01 0. -1.
       -4    1    3    3    0  502  0.16245967951E+02 -0.14207182682E+03 -0.17687890330E+03  0.22745569851E+03  0.12699999809E+01 0.  1.
</event>
<event>
 5   0  0.1488510E-01  0.6024885E+03  0.7818609E-02  0.9900257E-01
        2   -1    0    0  501    0  0.00000000000E+00  0.00000000000E+00  0.80489279579E+03  0.80489279580E+03  0.25500000920E-02 0.  1.
       -2   -1    0    0    0  501  0.00000000000E+00  0.00000000000E+00 -0.11274558110E+03  0.11274558113E+03  0.25500000920E-02 0. -1.
    10030    2    1    2    0    0  0.00000000000E+00  0.00000000000E+00  0.69214721469E+03  0.91763837692E+03  0.60248852602E+03 0.  0.
        5    1    3    3  502    0  0.12258291521E+03  0.27430288636E+03  0.37864657324E+03  0.48338800357E+03  0.46999998093E+01 0. -1.
       -5    1    3    3    0  502 -0.12258291521E+03 -0.27430288636E+03  0.31350064146E+03  0.43425037335E+03  0.46999998093E+01 0.  1.
</event>
<event>
 5   0  0.1513339E-01  0.6573292E+03  0.7818609E-02  0.9793123E-01
        2   -1    0    0  501    0  0.00000000000E+00  0.00000000000E+00  0.51521013967E+03  0.51521013968E+03  0.25500000920E-02 0. -1.
       -2   -1    0    0    0  501  0.00000000000E+00  0.00000000000E+00 -0.20966282533E+03  0.20966282534E+03  0.25500000920E-02 0.  1.
    10030    2    1    2    0    0  0.00000000000E+00  0.00000000000E+00  0.30554731434E+03  0.72487296502E+03  0.65732918246E+03 0.  0.
        3    1    3    3  502    0 -0.27192902321E+03 -0.10786290956E+03 -0.12421094215E+02  0.29280385022E+03  0.10100000352E+00 0.  1.
       -3    1    3    3    0  502  0.27192902321E+03  0.10786290956E+03  0.31796840856E+03  0.43206911480E+03  0.10100000352E+00 0. -1.
</event>
<event>
 5   0  0.9420349E-02  0.5742219E+03  0.7818609E-02  0.9960379E-01
        1   -1    0    0  501    0  0.00000000000E+00  0.00000000000E+00  0.77287372798E+03  0.77287372800E+03  0.50400001928E-02 0.  1.
       -1   -1    0    0    0  501  0.00000000000E+00  0.00000000000E+00 -0.10665739376E+03  0.10665739388E+03  0.50400001928E-02 0. -1.
    10030    2    1    2    0    0  0.00000000000E+00  0.00000000000E+00  0.66621633422E+03  0.87953112188E+03  0.57422189995E+03 0.  0.
        2    1    3    3  502    0 -0.10647604192E+03 -0.11045537568E+03 -0.38607839514E+02  0.15820272690E+03  0.25500000920E-02 0. -1.
       -2    1    3    3    0  502  0.10647604192E+03  0.11045537568E+03  0.70482417373E+03  0.72132839498E+03  0.25500000920E-02 0.  1.
</event>
<event>
 5   0  0.1488510E-01  0.5497392E+03  0.7818609E-02  0.1001554E+00
       -2   -1    0    0    0  501  0.00000000000E+00  0.00000000000E+00  0.95236065327E+02  0.95236065361E+02  0.25500000920E-02 0. -1.
        2   -1    0    0  501    0  0.00000000000E+00  0.00000000000E+00 -0.79332655503E+03  0.79332655504E+03  0.25500000920E-02 0.  1.
    10030    2    1    2    0    0  0.00000000000E+00  0.00000000000E+00 -0.69809048971E+03  0.88856262040E+03  0.54973920958E+03 0.  0.
        5    1    3    3  502    0 -0.15335680895E+03 -0.22769911015E+03 -0.32821934783E+03  0.42791964888E+03  0.46999998093E+01 0. -1.
       -5    1    3    3    0  502  0.15335680895E+03  0.22769911015E+03 -0.36987114188E+03  0.46064297151E+03  0.46999998093E+01 0.  1.
</event>
<event>
 5   0  0.9497860E-02  0.6197124E+03  0.7818609E-02  0.9865332E-01
        1   -1    0    0  501    0  0.00000000000E+00  0.00000000000E+00  0.85496668791E+03  0.85496668793E+03  0.50400001928E-02 0.  1.
       -1   -1    0    0    0  501  0.00000000000E+00  0.00000000000E+00 -0.11229778303E+03  0.11229778315E+03  0.50400001928E-02 0. -1.
    10030    2    1    2    0    0  0.00000000000E+00  0.00000000000E+00  0.74266890488E+03  0.96726447107E+03  0.61971239678E+03 0.  0.
        5    1    3    3  502    0  0.27103536986E+03  0.15003836797E+03  0.37778694352E+03  0.48858647983E+03  0.46999998093E+01 0.  1.
       -5    1    3    3    0  502 -0.27103536986E+03 -0.15003836797E+03  0.36488196136E+03  0.47867799124E+03  0.46999998093E+01 0. -1.
</event>
<event>
 5   0  0.8860626E-02  0.6004304E+03  0.7818609E-02  0.9904514E-01
        1   -1    0    0  501    0  0.00000000000E+00  0.00000000000E+00  0.35102590850E+03  0.35102590854E+03  0.50400001928E-02 0.  1.
       -1   -1    0    0    0  501  0.00000000000E+00  0.00000000000E+00 -0.25675929405E+03  0.25675929410E+03  0.50400001928E-02 0. -1.
    10030    2    1    2    0    0  0.00000000000E+00  0.00000000000E+00  0.94266614445E+02  0.60778520264E+03  0.60043039392E+03 0.  0.
        3    1    3    3  502    0 -0.43149928215E+01 -0.22327285819E+03 -0.15597284417E+03  0.27239112813E+03  0.10100000352E+00 0. -1.
       -3    1    3    3    0  502  0.43149928215E+01  0.22327285819E+03  0.25023945861E+03  0.33539407451E+03  0.10100000352E+00 0.  1.
</event>
<event>
 5   0  0.8860626E-02  0.6135455E+03  0.7818609E-02  0.9877695E-01
        1   -1    0    0  501    0  0.00000000000E+00  0.00000000000E+00  0.11791679374E+04  0.11791679375E+04  0.50400001928E-02 0.  1.
       -1   -1    0    0    0  501  0.00000000000E+00  0.00000000000E+00 -0.79810112887E+02  0.79810113046E+02  0.50400001928E-02 0. -1.
    10030    2    1    2    0    0  0.00000000000E+00  0.00000000000E+00  0.10993578246E+04  0.12589780505E+04  0.61354552009E+03 0.  0.
        3    1    3    3  502    0  0.23494746195E+03  0.12578602687E+03  0.23789343027E+03  0.35723343740E+03  0.10100000352E+00 0. -1.
       -3    1    3    3    0  502 -0.23494746195E+03 -0.12578602687E+03  0.86146439428E+03  0.90174461310E+03  0.10100000352E+00 0.  1.
</event>
<event>
 5   0  0.9411028E-02  0.5789079E+03  0.7818609E-02  0.9950158E-01
        1   -1    0    0  501    0  0.00000000000E+00  0.00000000000E+00  0.10250039149E+03  0.10250039161E+03  0.50400001928E-02 0.  1.
       -1   -1    0    0    0  501  0.00000000000E+00  0.00000000000E+00 -0.81739779577E+03  0.81739779578E+03  0.50400001928E-02 0. -1.
    10030    2    1    2    0    0  0.00000000000E+00  0.00000000000E+00 -0.71489740428E+03  0.91989818739E+03  0.57890791714E+03 0.  0.
        4    1    3    3  502    0  0.67815707755E+02  0.28082435600E+03 -0.32899266640E+03  0.43783453106E+03  0.12699999809E+01 0. -1.
       -4    1    3    3    0  502 -0.67815707755E+02 -0.28082435600E+03 -0.38590473788E+03  0.48206365634E+03  0.12699999809E+01 0.  1.
</event>
<event>
 5   0  0.1513339E-01  0.5962735E+03  0.7818609E-02  0.9913168E-01
        2   -1    0    0  501    0  0.00000000000E+00  0.00000000000E+00  0.40439963461E+03  0.40439963462E+03  0.25500000920E-02 0. -1.
       -2   -1    0    0    0  501  0.00000000000E+00  0.00000000000E+00 -0.21979621737E+03  0.21979621739E+03  0.25500000920E-02 0.  1.
    10030    2    1    2    0    0  0.00000000000E+00  0.00000000000E+00  0.18460341724E+03  0.62419585201E+03  0.59627346076E+03 0.  0.
        3    1    3    3  502    0  0.15846898813E+03 -0.94773031151E+02 -0.15273469788E+03  0.23962939254E+03  0.10100000352E+00 0.  1.
       -3    1    3    3    0  502 -0.15846898813E+03  0.94773031151E+02  0.33733811512E+03  0.38456645946E+03  0.10100000352E+00 0. -1.
</event>
<event>
 5   0  0.1488510E-01  0.5946856E+03  0.7818609E-02  0.9916493E-01
        2   -1    0    0  501    0  0.00000000000E+00  0.00000000000E+00  0.21264186861E+03  0.21264186862E+03  0.25500000920E-02 0.  1.
       -2   -1    0    0    0  501  0.00000000000E+00  0.00000000000E+00 -0.41578236969E+03  0.41578236969E+03  0.25500000920E-02 0. -1.
    10030    2    1    2    0    0  0.00000000000E+00  0.00000000000E+00 -0.20314050108E+03  0.62842423832E+03  0.59468559771E+03 0.  0.
        5    1    3    3  502    0  0.50859798028E+02  0.62586559715E+02  0.20082335173E+03  0.21646224870E+03  0.46999998093E+01 0.  1.
       -5    1    3    3    0  502 -0.50859798028E+02 -0.62586559715E+02 -0.40396385281E+03  0.41196198962E+03  0.46999998093E+01 0. -1.
</event>
<event>
 5   0  0.9411028E-02  0.6159808E+03  0.7818609E-02  0.9872795E-01
        1   -1    0    0  501    0  0.00000000000E+00  0.00000000000E+00  0.63767914875E+03  0.63767914877E+03  0.50400001928E-02 0. -1.
       -1   -1    0    0    0  501  0.00000000000E+00  0.00000000000E+00 -0.14875520408E+03  0.14875520416E+03  0.50400001928E-02 0.  1.
    10030    2    1    2    0    0  0.00000000000E+00  0.00000000000E+00  0.48892394467E+03  0.78643435294E+03  0.61598081772E+03 0.  0.
        4    1    3    3  502    0 -0.13134089580E+03  0.15880642289E+03  0.53667882750E+03  0.57488754348E+03  0.12699999809E+01 0. -1.
       -4    1    3    3    0  502  0.13134089580E+03 -0.15880642289E+03 -0.47754882823E+02  0.21154680946E+03  0.12699999809E+01 0.  1.
</event>
<event>
 5   0  0.1502642E-01  0.6110734E+03  0.7818609E-02  0.9882695E-01
        2   -1    0    0  501    0  0.00000000000E+00  0.00000000000E+00  0.55082118007E+03  0.55082118008E+03  0.25500000920E-02 0. -1.
       -2   -1    0    0    0  501  0.00000000000E+00  0.00000000000E+00 -0.16947911944E+03  0.16947911946E+03  0.25500000920E-02 0.  1.
    10030    2    1    2    0    0  0.00000000000E+00  0.00000000000E+00  0.38134206064E+03  0.72030029954E+03  0.61107344428E+03 0.  0.
        2    1    3    3  502    0  0.15936838900E+03  0.47582173002E+02 -0.11144303574E+03  0.20020463736E+03  0.25500000920E-02 0.  1.
       -2    1    3    3    0  502 -0.15936838900E+03 -0.47582173002E+02  0.49278509638E+03  0.52009566218E+03  0.25500000920E-02 0. -1.
</event>
<event>
 5   0  0.1502642E-01  0.5980593E+03  0.7818609E-02  0.9909441E-01
       -2   -1    0    0    0  501  0.00000000000E+00  0.00000000000E+00  0.10332833160E+03  0.10332833164E+03  0.25500000920E-02 0.  1.
        2   -1    0    0  501    0  0.00000000000E+00  0.00000000000E+00 -0.86538438436E+03  0.86538438437E+03  0.25500000920E-02 0. -1.
    10030    2    1    2    0    0  0.00000000000E+00  0.00000000000E+00 -0.76205605276E+03  0.96871271600E+03  0.59805927683E+03 0.  0.
        2    1    3    3  502    0  0.82695047672E+02  0.28016362623E+03 -0.48459895819E+03  0.56583237682E+03  0.25500000920E-02 0. -1.
       -2    1    3    3    0  502 -0.82695047672E+02 -0.28016362623E+03 -0.27745709457E+03  0.40288033919E+03  0.25500000920E-02 0.  1.
</event>
<event>
 5   0  0.9411028E-02  0.5668332E+03  0.7818609E-02  0.9976711E-01
       -1   -1    0    0    0  501  0.00000000000E+00  0.00000000000E+00  0.21120962704E+03  0.21120962710E+03  0.50400001928E-02 0.  1.
        1   -1    0    0  501    0  0.00000000000E+00  0.00000000000E+00 -0.38030918794E+03  0.38030918797E+03  0.50400001928E-02 0. -1.
    10030    2    1    2    0    0  0.00000000000E+00  0.00000000000E+00 -0.16909956090E+03  0.59151881507E+03  0.56683317395E+03 0.  0.
        4    1    3    3  502    0  0.17507525702E+03  0.14597270154E+03 -0.26030039022E+03  0.34600185153E+03  0.12699999809E+01 0. -1.
       -4    1    3    3    0  502 -0.17507525702E+03 -0.14597270154E+03  0.91200829326E+02  0.24551696354E+03  0.12699999809E+01 0.  1.
</event>
<event>
 5   0  0.1488510E-01  0.5997791E+03  0.7818609E-02  0.9905864E-01
       -2   -1    0    0    0  501  0.00000000000E+00  0.00000000000E+00  0.15599661949E+03  0.15599661951E+03  0.25500000920E-02 0. -1.
        2   -1    0    0  501    0  0.00000000000E+00  0.00000000000E+00 -0.57651082399E+03  0.57651082399E+03  0.25500000920E-02 0.  1.
    10030    2    1    2    0    0  0.00000000000E+00  0.00000000000E+00 -0.42051420450E+03  0.73250744351E+03  0.59977909151E+03 0.  0.
        5    1    3    3  502    0 -0.13737560129E+03  0.24505309636E+03 -0.33828110000E+03  0.43974909719E+03  0.46999998093E+01 0.  1.
       -5    1    3    3    0  502  0.13737560129E+03 -0.24505309636E+03 -0.82233104496E+02  0.29275834632E+03  0.46999998093E+01 0. -1.
</event>
<event>
 5   0  0.6170500E-02  0.6156811E+03  0.7818609E-02  0.9873396E-01
        3   -1    0    0  501    0  0.00000000000E+00  0.00000000000E+00  0.63475801883E+03  0.63475802687E+03  0.10100000352E+00 0. -1.
       -3   -1    0    0    0  501  0.00000000000E+00  0.00000000000E+00 -0.14929436124E+03  0.14929439541E+03  0.10100000352E+00 0.  1.
    10030    2    1    2    0    0  0.00000000000E+00  0.00000000000E+00  0.48546365759E+03  0.78405242227E+03  0.61568111716E+03 0.  0.
        1    1    3    3  502    0 -0.26176115293E+03 -0.16019433720E+03  0.21193901601E+03  0.37296014987E+03  0.50400001928E-02 0.  1.
       -1    1    3    3    0  502  0.26176115293E+03  0.16019433720E+03  0.27352464158E+03  0.41109227241E+03  0.50400001928E-02 0. -1.
</event>
<event>
 5   0  0.9177281E-02  0.5862371E+03  0.7818609E-02  0.9934378E-01
        1   -1    0    0  501    0  0.00000000000E+00  0.00000000000E+00  0.30672244958E+03  0.30672244962E+03  0.50400001928E-02 0. -1.
       -1   -1    0    0    0  501  0.00000000000E+00  0.00000000000E+00 -0.28011798466E+03  0.28011798471E+03  0.50400001928E-02 0.  1.
    10030    2    1    2    0    0  0.00000000000E+00  0.00000000000E+00  0.26604464919E+02  0.58684043433E+03  0.58623706622E+03 0.  0.
        1    1    3    3  502    0  0.20733774616E+03 -0.46861561380E+02 -0.18873097854E+03  0.28426102301E+03  0.50400001928E-02 0.  1.
       -1    1    3    3    0  502 -0.20733774616E+03  0.46861561380E+02  0.21533544346E+03  0.30257941132E+03  0.50400001928E-02 0. -1.
</event>
<event>
 5   0  0.1483942E-01  0.6259191E+03  0.7818609E-02  0.9853045E-01
       -2   -1    0    0    0  501  0.00000000000E+00  0.00000000000E+00  0.12785886159E+03  0.12785886162E+03  0.25500000920E-02 0. -1.
        2   -1    0    0  501    0  0.00000000000E+00  0.00000000000E+00 -0.76602954399E+03  0.76602954399E+03  0.25500000920E-02 0.  1.
    10030    2    1    2    0    0  0.00000000000E+00  0.00000000000E+00 -0.63817068240E+03  0.89388840561E+03  0.62591905372E+03 0.  0.
        4    1    3    3  502    0 -0.27407697853E+03  0.17802814620E+02 -0.10483417885E+03  0.29398460559E+03  0.12699999809E+01 0. -1.
       -4    1    3    3    0  502  0.27407697853E+03 -0.17802814620E+02 -0.53333650354E+03  0.59990380002E+03  0.12699999809E+01 0.  1.
</event>
<event>
 5   0  0.9497860E-02  0.5959049E+03  0.7818609E-02  0.9913939E-01
       -1   -1    0    0    0  501  0.00000000000E+00  0.00000000000E+00  0.21025951467E+03  0.21025951473E+03  0.50400001928E-02 0.  1.
        1   -1    0    0  501    0  0.00000000000E+00  0.00000000000E+00 -0.42221950708E+03  0.42221950711E+03  0.50400001928E-02 0. -1.
    10030    2    1    2    0    0  0.00000000000E+00  0.00000000000E+00 -0.21195999242E+03  0.63247902184E+03  0.59590492084E+03 0.  0.
        5    1    3    3  502    0 -0.15901553790E+02 -0.25929584110E+03  0.48800416483E+02  0.26436861249E+03  0.46999998093E+01 0. -1.
       -5    1    3    3    0  502  0.15901553790E+02  0.25929584110E+03 -0.26076040890E+03  0.36811040935E+03  0.46999998093E+01 0.  1.
</event>
<event>
 5   0  0.1488510E-01  0.5905205E+03  0.7818609E-02  0.9925270E-01
        2   -1    0    0  501    0  0.00000000000E+00  0.00000000000E+00  0.61976605056E+03  0.61976605056E+03  0.25500000920E-02 0.  1.
       -2   -1    0    0    0  501  0.00000000000E+00  0.00000000000E+00 -0.14066376943E+03  0.14066376945E+03  0.25500000920E-02 0. -1.
    10030    2    1    2    0    0  0.00000000000E+00  0.00000000000E+00  0.47910228113E+03  0.76042982002E+03  0.59052054612E+03 0.  0.
        5    1    3    3  502    0 -0.40096346057E+02  0.19113221741E+03 -0.45549903377E+02  0.20058944437E+03  0.46999998093E+01 0. -1.
       -5    1    3    3    0  502  0.40096346057E+02 -0.19113221741E+03  0.52465218450E+03  0.55984037564E+03  0.46999998093E+01 0.  1.
</event>
<event>
 5   0  0.6170500E-02  0.5975581E+03  0.7818609E-02  0.9910485E-01
        3   -1    0    0  501    0  0.00000000000E+00  0.00000000000E+00  0.14303556155E+04  0.14303556190E+04  0.10100000352E+00 0.  1.
       -3   -1    0    0    0  501  0.00000000000E+00  0.00000000000E+00 -0.62410247367E+02  0.62410329092E+02  0.10100000352E+00 0. -1.
    10030    2    1    2    0    0  0.00000000000E+00  0.00000000000E+00  0.13679453681E+04  0.14927659481E+04  0.59755806895E+03 0.  0.
        3    1    3    3  502    0 -0.25743871475E+03 -0.16108367521E+02  0.10606387567E+04  0.10915533674E+04  0.10100000352E+00 0.  1.
       -3    1    3    3    0  502  0.25743871475E+03  0.16108367521E+02  0.30730661136E+03  0.40121258073E+03  0.10100000352E+00 0. -1.
</event>
<event>
 5   0  0.9177281E-02  0.5959645E+03  0.7818609E-02  0.9913814E-01
        1   -1    0    0  501    0  0.00000000000E+00  0.00000000000E+00  0.75603498270E+03  0.75603498271E+03  0.50400001928E-02 0. -1.
       -1   -1    0    0    0  501  0.00000000000E+00  0.00000000000E+00 -0.11744617483E+03  0.11744617494E+03  0.50400001928E-02 0.  1.
    10030    2    1    2    0    0  0.00000000000E+00  0.00000000000E+00  0.63858880787E+03  0.87348115765E+03  0.59596448488E+03 0.  0.
        1    1    3    3  502    0 -0.44174180823E+01 -0.13618396875E+03  0.70770206316E+03  0.72069951932E+03  0.50400001928E-02 0. -1.
       -1    1    3    3    0  502  0.44174180823E+01  0.13618396875E+03 -0.69113255293E+02  0.15278163833E+03  0.50400001928E-02 0.  1.
</event>
<event>
 5   0  0.9177281E-02  0.6017372E+03  0.7818609E-02  0.9901809E-01
       -1   -1    0    0    0  501  0.00000000000E+00  0.00000000000E+00  0.25522225674E+03  0.25522225679E+03  0.50400001928E-02 0. -1.
        1   -1    0    0  501    0  0.00000000000E+00  0.00000000000E+00 -0.35467871131E+03  0.35467871134E+03  0.50400001928E-02 0.  1.
    10030    2    1    2    0    0  0.00000000000E+00  0.00000000000E+00 -0.99456454571E+02  0.60990096813E+03  0.60173715571E+03 0.  0.
        1    1    3    3  502    0 -0.42503197111E+02  0.17974534508E+03 -0.29045198693E+03  0.34420526954E+03  0.50400001928E-02 0.  1.
       -1    1    3    3    0  502  0.42503197111E+02 -0.17974534508E+03  0.19099553236E+03  0.26569569859E+03  0.50400001928E-02 0. -1.
</event>
<event>
 5   0  0.8860626E-02  0.6084314E+03  0.7818609E-02  0.9888066E-01
        1   -1    0    0  501    0  0.00000000000E+00  0.00000000000E+00  0.48180038188E+03  0.48180038191E+03  0.50400001928E-02 0.  1.
       -1   -1    0    0    0  501  0.00000000000E+00  0.00000000000E+00 -0.19208614398E+03  0.19208614405E+03  0.50400001928E-02 0. -1.
    10030    2    1    2    0    0  0.00000000000E+00  0.00000000000E+00  0.28971423790E+03  0.67388652595E+03  0.60843135210E+03 0.  0.
        3    1    3    3  502    0  0.21178505029E+03 -0.18833330184E+02  0.38584062678E+03  0.44054579935E+03  0.10100000352E+00 0.  1.
       -3    1    3    3    0  502 -0.21178505029E+03  0.18833330184E+02 -0.96126388877E+02  0.23334072660E+03  0.10100000352E+00 0. -1.
</event>
<event>
 5   0  0.1483942E-01  0.5734242E+03  0.7818609E-02  0.9962130E-01
        2   -1    0    0  501    0  0.00000000000E+00  0.00000000000E+00  0.63977386966E+03  0.63977386967E+03  0.25500000920E-02 0.  1.
       -2   -1    0    0    0  501  0.00000000000E+00  0.00000000000E+00 -0.12848889019E+03  0.12848889022E+03  0.25500000920E-02 0. -1.
    10030    2    1    2    0    0  0.00000000000E+00  0.00000000000E+00  0.51128497947E+03  0.76826275989E+03  0.57342422167E+03 0.  0.
        4    1    3    3  502    0 -0.27989567418E+03 -0.29496496488E+02  0.18237485404E+03  0.33537118543E+03  0.12699999809E+01 0. -1.
       -4    1    3    3    0  502  0.27989567418E+03  0.29496496488E+02  0.32891012543E+03  0.43289157446E+03  0.12699999809E+01 0.  1.
</event>
<event>
 5   0  0.1532571E-01  0.5958197E+03  0.7818609E-02  0.9914117E-01
        2   -1    0    0  501    0  0.00000000000E+00  0.00000000000E+00  0.37092213588E+03  0.37092213589E+03  0.25500000920E-02 0. -1.
       -2   -1    0    0    0  501  0.00000000000E+00  0.00000000000E+00 -0.23926932475E+03  0.23926932477E+03  0.25500000920E-02 0.  1.
    10030    2    1    2    0    0  0.00000000000E+00  0.00000000000E+00  0.13165281112E+03  0.61019146065E+03  0.59581973446E+03 0.  0.
        1    1    3    3  502    0  0.15822040581E+03 -0.67599098532E+02  0.31489411917E+03  0.35883372368E+03  0.50400001928E-02 0. -1.
       -1    1    3    3    0  502 -0.15822040581E+03  0.67599098532E+02 -0.18324130804E+03  0.25135773697E+03  0.50400001928E-02 0.  1.
</event>
<event>
 5   0  0.1488510E-01  0.6285020E+03  0.7818609E-02  0.9847976E-01
       -2   -1    0    0    0  501  0.00000000000E+00  0.00000000000E+00  0.28539142640E+03  0.28539142641E+03  0.25500000920E-02 0. -1.
        2   -1    0    0  501    0  0.00000000000E+00  0.00000000000E+00 -0.34602890855E+03  0.34602890856E+03  0.25500000920E-02 0.  1.
    10030    2    1    2    0    0  0.00000000000E+00  0.00000000000E+00 -0.60637482157E+02  0.63142033497E+03  0.62850197706E+03 0.  0.
        5    1    3    3  502    0 -0.97009969392E+02  0.56865582718E+02 -0.32508693126E+03  0.34401777793E+03  0.46999998093E+01 0.  1.
       -5    1    3    3    0  502  0.97009969392E+02 -0.56865582718E+02  0.26444944911E+03  0.28740255703E+03  0.46999998093E+01 0. -1.
</event>
<event>
 5   0  0.6170500E-02  0.6123951E+03  0.7818609E-02  0.9880019E-01
       -4   -1    0    0    0  501  0.00000000000E+00  0.00000000000E+00  0.35813588032E+03  0.35813813211E+03  0.12699999809E+01 0.  1.
        4   -1    0    0  501    0  0.00000000000E+00  0.00000000000E+00 -0.26178689604E+03  0.26178997658E+03  0.12699999809E+01 0. -1.
    10030    2    1    2    0    0  0.00000000000E+00  0.00000000000E+00  0.96348984279E+02  0.61992810869E+03  0.61239507932E+03 0.  0.
        1    1    3    3  502    0  0.18177254011E+03  0.21920199161E+03  0.16210294145E+03  0.32767076939E+03  0.50400001928E-02 0.  1.
       -1    1    3    3    0  502 -0.18177254011E+03 -0.21920199161E+03 -0.65753957168E+02  0.29225733930E+03  0.50400001928E-02 0. -1.
</event>
<event>
 5   0  0.6170500E-02  0.6013144E+03  0.7818609E-02  0.9902683E-01
        3   -1    0    0  501    0  0.00000000000E+00  0.00000000000E+00  0.10246558508E+03  0.10246563485E+03  0.10100000352E+00 0. -1.
       -3   -1    0    0    0  501  0.00000000000E+00  0.00000000000E+00 -0.88219605023E+03  0.88219605602E+03  0.10100000352E+00 0.  1.
    10030    2    1    2    0    0  0.00000000000E+00  0.00000000000E+00 -0.77973046516E+03  0.98466169087E+03  0.60131443286E+03 0.  0.
        4    1    3    3  502    0 -0.19047921304E+03  0.49633137848E+01 -0.90374854989E+01  0.19076229745E+03  0.12699999809E+01 0. -1.
       -4    1    3    3    0  502  0.19047921304E+03 -0.49633137848E+01 -0.77069297966E+03  0.79389939342E+03  0.12699999809E+01 0.  1.
</event>
<event>
 5   0  0.9497860E-02  0.6099785E+03  0.7818609E-02  0.9884917E-01
       -1   -1    0    0    0  501  0.00000000000E+00  0.00000000000E+00  0.94246552480E+02  0.94246552614E+02  0.50400001928E-02 0.  1.
        1   -1    0    0  501    0  0.00000000000E+00  0.00000000000E+00 -0.98696917675E+03  0.98696917676E+03  0.50400001928E-02 0. -1.
    10030    2    1    2    0    0  0.00000000000E+00  0.00000000000E+00 -0.89272262427E+03  0.10812157294E+04  0.60997849927E+03 0.  0.
        5    1    3    3  502    0  0.94931047386E+02  0.12021085055E+03  0.21046331457E+02  0.15468545637E+03  0.46999998093E+01 0.  1.
       -5    1    3    3    0  502 -0.94931047386E+02 -0.12021085055E+03 -0.91376895573E+03  0.92653027301E+03  0.46999998093E+01 0. -1.
</event>
<event>
 5   0  0.1483942E-01  0.6058624E+03  0.7818609E-02  0.9893318E-01
        2   -1    0    0  501    0  0.00000000000E+00  0.00000000000E+00  0.83303702661E+03  0.83303702661E+03  0.25500000920E-02 0. -1.
       -2   -1    0    0    0  501  0.00000000000E+00  0.00000000000E+00 -0.11015995068E+03  0.11015995071E+03  0.25500000920E-02 0.  1.
    10030    2    1    2    0    0  0.00000000000E+00  0.00000000000E+00  0.72287707594E+03  0.94319697732E+03  0.60586241929E+03 0.  0.
        4    1    3    3  502    0 -0.16498443697E+03 -0.16856378180E+03  0.65735896067E+03  0.69839532433E+03  0.12699999809E+01 0. -1.
       -4    1    3    3    0  502  0.16498443697E+03  0.16856378180E+03  0.65518115266E+02  0.24480165299E+03  0.12699999809E+01 0.  1.
</event>
<event>
 5   0  0.8860626E-02  0.6419419E+03  0.7818609E-02  0.9822018E-01
        1   -1    0    0  501    0  0.00000000000E+00  0.00000000000E+00  0.86459396990E+03  0.86459396991E+03  0.50400001928E-02 0. -1.
       -1   -1    0    0    0  501  0.00000000000E+00  0.00000000000E+00 -0.11915693201E+03  0.11915693212E+03  0.50400001928E-02 0.  1.
    10030    2    1    2    0    0  0.00000000000E+00  0.00000000000E+00  0.74543703788E+03  0.98375090203E+03  0.64194194426E+03 0.  0.
        3    1    3    3  502    0 -0.11734101525E+03 -0.29868955591E+03  0.38216400882E+03  0.49903276897E+03  0.10100000352E+00 0. -1.
       -3    1    3    3    0  502  0.11734101525E+03  0.29868955591E+03  0.36327302906E+03  0.48471813306E+03  0.10100000352E+00 0.  1.
</event>
<event>
 5   0  0.1483942E-01  0.5952161E+03  0.7818609E-02  0.9915381E-01
        2   -1    0    0  501    0  0.00000000000E+00  0.00000000000E+00  0.10823938372E+04  0.10823938372E+04  0.25500000920E-02 0.  1.
       -2   -1    0    0    0  501  0.00000000000E+00  0.00000000000E+00 -0.81828389559E+02  0.81828389598E+02  0.25500000920E-02 0. -1.
    10030    2    1    2    0    0  0.00000000000E+00  0.00000000000E+00  0.10005654476E+04  0.11642222268E+04  0.59521607703E+03 0.  0.
        4    1    3    3  502    0  0.13953760311E+03 -0.25665062289E+03  0.61142300739E+03  0.67762821058E+03  0.12699999809E+01 0. -1.
       -4    1    3    3    0  502 -0.13953760311E+03  0.25665062289E+03  0.38914244024E+03  0.48659401620E+03  0.12699999809E+01 0.  1.
</event>
<event>
 5   0  0.9177281E-02  0.5632798E+03  0.7818609E-02  0.9984661E-01
       -1   -1    0    0    0  501  0.00000000000E+00  0.00000000000E+00  0.47522372444E+02  0.47522372712E+02  0.50400001928E-02 0.  1.
        1   -1    0    0  501    0  0.00000000000E+00  0.00000000000E+00 -0.16691301750E+04  0.16691301750E+04  0.50400001928E-02 0. -1.
    10030    2    1    2    0    0  0.00000000000E+00  0.00000000000E+00 -0.16216078026E+04  0.17166525477E+04  0.56327977443E+03 0.  0.
        1    1    3    3  502    0  0.18012218495E+03 -0.14754189340E+03 -0.32789202359E+03  0.40215145279E+03  0.50400001928E-02 0.  1.
       -1    1    3    3    0  502 -0.18012218495E+03  0.14754189340E+03 -0.12937157790E+04  0.13145010949E+04  0.50400001928E-02 0. -1.
</event>
<event>
 5   0  0.9177281E-02  0.5970490E+03  0.7818609E-02  0.9911547E-01
        1   -1    0    0  501    0  0.00000000000E+00  0.00000000000E+00  0.77077476072E+03  0.77077476074E+03  0.50400001928E-02 0. -1.
       -1   -1    0    0    0  501  0.00000000000E+00  0.00000000000E+00 -0.11561987724E+03  0.11561987735E+03  0.50400001928E-02 0.  1.
    10030    2    1    2    0    0  0.00000000000E+00  0.00000000000E+00  0.65515488349E+03  0.88639463809E+03  0.59704902066E+03 0.  0.
        1    1    3    3  502    0 -0.27179133600E+03  0.83236595289E+02  0.46298009216E+03  0.54327656574E+03  0.50400001928E-02 0. -1.
       -1    1    3    3    0  502  0.27179133600E+03 -0.83236595289E+02  0.19217479133E+03  0.34311807234E+03  0.50400001928E-02 0.  1.
</event>
<event>
 5   0  0.1483942E-01  0.6059033E+03  0.7818609E-02  0.9893234E-01
       -2   -1    0    0    0  501  0.00000000000E+00  0.00000000000E+00  0.86699546865E+02  0.86699546902E+02  0.25500000920E-02 0. -1.
        2   -1    0    0  501    0  0.00000000000E+00  0.00000000000E+00 -0.10585949878E+04  0.10585949878E+04  0.25500000920E-02 0.  1.
    10030    2    1    2    0    0  0.00000000000E+00  0.00000000000E+00 -0.97189544095E+03  0.11452945347E+04  0.60590331169E+03 0.  0.
        4    1    3    3  502    0 -0.20865309442E+03  0.15710609518E+02 -0.90005471403E+03  0.92405791929E+03  0.12699999809E+01 0.  1.
       -4    1    3    3    0  502  0.20865309442E+03 -0.15710609518E+02 -0.71840726921E+02  0.22123661543E+03  0.12699999809E+01 0. -1.
</event>
<event>
 5   0  0.1532571E-01  0.6194482E+03  0.7818609E-02  0.9865859E-01
        2   -1    0    0  501    0  0.00000000000E+00  0.00000000000E+00  0.80032867673E+03  0.80032867674E+03  0.25500000920E-02 0.  1.
       -2   -1    0    0    0  501  0.00000000000E+00  0.00000000000E+00 -0.11986201137E+03  0.11986201140E+03  0.25500000920E-02 0. -1.
    10030    2    1    2    0    0  0.00000000000E+00  0.00000000000E+00  0.68046666536E+03  0.92019068813E+03  0.61944815752E+03 0.  0.
        1    1    3    3  502    0 -0.83493801335E+02  0.10139075944E+03  0.75690954471E+03  0.76822090564E+03  0.50400001928E-02 0.  1.
       -1    1    3    3    0  502  0.83493801335E+02 -0.10139075944E+03 -0.76442879355E+02  0.15196978249E+03  0.50400001928E-02 0. -1.
</event>
<event>
 5   0  0.1502642E-01  0.6024097E+03  0.7818609E-02  0.9900419E-01
       -2   -1    0    0    0  501  0.00000000000E+00  0.00000000000E+00  0.13089607874E+03  0.13089607876E+03  0.25500000920E-02 0. -1.
        2   -1    0    0  501    0  0.00000000000E+00  0.00000000000E+00 -0.69310220754E+03  0.69310220754E+03  0.25500000920E-02 0.  1.
    10030    2    1    2    0    0  0.00000000000E+00  0.00000000000E+00 -0.56220612880E+03  0.82399828631E+03  0.60240969828E+03 0.  0.
        2    1    3    3  502    0  0.21350260016E+03 -0.21139601599E+03 -0.31020700050E+03  0.43185647966E+03  0.25500000920E-02 0.  1.
       -2    1    3    3    0  502 -0.21350260016E+03  0.21139601599E+03 -0.25199912830E+03  0.39214180665E+03  0.25500000920E-02 0. -1.
</event>
<event>
 5   0  0.1483942E-01  0.6071816E+03  0.7818609E-02  0.9890617E-01
        2   -1    0    0  501    0  0.00000000000E+00  0.00000000000E+00  0.14350190236E+03  0.14350190239E+03  0.25500000920E-02 0. -1.
       -2   -1    0    0    0  501  0.00000000000E+00  0.00000000000E+00 -0.64227289506E+03  0.64227289507E+03  0.25500000920E-02 0.  1.
    10030    2    1    2    0    0  0.00000000000E+00  0.00000000000E+00 -0.49877099270E+03  0.78577479745E+03  0.60718162781E+03 0.  0.
        4    1    3    3  502    0 -0.19690319331E+02  0.30206109754E+03 -0.27937911784E+03  0.41192586677E+03  0.12699999809E+01 0.  1.
       -4    1    3    3    0  502  0.19690319331E+02 -0.30206109754E+03 -0.21939187485E+03  0.37384893069E+03  0.12699999809E+01 0. -1.
</event>
<event>
 5   0  0.9177281E-02  0.5843905E+03  0.7818609E-02  0.9938331E-01
       -1   -1    0    0    0  501  0.00000000000E+00  0.00000000000E+00  0.57025581534E+02  0.57025581757E+02  0.50400001928E-02 0. -1.
        1   -1    0    0  501    0  0.00000000000E+00  0.00000000000E+00 -0.14971887220E+04  0.14971887220E+04  0.50400001928E-02 0.  1.
    10030    2    1    2    0    0  0.00000000000E+00  0.00000000000E+00 -0.14401631404E+04  0.15542143037E+04  0.58439047808E+03 0.  0.
        1    1    3    3  502    0  0.15269279908E+03 -0.24744668077E+03 -0.64331747139E+03  0.70597614672E+03  0.50400001928E-02 0. -1.
       -1    1    3    3    0  502 -0.15269279908E+03  0.24744668077E+03 -0.79684566905E+03  0.84823815702E+03  0.50400001928E-02 0.  1.
</event>
<event>
 5   0  0.8860626E-02  0.6924967E+03  0.7818609E-02  0.9730151E-01
       -1   -1    0    0    0  501  0.00000000000E+00  0.00000000000E+00  0.21245189390E+03  0.21245189396E+03  0.50400001928E-02 0.  1.
        1   -1    0    0  501    0  0.00000000000E+00  0.00000000000E+00 -0.56430624535E+03  0.56430624537E+03  0.50400001928E-02 0. -1.
    10030    2    1    2    0    0  0.00000000000E+00  0.00000000000E+00 -0.35185435145E+03  0.77675813934E+03  0.69249673096E+03 0.  0.
        3    1    3    3  502    0  0.88040958263E+02  0.31566726292E+03 -0.30128884400E+03  0.44516514793E+03  0.10100000352E+00 0. -1.
       -3    1    3    3    0  502 -0.88040958263E+02 -0.31566726292E+03 -0.50565507447E+02  0.33159299141E+03  0.10100000352E+00 0.  1.
</event>
<event>
 5   0  0.1502642E-01  0.5978472E+03  0.7818609E-02  0.9909883E-01
       -2   -1    0    0    0  501  0.00000000000E+00  0.00000000000E+00  0.53917768093E+02  0.53917768153E+02  0.25500000920E-02 0. -1.
        2   -1    0    0  501    0  0.00000000000E+00  0.00000000000E+00 -0.16572516823E+04  0.16572516823E+04  0.25500000920E-02 0.  1.
    10030    2    1    2    0    0  0.00000000000E+00  0.00000000000E+00 -0.16033339142E+04  0.17111694504E+04  0.59784717756E+03 0.  0.
        2    1    3    3  502    0  0.21230520905E+03  0.19428880653E+03 -0.10330233079E+04  0.10723613183E+04  0.25500000920E-02 0. -1.
       -2    1    3    3    0  502 -0.21230520905E+03 -0.19428880653E+03 -0.57031060622E+03  0.63880813215E+03  0.25500000920E-02 0.  1.
</event>
<event>
 5   0  0.6170500E-02  0.5982376E+03  0.7818609E-02  0.9909069E-01
        3   -1    0    0  501    0  0.00000000000E+00  0.00000000000E+00  0.30794977082E+03  0.30794978738E+03  0.10100000352E+00 0. -1.
       -3   -1    0    0    0  501  0.00000000000E+00  0.00000000000E+00 -0.29054104686E+03  0.29054106442E+03  0.10100000352E+00 0.  1.
    10030    2    1    2    0    0  0.00000000000E+00  0.00000000000E+00  0.17408723953E+02  0.59849085180E+03  0.59823760833E+03 0.  0.
        2    1    3    3  502    0 -0.25720583483E+03 -0.49170389781E+02  0.15333211938E+03  0.30345231511E+03  0.25500000920E-02 0. -1.
       -2    1    3    3    0  502  0.25720583483E+03  0.49170389781E+02 -0.13592339543E+03  0.29503853669E+03  0.25500000920E-02 0.  1.
</event>
<event>
 5   0  0.9420349E-02  0.6314281E+03  0.7818609E-02  0.9842266E-01
        1   -1    0    0  501    0  0.00000000000E+00  0.00000000000E+00  0.44844509715E+03  0.44844509718E+03  0.50400001928E-02 0.  1.
       -1   -1    0    0    0  501  0.00000000000E+00  0.00000000000E+00 -0.22226878510E+03  0.22226878516E+03  0.50400001928E-02 0. -1.
    10030    2    1    2    0    0  0.00000000000E+00  0.00000000000E+00  0.22617631205E+03  0.67071388234E+03  0.63142805436E+03 0.  0.
        2    1    3    3  502    0  0.83253223684E+02  0.21297778199E+03 -0.11813564956E+03  0.25738427804E+03  0.25500000920E-02 0. -1.
       -2    1    3    3    0  502 -0.83253223684E+02 -0.21297778199E+03  0.34431196162E+03  0.41332960430E+03  0.25500000920E-02 0.  1.
</event>
<event>
 5   0  0.9420349E-02  0.6151695E+03  0.7818609E-02  0.9874424E-01
        1   -1    0    0  501    0  0.00000000000E+00  0.00000000000E+00  0.82957856698E+03  0.82957856699E+03  0.50400001928E-02 0.  1.
       -1   -1    0    0    0  501  0.00000000000E+00  0.00000000000E+00 -0.11404391168E+03  0.11404391179E+03  0.50400001928E-02 0. -1.
    10030    2    1    2    0    0  0.00000000000E+00  0.00000000000E+00  0.71553465530E+03  0.94362247878E+03  0.61516952097E+03 0.  0.
        2    1    3    3  502    0  0.10139914674E+03  0.21327533989E+03  0.55463010285E+02  0.24257844727E+03  0.25500000920E-02 0. -1.
       -2    1    3    3    0  502 -0.10139914674E+03 -0.21327533989E+03  0.66007164501E+03  0.70104403151E+03  0.25500000920E-02 0.  1.
</event>
<event>
 5   0  0.9411028E-02  0.5851248E+03  0.7818609E-02  0.9936757E-01
       -1   -1    0    0    0  501  0.00000000000E+00  0.00000000000E+00  0.37462478435E+03  0.37462478438E+03  0.50400001928E-02 0. -1.
        1   -1    0    0  501    0  0.00000000000E+00  0.00000000000E+00 -0.22847592528E+03  0.22847592534E+03  0.50400001928E-02 0.  1.
    10030    2    1    2    0    0  0.00000000000E+00  0.00000000000E+00  0.14614885907E+03  0.60310070972E+03  0.58512475341E+03 0.  0.
        4    1    3    3  502    0  0.11325266414E+03 -0.20993178724E+03  0.24767029897E+03  0.34386001675E+03  0.12699999809E+01 0. -1.
       -4    1    3    3    0  502 -0.11325266414E+03  0.20993178724E+03 -0.10152143990E+03  0.25924069297E+03  0.12699999809E+01 0.  1.
</event>
<event>
 5   0  0.1502642E-01  0.4680271E+03  0.7818609E-02  0.1022479E+00
       -2   -1    0    0    0  501  0.00000000000E+00  0.00000000000E+00  0.29568015641E+03  0.29568015642E+03  0.25500000920E-02 0. -1.
        2   -1    0    0  501    0  0.00000000000E+00  0.00000000000E+00 -0.18520800107E+03  0.18520800109E+03  0.25500000920E-02 0.  1.
    10030    2    1    2    0    0  0.00000000000E+00  0.00000000000E+00  0.11047215534E+03  0.48088815751E+03  0.46802705363E+03 0.  0.
        2    1    3    3  502    0 -0.75169849637E+02 -0.11710139629E+02 -0.17214745199E+03  0.18820833907E+03  0.25500000920E-02 0.  1.
       -2    1    3    3    0  502  0.75169849637E+02  0.11710139629E+02  0.28261960733E+03  0.29267981843E+03  0.25500000920E-02 0. -1.
</event>
<event>
 5   0  0.9177281E-02  0.5665034E+03  0.7818609E-02  0.9977446E-01
        1   -1    0    0  501    0  0.00000000000E+00  0.00000000000E+00  0.60516037054E+03  0.60516037056E+03  0.50400001928E-02 0. -1.
       -1   -1    0    0    0  501  0.00000000000E+00  0.00000000000E+00 -0.13257894141E+03  0.13257894151E+03  0.50400001928E-02 0.  1.
    10030    2    1    2    0    0  0.00000000000E+00  0.00000000000E+00  0.47258142913E+03  0.73773931207E+03  0.56650338518E+03 0.  0.
        1    1    3    3  502    0 -0.43717961650E+02 -0.19382138220E+03  0.49918615209E+03  0.53727535103E+03  0.50400001928E-02 0. -1.
       -1    1    3    3    0  502  0.43717961650E+02  0.19382138220E+03 -0.26604722957E+02  0.20046396104E+03  0.50400001928E-02 0.  1.
</event>
<event>
 5   0  0.1502642E-01  0.6717434E+03  0.7818609E-02  0.9766813E-01
       -2   -1    0    0    0  501  0.00000000000E+00  0.00000000000E+00  0.18586246678E+03  0.18586246680E+03  0.25500000920E-02 0. -1.
        2   -1    0    0  501    0  0.00000000000E+00  0.00000000000E+00 -0.60695309997E+03  0.60695309998E+03  0.25500000920E-02 0.  1.
    10030    2    1    2    0    0  0.00000000000E+00  0.00000000000E+00 -0.42109063320E+03  0.79281556678E+03  0.67174340455E+03 0.  0.
        2    1    3    3  502    0  0.17942872655E+03 -0.87851731761E+02 -0.52920285609E+03  0.56565736765E+03  0.25500000920E-02 0.  1.
       -2    1    3    3    0  502 -0.17942872655E+03  0.87851731761E+02  0.10811222289E+03  0.22715819912E+03  0.25500000920E-02 0. -1.
</event>
<event>
 5   0  0.1502642E-01  0.7910275E+03  0.7818609E-02  0.9573096E-01
       -2   -1    0    0    0  501  0.00000000000E+00  0.00000000000E+00  0.65651901564E+03  0.65651901565E+03  0.25500000920E-02 0.  1.
        2   -1    0    0  501    0  0.00000000000E+00  0.00000000000E+00 -0.23827354863E+03  0.23827354864E+03  0.25500000920E-02 0. -1.
    10030    2    1    2    0    0  0.00000000000E+00  0.00000000000E+00  0.41824546701E+03  0.89479256429E+03  0.79102747261E+03 0.  0.
        2    1    3    3  502    0  0.19988074596E+03 -0.40373570402E+02 -0.17422596089E+03  0.26821078138E+03  0.25500000920E-02 0. -1.
       -2    1    3    3    0  502 -0.19988074596E+03  0.40373570402E+02  0.59247142790E+03  0.62658178291E+03  0.25500000920E-02 0.  1.
</event>
<event>
 5   0  0.1502642E-01  0.6226989E+03  0.7818609E-02  0.9859401E-01
       -2   -1    0    0    0  501  0.00000000000E+00  0.00000000000E+00  0.41767581634E+02  0.41767581712E+02  0.25500000920E-02 0. -1.
        2   -1    0    0  501    0  0.00000000000E+00  0.00000000000E+00 -0.23209026986E+04  0.23209026986E+04  0.25500000920E-02 0.  1.
    10030    2    1    2    0    0  0.00000000000E+00  0.00000000000E+00 -0.22791351169E+04  0.23626702803E+04  0.62269894177E+03 0.  0.
        2    1    3    3  502    0  0.14933820352E+03  0.19317187576E+03 -0.18725657600E+04  0.18884172733E+04  0.25500000920E-02 0.  1.
       -2    1    3    3    0  502 -0.14933820352E+03 -0.19317187576E+03 -0.40656935694E+03  0.47425300698E+03  0.25500000920E-02 0. -1.
</event>
<event>
 5   0  0.1532571E-01  0.6036766E+03  0.7818609E-02  0.9897807E-01
       -2   -1    0    0    0  501  0.00000000000E+00  0.00000000000E+00  0.48121326204E+02  0.48121326272E+02  0.25500000920E-02 0. -1.
        2   -1    0    0  501    0  0.00000000000E+00  0.00000000000E+00 -0.18932637934E+04  0.18932637934E+04  0.25500000920E-02 0.  1.
    10030    2    1    2    0    0  0.00000000000E+00  0.00000000000E+00 -0.18451424672E+04  0.19413851197E+04  0.60367661761E+03 0.  0.
        1    1    3    3  502    0 -0.18288453055E+03  0.31636930745E+02 -0.16880633332E+04  0.16982359859E+04  0.50400001928E-02 0.  1.
       -1    1    3    3    0  502  0.18288453055E+03 -0.31636930745E+02 -0.15707913406E+03  0.24314913383E+03  0.50400001928E-02 0. -1.
</event>
<event>
 5   0  0.9420349E-02  0.3125606E+03  0.7818609E-02  0.1079125E+00
        1   -1    0    0  501    0  0.00000000000E+00  0.00000000000E+00  0.41089228161E+03  0.41089228164E+03  0.50400001928E-02 0.  1.
       -1   -1    0    0    0  501  0.00000000000E+00  0.00000000000E+00 -0.59440223107E+02  0.59440223320E+02  0.50400001928E-02 0. -1.
    10030    2    1    2    0    0  0.00000000000E+00  0.00000000000E+00  0.35145205850E+03  0.47033250496E+03  0.31256057940E+03 0.  0.
        2    1    3    3  502    0  0.34179161370E+01 -0.14657133911E+03  0.25716034363E+03  0.29601736763E+03  0.25500000920E-02 0. -1.
       -2    1    3    3    0  502 -0.34179161370E+01  0.14657133911E+03  0.94291714872E+02  0.17431513732E+03  0.25500000920E-02 0.  1.
</event>
<event>
 5   0  0.1483942E-01  0.6025924E+03  0.7818609E-02  0.9900042E-01
        2   -1    0    0  501    0  0.00000000000E+00  0.00000000000E+00  0.25545175171E+03  0.25545175172E+03  0.25500000920E-02 0.  1.
       -2   -1    0    0    0  501  0.00000000000E+00  0.00000000000E+00 -0.35536806598E+03  0.35536806599E+03  0.25500000920E-02 0. -1.
    10030    2    1    2    0    0  0.00000000000E+00  0.00000000000E+00 -0.99916314273E+02  0.61081981771E+03  0.60259238284E+03 0.  0.
        4    1    3    3  502    0 -0.25028112006E+02 -0.10901181347E+03 -0.33354171394E+03  0.35179776819E+03  0.12699999809E+01 0. -1.
       -4    1    3    3    0  502  0.25028112006E+02  0.10901181347E+03  0.23362539967E+03  0.25902204952E+03  0.12699999809E+01 0.  1.
</event>
<event>
 5   0  0.1488510E-01  0.5552047E+03  0.7818609E-02  0.1000296E+00
        2   -1    0    0  501    0  0.00000000000E+00  0.00000000000E+00  0.23569799524E+03  0.23569799525E+03  0.25500000920E-02 0.  1.
       -2   -1    0    0    0  501  0.00000000000E+00  0.00000000000E+00 -0.32695681301E+03  0.32695681302E+03  0.25500000920E-02 0. -1.
    10030    2    1    2    0    0  0.00000000000E+00  0.00000000000E+00 -0.91258817778E+02  0.56265480828E+03  0.55520470230E+03 0.  0.
        5    1    3    3  502    0  0.38964446326E+02 -0.91029203805E+02 -0.30840875413E+03  0.32394844288E+03  0.46999998093E+01 0. -1.
       -5    1    3    3    0  502 -0.38964446326E+02  0.91029203805E+02  0.21714993635E+03  0.23870636539E+03  0.46999998093E+01 0.  1.
</event>
<event>
 5   0  0.8860626E-02  0.4548411E+03  0.7818609E-02  0.1026288E+00
        1   -1    0    0  501    0  0.00000000000E+00  0.00000000000E+00  0.87124753103E+03  0.87124753105E+03  0.50400001928E-02 0. -1.
       -1   -1    0    0    0  501  0.00000000000E+00  0.00000000000E+00 -0.59363263617E+02  0.59363263831E+02  0.50400001928E-02 0.  1.
    10030    2    1    2    0    0  0.00000000000E+00  0.00000000000E+00  0.81188426742E+03  0.93061079488E+03  0.45484105781E+03 0.  0.
        3    1    3    3  502    0  0.65418938003E+02  0.18174738945E+03  0.65153476659E+03  0.67956553275E+03  0.10100000352E+00 0. -1.
       -3    1    3    3    0  502 -0.65418938003E+02 -0.18174738945E+03  0.16034950083E+03  0.25104526213E+03  0.10100000352E+00 0.  1.
</event>
<event>
 5   0  0.1488510E-01  0.5918922E+03  0.7818609E-02  0.9922371E-01
       -2   -1    0    0    0  501  0.00000000000E+00  0.00000000000E+00  0.45870258328E+02  0.45870258399E+02  0.25500000920E-02 0. -1.
        2   -1    0    0  501    0  0.00000000000E+00  0.00000000000E+00 -0.19093871605E+04  0.19093871605E+04  0.25500000920E-02 0.  1.
    10030    2    1    2    0    0  0.00000000000E+00  0.00000000000E+00 -0.18635169021E+04  0.19552574189E+04  0.59189216034E+03 0.  0.
        5    1    3    3  502    0 -0.16004577826E+03  0.13652886137E+03 -0.24430790093E+03  0.32243328237E+03  0.46999998093E+01 0. -1.
       -5    1    3    3    0  502  0.16004577826E+03 -0.13652886137E+03 -0.16192090012E+04  0.16328241365E+04  0.46999998093E+01 0.  1.
</event>
<event>
 5   0  0.8860626E-02  0.6065890E+03  0.7818609E-02  0.9891829E-01
        1   -1    0    0  501    0  0.00000000000E+00  0.00000000000E+00  0.44527149160E+03  0.44527149163E+03  0.50400001928E-02 0.  1.
       -1   -1    0    0    0  501  0.00000000000E+00  0.00000000000E+00 -0.20658757831E+03  0.20658757837E+03  0.50400001928E-02 0. -1.
    10030    2    1    2    0    0  0.00000000000E+00  0.00000000000E+00  0.23868391329E+03  0.65185907000E+03  0.60658901793E+03 0.  0.
        3    1    3    3  502    0 -0.54470291288E+02 -0.26707685544E+03  0.26227383332E+03  0.37826529472E+03  0.10100000352E+00 0. -1.
       -3    1    3    3    0  502  0.54470291288E+02  0.26707685544E+03 -0.23589920030E+02  0.27359377528E+03  0.10100000352E+00 0.  1.
</event>
<event>
 5   0  0.1488510E-01  0.6004178E+03  0.7818609E-02  0.9904540E-01
       -2   -1    0    0    0  501  0.00000000000E+00  0.00000000000E+00  0.53625233419E+03  0.53625233420E+03  0.25500000920E-02 0. -1.
        2   -1    0    0  501    0  0.00000000000E+00  0.00000000000E+00 -0.16806527780E+03  0.16806527782E+03  0.25500000920E-02 0.  1.
    10030    2    1    2    0    0  0.00000000000E+00  0.00000000000E+00  0.36818705639E+03  0.70431761202E+03  0.60041784626E+03 0.  0.
        5    1    3    3  502    0 -0.14825905241E+03 -0.62428129582E+02 -0.11318804563E+03  0.19675274244E+03  0.46999998093E+01 0.  1.
       -5    1    3    3    0  502  0.14825905241E+03  0.62428129582E+02  0.48137510202E+03  0.50756486958E+03  0.46999998093E+01 0. -1.
</event>
<event>
 5   0  0.1502642E-01  0.5168565E+03  0.7818609E-02  0.1009470E+00
        2   -1    0    0  501    0  0.00000000000E+00  0.00000000000E+00  0.58005880963E+03  0.58005880964E+03  0.25500000920E-02 0. -1.
       -2   -1    0    0    0  501  0.00000000000E+00  0.00000000000E+00 -0.11513513965E+03  0.11513513968E+03  0.25500000920E-02 0.  1.
    10030    2    1    2    0    0  0.00000000000E+00  0.00000000000E+00  0.46492366998E+03  0.69519394931E+03  0.51685646775E+03 0.  0.
        2    1    3    3  502    0 -0.97815041977E+02  0.40351042549E+02 -0.84663614441E+02  0.13551352954E+03  0.25500000920E-02 0.  1.
       -2    1    3    3    0  502  0.97815041977E+02 -0.40351042549E+02  0.54958728442E+03  0.55968041977E+03  0.25500000920E-02 0. -1.
</event>
<event>
 5   0  0.9411028E-02  0.6458562E+03  0.7818609E-02  0.9814586E-01
        1   -1    0    0  501    0  0.00000000000E+00  0.00000000000E+00  0.37734624873E+03  0.37734624876E+03  0.50400001928E-02 0. -1.
       -1   -1    0    0    0  501  0.00000000000E+00  0.00000000000E+00 -0.27635778481E+03  0.27635778485E+03  0.50400001928E-02 0.  1.
    10030    2    1    2    0    0  0.00000000000E+00  0.00000000000E+00  0.10098846392E+03  0.65370403361E+03  0.64585624849E+03 0.  0.
        4    1    3    3  502    0  0.51131022181E+02 -0.29116704456E+03 -0.81039962253E+02  0.30653175635E+03  0.12699999809E+01 0.  1.
       -4    1    3    3    0  502 -0.51131022181E+02  0.29116704456E+03  0.18202842617E+03  0.34717227727E+03  0.12699999809E+01 0. -1.
</event>
<event>
 5   0  0.9177281E-02  0.5933571E+03  0.7818609E-02  0.9919285E-01
       -1   -1    0    0    0  501  0.00000000000E+00  0.00000000000E+00  0.33713205619E+03  0.33713205623E+03  0.50400001928E-02 0. -1.
        1   -1    0    0  501    0  0.00000000000E+00  0.00000000000E+00 -0.26107921952E+03  0.26107921957E+03  0.50400001928E-02 0.  1.
    10030    2    1    2    0    0  0.00000000000E+00  0.00000000000E+00  0.76052836671E+02  0.59821127581E+03  0.59335714080E+03 0.  0.
        1    1    3    3  502    0  0.19237795810E+03  0.42169669825E+02 -0.18566846429E+03  0.27066647091E+03  0.50400001928E-02 0.  1.
       -1    1    3    3    0  502 -0.19237795810E+03 -0.42169669825E+02  0.26172130096E+03  0.32754480490E+03  0.50400001928E-02 0. -1.
</event>
<event>
 5   0  0.1483942E-01  0.6022260E+03  0.7818609E-02  0.9900798E-01
        2   -1    0    0  501    0  0.00000000000E+00  0.00000000000E+00  0.41337039145E+03  0.41337039145E+03  0.25500000920E-02 0. -1.
       -2   -1    0    0    0  501  0.00000000000E+00  0.00000000000E+00 -0.21934093468E+03  0.21934093469E+03  0.25500000920E-02 0.  1.
    10030    2    1    2    0    0  0.00000000000E+00  0.00000000000E+00  0.19402945677E+03  0.63271132615E+03  0.60222603077E+03 0.  0.
        4    1    3    3  502    0  0.18982328304E+03  0.21444688878E+03 -0.68222723250E+00  0.28639557473E+03  0.12699999809E+01 0.  1.
       -4    1    3    3    0  502 -0.18982328304E+03 -0.21444688878E+03  0.19471168400E+03  0.34631575141E+03  0.12699999809E+01 0. -1.
</event>
<event>
 5   0  0.1483942E-01  0.5944140E+03  0.7818609E-02  0.9917063E-01
       -2   -1    0    0    0  501  0.00000000000E+00  0.00000000000E+00  0.40786510714E+03  0.40786510715E+03  0.25500000920E-02 0. -1.
        2   -1    0    0  501    0  0.00000000000E+00  0.00000000000E+00 -0.21657163763E+03  0.21657163765E+03  0.25500000920E-02 0.  1.
    10030    2    1    2    0    0  0.00000000000E+00  0.00000000000E+00  0.19129346951E+03  0.62443674479E+03  0.59441404490E+03 0.  0.
        4    1    3    3  502    0 -0.28786100196E+03  0.43776884286E+02  0.15823823398E+03  0.33139300481E+03  0.12699999809E+01 0.  1.
       -4    1    3    3    0  502  0.28786100196E+03 -0.43776884286E+02  0.33055235529E+02  0.29304373998E+03  0.12699999809E+01 0. -1.
</event>
<event>
 5   0  0.1532571E-01  0.5818535E+03  0.7818609E-02  0.9943786E-01
        2   -1    0    0  501    0  0.00000000000E+00  0.00000000000E+00  0.19360929598E+03  0.19360929600E+03  0.25500000920E-02 0.  1.
       -2   -1    0    0    0  501  0.00000000000E+00  0.00000000000E+00 -0.43716074256E+03  0.43716074256E+03  0.25500000920E-02 0. -1.
    10030    2    1    2    0    0  0.00000000000E+00  0.00000000000E+00 -0.24355144657E+03  0.63077003856E+03  0.58185353348E+03 0.  0.
        1    1    3    3  502    0 -0.24519592036E+03 -0.10072848550E+03  0.81821615032E+01  0.26520598588E+03  0.50400001928E-02 0.  1.
       -1    1    3    3    0  502  0.24519592036E+03  0.10072848550E+03 -0.25173360808E+03  0.36556405268E+03  0.50400001928E-02 0. -1.
</event>
<event>
 5   0  0.1488510E-01  0.6183571E+03  0.7818609E-02  0.9868036E-01
       -2   -1    0    0    0  501  0.00000000000E+00  0.00000000000E+00  0.10602941257E+03  0.10602941260E+03  0.25500000920E-02 0.  1.
        2   -1    0    0  501    0  0.00000000000E+00  0.00000000000E+00 -0.90155533488E+03  0.90155533488E+03  0.25500000920E-02 0. -1.
    10030    2    1    2    0    0  0.00000000000E+00  0.00000000000E+00 -0.79552592230E+03  0.10075847475E+04  0.61835712198E+03 0.  0.
        5    1    3    3  502    0 -0.25648963142E+03  0.14728142409E+03 -0.54432823053E+03  0.61951114717E+03  0.46999998093E+01 0. -1.
       -5    1    3    3    0  502  0.25648963142E+03 -0.14728142409E+03 -0.25119769177E+03  0.38807360031E+03  0.46999998093E+01 0.  1.
</event>
<event>
 5   0  0.8860626E-02  0.5978544E+03  0.7818609E-02  0.9909868E-01
       -1   -1    0    0    0  501  0.00000000000E+00  0.00000000000E+00  0.59766274322E+03  0.59766274324E+03  0.50400001928E-02 0. -1.
        1   -1    0    0  501    0  0.00000000000E+00  0.00000000000E+00 -0.14951152546E+03  0.14951152554E+03  0.50400001928E-02 0.  1.
    10030    2    1    2    0    0  0.00000000000E+00  0.00000000000E+00  0.44815121776E+03  0.74717426878E+03  0.59785439193E+03 0.  0.
        3    1    3    3  502    0 -0.23255023016E+03  0.93391541301E+02  0.20415139657E+02  0.25143265035E+03  0.10100000352E+00 0.  1.
       -3    1    3    3    0  502  0.23255023016E+03 -0.93391541301E+02  0.42773607810E+03  0.49574161843E+03  0.10100000352E+00 0. -1.
</event>
<event>
 5   0  0.9177281E-02  0.5921840E+03  0.7818609E-02  0.9921756E-01
        1   -1    0    0  501    0  0.00000000000E+00  0.00000000000E+00  0.62421994215E+03  0.62421994217E+03  0.50400001928E-02 0. -1.
       -1   -1    0    0    0  501  0.00000000000E+00  0.00000000000E+00 -0.14044805994E+03  0.14044806003E+03  0.50400001928E-02 0.  1.
    10030    2    1    2    0    0  0.00000000000E+00  0.00000000000E+00  0.48377188221E+03  0.76466800220E+03  0.59218402509E+03 0.  0.
        1    1    3    3  502    0 -0.41704995448E+02 -0.20860037106E+03 -0.24055797374E+02  0.21408433587E+03  0.50400001928E-02 0.  1.
       -1    1    3    3    0  502  0.41704995448E+02  0.20860037106E+03  0.50782767958E+03  0.55058366633E+03  0.50400001928E-02 0. -1.
</event>
<event>
 5   0  0.1502642E-01  0.5263297E+03  0.7818609E-02  0.1007126E+00
       -2   -1    0    0    0  501  0.00000000000E+00  0.00000000000E+00  0.13795952357E+03  0.13795952359E+03  0.25500000920E-02 0. -1.
        2   -1    0    0  501    0  0.00000000000E+00  0.00000000000E+00 -0.50200038371E+03  0.50200038371E+03  0.25500000920E-02 0.  1.
    10030    2    1    2    0    0  0.00000000000E+00  0.00000000000E+00 -0.36404086014E+03  0.63995990730E+03  0.52632968290E+03 0.  0.
        2    1    3    3  502    0  0.35547230506E+02  0.11283789842E+02 -0.49877085344E+03  0.50016326710E+03  0.25500000920E-02 0.  1.
       -2    1    3    3    0  502 -0.35547230506E+02 -0.11283789842E+02  0.13472999330E+03  0.13979664020E+03  0.25500000920E-02 0. -1.
</event>
<event>
 5   0  0.9497860E-02  0.5991465E+03  0.7818609E-02  0.9907178E-01
        1   -1    0    0  501    0  0.00000000000E+00  0.00000000000E+00  0.84560392981E+03  0.84560392982E+03  0.50400001928E-02 0.  1.
       -1   -1    0    0    0  501  0.00000000000E+00  0.00000000000E+00 -0.10613022965E+03  0.10613022977E+03  0.50400001928E-02 0. -1.
    10030    2    1    2    0    0  0.00000000000E+00  0.00000000000E+00  0.73947370016E+03  0.95173415959E+03  0.59914652407E+03 0.  0.
        5    1    3    3  502    0  0.75614741182E+02  0.24236229764E+03  0.11724808039E+03  0.27968960430E+03  0.46999998093E+01 0. -1.
       -5    1    3    3    0  502 -0.75614741182E+02 -0.24236229764E+03  0.62222561976E+03  0.67204455529E+03  0.46999998093E+01 0.  1.
</event>
<event>
 5   0  0.9177281E-02  0.5966290E+03  0.7818609E-02  0.9912425E-01
       -1   -1    0    0    0  501  0.00000000000E+00  0.00000000000E+00  0.27614491492E+03  0.27614491496E+03  0.50400001928E-02 0.  1.
        1   -1    0    0  501    0  0.00000000000E+00  0.00000000000E+00 -0.32226395050E+03  0.32226395054E+03  0.50400001928E-02 0. -1.
    10030    2    1    2    0    0  0.00000000000E+00  0.00000000000E+00 -0.46119035587E+02  0.59840886550E+03  0.59662903455E+03 0.  0.
        1    1    3    3  502    0  0.10124528238E+03  0.12818771245E+03 -0.27342157874E+03  0.31849969635E+03  0.50400001928E-02 0. -1.
       -1    1    3    3    0  502 -0.10124528238E+03 -0.12818771245E+03  0.22730254316E+03  0.27990916916E+03  0.50400001928E-02 0.  1.
</event>
<event>
 5   0  0.9420349E-02  0.5916628E+03  0.7818609E-02  0.9922856E-01
       -1   -1    0    0    0  501  0.00000000000E+00  0.00000000000E+00  0.90271075573E+02  0.90271075713E+02  0.50400001928E-02 0. -1.
        1   -1    0    0  501    0  0.00000000000E+00  0.00000000000E+00 -0.96948253947E+03  0.96948253948E+03  0.50400001928E-02 0.  1.
    10030    2    1    2    0    0  0.00000000000E+00  0.00000000000E+00 -0.87921146389E+03  0.10597536152E+04  0.59166284882E+03 0.  0.
        2    1    3    3  502    0  0.51584300355E+02  0.91692603299E+02 -0.93484261718E+03  0.94074395691E+03  0.25500000920E-02 0.  1.
       -2    1    3    3    0  502 -0.51584300355E+02 -0.91692603299E+02  0.55631153290E+02  0.11900965829E+03  0.25500000920E-02 0. -1.
</event>
<event>
 5   0  0.1502642E-01  0.5922862E+03  0.7818609E-02  0.9921540E-01
        2   -1    0    0  501    0  0.00000000000E+00  0.00000000000E+00  0.83438527643E+03  0.83438527643E+03  0.25500000920E-02 0.  1.
       -2   -1    0    0    0  501  0.00000000000E+00  0.00000000000E+00 -0.10510818702E+03  0.10510818705E+03  0.25500000920E-02 0. -1.
    10030    2    1    2    0    0  0.00000000000E+00  0.00000000000E+00  0.72927708941E+03  0.93949346348E+03  0.59228615954E+03 0.  0.
        2    1    3    3  502    0 -0.15402962324E+03  0.17632800634E+03  0.65228214537E+03  0.69302863420E+03  0.25500000920E-02 0.  1.
       -2    1    3    3    0  502  0.15402962324E+03 -0.17632800634E+03  0.76994944046E+02  0.24646482928E+03  0.25500000920E-02 0. -1.
</event>
<event>
 5   0  0.1513339E-01  0.6008906E+03  0.7818609E-02  0.9903560E-01
       -2   -1    0    0    0  501  0.00000000000E+00  0.00000000000E+00  0.16155255896E+03  0.16155255898E+03  0.25500000920E-02 0. -1.
        2   -1    0    0  501    0  0.00000000000E+00  0.00000000000E+00 -0.55874920314E+03  0.55874920314E+03  0.25500000920E-02 0.  1.
    10030    2    1    2    0    0  0.00000000000E+00  0.00000000000E+00 -0.39719664417E+03  0.72030176212E+03  0.60089055108E+03 0.  0.
        3    1    3    3  502    0  0.80377281001E+02  0.10214365129E+03  0.12610653218E+03  0.18109859320E+03  0.10100000352E+00 0. -1.
       -3    1    3    3    0  502 -0.80377281001E+02 -0.10214365129E+03 -0.52330317635E+03  0.53920316893E+03  0.10100000352E+00 0.  1.
</event>
<event>
 5   0  0.9497860E-02  0.5916635E+03  0.7818609E-02  0.9922854E-01
        1   -1    0    0  501    0  0.00000000000E+00  0.00000000000E+00  0.16675856796E+03  0.16675856804E+03  0.50400001928E-02 0. -1.
       -1   -1    0    0    0  501  0.00000000000E+00  0.00000000000E+00 -0.52480924353E+03  0.52480924355E+03  0.50400001928E-02 0.  1.
    10030    2    1    2    0    0  0.00000000000E+00  0.00000000000E+00 -0.35805067556E+03  0.69156781159E+03  0.59166354608E+03 0.  0.
        5    1    3    3  502    0 -0.51873851374E+02  0.25983626321E+03 -0.33271316399E+03  0.42535387576E+03  0.46999998093E+01 0.  1.
       -5    1    3    3    0  502  0.51873851374E+02 -0.25983626321E+03 -0.25337511575E+02  0.26621393583E+03  0.46999998093E+01 0. -1.
</event>
<event>
 5   0  0.9177281E-02  0.5945818E+03  0.7818609E-02  0.9916711E-01
        1   -1    0    0  501    0  0.00000000000E+00  0.00000000000E+00  0.12860729819E+04  0.12860729819E+04  0.50400001928E-02 0. -1.
       -1   -1    0    0    0  501  0.00000000000E+00  0.00000000000E+00 -0.68722279650E+02  0.68722279835E+02  0.50400001928E-02 0.  1.
    10030    2    1    2    0    0  0.00000000000E+00  0.00000000000E+00  0.12173507022E+04  0.13547952617E+04  0.59458175970E+03 0.  0.
        1    1    3    3  502    0  0.91087049991E+01  0.13906225727E+03  0.12070353640E+04  0.12150537642E+04  0.50400001928E-02 0. -1.
       -1    1    3    3    0  502 -0.91087049991E+01 -0.13906225727E+03  0.10315338232E+02  0.13974149753E+03  0.50400001928E-02 0.  1.
</event>
<event>
 5   0  0.8860626E-02  0.5505805E+03  0.7818609E-02  0.1001360E+00
        1   -1    0    0  501    0  0.00000000000E+00  0.00000000000E+00  0.29671806478E+03  0.29671806482E+03  0.50400001928E-02 0.  1.
       -1   -1    0    0    0  501  0.00000000000E+00  0.00000000000E+00 -0.25540985133E+03  0.25540985138E+03  0.50400001928E-02 0. -1.
    10030    2    1    2    0    0  0.00000000000E+00  0.00000000000E+00  0.41308213451E+02  0.55212791619E+03  0.55058048217E+03 0.  0.
        3    1    3    3  502    0  0.92401826497E+02  0.53594671274E+02  0.27508795422E+03  0.29509977819E+03  0.10100000352E+00 0.  1.
       -3    1    3    3    0  502 -0.92401826497E+02 -0.53594671274E+02 -0.23377974077E+03  0.25702813800E+03  0.10100000352E+00 0. -1.
</event>
<event>
 5   0  0.1488510E-01  0.6445679E+03  0.7818609E-02  0.9817026E-01
       -2   -1    0    0    0  501  0.00000000000E+00  0.00000000000E+00  0.73397388290E+02  0.73397388335E+02  0.25500000920E-02 0. -1.
        2   -1    0    0  501    0  0.00000000000E+00  0.00000000000E+00 -0.14151313627E+04  0.14151313627E+04  0.25500000920E-02 0.  1.
    10030    2    1    2    0    0  0.00000000000E+00  0.00000000000E+00 -0.13417339744E+04  0.14885287510E+04  0.64456790532E+03 0.  0.
        5    1    3    3  502    0 -0.83078535280E+01 -0.38378620943E+02  0.67772565071E+02  0.78467506334E+02  0.46999998093E+01 0. -1.
       -5    1    3    3    0  502  0.83078535280E+01  0.38378620943E+02 -0.14095065395E+04  0.14100612447E+04  0.46999998093E+01 0.  1.
</event>
<event>
 5   0  0.9497860E-02  0.6131951E+03  0.7818609E-02  0.9878402E-01
       -1   -1    0    0    0  501  0.00000000000E+00  0.00000000000E+00  0.62053402763E+03  0.62053402765E+03  0.50400001928E-02 0.  1.
        1   -1    0    0  501    0  0.00000000000E+00  0.00000000000E+00 -0.15148572535E+03  0.15148572544E+03  0.50400001928E-02 0. -1.
    10030    2    1    2    0    0  0.00000000000E+00  0.00000000000E+00  0.46904830228E+03  0.77201975308E+03  0.61319506626E+03 0.  0.
        5    1    3    3  502    0 -0.22904161999E+03  0.19891043988E+03  0.17886315288E+03  0.35219248180E+03  0.46999998093E+01 0. -1.
       -5    1    3    3    0  502  0.22904161999E+03 -0.19891043988E+03  0.29018514940E+03  0.41982727128E+03  0.46999998093E+01 0.  1.
</event>
<event>
 5   0  0.1502642E-01  0.7213596E+03  0.7818609E-02  0.9681386E-01
        2   -1    0    0  501    0  0.00000000000E+00  0.00000000000E+00  0.32516045950E+03  0.32516045951E+03  0.25500000920E-02 0.  1.
       -2   -1    0    0    0  501  0.00000000000E+00  0.00000000000E+00 -0.40007911234E+03  0.40007911235E+03  0.25500000920E-02 0. -1.
    10030    2    1    2    0    0  0.00000000000E+00  0.00000000000E+00 -0.74918652845E+02  0.72523957186E+03  0.72135957195E+03 0.  0.
        2    1    3    3  502    0  0.16266124593E+02 -0.68333725326E+02 -0.39313586954E+03  0.39936186192E+03  0.25500000920E-02 0. -1.
       -2    1    3    3    0  502 -0.16266124593E+02  0.68333725326E+02  0.31821721670E+03  0.32587770994E+03  0.25500000920E-02 0.  1.
</event>
<event>
 5   0  0.1502642E-01  0.5233948E+03  0.7818609E-02  0.1007847E+00
        2   -1    0    0  501    0  0.00000000000E+00  0.00000000000E+00  0.44753160895E+03  0.44753160896E+03  0.25500000920E-02 0. -1.
       -2   -1    0    0    0  501  0.00000000000E+00  0.00000000000E+00 -0.15302950431E+03  0.15302950433E+03  0.25500000920E-02 0.  1.
    10030    2    1    2    0    0  0.00000000000E+00  0.00000000000E+00  0.29450210464E+03  0.60056111328E+03  0.52339484249E+03 0.  0.
        2    1    3    3  502    0 -0.16829878574E+02 -0.26106813813E+03  0.13949226581E+03  0.29647581653E+03  0.25500000920E-02 0.  1.
       -2    1    3    3    0  502  0.16829878574E+02  0.26106813813E+03  0.15500983883E+03  0.30408529675E+03  0.25500000920E-02 0. -1.
</event>
<event>
 5   0  0.1488510E-01  0.6062331E+03  0.7818609E-02  0.9892558E-01
       -2   -1    0    0    0  501  0.00000000000E+00  0.00000000000E+00  0.56520246673E+02  0.56520246731E+02  0.25500000920E-02 0. -1.
        2   -1    0    0  501    0  0.00000000000E+00  0.00000000000E+00 -0.16256056466E+04  0.16256056466E+04  0.25500000920E-02 0.  1.
    10030    2    1    2    0    0  0.00000000000E+00  0.00000000000E+00 -0.15690854000E+04  0.16821258934E+04  0.60623306473E+03 0.  0.
        5    1    3    3  502    0 -0.27877983854E+03 -0.99961999599E+02 -0.96322555404E+03  0.10077381394E+04  0.46999998093E+01 0.  1.
       -5    1    3    3    0  502  0.27877983854E+03  0.99961999599E+02 -0.60585984593E+03  0.67438775393E+03  0.46999998093E+01 0. -1.
</event>
<event>
 5   0  0.1532571E-01  0.6104127E+03  0.7818609E-02  0.9884035E-01
       -2   -1    0    0    0  501  0.00000000000E+00  0.00000000000E+00  0.17134918208E+03  0.17134918210E+03  0.25500000920E-02 0. -1.
        2   -1    0    0  501    0  0.00000000000E+00  0.00000000000E+00 -0.54363206349E+03  0.54363206349E+03  0.25500000920E-02 0.  1.
    10030    2    1    2    0    0  0.00000000000E+00  0.00000000000E+00 -0.37228288141E+03  0.71498124559E+03  0.61041267824E+03 0.  0.
        1    1    3    3  502    0 -0.11997783799E+03  0.17489244882E+03 -0.44321314989E+03  0.49134503816E+03  0.50400001928E-02 0.  1.
       -1    1    3    3    0  502  0.11997783799E+03 -0.17489244882E+03  0.70930268476E+02  0.22363620743E+03  0.50400001928E-02 0. -1.
</event>
<event>
 5   0  0.1502642E-01  0.5771543E+03  0.7818609E-02  0.9953971E-01
       -2   -1    0    0    0  501  0.00000000000E+00  0.00000000000E+00  0.13937128860E+03  0.13937128863E+03  0.25500000920E-02 0.  1.
        2   -1    0    0  501    0  0.00000000000E+00  0.00000000000E+00 -0.59751746453E+03  0.59751746453E+03  0.25500000920E-02 0. -1.
    10030    2    1    2    0    0  0.00000000000E+00  0.00000000000E+00 -0.45814617592E+03  0.73688875316E+03  0.57715432600E+03 0.  0.
        2    1    3    3  502    0 -0.18816670062E+03  0.17865361299E+03 -0.67811627571E+02  0.26818321628E+03  0.25500000920E-02 0.  1.
       -2    1    3    3    0  502  0.18816670062E+03 -0.17865361299E+03 -0.39033454835E+03  0.46870553688E+03  0.25500000920E-02 0. -1.
</event>
<event>
 5   0  0.1532571E-01  0.5966535E+03  0.7818609E-02  0.9912373E-01
       -2   -1    0    0    0  501  0.00000000000E+00  0.00000000000E+00  0.55126436675E+02  0.55126436734E+02  0.25500000920E-02 0.  1.
        2   -1    0    0  501    0  0.00000000000E+00  0.00000000000E+00 -0.16144497630E+04  0.16144497630E+04  0.25500000920E-02 0. -1.
    10030    2    1    2    0    0  0.00000000000E+00  0.00000000000E+00 -0.15593233263E+04  0.16695761997E+04  0.59665354328E+03 0.  0.
        1    1    3    3  502    0  0.67084115651E+02  0.17537389464E+03 -0.13096258386E+03  0.22892680029E+03  0.50400001928E-02 0.  1.
       -1    1    3    3    0  502 -0.67084115651E+02 -0.17537389464E+03 -0.14283607425E+04  0.14406493995E+04  0.50400001928E-02 0. -1.
</event>
<event>
 5   0  0.9420349E-02  0.6033443E+03  0.7818609E-02  0.9898492E-01
        1   -1    0    0  501    0  0.00000000000E+00  0.00000000000E+00  0.47318333141E+02  0.47318333409E+02  0.50400001928E-02 0.  1.
       -1   -1    0    0    0  501  0.00000000000E+00  0.00000000000E+00 -0.19232731457E+04  0.19232731457E+04  0.50400001928E-02 0. -1.
    10030    2    1    2    0    0  0.00000000000E+00  0.00000000000E+00 -0.18759548126E+04  0.19705914792E+04  0.60334427884E+03 0.  0.
        2    1    3    3  502    0 -0.21782066601E+03  0.14326476897E+03 -0.14336896972E+04  0.14572016966E+04  0.25500000920E-02 0. -1.
       -2    1    3    3    0  502  0.21782066601E+03 -0.14326476897E+03 -0.44226511535E+03  0.51338978256E+03  0.25500000920E-02 0.  1.
</event>
<event>
 5   0  0.9411028E-02  0.6033119E+03  0.7818609E-02  0.9898559E-01
        1   -1    0    0  501    0  0.00000000000E+00  0.00000000000E+00  0.54830976971E+03  0.54830976973E+03  0.50400001928E-02 0.  1.
       -1   -1    0    0    0  501  0.00000000000E+00  0.00000000000E+00 -0.16595784314E+03  0.16595784322E+03  0.50400001928E-02 0. -1.
    10030    2    1    2    0    0  0.00000000000E+00  0.00000000000E+00  0.38235192657E+03  0.71426761295E+03  0.60331188216E+03 0.  0.
        4    1    3    3  502    0  0.28167015345E+03 -0.10793933604E+03  0.18834488514E+03  0.35561831261E+03  0.12699999809E+01 0.  1.
       -4    1    3    3    0  502 -0.28167015345E+03  0.10793933604E+03  0.19400704142E+03  0.35864930033E+03  0.12699999809E+01 0. -1.
</event>
<event>
 5   0  0.9411028E-02  0.6014463E+03  0.7818609E-02  0.9902410E-01
       -1   -1    0    0    0  501  0.00000000000E+00  0.00000000000E+00  0.10938325441E+03  0.10938325452E+03  0.50400001928E-02 0. -1.
        1   -1    0    0  501    0  0.00000000000E+00  0.00000000000E+00 -0.82676665642E+03  0.82676665643E+03  0.50400001928E-02 0.  1.
    10030    2    1    2    0    0  0.00000000000E+00  0.00000000000E+00 -0.71738340201E+03  0.93614991096E+03  0.60144634865E+03 0.  0.
        4    1    3    3  502    0  0.19609594656E+03  0.17120717866E+03 -0.12435065215E+03  0.28849647463E+03  0.12699999809E+01 0. -1.
       -4    1    3    3    0  502 -0.19609594656E+03 -0.17120717866E+03 -0.59303274986E+03  0.64765343633E+03  0.12699999809E+01 0.  1.
</event>
<event>
 5   0  0.1483942E-01  0.6116460E+03  0.7818609E-02  0.9881535E-01
       -2   -1    0    0    0  501  0.00000000000E+00  0.00000000000E+00  0.70264209301E+02  0.70264209347E+02  0.25500000920E-02 0.  1.
        2   -1    0    0  501    0  0.00000000000E+00  0.00000000000E+00 -0.13310859592E+04  0.13310859592E+04  0.25500000920E-02 0. -1.
    10030    2    1    2    0    0  0.00000000000E+00  0.00000000000E+00 -0.12608217499E+04  0.14013501685E+04  0.61164598411E+03 0.  0.
        4    1    3    3  502    0 -0.64786115835E+02  0.14605414425E+03 -0.12278470718E+04  0.12381999428E+04  0.12699999809E+01 0. -1.
       -4    1    3    3    0  502  0.64786115835E+02 -0.14605414425E+03 -0.32974678134E+02  0.16315022573E+03  0.12699999809E+01 0.  1.
</event>
<event>
 5   0  0.9497860E-02  0.5929028E+03  0.7818609E-02  0.9920241E-01
       -1   -1    0    0    0  501  0.00000000000E+00  0.00000000000E+00  0.22596154240E+03  0.22596154246E+03  0.50400001928E-02 0.  1.
        1   -1    0    0  501    0  0.00000000000E+00  0.00000000000E+00 -0.38893094765E+03  0.38893094768E+03  0.50400001928E-02 0. -1.
    10030    2    1    2    0    0  0.00000000000E+00  0.00000000000E+00 -0.16296940525E+03  0.61489249014E+03  0.59290281445E+03 0.  0.
        5    1    3    3  502    0 -0.20409099190E+03  0.12620858758E+03  0.98979384521E+02  0.25961654244E+03  0.46999998093E+01 0.  1.
       -5    1    3    3    0  502  0.20409099190E+03 -0.12620858758E+03 -0.26194878977E+03  0.35527594770E+03  0.46999998093E+01 0. -1.
</event>
<event>
 5   0  0.9420349E-02  0.5934884E+03  0.7818609E-02  0.9919008E-01
        1   -1    0    0  501    0  0.00000000000E+00  0.00000000000E+00  0.66084051012E+03  0.66084051014E+03  0.50400001928E-02 0. -1.
       -1   -1    0    0    0  501  0.00000000000E+00  0.00000000000E+00 -0.13325018099E+03  0.13325018109E+03  0.50400001928E-02 0.  1.
    10030    2    1    2    0    0  0.00000000000E+00  0.00000000000E+00  0.52759032913E+03  0.79409069123E+03  0.59348839121E+03 0.  0.
        2    1    3    3  502    0 -0.26306916839E+03 -0.12849271997E+03  0.19905241262E+03  0.35403054871E+03  0.25500000920E-02 0.  1.
       -2    1    3    3    0  502  0.26306916839E+03  0.12849271997E+03  0.32853791651E+03  0.44006014252E+03  0.25500000920E-02 0. -1.
</event>
<event>
 5   0  0.9411028E-02  0.5914355E+03  0.7818609E-02  0.9923336E-01
        1   -1    0    0  501    0  0.00000000000E+00  0.00000000000E+00  0.12215984585E+04  0.12215984586E+04  0.50400001928E-02 0. -1.
       -1   -1    0    0    0  501  0.00000000000E+00  0.00000000000E+00 -0.71585709569E+02  0.71585709747E+02  0.50400001928E-02 0.  1.
    10030    2    1    2    0    0  0.00000000000E+00  0.00000000000E+00  0.11500127490E+04  0.12931841683E+04  0.59143551664E+03 0.  0.
        4    1    3    3  502    0  0.15285103887E+03  0.19150602618E+02  0.23079807725E+02  0.15577058801E+03  0.12699999809E+01 0.  1.
       -4    1    3    3    0  502 -0.15285103887E+03 -0.19150602618E+02  0.11269329412E+04  0.11374135803E+04  0.12699999809E+01 0. -1.
</event>
<event>
 5   0  0.9411028E-02  0.6749884E+03  0.7818609E-02  0.9760988E-01
       -1   -1    0    0    0  501  0.00000000000E+00  0.00000000000E+00  0.26897759822E+03  0.26897759826E+03  0.50400001928E-02 0.  1.
        1   -1    0    0  501    0  0.00000000000E+00  0.00000000000E+00 -0.42346399778E+03  0.42346399781E+03  0.50400001928E-02 0. -1.
    10030    2    1    2    0    0  0.00000000000E+00  0.00000000000E+00 -0.15448639956E+03  0.69244159607E+03  0.67498838236E+03 0.  0.
        4    1    3    3  502    0 -0.24977201329E+03  0.21930690154E+03 -0.17257832257E+02  0.33283783042E+03  0.12699999809E+01 0.  1.
       -4    1    3    3    0  502  0.24977201329E+03 -0.21930690154E+03 -0.13722856730E+03  0.35960376565E+03  0.12699999809E+01 0. -1.
</event>
<event>
 5   0  0.1513339E-01  0.5987937E+03  0.7818609E-02  0.9907912E-01
        2   -1    0    0  501    0  0.00000000000E+00  0.00000000000E+00  0.15461034805E+04  0.15461034805E+04  0.25500000920E-02 0. -1.
       -2   -1    0    0    0  501  0.00000000000E+00  0.00000000000E+00 -0.57977019096E+02  0.57977019152E+02  0.25500000920E-02 0.  1.
    10030    2    1    2    0    0  0.00000000000E+00  0.00000000000E+00  0.14881264614E+04  0.16040804997E+04  0.59879369088E+03 0.  0.
        3    1    3    3  502    0 -0.56361925208E+02 -0.18378818888E+03  0.12918791228E+03  0.23161237416E+03  0.10100000352E+00 0.  1.
       -3    1    3    3    0  502  0.56361925208E+02  0.18378818888E+03  0.13589385491E+04  0.13724681255E+04  0.10100000352E+00 0. -1.
</event>
<event>
 5   0  0.9420349E-02  0.6100630E+03  0.7818609E-02  0.9884746E-01
       -1   -1    0    0    0  501  0.00000000000E+00  0.00000000000E+00  0.44544795153E+02  0.44544795438E+02  0.50400001928E-02 0. -1.
        1   -1    0    0  501    0  0.00000000000E+00  0.00000000000E+00 -0.20887785953E+04  0.20887785954E+04  0.50400001928E-02 0.  1.
    10030    2    1    2    0    0  0.00000000000E+00  0.00000000000E+00 -0.20442338002E+04  0.21333233908E+04  0.61006299662E+03 0.  0.
        2    1    3    3  502    0  0.42890179249E+02 -0.21459130865E+02 -0.20755121063E+04  0.20760661274E+04  0.25500000920E-02 0.  1.
       -2    1    3    3    0  502 -0.42890179249E+02  0.21459130865E+02  0.31278306121E+02  0.57257263415E+02  0.25500000920E-02 0. -1.
</event>
<event>
 5   0  0.1513339E-01  0.6016332E+03  0.7818609E-02  0.9902023E-01
        2   -1    0    0  501    0  0.00000000000E+00  0.00000000000E+00  0.14346923990E+03  0.14346923992E+03  0.25500000920E-02 0. -1.
       -2   -1    0    0    0  501  0.00000000000E+00  0.00000000000E+00 -0.63073200401E+03  0.63073200401E+03  0.25500000920E-02 0.  1.
    10030    2    1    2    0    0  0.00000000000E+00  0.00000000000E+00 -0.48726276411E+03  0.77420124393E+03  0.60163324777E+03 0.  0.
        3    1    3    3  502    0  0.13595417875E+03  0.26825608089E+03 -0.25233700663E+03  0.39257972282E+03  0.10100000352E+00 0. -1.
       -3    1    3    3    0  502 -0.13595417875E+03 -0.26825608089E+03 -0.23492575748E+03  0.38162152112E+03  0.10100000352E+00 0.  1.
</event>
<event>
 5   0  0.9497860E-02  0.5992903E+03  0.7818609E-02  0.9906880E-01
       -1   -1    0    0    0  501  0.00000000000E+00  0.00000000000E+00  0.72625162949E+03  0.72625162951E+03  0.50400001928E-02 0.  1.
        1   -1    0    0  501    0  0.00000000000E+00  0.00000000000E+00 -0.12363100599E+03  0.12363100609E+03  0.50400001928E-02 0. -1.
    10030    2    1    2    0    0  0.00000000000E+00  0.00000000000E+00  0.60262062351E+03  0.84988263560E+03  0.59929031230E+03 0.  0.
        5    1    3    3  502    0  0.28944671028E+03  0.45200810406E+02  0.21226438408E+03  0.36180211456E+03  0.46999998093E+01 0. -1.
       -5    1    3    3    0  502 -0.28944671028E+03 -0.45200810406E+02  0.39035623943E+03  0.48808052104E+03  0.46999998093E+01 0.  1.
</event>
<event>
 5   0  0.1513339E-01  0.6012024E+03  0.7818609E-02  0.9902915E-01
        2   -1    0    0  501    0  0.00000000000E+00  0.00000000000E+00  0.88870422743E+03  0.88870422744E+03  0.25500000920E-02 0. -1.
       -2   -1    0    0    0  501  0.00000000000E+00  0.00000000000E+00 -0.10167732913E+03  0.10167732916E+03  0.25500000920E-02 0.  1.
    10030    2    1    2    0    0  0.00000000000E+00  0.00000000000E+00  0.78702689831E+03  0.99038155660E+03  0.60120236941E+03 0.  0.
        3    1    3    3  502    0  0.20031103912E+03 -0.96811291110E+02  0.60506761806E+02  0.23056022403E+03  0.10100000352E+00 0.  1.
       -3    1    3    3    0  502 -0.20031103912E+03  0.96811291110E+02  0.72652013650E+03  0.75982133257E+03  0.10100000352E+00 0. -1.
</event>
<event>
 5   0  0.9177281E-02  0.6024694E+03  0.7818609E-02  0.9900296E-01
       -1   -1    0    0    0  501  0.00000000000E+00  0.00000000000E+00  0.13766265531E+03  0.13766265541E+03  0.50400001928E-02 0.  1.
        1   -1    0    0  501    0  0.00000000000E+00  0.00000000000E+00 -0.65916455166E+03  0.65916455168E+03  0.50400001928E-02 0. -1.
    10030    2    1    2    0    0  0.00000000000E+00  0.00000000000E+00 -0.52150189635E+03  0.79682720709E+03  0.60246939346E+03 0.  0.
        1    1    3    3  502    0 -0.13927090226E+03 -0.10512993443E+02  0.92251084808E+02  0.16738330240E+03  0.50400001928E-02 0.  1.
       -1    1    3    3    0  502  0.13927090226E+03  0.10512993443E+02 -0.61375298116E+03  0.62944390469E+03  0.50400001928E-02 0. -1.
</event>
<event>
 5   0  0.8860626E-02  0.6035147E+03  0.7818609E-02  0.9898141E-01
       -1   -1    0    0    0  501  0.00000000000E+00  0.00000000000E+00  0.12171492753E+03  0.12171492764E+03  0.50400001928E-02 0.  1.
        1   -1    0    0  501    0  0.00000000000E+00  0.00000000000E+00 -0.74812115158E+03  0.74812115160E+03  0.50400001928E-02 0. -1.
    10030    2    1    2    0    0  0.00000000000E+00  0.00000000000E+00 -0.62640622405E+03  0.86983607924E+03  0.60351474482E+03 0.  0.
        3    1    3    3  502    0  0.19953390867E+03 -0.21551826141E+03 -0.21339381348E+03  0.36304108795E+03  0.10100000352E+00 0. -1.
       -3    1    3    3    0  502 -0.19953390867E+03  0.21551826141E+03 -0.41301241056E+03  0.50679499128E+03  0.10100000352E+00 0.  1.
</event>
<event>
 5   0  0.1513339E-01  0.5994194E+03  0.7818609E-02  0.9906611E-01
       -2   -1    0    0    0  501  0.00000000000E+00  0.00000000000E+00  0.12129818515E+03  0.12129818517E+03  0.25500000920E-02 0. -1.
        2   -1    0    0  501    0  0.00000000000E+00  0.00000000000E+00 -0.74053799742E+03  0.74053799742E+03  0.25500000920E-02 0.  1.
    10030    2    1    2    0    0  0.00000000000E+00  0.00000000000E+00 -0.61923981227E+03  0.86183618260E+03  0.59941943623E+03 0.  0.
        3    1    3    3  502    0  0.98974106380E+02 -0.36610231242E+02 -0.71294283126E+03  0.72071053385E+03  0.10100000352E+00 0.  1.
       -3    1    3    3    0  502 -0.98974106380E+02  0.36610231242E+02  0.93703018984E+02  0.14112564874E+03  0.10100000352E+00 0. -1.
</event>
<event>
 5   0  0.9177281E-02  0.5947191E+03  0.7818609E-02  0.9916423E-01
       -1   -1    0    0    0  501  0.00000000000E+00  0.00000000000E+00  0.22777079926E+03  0.22777079932E+03  0.50400001928E-02 0. -1.
        1   -1    0    0  501    0  0.00000000000E+00  0.00000000000E+00 -0.38820917425E+03  0.38820917429E+03  0.50400001928E-02 0.  1.
    10030    2    1    2    0    0  0.00000000000E+00  0.00000000000E+00 -0.16043837499E+03  0.61597997360E+03  0.59471914019E+03 0.  0.
        1    1    3    3  502    0 -0.28735526394E+03 -0.26311437271E+02 -0.15460138582E+03  0.32736360208E+03  0.50400001928E-02 0.  1.
       -1    1    3    3    0  502  0.28735526394E+03  0.26311437271E+02 -0.58369891695E+01  0.28861637152E+03  0.50400001928E-02 0. -1.
</event>
<event>
 5   0  0.9420349E-02  0.6060009E+03  0.7818609E-02  0.9893034E-01
        1   -1    0    0  501    0  0.00000000000E+00  0.00000000000E+00  0.27194331214E+03  0.27194331219E+03  0.50400001928E-02 0. -1.
       -1   -1    0    0    0  501  0.00000000000E+00  0.00000000000E+00 -0.33760439702E+03  0.33760439706E+03  0.50400001928E-02 0.  1.
    10030    2    1    2    0    0  0.00000000000E+00  0.00000000000E+00 -0.65661084880E+02  0.60954770925E+03  0.60600085130E+03 0.  0.
        2    1    3    3  502    0  0.37976275189E+02  0.30020161105E+03 -0.17052651025E+02  0.30307424448E+03  0.25500000920E-02 0. -1.
       -2    1    3    3    0  502 -0.37976275189E+02 -0.30020161105E+03 -0.48608433855E+02  0.30647346476E+03  0.25500000920E-02 0.  1.
</event>
<event>
 5   0  0.1502642E-01  0.6573972E+03  0.7818609E-02  0.9792997E-01
        2   -1    0    0  501    0  0.00000000000E+00  0.00000000000E+00  0.76438967312E+03  0.76438967312E+03  0.25500000920E-02 0.  1.
       -2   -1    0    0    0  501  0.00000000000E+00  0.00000000000E+00 -0.14134515464E+03  0.14134515466E+03  0.25500000920E-02 0. -1.
    10030    2    1    2    0    0  0.00000000000E+00  0.00000000000E+00  0.62304451848E+03  0.90573482778E+03  0.65739722105E+03 0.  0.
        2    1    3    3  502    0  0.19910312932E+03  0.12614993302E+03  0.62716712304E+03  0.66999586711E+03  0.25500000920E-02 0.  1.
       -2    1    3    3    0  502 -0.19910312932E+03 -0.12614993302E+03 -0.41226045595E+01  0.23573896068E+03  0.25500000920E-02 0. -1.
</event>
<event>
 5   0  0.1502642E-01  0.6018566E+03  0.7818609E-02  0.9901562E-01
       -2   -1    0    0    0  501  0.00000000000E+00  0.00000000000E+00  0.23848678000E+03  0.23848678001E+03  0.25500000920E-02 0. -1.
        2   -1    0    0  501    0  0.00000000000E+00  0.00000000000E+00 -0.37971855657E+03  0.37971855657E+03  0.25500000920E-02 0.  1.
    10030    2    1    2    0    0  0.00000000000E+00  0.00000000000E+00 -0.14123177656E+03  0.61820533659E+03  0.60185664695E+03 0.  0.
        2    1    3    3  502    0 -0.90264366154E+02 -0.28514432450E+03 -0.36503622500E+02  0.30130956847E+03  0.25500000920E-02 0. -1.
       -2    1    3    3    0  502  0.90264366154E+02  0.28514432450E+03 -0.10472815406E+03  0.31689576812E+03  0.25500000920E-02 0.  1.
</event>
<event>
 5   0  0.1483942E-01  0.3819933E+03  0.7818609E-02  0.1050199E+00
       -2   -1    0    0    0  501  0.00000000000E+00  0.00000000000E+00  0.88525255076E+02  0.88525255113E+02  0.25500000920E-02 0.  1.
        2   -1    0    0  501    0  0.00000000000E+00  0.00000000000E+00 -0.41208259720E+03  0.41208259721E+03  0.25500000920E-02 0. -1.
    10030    2    1    2    0    0  0.00000000000E+00  0.00000000000E+00 -0.32355734212E+03  0.50060785232E+03  0.38199328288E+03 0.  0.
        4    1    3    3  502    0  0.16012527559E+03  0.84020785882E+02 -0.81221892097E+02  0.19823774867E+03  0.12699999809E+01 0. -1.
       -4    1    3    3    0  502 -0.16012527559E+03 -0.84020785882E+02 -0.24233545003E+03  0.30237010365E+03  0.12699999809E+01 0.  1.
</event>
<event>
 5   0  0.1532571E-01  0.6117224E+03  0.7818609E-02  0.9881380E-01
        2   -1    0    0  501    0  0.00000000000E+00  0.00000000000E+00  0.21946054018E+03  0.21946054019E+03  0.25500000920E-02 0. -1.
       -2   -1    0    0    0  501  0.00000000000E+00  0.00000000000E+00 -0.42627740060E+03  0.42627740060E+03  0.25500000920E-02 0.  1.
    10030    2    1    2    0    0  0.00000000000E+00  0.00000000000E+00 -0.20681686042E+03  0.64573794080E+03  0.61172238347E+03 0.  0.
        1    1    3    3  502    0 -0.53553699250E+02  0.12315999139E+03  0.18667147446E+03  0.22996221773E+03  0.50400001928E-02 0. -1.
       -1    1    3    3    0  502  0.53553699250E+02 -0.12315999139E+03 -0.39348833488E+03  0.41577572307E+03  0.50400001928E-02 0.  1.
</event>
<event>
 5   0  0.1488510E-01  0.5315316E+03  0.7818609E-02  0.1005861E+00
        2   -1    0    0  501    0  0.00000000000E+00  0.00000000000E+00  0.41427386151E+03  0.41427386152E+03  0.25500000920E-02 0. -1.
       -2   -1    0    0    0  501  0.00000000000E+00  0.00000000000E+00 -0.17049458928E+03  0.17049458930E+03  0.25500000920E-02 0.  1.
    10030    2    1    2    0    0  0.00000000000E+00  0.00000000000E+00  0.24377927223E+03  0.58476845082E+03  0.53153156775E+03 0.  0.
        5    1    3    3  502    0 -0.22676534322E+03  0.95856654478E+02  0.11883000582E+02  0.24652447099E+03  0.46999998093E+01 0. -1.
       -5    1    3    3    0  502  0.22676534322E+03 -0.95856654478E+02  0.23189627164E+03  0.33824397984E+03  0.46999998093E+01 0.  1.
</event>
<event>
 5   0  0.1502642E-01  0.6338884E+03  0.7818609E-02  0.9837490E-01
        2   -1    0    0  501    0  0.00000000000E+00  0.00000000000E+00  0.17726916622E+03  0.17726916624E+03  0.25500000920E-02 0.  1.
       -2   -1    0    0    0  501  0.00000000000E+00  0.00000000000E+00 -0.56667286923E+03  0.56667286924E+03  0.25500000920E-02 0. -1.
    10030    2    1    2    0    0  0.00000000000E+00  0.00000000000E+00 -0.38940370301E+03  0.74394203548E+03  0.63388840362E+03 0.  0.
        2    1    3    3  502    0 -0.21453679728E+03  0.64594515380E+02 -0.45779923426E+03  0.50968483173E+03  0.25500000920E-02 0. -1.
       -2    1    3    3    0  502  0.21453679728E+03 -0.64594515380E+02  0.68395531252E+02  0.23425720375E+03  0.25500000920E-02 0.  1.
</event>
<event>
 5   0  0.1532571E-01  0.6007171E+03  0.7818609E-02  0.9903919E-01
        2   -1    0    0  501    0  0.00000000000E+00  0.00000000000E+00  0.20018077385E+03  0.20018077387E+03  0.25500000920E-02 0.  1.
       -2   -1    0    0    0  501  0.00000000000E+00  0.00000000000E+00 -0.45066894043E+03  0.45066894043E+03  0.25500000920E-02 0. -1.
    10030    2    1    2    0    0  0.00000000000E+00  0.00000000000E+00 -0.25048816658E+03  0.65084971430E+03  0.60071709565E+03 0.  0.
        1    1    3    3  502    0 -0.18383723086E+03  0.35666844272E+02  0.12918789601E+03  0.22750332686E+03  0.50400001928E-02 0.  1.
       -1    1    3    3    0  502  0.18383723086E+03 -0.35666844272E+02 -0.37967606259E+03  0.42334638744E+03  0.50400001928E-02 0. -1.
</event>
<event>
 5   0  0.9497860E-02  0.6108574E+03  0.7818609E-02  0.9883133E-01
        1   -1    0    0  501    0  0.00000000000E+00  0.00000000000E+00  0.43679861621E+03  0.43679861624E+03  0.50400001928E-02 0. -1.
       -1   -1    0    0    0  501  0.00000000000E+00  0.00000000000E+00 -0.21356914270E+03  0.21356914276E+03  0.50400001928E-02 0.  1.
    10030    2    1    2    0    0  0.00000000000E+00  0.00000000000E+00  0.22322947351E+03  0.65036775899E+03  0.61085744990E+03 0.  0.
        5    1    3    3  502    0  0.12766746723E+03  0.11857168255E+03  0.37864870532E+03  0.41683948725E+03  0.46999998093E+01 0. -1.
       -5    1    3    3    0  502 -0.12766746723E+03 -0.11857168255E+03 -0.15541923181E+03  0.23352827175E+03  0.46999998093E+01 0.  1.
</event>
<event>
 5   0  0.9497860E-02  0.7020816E+03  0.7818609E-02  0.9713679E-01
        1   -1    0    0  501    0  0.00000000000E+00  0.00000000000E+00  0.83604949803E+03  0.83604949805E+03  0.50400001928E-02 0.  1.
       -1   -1    0    0    0  501  0.00000000000E+00  0.00000000000E+00 -0.14739513610E+03  0.14739513619E+03  0.50400001928E-02 0. -1.
    10030    2    1    2    0    0  0.00000000000E+00  0.00000000000E+00  0.68865436193E+03  0.98344463424E+03  0.70208156108E+03 0.  0.
        5    1    3    3  502    0  0.44270790488E+02 -0.54645724361E+02  0.82603534359E+03  0.82903711433E+03  0.46999998093E+01 0.  1.
       -5    1    3    3    0  502 -0.44270790488E+02  0.54645724361E+02 -0.13738098166E+03  0.15440751990E+03  0.46999998093E+01 0. -1.
</event>
<event>
 5   0  0.9177281E-02  0.6190730E+03  0.7818609E-02  0.9866607E-01
       -1   -1    0    0    0  501  0.00000000000E+00  0.00000000000E+00  0.17147821772E+03  0.17147821779E+03  0.50400001928E-02 0.  1.
        1   -1    0    0  501    0  0.00000000000E+00  0.00000000000E+00 -0.55874635851E+03  0.55874635853E+03  0.50400001928E-02 0. -1.
    10030    2    1    2    0    0  0.00000000000E+00  0.00000000000E+00 -0.38726814079E+03  0.73022457633E+03  0.61907295127E+03 0.  0.
        1    1    3    3  502    0  0.60611015067E+02 -0.28813703768E+03 -0.30625551976E+03  0.42484007701E+03  0.50400001928E-02 0. -1.
       -1    1    3    3    0  502 -0.60611015067E+02  0.28813703768E+03 -0.81012621034E+02  0.30538449931E+03  0.50400001928E-02 0.  1.
</event>
<event>
 5   0  0.6170500E-02  0.6131896E+03  0.7818609E-02  0.9878414E-01
        3   -1    0    0  501    0  0.00000000000E+00  0.00000000000E+00  0.36590625165E+03  0.36590626559E+03  0.10100000352E+00 0. -1.
       -3   -1    0    0    0  501  0.00000000000E+00  0.00000000000E+00 -0.25689734798E+03  0.25689736783E+03  0.10100000352E+00 0.  1.
    10030    2    1    2    0    0  0.00000000000E+00  0.00000000000E+00  0.10900890367E+03  0.62280363342E+03  0.61318955040E+03 0.  0.
        1    1    3    3  502    0 -0.94214071840E+02  0.26360614857E+03  0.18150842986E+03  0.33363123809E+03  0.50400001928E-02 0.  1.
       -1    1    3    3    0  502  0.94214071840E+02 -0.26360614857E+03 -0.72499526181E+02  0.28917239533E+03  0.50400001928E-02 0. -1.
</event>
<event>
 5   0  0.1488510E-01  0.5972914E+03  0.7818609E-02  0.9911042E-01
       -2   -1    0    0    0  501  0.00000000000E+00  0.00000000000E+00  0.10862046406E+03  0.10862046409E+03  0.25500000920E-02 0.  1.
        2   -1    0    0  501    0  0.00000000000E+00  0.00000000000E+00 -0.82110911483E+03  0.82110911483E+03  0.25500000920E-02 0. -1.
    10030    2    1    2    0    0  0.00000000000E+00  0.00000000000E+00 -0.71248865077E+03  0.92972957892E+03  0.59729139660E+03 0.  0.
        5    1    3    3  502    0  0.17023995804E+03  0.14861035095E+03 -0.66007780805E+03  0.69770443771E+03  0.46999998093E+01 0. -1.
       -5    1    3    3    0  502 -0.17023995804E+03 -0.14861035095E+03 -0.52410842712E+02  0.23202514121E+03  0.46999998093E+01 0.  1.
</event>
<event>
 5   0  0.9411028E-02  0.6004490E+03  0.7818609E-02  0.9904475E-01
        1   -1    0    0  501    0  0.00000000000E+00  0.00000000000E+00  0.20285581633E+03  0.20285581639E+03  0.50400001928E-02 0.  1.
       -1   -1    0    0    0  501  0.00000000000E+00  0.00000000000E+00 -0.44432918528E+03  0.44432918531E+03  0.50400001928E-02 0. -1.
    10030    2    1    2    0    0  0.00000000000E+00  0.00000000000E+00 -0.24147336896E+03  0.64718500170E+03  0.60044903074E+03 0.  0.
        4    1    3    3  502    0 -0.73865507664E+02  0.25262201100E+03 -0.27640514535E+03  0.38167448295E+03  0.12699999809E+01 0. -1.
       -4    1    3    3    0  502  0.73865507664E+02 -0.25262201100E+03  0.34931776389E+02  0.26551051875E+03  0.12699999809E+01 0.  1.
</event>
<event>
 5   0  0.1532571E-01  0.5886776E+03  0.7818609E-02  0.9929179E-01
        2   -1    0    0  501    0  0.00000000000E+00  0.00000000000E+00  0.19631285477E+04  0.19631285477E+04  0.25500000920E-02 0.  1.
       -2   -1    0    0    0  501  0.00000000000E+00  0.00000000000E+00 -0.44131252440E+02  0.44131252514E+02  0.25500000920E-02 0. -1.
    10030    2    1    2    0    0  0.00000000000E+00  0.00000000000E+00  0.19189972952E+04  0.20072598002E+04  0.58867757418E+03 0.  0.
        1    1    3    3  502    0 -0.26270973698E+03  0.12609562626E+03  0.81813430880E+03  0.86848158307E+03  0.50400001928E-02 0.  1.
       -1    1    3    3    0  502  0.26270973698E+03 -0.12609562626E+03  0.11008629864E+04  0.11387782171E+04  0.50400001928E-02 0. -1.
</event>
<event>
 5   0  0.9497860E-02  0.6385367E+03  0.7818609E-02  0.9828530E-01
        1   -1    0    0  501    0  0.00000000000E+00  0.00000000000E+00  0.21391485319E+03  0.21391485325E+03  0.50400001928E-02 0.  1.
       -1   -1    0    0    0  501  0.00000000000E+00  0.00000000000E+00 -0.47650861254E+03  0.47650861256E+03  0.50400001928E-02 0. -1.
    10030    2    1    2    0    0  0.00000000000E+00  0.00000000000E+00 -0.26259375935E+03  0.69042346581E+03  0.63853667060E+03 0.  0.
        5    1    3    3  502    0  0.47116647834E+02 -0.56395734023E+02  0.20460716539E+03  0.21745491359E+03  0.46999998093E+01 0.  1.
       -5    1    3    3    0  502 -0.47116647834E+02  0.56395734023E+02 -0.46720092474E+03  0.47296855222E+03  0.46999998093E+01 0. -1.
</event>
<event>
 5   0  0.1502642E-01  0.5892980E+03  0.7818609E-02  0.9927861E-01
       -2   -1    0    0    0  501  0.00000000000E+00  0.00000000000E+00  0.10004743424E+03  0.10004743428E+03  0.25500000920E-02 0.  1.
        2   -1    0    0  501    0  0.00000000000E+00  0.00000000000E+00 -0.86776870527E+03  0.86776870527E+03  0.25500000920E-02 0. -1.
    10030    2    1    2    0    0  0.00000000000E+00  0.00000000000E+00 -0.76772127102E+03  0.96781613955E+03  0.58929799761E+03 0.  0.
        2    1    3    3  502    0 -0.22287793990E+03  0.17471857398E+03 -0.51745385090E+03  0.58988104225E+03  0.25500000920E-02 0. -1.
       -2    1    3    3    0  502  0.22287793990E+03 -0.17471857398E+03 -0.25026742012E+03  0.37793509730E+03  0.25500000920E-02 0.  1.
</event>
<event>
 5   0  0.9497860E-02  0.5854171E+03  0.7818609E-02  0.9936131E-01
       -1   -1    0    0    0  501  0.00000000000E+00  0.00000000000E+00  0.26674594082E+03  0.26674594087E+03  0.50400001928E-02 0. -1.
        1   -1    0    0  501    0  0.00000000000E+00  0.00000000000E+00 -0.32119812448E+03  0.32119812452E+03  0.50400001928E-02 0.  1.
    10030    2    1    2    0    0  0.00000000000E+00  0.00000000000E+00 -0.54452183652E+02  0.58794406539E+03  0.58541710235E+03 0.  0.
        5    1    3    3  502    0  0.16801641042E+03 -0.93963589662E+02  0.19417396524E+03  0.27346716280E+03  0.46999998093E+01 0. -1.
       -5    1    3    3    0  502 -0.16801641042E+03  0.93963589662E+02 -0.24862614889E+03  0.31447690259E+03  0.46999998093E+01 0.  1.
</event>
<event>
 5   0  0.1483942E-01  0.6034939E+03  0.7818609E-02  0.9898184E-01
       -2   -1    0    0    0  501  0.00000000000E+00  0.00000000000E+00  0.63580291809E+02  0.63580291861E+02  0.25500000920E-02 0.  1.
        2   -1    0    0  501    0  0.00000000000E+00  0.00000000000E+00 -0.14320668483E+04  0.14320668483E+04  0.25500000920E-02 0. -1.
    10030    2    1    2    0    0  0.00000000000E+00  0.00000000000E+00 -0.13684865565E+04  0.14956471402E+04  0.60349392091E+03 0.  0.
        4    1    3    3  502    0 -0.24485362852E+03 -0.16960085390E+03 -0.80391955217E+03  0.85732491408E+03  0.12699999809E+01 0. -1.
       -4    1    3    3    0  502  0.24485362852E+03  0.16960085390E+03 -0.56456700431E+03  0.63832222608E+03  0.12699999809E+01 0.  1.
</event>
<event>
 5   0  0.1488510E-01  0.6186621E+03  0.7818609E-02  0.9867427E-01
        2   -1    0    0  501    0  0.00000000000E+00  0.00000000000E+00  0.28572582956E+04  0.28572582956E+04  0.25500000920E-02 0. -1.
       -2   -1    0    0    0  501  0.00000000000E+00  0.00000000000E+00 -0.33488645686E+02  0.33488645783E+02  0.25500000920E-02 0.  1.
    10030    2    1    2    0    0  0.00000000000E+00  0.00000000000E+00  0.28237696499E+04  0.28907469414E+04  0.61866213990E+03 0.  0.
        5    1    3    3  502    0 -0.19233955898E+03  0.18358611709E+03  0.67359902250E+03  0.72419341439E+03  0.46999998093E+01 0.  1.
       -5    1    3    3    0  502  0.19233955898E+03 -0.18358611709E+03  0.21501706274E+04  0.21665535270E+04  0.46999998093E+01 0. -1.
</event>
<event>
 5   0  0.9411028E-02  0.6072391E+03  0.7818609E-02  0.9890500E-01
        1   -1    0    0  501    0  0.00000000000E+00  0.00000000000E+00  0.27620597008E+03  0.27620597013E+03  0.50400001928E-02 0.  1.
       -1   -1    0    0    0  501  0.00000000000E+00  0.00000000000E+00 -0.33375398961E+03  0.33375398965E+03  0.50400001928E-02 0. -1.
    10030    2    1    2    0    0  0.00000000000E+00  0.00000000000E+00 -0.57548019534E+02  0.60995995978E+03  0.60723914398E+03 0.  0.
        4    1    3    3  502    0  0.15616849268E+03 -0.13152684218E+03 -0.25449250492E+03  0.32627588982E+03  0.12699999809E+01 0. -1.
       -4    1    3    3    0  502 -0.15616849268E+03  0.13152684218E+03  0.19694448539E+03  0.28368406995E+03  0.12699999809E+01 0.  1.
</event>
<event>
 5   0  0.1532571E-01  0.5418453E+03  0.7818609E-02  0.1003399E+00
        2   -1    0    0  501    0  0.00000000000E+00  0.00000000000E+00  0.93893591947E+03  0.93893591947E+03  0.25500000920E-02 0.  1.
       -2   -1    0    0    0  501  0.00000000000E+00  0.00000000000E+00 -0.78172616493E+02  0.78172616535E+02  0.25500000920E-02 0. -1.
    10030    2    1    2    0    0  0.00000000000E+00  0.00000000000E+00  0.86076330298E+03  0.10171085360E+04  0.54184528259E+03 0.  0.
        1    1    3    3  502    0  0.13144308815E+03 -0.57226956736E+02  0.86190234532E+03  0.87374359105E+03  0.50400001928E-02 0.  1.
       -1    1    3    3    0  502 -0.13144308815E+03  0.57226956736E+02 -0.11390423466E+01  0.14336494496E+03  0.50400001928E-02 0. -1.
</event>
<event>
 5   0  0.9497860E-02  0.5975965E+03  0.7818609E-02  0.9910405E-01
       -1   -1    0    0    0  501  0.00000000000E+00  0.00000000000E+00  0.17464225163E+03  0.17464225170E+03  0.50400001928E-02 0. -1.
        1   -1    0    0  501    0  0.00000000000E+00  0.00000000000E+00 -0.51121870375E+03  0.51121870377E+03  0.50400001928E-02 0.  1.
    10030    2    1    2    0    0  0.00000000000E+00  0.00000000000E+00 -0.33657645212E+03  0.68586095547E+03  0.59759647097E+03 0.  0.
        5    1    3    3  502    0  0.10241533799E+03  0.83161537801E+02  0.13935841594E+03  0.19195728930E+03  0.46999998093E+01 0. -1.
       -5    1    3    3    0  502 -0.10241533799E+03 -0.83161537801E+02 -0.47593486806E+03  0.49390366617E+03  0.46999998093E+01 0.  1.
</event>
<event>
 5   0  0.9177281E-02  0.5949527E+03  0.7818609E-02  0.9915933E-01
        1   -1    0    0  501    0  0.00000000000E+00  0.00000000000E+00  0.42991845016E+03  0.42991845019E+03  0.50400001928E-02 0.  1.
       -1   -1    0    0    0  501  0.00000000000E+00  0.00000000000E+00 -0.20583482261E+03  0.20583482267E+03  0.50400001928E-02 0. -1.
    10030    2    1    2    0    0  0.00000000000E+00  0.00000000000E+00  0.22408362755E+03  0.63575327286E+03  0.59495273074E+03 0.  0.
        1    1    3    3  502    0 -0.78529747546E+02  0.27175271167E+03  0.13664556841E+02  0.28320165551E+03  0.50400001928E-02 0.  1.
       -1    1    3    3    0  502  0.78529747546E+02 -0.27175271167E+03  0.21041907071E+03  0.35255161734E+03  0.50400001928E-02 0. -1.
</event>
<event>
 5   0  0.8860626E-02  0.6020460E+03  0.7818609E-02  0.9901170E-01
       -1   -1    0    0    0  501  0.00000000000E+00  0.00000000000E+00  0.40618098304E+03  0.40618098308E+03  0.50400001928E-02 0. -1.
        1   -1    0    0  501    0  0.00000000000E+00  0.00000000000E+00 -0.22308986709E+03  0.22308986715E+03  0.50400001928E-02 0.  1.
    10030    2    1    2    0    0  0.00000000000E+00  0.00000000000E+00  0.18309111595E+03  0.62927085023E+03  0.60204604990E+03 0.  0.
        3    1    3    3  502    0  0.29658830888E+03  0.12249933397E+02  0.39282804864E+02  0.29942918159E+03  0.10100000352E+00 0. -1.
       -3    1    3    3    0  502 -0.29658830888E+03 -0.12249933397E+02  0.14380831109E+03  0.32984166863E+03  0.10100000352E+00 0.  1.
</event>
<event>
 5   0  0.9411028E-02  0.5189734E+03  0.7818609E-02  0.1008942E+00
       -1   -1    0    0    0  501  0.00000000000E+00  0.00000000000E+00  0.15879472881E+03  0.15879472889E+03  0.50400001928E-02 0. -1.
        1   -1    0    0  501    0  0.00000000000E+00  0.00000000000E+00 -0.42402763349E+03  0.42402763352E+03  0.50400001928E-02 0.  1.
    10030    2    1    2    0    0  0.00000000000E+00  0.00000000000E+00 -0.26523290469E+03  0.58282236241E+03  0.51897342166E+03 0.  0.
        4    1    3    3  502    0 -0.99038057407E+02 -0.14204612948E+03  0.84410524537E+02  0.19264576109E+03  0.12699999809E+01 0. -1.
       -4    1    3    3    0  502  0.99038057407E+02  0.14204612948E+03 -0.34964342922E+03  0.39017660131E+03  0.12699999809E+01 0.  1.
</event>
<event>
 5   0  0.1513339E-01  0.5994512E+03  0.7818609E-02  0.9906545E-01
       -2   -1    0    0    0  501  0.00000000000E+00  0.00000000000E+00  0.62013138410E+02  0.62013138463E+02  0.25500000920E-02 0.  1.
        2   -1    0    0  501    0  0.00000000000E+00  0.00000000000E+00 -0.14486518787E+04  0.14486518787E+04  0.25500000920E-02 0. -1.
    10030    2    1    2    0    0  0.00000000000E+00  0.00000000000E+00 -0.13866387403E+04  0.15106650172E+04  0.59945124740E+03 0.  0.
        3    1    3    3  502    0 -0.20360299036E+03  0.19850221518E+03 -0.45453422730E+03  0.53615173328E+03  0.10100000352E+00 0.  1.
       -3    1    3    3    0  502  0.20360299036E+03 -0.19850221518E+03 -0.93210451298E+03  0.97451328387E+03  0.10100000352E+00 0. -1.
</event>
<event>
 5   0  0.9497860E-02  0.5872251E+03  0.7818609E-02  0.9932270E-01
        1   -1    0    0  501    0  0.00000000000E+00  0.00000000000E+00  0.46137560646E+03  0.46137560649E+03  0.50400001928E-02 0.  1.
       -1   -1    0    0    0  501  0.00000000000E+00  0.00000000000E+00 -0.18685066323E+03  0.18685066330E+03  0.50400001928E-02 0. -1.
    10030    2    1    2    0    0  0.00000000000E+00  0.00000000000E+00  0.27452494323E+03  0.64822626978E+03  0.58722512922E+03 0.  0.
        5    1    3    3  502    0 -0.11640576397E+03  0.24180495691E+03  0.26864885272E+03  0.37975549389E+03  0.46999998093E+01 0.  1.
       -5    1    3    3    0  502  0.11640576397E+03 -0.24180495691E+03  0.58760905045E+01  0.26847077589E+03  0.46999998093E+01 0. -1.
</event>
<event>
 5   0  0.1513339E-01  0.6093064E+03  0.7818609E-02  0.9886284E-01
       -2   -1    0    0    0  501  0.00000000000E+00  0.00000000000E+00  0.14444340557E+03  0.14444340560E+03  0.25500000920E-02 0.  1.
        2   -1    0    0  501    0  0.00000000000E+00  0.00000000000E+00 -0.64256002077E+03  0.64256002077E+03  0.25500000920E-02 0. -1.
    10030    2    1    2    0    0  0.00000000000E+00  0.00000000000E+00 -0.49811661519E+03  0.78700342637E+03  0.60930635216E+03 0.  0.
        3    1    3    3  502    0  0.24715494049E+03  0.66168808250E+02 -0.46266604318E+03  0.52870006006E+03  0.10100000352E+00 0. -1.
       -3    1    3    3    0  502 -0.24715494049E+03 -0.66168808250E+02 -0.35450572014E+02  0.25830336631E+03  0.10100000352E+00 0.  1.
</event>
<event>
 5   0  0.1488510E-01  0.5450455E+03  0.7818609E-02  0.1002647E+00
       -2   -1    0    0    0  501  0.00000000000E+00  0.00000000000E+00  0.63585096281E+02  0.63585096332E+02  0.25500000920E-02 0.  1.
        2   -1    0    0  501    0  0.00000000000E+00  0.00000000000E+00 -0.11680196333E+04  0.11680196333E+04  0.25500000920E-02 0. -1.
    10030    2    1    2    0    0  0.00000000000E+00  0.00000000000E+00 -0.11044345370E+04  0.12316047296E+04  0.54504546921E+03 0.  0.
        5    1    3    3  502    0  0.22704374638E+03  0.13662539301E+03 -0.69568533759E+03  0.74445653984E+03  0.46999998093E+01 0. -1.
       -5    1    3    3    0  502 -0.22704374638E+03 -0.13662539301E+03 -0.40874919944E+03  0.48714818980E+03  0.46999998093E+01 0.  1.
</event>
<event>
 5   0  0.9420349E-02  0.6055883E+03  0.7818609E-02  0.9893880E-01
        1   -1    0    0  501    0  0.00000000000E+00  0.00000000000E+00  0.48328012526E+03  0.48328012529E+03  0.50400001928E-02 0.  1.
       -1   -1    0    0    0  501  0.00000000000E+00  0.00000000000E+00 -0.18971252328E+03  0.18971252335E+03  0.50400001928E-02 0. -1.
    10030    2    1    2    0    0  0.00000000000E+00  0.00000000000E+00  0.29356760198E+03  0.67299264863E+03  0.60558828273E+03 0.  0.
        2    1    3    3  502    0 -0.12051164378E+03  0.39043876377E+02 -0.15884864910E+03  0.20317572172E+03  0.25500000920E-02 0. -1.
       -2    1    3    3    0  502  0.12051164378E+03 -0.39043876377E+02  0.45241625108E+03  0.46981692692E+03  0.25500000920E-02 0.  1.
</event>
<event>
 5   0  0.9411028E-02  0.6251156E+03  0.7818609E-02  0.9854627E-01
        1   -1    0    0  501    0  0.00000000000E+00  0.00000000000E+00  0.12309725823E+04  0.12309725823E+04  0.50400001928E-02 0.  1.
       -1   -1    0    0    0  501  0.00000000000E+00  0.00000000000E+00 -0.79361939973E+02  0.79361940133E+02  0.50400001928E-02 0. -1.
    10030    2    1    2    0    0  0.00000000000E+00  0.00000000000E+00  0.11516106424E+04  0.13103345225E+04  0.62511558067E+03 0.  0.
        4    1    3    3  502    0  0.29799124366E+03 -0.75675164924E+02  0.69373570119E+03  0.75881245897E+03  0.12699999809E+01 0.  1.
       -4    1    3    3    0  502 -0.29799124366E+03  0.75675164924E+02  0.45787494117E+03  0.55152206351E+03  0.12699999809E+01 0. -1.
</event>
<event>
 5   0  0.1502642E-01  0.6031164E+03  0.7818609E-02  0.9898961E-01
        2   -1    0    0  501    0  0.00000000000E+00  0.00000000000E+00  0.16618240541E+03  0.16618240543E+03  0.25500000920E-02 0. -1.
       -2   -1    0    0    0  501  0.00000000000E+00  0.00000000000E+00 -0.54721413557E+03  0.54721413557E+03  0.25500000920E-02 0.  1.
    10030    2    1    2    0    0  0.00000000000E+00  0.00000000000E+00 -0.38103173015E+03  0.71339654100E+03  0.60311644426E+03 0.  0.
        2    1    3    3  502    0 -0.18866406183E+03 -0.17629149439E+03 -0.62623085517E+01  0.25828673163E+03  0.25500000920E-02 0.  1.
       -2    1    3    3    0  502  0.18866406183E+03  0.17629149439E+03 -0.37476942160E+03  0.45510980938E+03  0.25500000920E-02 0. -1.
</event>
<event>
 5   0  0.1513339E-01  0.6018640E+03  0.7818609E-02  0.9901546E-01
        2   -1    0    0  501    0  0.00000000000E+00  0.00000000000E+00  0.82371477610E+03  0.82371477610E+03  0.25500000920E-02 0. -1.
       -2   -1    0    0    0  501  0.00000000000E+00  0.00000000000E+00 -0.10994103516E+03  0.10994103519E+03  0.25500000920E-02 0.  1.
    10030    2    1    2    0    0  0.00000000000E+00  0.00000000000E+00  0.71377374093E+03  0.93365581129E+03  0.60186395532E+03 0.  0.
        3    1    3    3  502    0 -0.14199426634E+03  0.26171058920E+03  0.42459852202E+03  0.51859301893E+03  0.10100000352E+00 0. -1.
       -3    1    3    3    0  502  0.14199426634E+03 -0.26171058920E+03  0.28917521891E+03  0.41506279237E+03  0.10100000352E+00 0.  1.
</event>
<event>
 5   0  0.9177281E-02  0.5877717E+03  0.7818609E-02  0.9931106E-01
       -1   -1    0    0    0  501  0.00000000000E+00  0.00000000000E+00  0.26746198822E+03  0.26746198827E+03  0.50400001928E-02 0.  1.
        1   -1    0    0  501    0  0.00000000000E+00  0.00000000000E+00 -0.32292030664E+03  0.32292030668E+03  0.50400001928E-02 0. -1.
    10030    2    1    2    0    0  0.00000000000E+00  0.00000000000E+00 -0.55458318416E+02  0.59038229495E+03  0.58777174916E+03 0.  0.
        1    1    3    3  502    0  0.23028206437E+03 -0.76216991062E+02 -0.19438790295E+03  0.31084645041E+03  0.50400001928E-02 0. -1.
       -1    1    3    3    0  502 -0.23028206437E+03  0.76216991062E+02  0.13892958453E+03  0.27953584454E+03  0.50400001928E-02 0.  1.
</event>
<event>
 5   0  0.1488510E-01  0.6343531E+03  0.7818609E-02  0.9836591E-01
       -2   -1    0    0    0  501  0.00000000000E+00  0.00000000000E+00  0.10275870705E+03  0.10275870708E+03  0.25500000920E-02 0.  1.
        2   -1    0    0  501    0  0.00000000000E+00  0.00000000000E+00 -0.97900180805E+03  0.97900180806E+03  0.25500000920E-02 0. -1.
    10030    2    1    2    0    0  0.00000000000E+00  0.00000000000E+00 -0.87624310100E+03  0.10817605151E+04  0.63435308784E+03 0.  0.
        5    1    3    3  502    0 -0.23074217916E+03  0.98102476131E+02 -0.10695643937E+03  0.27263128761E+03  0.46999998093E+01 0.  1.
       -5    1    3    3    0  502  0.23074217916E+03 -0.98102476131E+02 -0.76928666163E+03  0.80912922752E+03  0.46999998093E+01 0. -1.
</event>
<event>
 5   0  0.6170500E-02  0.6006663E+03  0.7818609E-02  0.9904025E-01
       -3   -1    0    0    0  501  0.00000000000E+00  0.00000000000E+00  0.21078468010E+03  0.21078470430E+03  0.10100000352E+00 0. -1.
        3   -1    0    0  501    0  0.00000000000E+00  0.00000000000E+00 -0.42792480746E+03  0.42792481938E+03  0.10100000352E+00 0.  1.
    10030    2    1    2    0    0  0.00000000000E+00  0.00000000000E+00 -0.21714012735E+03  0.63870952368E+03  0.60066631396E+03 0.  0.
        5    1    3    3  502    0  0.47331490758E+02  0.29642484672E+03 -0.11746372906E+03  0.32237831411E+03  0.46999998093E+01 0.  1.
       -5    1    3    3    0  502 -0.47331490758E+02 -0.29642484672E+03 -0.99676398298E+02  0.31633120956E+03  0.46999998093E+01 0. -1.
</event>
<event>
 5   0  0.9411028E-02  0.5943698E+03  0.7818609E-02  0.9917156E-01
       -1   -1    0    0    0  501  0.00000000000E+00  0.00000000000E+00  0.92119795175E+03  0.92119795177E+03  0.50400001928E-02 0.  1.
        1   -1    0    0  501    0  0.00000000000E+00  0.00000000000E+00 -0.95873926096E+02  0.95873926229E+02  0.50400001928E-02 0. -1.
    10030    2    1    2    0    0  0.00000000000E+00  0.00000000000E+00  0.82532402566E+03  0.10170718780E+04  0.59436979876E+03 0.  0.
        4    1    3    3  502    0  0.14385351736E+03  0.20518431716E+03  0.13928676982E+03  0.28669994003E+03  0.12699999809E+01 0. -1.
       -4    1    3    3    0  502 -0.14385351736E+03 -0.20518431716E+03  0.68603725584E+03  0.73037193796E+03  0.12699999809E+01 0.  1.
</event>
<event>
 5   0  0.6170500E-02  0.5904486E+03  0.7818609E-02  0.9925423E-01
       -3   -1    0    0    0  501  0.00000000000E+00  0.00000000000E+00  0.17848729578E+03  0.17848732436E+03  0.10100000352E+00 0. -1.
        3   -1    0    0  501    0  0.00000000000E+00  0.00000000000E+00 -0.48831135836E+03  0.48831136880E+03  0.10100000352E+00 0.  1.
    10030    2    1    2    0    0  0.00000000000E+00  0.00000000000E+00 -0.30982406258E+03  0.66679869316E+03  0.59044859848E+03 0.  0.
        3    1    3    3  502    0 -0.15330256283E+03  0.21440851727E+03 -0.30509177284E+03  0.40317947381E+03  0.10100000352E+00 0.  1.
       -3    1    3    3    0  502  0.15330256283E+03 -0.21440851727E+03 -0.47322897428E+01  0.26361921936E+03  0.10100000352E+00 0. -1.
</event>
<event>
 5   0  0.8860626E-02  0.6054427E+03  0.7818609E-02  0.9894178E-01
       -1   -1    0    0    0  501  0.00000000000E+00  0.00000000000E+00  0.71581875126E+02  0.71581875304E+02  0.50400001928E-02 0.  1.
        1   -1    0    0  501    0  0.00000000000E+00  0.00000000000E+00 -0.12802155178E+04  0.12802155179E+04  0.50400001928E-02 0. -1.
    10030    2    1    2    0    0  0.00000000000E+00  0.00000000000E+00 -0.12086336427E+04  0.13517973932E+04  0.60544273869E+03 0.  0.
        3    1    3    3  502    0  0.11217206957E+03  0.16565179699E+03 -0.97051187881E+02  0.22235564825E+03  0.10100000352E+00 0.  1.
       -3    1    3    3    0  502 -0.11217206957E+03 -0.16565179699E+03 -0.11115824548E+04  0.11294417449E+04  0.10100000352E+00 0. -1.
</event>
<event>
 5   0  0.1502642E-01  0.6094246E+03  0.7818609E-02  0.9886044E-01
        2   -1    0    0  501    0  0.00000000000E+00  0.00000000000E+00  0.11654188549E+04  0.11654188549E+04  0.25500000920E-02 0.  1.
       -2   -1    0    0    0  501  0.00000000000E+00  0.00000000000E+00 -0.79670562238E+02  0.79670562278E+02  0.25500000920E-02 0. -1.
    10030    2    1    2    0    0  0.00000000000E+00  0.00000000000E+00  0.10857482927E+04  0.12450894172E+04  0.60942456609E+03 0.  0.
        2    1    3    3  502    0  0.88744557490E+02 -0.27242806260E+03  0.75477111764E+03  0.80732402777E+03  0.25500000920E-02 0.  1.
       -2    1    3    3    0  502 -0.88744557490E+02  0.27242806260E+03  0.33097717502E+03  0.43776538941E+03  0.25500000920E-02 0. -1.
</event>
<event>
 5   0  0.9177281E-02  0.5849207E+03  0.7818609E-02  0.9937194E-01
       -1   -1    0    0    0  501  0.00000000000E+00  0.00000000000E+00  0.12936530871E+03  0.12936530881E+03  0.50400001928E-02 0.  1.
        1   -1    0    0  501    0  0.00000000000E+00  0.00000000000E+00 -0.66117458430E+03  0.66117458432E+03  0.50400001928E-02 0. -1.
    10030    2    1    2    0    0  0.00000000000E+00  0.00000000000E+00 -0.53180927559E+03  0.79053989312E+03  0.58492069293E+03 0.  0.
        1    1    3    3  502    0 -0.23725685957E+03 -0.16614724965E+03 -0.32059297040E+03  0.43205969341E+03  0.50400001928E-02 0. -1.
       -1    1    3    3    0  502  0.23725685957E+03  0.16614724965E+03 -0.21121630519E+03  0.35848019971E+03  0.50400001928E-02 0.  1.
</event>
<event>
 5   0  0.9420349E-02  0.6032741E+03  0.7818609E-02  0.9898636E-01
        1   -1    0    0  501    0  0.00000000000E+00  0.00000000000E+00  0.48343096869E+03  0.48343096872E+03  0.50400001928E-02 0. -1.
       -1   -1    0    0    0  501  0.00000000000E+00  0.00000000000E+00 -0.18820665343E+03  0.18820665350E+03  0.50400001928E-02 0.  1.
    10030    2    1    2    0    0  0.00000000000E+00  0.00000000000E+00  0.29522431526E+03  0.67163762222E+03  0.60327414934E+03 0.  0.
        2    1    3    3  502    0  0.13166999609E+02 -0.30122991366E+03  0.15706516512E+03  0.33997396498E+03  0.25500000920E-02 0.  1.
       -2    1    3    3    0  502 -0.13166999609E+02  0.30122991366E+03  0.13815915014E+03  0.33166365724E+03  0.25500000920E-02 0. -1.
</event>
<event>
 5   0  0.1488510E-01  0.6781143E+03  0.7818609E-02  0.9755409E-01
        2   -1    0    0  501    0  0.00000000000E+00  0.00000000000E+00  0.19277469043E+03  0.19277469044E+03  0.25500000920E-02 0. -1.
       -2   -1    0    0    0  501  0.00000000000E+00  0.00000000000E+00 -0.59634250215E+03  0.59634250216E+03  0.25500000920E-02 0.  1.
    10030    2    1    2    0    0  0.00000000000E+00  0.00000000000E+00 -0.40356781173E+03  0.78911719260E+03  0.67811427134E+03 0.  0.
        5    1    3    3  502    0 -0.54559457414E+01 -0.27796016125E+03  0.24002727722E+02  0.27908751230E+03  0.46999998093E+01 0. -1.
       -5    1    3    3    0  502  0.54559457414E+01  0.27796016125E+03 -0.42757053945E+03  0.51002968030E+03  0.46999998093E+01 0.  1.
</event>
<event>
 5   0  0.1483942E-01  0.5864637E+03  0.7818609E-02  0.9933894E-01
       -2   -1    0    0    0  501  0.00000000000E+00  0.00000000000E+00  0.57556005440E+02  0.57556005497E+02  0.25500000920E-02 0. -1.
        2   -1    0    0  501    0  0.00000000000E+00  0.00000000000E+00 -0.14939346628E+04  0.14939346628E+04  0.25500000920E-02 0.  1.
    10030    2    1    2    0    0  0.00000000000E+00  0.00000000000E+00 -0.14363786574E+04  0.15514906683E+04  0.58646367876E+03 0.  0.
        4    1    3    3  502    0  0.11328110827E+03  0.55467580684E+02 -0.17885314534E+02  0.12739999754E+03  0.12699999809E+01 0. -1.
       -4    1    3    3    0  502 -0.11328110827E+03 -0.55467580684E+02 -0.14184933428E+04  0.14240906707E+04  0.12699999809E+01 0.  1.
</event>
<event>
 5   0  0.9420349E-02  0.6212990E+03  0.7818609E-02  0.9862177E-01
        1   -1    0    0  501    0  0.00000000000E+00  0.00000000000E+00  0.62855191046E+03  0.62855191048E+03  0.50400001928E-02 0.  1.
       -1   -1    0    0    0  501  0.00000000000E+00  0.00000000000E+00 -0.15353245804E+03  0.15353245812E+03  0.50400001928E-02 0. -1.
    10030    2    1    2    0    0  0.00000000000E+00  0.00000000000E+00  0.47501945242E+03  0.78208436860E+03  0.62129902578E+03 0.  0.
        2    1    3    3  502    0  0.24942828428E+03  0.17041805810E+03  0.14633362920E+03  0.33566399057E+03  0.25500000920E-02 0. -1.
       -2    1    3    3    0  502 -0.24942828428E+03 -0.17041805810E+03  0.32868582322E+03  0.44642037803E+03  0.25500000920E-02 0.  1.
</event>
<event>
 5   0  0.8860626E-02  0.5717913E+03  0.7818609E-02  0.9965723E-01
        1   -1    0    0  501    0  0.00000000000E+00  0.00000000000E+00  0.90779807583E+03  0.90779807585E+03  0.50400001928E-02 0.  1.
       -1   -1    0    0    0  501  0.00000000000E+00  0.00000000000E+00 -0.90037992061E+02  0.90037992202E+02  0.50400001928E-02 0. -1.
    10030    2    1    2    0    0  0.00000000000E+00  0.00000000000E+00  0.81776008377E+03  0.99783606805E+03  0.57179127668E+03 0.  0.
        3    1    3    3  502    0 -0.28217002599E+02  0.32568242850E+02 -0.84338180387E+02  0.94709178805E+02  0.10100000352E+00 0. -1.
       -3    1    3    3    0  502  0.28217002599E+02 -0.32568242850E+02  0.90209826416E+03  0.90312688924E+03  0.10100000352E+00 0.  1.
</event>
<event>
 5   0  0.9420349E-02  0.4667735E+03  0.7818609E-02  0.1022835E+00
        1   -1    0    0  501    0  0.00000000000E+00  0.00000000000E+00  0.10468400037E+04  0.10468400037E+04  0.50400001928E-02 0. -1.
       -1   -1    0    0    0  501  0.00000000000E+00  0.00000000000E+00 -0.52032189115E+02  0.52032189360E+02  0.50400001928E-02 0.  1.
    10030    2    1    2    0    0  0.00000000000E+00  0.00000000000E+00  0.99480781455E+03  0.10988721930E+04  0.46677350904E+03 0.  0.
        2    1    3    3  502    0  0.40704373742E+02  0.22191370588E+03  0.63800305646E+03  0.67672035506E+03  0.25500000920E-02 0. -1.
       -2    1    3    3    0  502 -0.40704373742E+02 -0.22191370588E+03  0.35680475809E+03  0.42215183798E+03  0.25500000920E-02 0.  1.
</event>
<event>
 5   0  0.1513339E-01  0.6070006E+03  0.7818609E-02  0.9890988E-01
       -2   -1    0    0    0  501  0.00000000000E+00  0.00000000000E+00  0.53428057623E+02  0.53428057684E+02  0.25500000920E-02 0.  1.
        2   -1    0    0  501    0  0.00000000000E+00  0.00000000000E+00 -0.17240458690E+04  0.17240458690E+04  0.25500000920E-02 0. -1.
    10030    2    1    2    0    0  0.00000000000E+00  0.00000000000E+00 -0.16706178114E+04  0.17774739267E+04  0.60700056702E+03 0.  0.
        3    1    3    3  502    0 -0.48612187488E+01  0.19153966009E+03 -0.14606287610E+03  0.24092622690E+03  0.10100000352E+00 0.  1.
       -3    1    3    3    0  502  0.48612187488E+01 -0.19153966009E+03 -0.15245549353E+04  0.15365476998E+04  0.10100000352E+00 0. -1.
</event>
<event>
 5   0  0.9497860E-02  0.5875617E+03  0.7818609E-02  0.9931553E-01
       -1   -1    0    0    0  501  0.00000000000E+00  0.00000000000E+00  0.76024701076E+03  0.76024701077E+03  0.50400001928E-02 0. -1.
        1   -1    0    0  501    0  0.00000000000E+00  0.00000000000E+00 -0.11352521116E+03  0.11352521127E+03  0.50400001928E-02 0.  1.
    10030    2    1    2    0    0  0.00000000000E+00  0.00000000000E+00  0.64672179960E+03  0.87377222205E+03  0.58756174990E+03 0.  0.
        5    1    3    3  502    0  0.30799944157E+02 -0.11917189777E+03 -0.73268557749E+02  0.14332114056E+03  0.46999998093E+01 0.  1.
       -5    1    3    3    0  502 -0.30799944157E+02  0.11917189777E+03  0.71999035734E+03  0.73045108149E+03  0.46999998093E+01 0. -1.
</event>
<event>
 5   0  0.9411028E-02  0.6100519E+03  0.7818609E-02  0.9884768E-01
       -1   -1    0    0    0  501  0.00000000000E+00  0.00000000000E+00  0.55063834021E+02  0.55063834251E+02  0.50400001928E-02 0.  1.
        1   -1    0    0  501    0  0.00000000000E+00  0.00000000000E+00 -0.16896905221E+04  0.16896905221E+04  0.50400001928E-02 0. -1.
    10030    2    1    2    0    0  0.00000000000E+00  0.00000000000E+00 -0.16346266881E+04  0.17447543564E+04  0.61005192783E+03 0.  0.
        4    1    3    3  502    0  0.46026242987E+02  0.10255999890E+03 -0.16282774054E+04  0.16321537582E+04  0.12699999809E+01 0. -1.
       -4    1    3    3    0  502 -0.46026242987E+02 -0.10255999890E+03 -0.63492826381E+01  0.11260059816E+03  0.12699999809E+01 0.  1.
</event>
<event>
 5   0  0.9177281E-02  0.6001387E+03  0.7818609E-02  0.9905118E-01
       -1   -1    0    0    0  501  0.00000000000E+00  0.00000000000E+00  0.16439675041E+03  0.16439675049E+03  0.50400001928E-02 0.  1.
        1   -1    0    0  501    0  0.00000000000E+00  0.00000000000E+00 -0.54770926686E+03  0.54770926688E+03  0.50400001928E-02 0. -1.
    10030    2    1    2    0    0  0.00000000000E+00  0.00000000000E+00 -0.38331251644E+03  0.71210601737E+03  0.60013872956E+03 0.  0.
        1    1    3    3  502    0 -0.10363545390E+03 -0.27016276738E+03 -0.97375189208E+02  0.30530338302E+03  0.50400001928E-02 0.  1.
       -1    1    3    3    0  502  0.10363545390E+03  0.27016276738E+03 -0.28593732724E+03  0.40680263435E+03  0.50400001928E-02 0. -1.
</event>
<event>
 5   0  0.1532571E-01  0.5876604E+03  0.7818609E-02  0.9931343E-01
       -2   -1    0    0    0  501  0.00000000000E+00  0.00000000000E+00  0.18447026476E+03  0.18447026478E+03  0.25500000920E-02 0.  1.
        2   -1    0    0  501    0  0.00000000000E+00  0.00000000000E+00 -0.46802221504E+03  0.46802221504E+03  0.25500000920E-02 0. -1.
    10030    2    1    2    0    0  0.00000000000E+00  0.00000000000E+00 -0.28355195028E+03  0.65249247982E+03  0.58766038467E+03 0.  0.
        1    1    3    3  502    0  0.94293844319E+02 -0.71422839813E+02 -0.44041684799E+03  0.45602582289E+03  0.50400001928E-02 0. -1.
       -1    1    3    3    0  502 -0.94293844319E+02  0.71422839813E+02  0.15686489771E+03  0.19646665693E+03  0.50400001928E-02 0.  1.
</event>
<event>
 5   0  0.9177281E-02  0.5978047E+03  0.7818609E-02  0.9909971E-01
        1   -1    0    0  501    0  0.00000000000E+00  0.00000000000E+00  0.43454358660E+03  0.43454358663E+03  0.50400001928E-02 0. -1.
       -1   -1    0    0    0  501  0.00000000000E+00  0.00000000000E+00 -0.20560105957E+03  0.20560105963E+03  0.50400001928E-02 0.  1.
    10030    2    1    2    0    0  0.00000000000E+00  0.00000000000E+00  0.22894252703E+03  0.64014464626E+03  0.59780472351E+03 0.  0.
        1    1    3    3  502    0 -0.29555298980E+03  0.39538542850E+02  0.92324173571E+02  0.31215159651E+03  0.50400001928E-02 0.  1.
       -1    1    3    3    0  502  0.29555298980E+03 -0.39538542850E+02  0.13661835346E+03  0.32799304975E+03  0.50400001928E-02 0. -1.
</event>
<event>
 5   0  0.1513339E-01  0.5808111E+03  0.7818609E-02  0.9946037E-01
       -2   -1    0    0    0  501  0.00000000000E+00  0.00000000000E+00  0.27771187926E+03  0.27771187927E+03  0.25500000920E-02 0. -1.
        2   -1    0    0  501    0  0.00000000000E+00  0.00000000000E+00 -0.30367941731E+03  0.30367941732E+03  0.25500000920E-02 0.  1.
    10030    2    1    2    0    0  0.00000000000E+00  0.00000000000E+00 -0.25967538055E+02  0.58139129660E+03  0.58081109384E+03 0.  0.
        3    1    3    3  502    0 -0.81444480539E+02  0.13607278362E+03  0.23054173978E+03  0.27981870887E+03  0.10100000352E+00 0. -1.
       -3    1    3    3    0  502  0.81444480539E+02 -0.13607278362E+03 -0.25650927783E+03  0.30157258773E+03  0.10100000352E+00 0.  1.
</event>
<event>
 5   0  0.1513339E-01  0.6060736E+03  0.7818609E-02  0.9892885E-01
       -2   -1    0    0    0  501  0.00000000000E+00  0.00000000000E+00  0.16061588776E+03  0.16061588778E+03  0.25500000920E-02 0. -1.
        2   -1    0    0  501    0  0.00000000000E+00  0.00000000000E+00 -0.57174476221E+03  0.57174476222E+03  0.25500000920E-02 0.  1.
    10030    2    1    2    0    0  0.00000000000E+00  0.00000000000E+00 -0.41112887445E+03  0.73236064999E+03  0.60607356835E+03 0.  0.
        3    1    3    3  502    0  0.10290418648E+03 -0.19096701357E+03 -0.46125265476E+03  0.50971726829E+03  0.10100000352E+00 0.  1.
       -3    1    3    3    0  502 -0.10290418648E+03  0.19096701357E+03  0.50123780307E+02  0.22264338171E+03  0.10100000352E+00 0. -1.
</event>
<event>
 5   0  0.1483942E-01  0.6117680E+03  0.7818609E-02  0.9881288E-01
        2   -1    0    0  501    0  0.00000000000E+00  0.00000000000E+00  0.46399906911E+03  0.46399906912E+03  0.25500000920E-02 0. -1.
       -2   -1    0    0    0  501  0.00000000000E+00  0.00000000000E+00 -0.20164914757E+03  0.20164914758E+03  0.25500000920E-02 0.  1.
    10030    2    1    2    0    0  0.00000000000E+00  0.00000000000E+00  0.26234992154E+03  0.66564821670E+03  0.61176798466E+03 0.  0.
        4    1    3    3  502    0 -0.27097439858E+03 -0.13563450823E+03  0.85793585471E+02  0.31493808394E+03  0.12699999809E+01 0.  1.
       -4    1    3    3    0  502  0.27097439858E+03  0.13563450823E+03  0.17655633607E+03  0.35071013275E+03  0.12699999809E+01 0. -1.
</event>
<event>
 5   0  0.8860626E-02  0.6114538E+03  0.7818609E-02  0.9881924E-01
       -1   -1    0    0    0  501  0.00000000000E+00  0.00000000000E+00  0.71491612303E+03  0.71491612305E+03  0.50400001928E-02 0.  1.
        1   -1    0    0  501    0  0.00000000000E+00  0.00000000000E+00 -0.13074110672E+03  0.13074110682E+03  0.50400001928E-02 0. -1.
    10030    2    1    2    0    0  0.00000000000E+00  0.00000000000E+00  0.58417501631E+03  0.84565722986E+03  0.61145376010E+03 0.  0.
        3    1    3    3  502    0  0.22198208766E+03 -0.11228461850E+03  0.53788158220E+03  0.59262170857E+03  0.10100000352E+00 0.  1.
       -3    1    3    3    0  502 -0.22198208766E+03  0.11228461850E+03  0.46293434110E+02  0.25303552129E+03  0.10100000352E+00 0. -1.
</event>
<event>
 5   0  0.1483942E-01  0.5891537E+03  0.7818609E-02  0.9928168E-01
        2   -1    0    0  501    0  0.00000000000E+00  0.00000000000E+00  0.41305709360E+03  0.41305709361E+03  0.25500000920E-02 0.  1.
       -2   -1    0    0    0  501  0.00000000000E+00  0.00000000000E+00 -0.21008118734E+03  0.21008118736E+03  0.25500000920E-02 0. -1.
    10030    2    1    2    0    0  0.00000000000E+00  0.00000000000E+00  0.20297590626E+03  0.62313828096E+03  0.58915371397E+03 0.  0.
        4    1    3    3  502    0  0.25271074151E+03  0.60908616508E+02 -0.45074088305E+02  0.26382923412E+03  0.12699999809E+01 0.  1.
       -4    1    3    3    0  502 -0.25271074151E+03 -0.60908616508E+02  0.24804999456E+03  0.35930904684E+03  0.12699999809E+01 0. -1.
</event>
<event>
 5   0  0.9497860E-02  0.6130332E+03  0.7818609E-02  0.9878729E-01
       -1   -1    0    0    0  501  0.00000000000E+00  0.00000000000E+00  0.46162325323E+03  0.46162325326E+03  0.50400001928E-02 0.  1.
        1   -1    0    0  501    0  0.00000000000E+00  0.00000000000E+00 -0.20352619407E+03  0.20352619413E+03  0.50400001928E-02 0. -1.
    10030    2    1    2    0    0  0.00000000000E+00  0.00000000000E+00  0.25809705916E+03  0.66514944739E+03  0.61303319275E+03 0.  0.
        5    1    3    3  502    0  0.12344285595E+03  0.15064000626E+03 -0.12771209250E+03  0.23294423956E+03  0.46999998093E+01 0. -1.
       -5    1    3    3    0  502 -0.12344285595E+03 -0.15064000626E+03  0.38580915167E+03  0.43220520783E+03  0.46999998093E+01 0.  1.
</event>
<event>
 5   0  0.1532571E-01  0.6126732E+03  0.7818609E-02  0.9879456E-01
       -2   -1    0    0    0  501  0.00000000000E+00  0.00000000000E+00  0.12548473355E+03  0.12548473358E+03  0.25500000920E-02 0. -1.
        2   -1    0    0  501    0  0.00000000000E+00  0.00000000000E+00 -0.74783696759E+03  0.74783696760E+03  0.25500000920E-02 0.  1.
    10030    2    1    2    0    0  0.00000000000E+00  0.00000000000E+00 -0.62235223404E+03  0.87332170117E+03  0.61267323308E+03 0.  0.
        1    1    3    3  502    0 -0.26215621286E+03  0.13828798706E+03 -0.42152189440E+03  0.51529618162E+03  0.50400001928E-02 0.  1.
       -1    1    3    3    0  502  0.26215621286E+03 -0.13828798706E+03 -0.20083033964E+03  0.35802551956E+03  0.50400001928E-02 0. -1.
</event>
<event>
 5   0  0.6170500E-02  0.6057203E+03  0.7818609E-02  0.9893609E-01
        4   -1    0    0  501    0  0.00000000000E+00  0.00000000000E+00  0.29127092570E+03  0.29127369441E+03  0.12699999809E+01 0. -1.
       -4   -1    0    0    0  501  0.00000000000E+00  0.00000000000E+00 -0.31490491449E+03  0.31490747541E+03  0.12699999809E+01 0.  1.
    10030    2    1    2    0    0  0.00000000000E+00  0.00000000000E+00 -0.23633988792E+02  0.60618116982E+03  0.60572026978E+03 0.  0.
        5    1    3    3  502    0  0.10134510246E+03 -0.14180522926E+03 -0.25963946361E+03  0.31275276802E+03  0.46999998093E+01 0.  1.
       -5    1    3    3    0  502 -0.10134510246E+03  0.14180522926E+03  0.23600547482E+03  0.29342840180E+03  0.46999998093E+01 0. -1.
</event>
<event>
 5   0  0.1488510E-01  0.6022047E+03  0.7818609E-02  0.9900843E-01
       -2   -1    0    0    0  501  0.00000000000E+00  0.00000000000E+00  0.93131015012E+02  0.93131015047E+02  0.25500000920E-02 0.  1.
        2   -1    0    0  501    0  0.00000000000E+00  0.00000000000E+00 -0.97349549468E+03  0.97349549469E+03  0.25500000920E-02 0. -1.
    10030    2    1    2    0    0  0.00000000000E+00  0.00000000000E+00 -0.88036447967E+03  0.10666265097E+04  0.60220469460E+03 0.  0.
        5    1    3    3  502    0  0.48868511712E+01  0.23731795882E+03 -0.76819843126E+03  0.80404888824E+03  0.46999998093E+01 0. -1.
       -5    1    3    3    0  502 -0.48868511712E+01 -0.23731795882E+03 -0.11216604841E+03  0.26257762149E+03  0.46999998093E+01 0.  1.
</event>
<event>
 5   0  0.8860626E-02  0.5892304E+03  0.7818609E-02  0.9928005E-01
       -1   -1    0    0    0  501  0.00000000000E+00  0.00000000000E+00  0.65526467503E+02  0.65526467697E+02  0.50400001928E-02 0.  1.
        1   -1    0    0  501    0  0.00000000000E+00  0.00000000000E+00 -0.13246268049E+04  0.13246268049E+04  0.50400001928E-02 0. -1.
    10030    2    1    2    0    0  0.00000000000E+00  0.00000000000E+00 -0.12591003374E+04  0.13901532726E+04  0.58923039782E+03 0.  0.
        3    1    3    3  502    0  0.27508028113E+03 -0.96776544378E+02 -0.53048207034E+03  0.60534791464E+03  0.10100000352E+00 0. -1.
       -3    1    3    3    0  502 -0.27508028113E+03  0.96776544378E+02 -0.72861826708E+03  0.78480535799E+03  0.10100000352E+00 0.  1.
</event>
<event>
 5   0  0.9177281E-02  0.5845512E+03  0.7818609E-02  0.9937986E-01
       -1   -1    0    0    0  501  0.00000000000E+00  0.00000000000E+00  0.16647077147E+03  0.16647077154E+03  0.50400001928E-02 0. -1.
        1   -1    0    0  501    0  0.00000000000E+00  0.00000000000E+00 -0.51315329685E+03  0.51315329688E+03  0.50400001928E-02 0.  1.
    10030    2    1    2    0    0  0.00000000000E+00  0.00000000000E+00 -0.34668252539E+03  0.67962406842E+03  0.58455119619E+03 0.  0.
        1    1    3    3  502    0  0.15690894922E+02 -0.16096456337E+03  0.10970722646E+03  0.19542638105E+03  0.50400001928E-02 0. -1.
       -1    1    3    3    0  502 -0.15690894922E+02  0.16096456337E+03 -0.45638975185E+03  0.48419768738E+03  0.50400001928E-02 0.  1.
</event>
<event>
 5   0  0.6170500E-02  0.6347914E+03  0.7818609E-02  0.9835743E-01
       -3   -1    0    0    0  501  0.00000000000E+00  0.00000000000E+00  0.53911423570E+03  0.53911424516E+03  0.10100000352E+00 0.  1.
        3   -1    0    0  501    0  0.00000000000E+00  0.00000000000E+00 -0.18686211689E+03  0.18686214419E+03  0.10100000352E+00 0. -1.
    10030    2    1    2    0    0  0.00000000000E+00  0.00000000000E+00  0.35225211881E+03  0.72597638935E+03  0.63479143243E+03 0.  0.
        1    1    3    3  502    0  0.65150570215E+02 -0.85743776643E+02 -0.16533104691E+03  0.19730926772E+03  0.50400001928E-02 0. -1.
       -1    1    3    3    0  502 -0.65150570215E+02  0.85743776643E+02  0.51758316572E+03  0.52866712163E+03  0.50400001928E-02 0.  1.
</event>
<event>
 5   0  0.9497860E-02  0.7059413E+03  0.7818609E-02  0.9707125E-01
        1   -1    0    0  501    0  0.00000000000E+00  0.00000000000E+00  0.10451287820E+04  0.10451287820E+04  0.50400001928E-02 0. -1.
       -1   -1    0    0    0  501  0.00000000000E+00  0.00000000000E+00 -0.11920854277E+03  0.11920854288E+03  0.50400001928E-02 0.  1.
    10030    2    1    2    0    0  0.00000000000E+00  0.00000000000E+00  0.92592023924E+03  0.11643373249E+04  0.70594129835E+03 0.  0.
        5    1    3    3  502    0 -0.99267543764E+02 -0.43770068425E+02  0.10168937153E+04  0.10226753064E+04  0.46999998093E+01 0. -1.
       -5    1    3    3    0  502  0.99267543764E+02  0.43770068425E+02 -0.90973476064E+02  0.14166201848E+03  0.46999998093E+01 0.  1.
</event>
<event>
 5   0  0.9177281E-02  0.6022539E+03  0.7818609E-02  0.9900741E-01
       -1   -1    0    0    0  501  0.00000000000E+00  0.00000000000E+00  0.35905319763E+03  0.35905319766E+03  0.50400001928E-02 0.  1.
        1   -1    0    0  501    0  0.00000000000E+00  0.00000000000E+00 -0.25254600760E+03  0.25254600765E+03  0.50400001928E-02 0. -1.
    10030    2    1    2    0    0  0.00000000000E+00  0.00000000000E+00  0.10650719003E+03  0.61159920532E+03  0.60225393848E+03 0.  0.
        1    1    3    3  502    0  0.64597754800E+02 -0.25484789153E+03  0.20235535597E+03  0.33176498889E+03  0.50400001928E-02 0.  1.
       -1    1    3    3    0  502 -0.64597754800E+02  0.25484789153E+03 -0.95848165941E+02  0.27983421642E+03  0.50400001928E-02 0. -1.
</event>
<event>
 5   0  0.9420349E-02  0.6130405E+03  0.7818609E-02  0.9878715E-01
        1   -1    0    0  501    0  0.00000000000E+00  0.00000000000E+00  0.66710199006E+03  0.66710199008E+03  0.50400001928E-02 0.  1.
       -1   -1    0    0    0  501  0.00000000000E+00  0.00000000000E+00 -0.14084002603E+03  0.14084002612E+03  0.50400001928E-02 0. -1.
    10030    2    1    2    0    0  0.00000000000E+00  0.00000000000E+00  0.52626196403E+03  0.80794201620E+03  0.61304049357E+03 0.  0.
        2    1    3    3  502    0  0.18349347345E+03  0.15260277044E+03  0.96324387142E+01  0.23885192950E+03  0.25500000920E-02 0. -1.
       -2    1    3    3    0  502 -0.18349347345E+03 -0.15260277044E+03  0.51662952531E+03  0.56909008670E+03  0.25500000920E-02 0.  1.
</event>
<event>
 5   0  0.8860626E-02  0.6111772E+03  0.7818609E-02  0.9882484E-01
        1   -1    0    0  501    0  0.00000000000E+00  0.00000000000E+00  0.64553927947E+03  0.64553927949E+03  0.50400001928E-02 0. -1.
       -1   -1    0    0    0  501  0.00000000000E+00  0.00000000000E+00 -0.14466107397E+03  0.14466107405E+03  0.50400001928E-02 0.  1.
    10030    2    1    2    0    0  0.00000000000E+00  0.00000000000E+00  0.50087820551E+03  0.79020035355E+03  0.61117724270E+03 0.  0.
        3    1    3    3  502    0 -0.11134255860E+03  0.19698600804E+03  0.51598683619E+03  0.56342087114E+03  0.10100000352E+00 0. -1.
       -3    1    3    3    0  502  0.11134255860E+03 -0.19698600804E+03 -0.15108630682E+02  0.22677948240E+03  0.10100000352E+00 0.  1.
</event>
<event>
 5   0  0.1488510E-01  0.5981916E+03  0.7818609E-02  0.9909165E-01
        2   -1    0    0  501    0  0.00000000000E+00  0.00000000000E+00  0.61485230229E+03  0.61485230230E+03  0.25500000920E-02 0. -1.
       -2   -1    0    0    0  501  0.00000000000E+00  0.00000000000E+00 -0.14549560019E+03  0.14549560021E+03  0.25500000920E-02 0.  1.
    10030    2    1    2    0    0  0.00000000000E+00  0.00000000000E+00  0.46935670211E+03  0.76034790251E+03  0.59819162402E+03 0.  0.
        5    1    3    3  502    0 -0.11701426517E+03 -0.44992966848E+02  0.57979287989E+03  0.59321040019E+03  0.46999998093E+01 0. -1.
       -5    1    3    3    0  502  0.11701426517E+03  0.44992966848E+02 -0.11043617779E+03  0.16713750232E+03  0.46999998093E+01 0.  1.
</event>
<event>
 5   0  0.9497860E-02  0.5740113E+03  0.7818609E-02  0.9960841E-01
        1   -1    0    0  501    0  0.00000000000E+00  0.00000000000E+00  0.12215230732E+03  0.12215230742E+03  0.50400001928E-02 0.  1.
       -1   -1    0    0    0  501  0.00000000000E+00  0.00000000000E+00 -0.67434050880E+03  0.67434050882E+03  0.50400001928E-02 0. -1.
    10030    2    1    2    0    0  0.00000000000E+00  0.00000000000E+00 -0.55218820149E+03  0.79649281624E+03  0.57401132085E+03 0.  0.
        5    1    3    3  502    0 -0.18267971448E+03 -0.10059232878E+03 -0.25610490697E+01  0.20861290387E+03  0.46999998093E+01 0.  1.
       -5    1    3    3    0  502  0.18267971448E+03  0.10059232878E+03 -0.54962715242E+03  0.58787991237E+03  0.46999998093E+01 0. -1.
</event>
<event>
 5   0  0.1532571E-01  0.5954676E+03  0.7818609E-02  0.9914854E-01
       -2   -1    0    0    0  501  0.00000000000E+00  0.00000000000E+00  0.36213148833E+03  0.36213148834E+03  0.25500000920E-02 0. -1.
        2   -1    0    0  501    0  0.00000000000E+00  0.00000000000E+00 -0.24478790537E+03  0.24478790538E+03  0.25500000920E-02 0.  1.
    10030    2    1    2    0    0  0.00000000000E+00  0.00000000000E+00  0.11734358296E+03  0.60691939373E+03  0.59546757596E+03 0.  0.
        1    1    3    3  502    0 -0.22341486178E+03 -0.14511911512E+03  0.19416310496E+03  0.32965598643E+03  0.50400001928E-02 0. -1.
       -1    1    3    3    0  502  0.22341486178E+03  0.14511911512E+03 -0.76819521995E+02  0.27726340729E+03  0.50400001928E-02 0.  1.
</event>
<event>
 5   0  0.9177281E-02  0.6029015E+03  0.7818609E-02  0.9899405E-01
        1   -1    0    0  501    0  0.00000000000E+00  0.00000000000E+00  0.17512557263E+04  0.17512557263E+04  0.50400001928E-02 0. -1.
       -1   -1    0    0    0  501  0.00000000000E+00  0.00000000000E+00 -0.51889935935E+02  0.51889936180E+02  0.50400001928E-02 0.  1.
    10030    2    1    2    0    0  0.00000000000E+00  0.00000000000E+00  0.16993657904E+04  0.18031456625E+04  0.60290147677E+03 0.  0.
        1    1    3    3  502    0 -0.20255927007E+02  0.23600448749E+03  0.29204776295E+03  0.37603233446E+03  0.50400001928E-02 0.  1.
       -1    1    3    3    0  502  0.20255927007E+02 -0.23600448749E+03  0.14073180275E+04  0.14271133281E+04  0.50400001928E-02 0. -1.
</event>
<event>
 5   0  0.1483942E-01  0.6272248E+03  0.7818609E-02  0.9850479E-01
       -2   -1    0    0    0  501  0.00000000000E+00  0.00000000000E+00  0.37311270295E+03  0.37311270296E+03  0.25500000920E-02 0. -1.
        2   -1    0    0  501    0  0.00000000000E+00  0.00000000000E+00 -0.26360058906E+03  0.26360058907E+03  0.25500000920E-02 0.  1.
    10030    2    1    2    0    0  0.00000000000E+00  0.00000000000E+00  0.10951211389E+03  0.63671329203E+03  0.62722477084E+03 0.  0.
        4    1    3    3  502    0  0.25535765103E+02 -0.98440209565E+02  0.35590627727E+03  0.37015326725E+03  0.12699999809E+01 0. -1.
       -4    1    3    3    0  502 -0.25535765103E+02  0.98440209565E+02 -0.24639416338E+03  0.26656002477E+03  0.12699999809E+01 0.  1.
</event>
<event>
 5   0  0.1513339E-01  0.5963840E+03  0.7818609E-02  0.9912937E-01
       -2   -1    0    0    0  501  0.00000000000E+00  0.00000000000E+00  0.61479707628E+02  0.61479707681E+02  0.25500000920E-02 0.  1.
        2   -1    0    0  501    0  0.00000000000E+00  0.00000000000E+00 -0.14463061002E+04  0.14463061002E+04  0.25500000920E-02 0. -1.
    10030    2    1    2    0    0  0.00000000000E+00  0.00000000000E+00 -0.13848263926E+04  0.15077858079E+04  0.59638402469E+03 0.  0.
        3    1    3    3  502    0 -0.25104785978E+03 -0.87472056895E+02 -0.10338818141E+04  0.10675148731E+04  0.10100000352E+00 0. -1.
       -3    1    3    3    0  502  0.25104785978E+03  0.87472056895E+02 -0.35094457855E+03  0.44027093482E+03  0.10100000352E+00 0.  1.
</event>
<event>
 5   0  0.9177281E-02  0.6000489E+03  0.7818609E-02  0.9905305E-01
       -1   -1    0    0    0  501  0.00000000000E+00  0.00000000000E+00  0.81887819007E+02  0.81887819162E+02  0.50400001928E-02 0.  1.
        1   -1    0    0  501    0  0.00000000000E+00  0.00000000000E+00 -0.10992437695E+04  0.10992437695E+04  0.50400001928E-02 0. -1.
    10030    2    1    2    0    0  0.00000000000E+00  0.00000000000E+00 -0.10173559505E+04  0.11811315887E+04  0.60004891448E+03 0.  0.
        1    1    3    3  502    0  0.25374012484E+03  0.58263673286E+00 -0.19354899533E+03  0.31913258066E+03  0.50400001928E-02 0.  1.
       -1    1    3    3    0  502 -0.25374012484E+03 -0.58263673286E+00 -0.82380695520E+03  0.86199900805E+03  0.50400001928E-02 0. -1.
</event>
<event>
 5   0  0.9497860E-02  0.6049337E+03  0.7818609E-02  0.9895223E-01
       -1   -1    0    0    0  501  0.00000000000E+00  0.00000000000E+00  0.14774451628E+03  0.14774451637E+03  0.50400001928E-02 0. -1.
        1   -1    0    0  501    0  0.00000000000E+00  0.00000000000E+00 -0.61921884293E+03  0.61921884295E+03  0.50400001928E-02 0.  1.
    10030    2    1    2    0    0  0.00000000000E+00  0.00000000000E+00 -0.47147432665E+03  0.76696335931E+03  0.60493367723E+03 0.  0.
        5    1    3    3  502    0 -0.15674556072E+03 -0.25120613787E+03 -0.31379375821E+03  0.43146530243E+03  0.46999998093E+01 0. -1.
       -5    1    3    3    0  502  0.15674556072E+03  0.25120613787E+03 -0.15768056843E+03  0.33549805688E+03  0.46999998093E+01 0.  1.
</event>
<event>
 5   0  0.9497860E-02  0.5184713E+03  0.7818609E-02  0.1009067E+00
       -1   -1    0    0    0  501  0.00000000000E+00  0.00000000000E+00  0.18333686704E+03  0.18333686711E+03  0.50400001928E-02 0. -1.
        1   -1    0    0  501    0  0.00000000000E+00  0.00000000000E+00 -0.36655541510E+03  0.36655541513E+03  0.50400001928E-02 0.  1.
    10030    2    1    2    0    0  0.00000000000E+00  0.00000000000E+00 -0.18321854806E+03  0.54989228225E+03  0.51847129691E+03 0.  0.
        5    1    3    3  502    0 -0.23562659247E+03 -0.31145903544E+02  0.18054592548E+02  0.23840724968E+03  0.46999998093E+01 0. -1.
       -5    1    3    3    0  502  0.23562659247E+03  0.31145903544E+02 -0.20127314060E+03  0.31148503257E+03  0.46999998093E+01 0.  1.
</event>
<event>
 5   0  0.9420349E-02  0.6390632E+03  0.7818609E-02  0.9827521E-01
        1   -1    0    0  501    0  0.00000000000E+00  0.00000000000E+00  0.34586461253E+03  0.34586461256E+03  0.50400001928E-02 0.  1.
       -1   -1    0    0    0  501  0.00000000000E+00  0.00000000000E+00 -0.29520347423E+03  0.29520347428E+03  0.50400001928E-02 0. -1.
    10030    2    1    2    0    0  0.00000000000E+00  0.00000000000E+00  0.50661138294E+02  0.64106808684E+03  0.63906317452E+03 0.  0.
        2    1    3    3  502    0 -0.10802625003E+03 -0.20487603774E+03  0.24614971040E+03  0.33798452845E+03  0.25500000920E-02 0.  1.
       -2    1    3    3    0  502  0.10802625003E+03  0.20487603774E+03 -0.19548857211E+03  0.30308355839E+03  0.25500000920E-02 0. -1.
</event>
<event>
 5   0  0.1513339E-01  0.6006623E+03  0.7818609E-02  0.9904033E-01
        2   -1    0    0  501    0  0.00000000000E+00  0.00000000000E+00  0.60702824851E+03  0.60702824851E+03  0.25500000920E-02 0. -1.
       -2   -1    0    0    0  501  0.00000000000E+00  0.00000000000E+00 -0.14859079974E+03  0.14859079976E+03  0.25500000920E-02 0.  1.
    10030    2    1    2    0    0  0.00000000000E+00  0.00000000000E+00  0.45843744877E+03  0.75561904828E+03  0.60066234416E+03 0.  0.
        3    1    3    3  502    0 -0.13706788115E+03 -0.23939067458E+03  0.79824805979E+02  0.28717156713E+03  0.10100000352E+00 0. -1.
       -3    1    3    3    0  502  0.13706788115E+03  0.23939067458E+03  0.37861264279E+03  0.46844748115E+03  0.10100000352E+00 0.  1.
</event>
<event>
 5   0  0.1502642E-01  0.6116992E+03  0.7818609E-02  0.9881427E-01
       -2   -1    0    0    0  501  0.00000000000E+00  0.00000000000E+00  0.38169018978E+03  0.38169018979E+03  0.25500000920E-02 0. -1.
        2   -1    0    0  501    0  0.00000000000E+00  0.00000000000E+00 -0.24507829069E+03  0.24507829070E+03  0.25500000920E-02 0.  1.
    10030    2    1    2    0    0  0.00000000000E+00  0.00000000000E+00  0.13661189909E+03  0.62676848049E+03  0.61169920481E+03 0.  0.
        2    1    3    3  502    0 -0.12489629215E+02  0.19303094481E+02  0.38080349622E+03  0.38149692402E+03  0.25500000920E-02 0. -1.
       -2    1    3    3    0  502  0.12489629215E+02 -0.19303094481E+02 -0.24419159713E+03  0.24527155647E+03  0.25500000920E-02 0.  1.
</event>
<event>
 5   0  0.1513339E-01  0.6128566E+03  0.7818609E-02  0.9879086E-01
        2   -1    0    0  501    0  0.00000000000E+00  0.00000000000E+00  0.75416436694E+03  0.75416436694E+03  0.25500000920E-02 0. -1.
       -2   -1    0    0    0  501  0.00000000000E+00  0.00000000000E+00 -0.12450642392E+03  0.12450642394E+03  0.25500000920E-02 0.  1.
    10030    2    1    2    0    0  0.00000000000E+00  0.00000000000E+00  0.62965794302E+03  0.87867079089E+03  0.61285661745E+03 0.  0.
        3    1    3    3  502    0  0.22586182250E+03 -0.42168951673E+02  0.24143960355E+02  0.23102970452E+03  0.10100000352E+00 0.  1.
       -3    1    3    3    0  502 -0.22586182250E+03  0.42168951673E+02  0.60551398267E+03  0.64764108637E+03  0.10100000352E+00 0. -1.
</event>
<event>
 5   0  0.1502642E-01  0.6019438E+03  0.7818609E-02  0.9901381E-01
       -2   -1    0    0    0  501  0.00000000000E+00  0.00000000000E+00  0.58592279415E+02  0.58592279471E+02  0.25500000920E-02 0.  1.
        2   -1    0    0  501    0  0.00000000000E+00  0.00000000000E+00 -0.15460073916E+04  0.15460073916E+04  0.25500000920E-02 0. -1.
    10030    2    1    2    0    0  0.00000000000E+00  0.00000000000E+00 -0.14874151122E+04  0.16045996711E+04  0.60194384161E+03 0.  0.
        2    1    3    3  502    0  0.48677963260E+02  0.27468588194E+03 -0.44256382694E+03  0.52314875396E+03  0.25500000920E-02 0. -1.
       -2    1    3    3    0  502 -0.48677963260E+02 -0.27468588194E+03 -0.10448512852E+04  0.10814509171E+04  0.25500000920E-02 0.  1.
</event>
<event>
 5   0  0.1513339E-01  0.5962598E+03  0.7818609E-02  0.9913196E-01
       -2   -1    0    0    0  501  0.00000000000E+00  0.00000000000E+00  0.71399192094E+02  0.71399192140E+02  0.25500000920E-02 0.  1.
        2   -1    0    0  501    0  0.00000000000E+00  0.00000000000E+00 -0.12448523030E+04  0.12448523031E+04  0.25500000920E-02 0. -1.
    10030    2    1    2    0    0  0.00000000000E+00  0.00000000000E+00 -0.11734531110E+04  0.13162514952E+04  0.59625983848E+03 0.  0.
        3    1    3    3  502    0  0.43688906395E+02  0.19799838145E+03 -0.10424798799E+03  0.22799064192E+03  0.10100000352E+00 0.  1.
       -3    1    3    3    0  502 -0.43688906395E+02 -0.19799838145E+03 -0.10692051230E+04  0.10882608533E+04  0.10100000352E+00 0. -1.
</event>
<event>
 5   0  0.1488510E-01  0.5967702E+03  0.7818609E-02  0.9912130E-01
        2   -1    0    0  501    0  0.00000000000E+00  0.00000000000E+00  0.29358579113E+03  0.29358579114E+03  0.25500000920E-02 0. -1.
       -2   -1    0    0    0  501  0.00000000000E+00  0.00000000000E+00 -0.30326289725E+03  0.30326289726E+03  0.25500000920E-02 0.  1.
    10030    2    1    2    0    0  0.00000000000E+00  0.00000000000E+00 -0.96771061203E+01  0.59684868841E+03  0.59677023256E+03 0.  0.
        5    1    3    3  502    0 -0.12543268875E+03 -0.24382233770E+03  0.11277323286E+03  0.29651742583E+03  0.46999998093E+01 0. -1.
       -5    1    3    3    0  502  0.12543268875E+03  0.24382233770E+03 -0.12245033898E+03  0.30033126258E+03  0.46999998093E+01 0.  1.
</event>
<event>
 5   0  0.1483942E-01  0.5948780E+03  0.7818609E-02  0.9916090E-01
       -2   -1    0    0    0  501  0.00000000000E+00  0.00000000000E+00  0.16333461649E+03  0.16333461651E+03  0.25500000920E-02 0. -1.
        2   -1    0    0  501    0  0.00000000000E+00  0.00000000000E+00 -0.54164862574E+03  0.54164862574E+03  0.25500000920E-02 0.  1.
    10030    2    1    2    0    0  0.00000000000E+00  0.00000000000E+00 -0.37831400925E+03  0.70498324225E+03  0.59487803982E+03 0.  0.
        4    1    3    3  502    0  0.72665239405E+02 -0.21004890859E+03 -0.42339594412E+03  0.47819088178E+03  0.12699999809E+01 0. -1.
       -4    1    3    3    0  502 -0.72665239405E+02  0.21004890859E+03  0.45081934870E+02  0.22679236048E+03  0.12699999809E+01 0.  1.
</event>
<event>
 5   0  0.1483942E-01  0.5792020E+03  0.7818609E-02  0.9949520E-01
        2   -1    0    0  501    0  0.00000000000E+00  0.00000000000E+00  0.14818454805E+04  0.14818454805E+04  0.25500000920E-02 0. -1.
       -2   -1    0    0    0  501  0.00000000000E+00  0.00000000000E+00 -0.56597486876E+02  0.56597486933E+02  0.25500000920E-02 0.  1.
    10030    2    1    2    0    0  0.00000000000E+00  0.00000000000E+00  0.14252479937E+04  0.15384429675E+04  0.57920196886E+03 0.  0.
        4    1    3    3  502    0  0.10796249060E+03 -0.11390857715E+03  0.13590881254E+04  0.13681203195E+04  0.12699999809E+01 0. -1.
       -4    1    3    3    0  502 -0.10796249060E+03  0.11390857715E+03  0.66159868282E+02  0.17032264792E+03  0.12699999809E+01 0.  1.
</event>
<event>
 5   0  0.9177281E-02  0.5745005E+03  0.7818609E-02  0.9959769E-01
        1   -1    0    0  501    0  0.00000000000E+00  0.00000000000E+00  0.35406064408E+03  0.35406064411E+03  0.50400001928E-02 0. -1.
       -1   -1    0    0    0  501  0.00000000000E+00  0.00000000000E+00 -0.23304678634E+03  0.23304678639E+03  0.50400001928E-02 0.  1.
    10030    2    1    2    0    0  0.00000000000E+00  0.00000000000E+00  0.12101385774E+03  0.58710743050E+03  0.57450046230E+03 0.  0.
        1    1    3    3  502    0  0.13257577455E+03  0.97799558258E+02 -0.17996852502E+03  0.24398721199E+03  0.50400001928E-02 0.  1.
       -1    1    3    3    0  502 -0.13257577455E+03 -0.97799558258E+02  0.30098238276E+03  0.34312021851E+03  0.50400001928E-02 0. -1.
</event>
<event>
 5   0  0.1502642E-01  0.5519082E+03  0.7818609E-02  0.1001053E+00
       -2   -1    0    0    0  501  0.00000000000E+00  0.00000000000E+00  0.13597017774E+03  0.13597017776E+03  0.25500000920E-02 0. -1.
        2   -1    0    0  501    0  0.00000000000E+00  0.00000000000E+00 -0.56005424958E+03  0.56005424958E+03  0.25500000920E-02 0.  1.
    10030    2    1    2    0    0  0.00000000000E+00  0.00000000000E+00 -0.42408407184E+03  0.69602442735E+03  0.55190823827E+03 0.  0.
        2    1    3    3  502    0  0.16750025724E+03 -0.39270490960E+02 -0.48414142186E+03  0.51380095757E+03  0.25500000920E-02 0.  1.
       -2    1    3    3    0  502 -0.16750025724E+03  0.39270490960E+02  0.60057350023E+02  0.18222346977E+03  0.25500000920E-02 0. -1.
</event>
<event>
 5   0  0.9497860E-02  0.6023799E+03  0.7818609E-02  0.9900481E-01
        1   -1    0    0  501    0  0.00000000000E+00  0.00000000000E+00  0.19824177400E+03  0.19824177406E+03  0.50400001928E-02 0.  1.
       -1   -1    0    0    0  501  0.00000000000E+00  0.00000000000E+00 -0.45759970325E+03  0.45759970327E+03  0.50400001928E-02 0. -1.
    10030    2    1    2    0    0  0.00000000000E+00  0.00000000000E+00 -0.25935792925E+03  0.65584147734E+03  0.60237987012E+03 0.  0.
        5    1    3    3  502    0 -0.27316504576E+03  0.76081610837E+01 -0.26746620201E+03  0.38240983977E+03  0.46999998093E+01 0. -1.
       -5    1    3    3    0  502  0.27316504576E+03 -0.76081610837E+01  0.81082727566E+01  0.27343163757E+03  0.46999998093E+01 0.  1.
</event>
<event>
 5   0  0.9411028E-02  0.6059801E+03  0.7818609E-02  0.9893076E-01
       -1   -1    0    0    0  501  0.00000000000E+00  0.00000000000E+00  0.12135756618E+04  0.12135756618E+04  0.50400001928E-02 0. -1.
        1   -1    0    0  501    0  0.00000000000E+00  0.00000000000E+00 -0.75646676675E+02  0.75646676843E+02  0.50400001928E-02 0.  1.
    10030    2    1    2    0    0  0.00000000000E+00  0.00000000000E+00  0.11379289851E+04  0.12892223387E+04  0.60598008491E+03 0.  0.
        4    1    3    3  502    0  0.26472132836E+03 -0.13372892892E+03  0.70081016775E+03  0.76098443626E+03  0.12699999809E+01 0. -1.
       -4    1    3    3    0  502 -0.26472132836E+03  0.13372892892E+03  0.43711881739E+03  0.52823790241E+03  0.12699999809E+01 0.  1.
</event>
<event>
 5   0  0.8860626E-02  0.6052644E+03  0.7818609E-02  0.9894544E-01
       -1   -1    0    0    0  501  0.00000000000E+00  0.00000000000E+00  0.87407761386E+02  0.87407761531E+02  0.50400001928E-02 0. -1.
        1   -1    0    0  501    0  0.00000000000E+00  0.00000000000E+00 -0.10478046844E+04  0.10478046844E+04  0.50400001928E-02 0.  1.
    10030    2    1    2    0    0  0.00000000000E+00  0.00000000000E+00 -0.96039692303E+03  0.11352124460E+04  0.60526444443E+03 0.  0.
        3    1    3    3  502    0 -0.16817933219E+03 -0.63552315713E+02 -0.93678598871E+03  0.95388216435E+03  0.10100000352E+00 0.  1.
       -3    1    3    3    0  502  0.16817933219E+03  0.63552315713E+02 -0.23610934315E+02  0.18133028161E+03  0.10100000352E+00 0. -1.
</event>
<event>
 5   0  0.1532571E-01  0.5767181E+03  0.7818609E-02  0.9954922E-01
       -2   -1    0    0    0  501  0.00000000000E+00  0.00000000000E+00  0.17779171787E+03  0.17779171789E+03  0.25500000920E-02 0. -1.
        2   -1    0    0  501    0  0.00000000000E+00  0.00000000000E+00 -0.46768729516E+03  0.46768729517E+03  0.25500000920E-02 0.  1.
    10030    2    1    2    0    0  0.00000000000E+00  0.00000000000E+00 -0.28989557729E+03  0.64547901306E+03  0.57671805118E+03 0.  0.
        1    1    3    3  502    0 -0.14559804731E+03  0.26318119897E+02 -0.42196406021E+03  0.44715221452E+03  0.50400001928E-02 0.  1.
       -1    1    3    3    0  502  0.14559804731E+03 -0.26318119897E+02  0.13206848291E+03  0.19832679854E+03  0.50400001928E-02 0. -1.
</event>
<event>
 5   0  0.1513339E-01  0.6102876E+03  0.7818609E-02  0.9884290E-01
       -2   -1    0    0    0  501  0.00000000000E+00  0.00000000000E+00  0.53040414486E+02  0.53040414547E+02  0.25500000920E-02 0.  1.
        2   -1    0    0  501    0  0.00000000000E+00  0.00000000000E+00 -0.17555052188E+04  0.17555052188E+04  0.25500000920E-02 0. -1.
    10030    2    1    2    0    0  0.00000000000E+00  0.00000000000E+00 -0.17024648043E+04  0.18085456333E+04  0.61028755352E+03 0.  0.
        3    1    3    3  502    0 -0.21755741886E+03 -0.16806374992E+03 -0.12436612876E+04  0.12736836589E+04  0.10100000352E+00 0. -1.
       -3    1    3    3    0  502  0.21755741886E+03  0.16806374992E+03 -0.45880351676E+03  0.53486197447E+03  0.10100000352E+00 0.  1.
</event>
<event>
 5   0  0.1488510E-01  0.5991207E+03  0.7818609E-02  0.9907232E-01
        2   -1    0    0  501    0  0.00000000000E+00  0.00000000000E+00  0.54511572204E+03  0.54511572205E+03  0.25500000920E-02 0. -1.
       -2   -1    0    0    0  501  0.00000000000E+00  0.00000000000E+00 -0.16461900819E+03  0.16461900821E+03  0.25500000920E-02 0.  1.
    10030    2    1    2    0    0  0.00000000000E+00  0.00000000000E+00  0.38049671385E+03  0.70973473026E+03  0.59912072079E+03 0.  0.
        5    1    3    3  502    0 -0.11392853629E+03  0.13732822954E+03  0.47523817317E+03  0.50765358784E+03  0.46999998093E+01 0. -1.
       -5    1    3    3    0  502  0.11392853629E+03 -0.13732822954E+03 -0.94741459317E+02  0.20208114242E+03  0.46999998093E+01 0.  1.
</event>
<event>
 5   0  0.9497860E-02  0.5957422E+03  0.7818609E-02  0.9914279E-01
       -1   -1    0    0    0  501  0.00000000000E+00  0.00000000000E+00  0.18566708402E+03  0.18566708409E+03  0.50400001928E-02 0.  1.
        1   -1    0    0  501    0  0.00000000000E+00  0.00000000000E+00 -0.47788331675E+03  0.47788331677E+03  0.50400001928E-02 0. -1.
    10030    2    1    2    0    0  0.00000000000E+00  0.00000000000E+00 -0.29221623273E+03  0.66355040086E+03  0.59574223270E+03 0.  0.
        5    1    3    3  502    0  0.17413473691E+03 -0.18957957309E+03  0.20748826486E+02  0.25829426036E+03  0.46999998093E+01 0.  1.
       -5    1    3    3    0  502 -0.17413473691E+03  0.18957957309E+03 -0.31296505921E+03  0.40525614051E+03  0.46999998093E+01 0. -1.
</event>
<event>
 5   0  0.1513339E-01  0.5985509E+03  0.7818609E-02  0.9908417E-01
       -2   -1    0    0    0  501  0.00000000000E+00  0.00000000000E+00  0.47421859937E+03  0.47421859937E+03  0.25500000920E-02 0.  1.
        2   -1    0    0  501    0  0.00000000000E+00  0.00000000000E+00 -0.18887029705E+03  0.18887029707E+03  0.25500000920E-02 0. -1.
    10030    2    1    2    0    0  0.00000000000E+00  0.00000000000E+00  0.28534830231E+03  0.66308889644E+03  0.59855094266E+03 0.  0.
        3    1    3    3  502    0  0.60802266973E+02  0.16096366116E+03 -0.12859470339E+03  0.21480880760E+03  0.10100000352E+00 0. -1.
       -3    1    3    3    0  502 -0.60802266973E+02 -0.16096366116E+03  0.41394300570E+03  0.44828008884E+03  0.10100000352E+00 0.  1.
</event>
<event>
 5   0  0.1483942E-01  0.5699930E+03  0.7818609E-02  0.9969694E-01
        2   -1    0    0  501    0  0.00000000000E+00  0.00000000000E+00  0.50105696371E+03  0.50105696371E+03  0.25500000920E-02 0. -1.
       -2   -1    0    0    0  501  0.00000000000E+00  0.00000000000E+00 -0.16210330776E+03  0.16210330778E+03  0.25500000920E-02 0.  1.
    10030    2    1    2    0    0  0.00000000000E+00  0.00000000000E+00  0.33895365595E+03  0.66316027150E+03  0.56999295155E+03 0.  0.
        4    1    3    3  502    0 -0.18003594460E+03 -0.58923601966E+02  0.41720349057E+03  0.45819788047E+03  0.12699999809E+01 0. -1.
       -4    1    3    3    0  502  0.18003594460E+03  0.58923601966E+02 -0.78249834628E+02  0.20496239103E+03  0.12699999809E+01 0.  1.
</event>
<event>
 5   0  0.1488510E-01  0.6021616E+03  0.7818609E-02  0.9900932E-01
        2   -1    0    0  501    0  0.00000000000E+00  0.00000000000E+00  0.20289362292E+04  0.20289362292E+04  0.25500000920E-02 0. -1.
       -2   -1    0    0    0  501  0.00000000000E+00  0.00000000000E+00 -0.44678414440E+02  0.44678414513E+02  0.25500000920E-02 0.  1.
    10030    2    1    2    0    0  0.00000000000E+00  0.00000000000E+00  0.19842578147E+04  0.20736146437E+04  0.60216161882E+03 0.  0.
        5    1    3    3  502    0 -0.12171067100E+03  0.27439170299E+03  0.91335583720E+03  0.96142876463E+03  0.46999998093E+01 0.  1.
       -5    1    3    3    0  502  0.12171067100E+03 -0.27439170299E+03  0.10709019775E+04  0.11121858790E+04  0.46999998093E+01 0. -1.
</event>
<event>
 5   0  0.8860626E-02  0.4882214E+03  0.7818609E-02  0.1016900E+00
        1   -1    0    0  501    0  0.00000000000E+00  0.00000000000E+00  0.43234894830E+03  0.43234894833E+03  0.50400001928E-02 0.  1.
       -1   -1    0    0    0  501  0.00000000000E+00  0.00000000000E+00 -0.13782856893E+03  0.13782856902E+03  0.50400001928E-02 0. -1.
    10030    2    1    2    0    0  0.00000000000E+00  0.00000000000E+00  0.29452037938E+03  0.57017751736E+03  0.48822141230E+03 0.  0.
        3    1    3    3  502    0  0.82660780777E+02 -0.15020012601E+03  0.35020418308E+03  0.38991776387E+03  0.10100000352E+00 0.  1.
       -3    1    3    3    0  502 -0.82660780777E+02  0.15020012601E+03 -0.55683803701E+02  0.18025975349E+03  0.10100000352E+00 0. -1.
</event>
<event>
 5   0  0.1513339E-01  0.6125936E+03  0.7818609E-02  0.9879617E-01
       -2   -1    0    0    0  501  0.00000000000E+00  0.00000000000E+00  0.12029555868E+03  0.12029555871E+03  0.25500000920E-02 0. -1.
        2   -1    0    0  501    0  0.00000000000E+00  0.00000000000E+00 -0.77989359773E+03  0.77989359774E+03  0.25500000920E-02 0.  1.
    10030    2    1    2    0    0  0.00000000000E+00  0.00000000000E+00 -0.65959803905E+03  0.90018915645E+03  0.61259362082E+03 0.  0.
        3    1    3    3  502    0 -0.87596596272E+02  0.87184294094E+02  0.82029410763E+02  0.14833441693E+03  0.10100000352E+00 0. -1.
       -3    1    3    3    0  502  0.87596596272E+02 -0.87184294094E+02 -0.74162744981E+03  0.75185473952E+03  0.10100000352E+00 0.  1.
</event>
<event>
 5   0  0.1532571E-01  0.5826303E+03  0.7818609E-02  0.9942113E-01
       -2   -1    0    0    0  501  0.00000000000E+00  0.00000000000E+00  0.27497320051E+03  0.27497320052E+03  0.25500000920E-02 0.  1.
        2   -1    0    0  501    0  0.00000000000E+00  0.00000000000E+00 -0.30862833269E+03  0.30862833270E+03  0.25500000920E-02 0. -1.
    10030    2    1    2    0    0  0.00000000000E+00  0.00000000000E+00 -0.33655132187E+02  0.58360153322E+03  0.58263031302E+03 0.  0.
        1    1    3    3  502    0  0.12459279795E+03  0.15016925305E+03  0.19984378788E+03  0.27930576335E+03  0.50400001928E-02 0.  1.
       -1    1    3    3    0  502 -0.12459279795E+03 -0.15016925305E+03 -0.23349892006E+03  0.30429576987E+03  0.50400001928E-02 0. -1.
</event>
<event>
 5   0  0.1483942E-01  0.6017296E+03  0.7818609E-02  0.9901824E-01
       -2   -1    0    0    0  501  0.00000000000E+00  0.00000000000E+00  0.17016623413E+03  0.17016623415E+03  0.25500000920E-02 0. -1.
        2   -1    0    0  501    0  0.00000000000E+00  0.00000000000E+00 -0.53194827233E+03  0.53194827234E+03  0.25500000920E-02 0.  1.
    10030    2    1    2    0    0  0.00000000000E+00  0.00000000000E+00 -0.36178203820E+03  0.70211450649E+03  0.60172962122E+03 0.  0.
        4    1    3    3  502    0  0.11034655172E+03  0.70314053372E+02 -0.49700773866E+03  0.51394428955E+03  0.12699999809E+01 0.  1.
       -4    1    3    3    0  502 -0.11034655172E+03 -0.70314053372E+02  0.13522570045E+03  0.18817021694E+03  0.12699999809E+01 0. -1.
</event>
<event>
 5   0  0.1532571E-01  0.5798656E+03  0.7818609E-02  0.9948082E-01
        2   -1    0    0  501    0  0.00000000000E+00  0.00000000000E+00  0.16798669741E+04  0.16798669741E+04  0.25500000920E-02 0.  1.
       -2   -1    0    0    0  501  0.00000000000E+00  0.00000000000E+00 -0.50040291106E+02  0.50040291171E+02  0.25500000920E-02 0. -1.
    10030    2    1    2    0    0  0.00000000000E+00  0.00000000000E+00  0.16298266830E+04  0.17299072653E+04  0.57986561361E+03 0.  0.
        1    1    3    3  502    0 -0.54770155100E+02  0.16035656879E+03  0.11306602965E+03  0.20371039769E+03  0.50400001928E-02 0. -1.
       -1    1    3    3    0  502  0.54770155100E+02 -0.16035656879E+03  0.15167606533E+04  0.15261968676E+04  0.50400001928E-02 0.  1.
</event>
<event>
 5   0  0.1513339E-01  0.6140052E+03  0.7818609E-02  0.9876768E-01
        2   -1    0    0  501    0  0.00000000000E+00  0.00000000000E+00  0.88275829254E+03  0.88275829254E+03  0.25500000920E-02 0.  1.
       -2   -1    0    0    0  501  0.00000000000E+00  0.00000000000E+00 -0.10676829229E+03  0.10676829232E+03  0.25500000920E-02 0. -1.
    10030    2    1    2    0    0  0.00000000000E+00  0.00000000000E+00  0.77599000025E+03  0.98952658486E+03  0.61400519676E+03 0.  0.
        3    1    3    3  502    0  0.11450989857E+03 -0.28374172590E+03  0.42840395402E+03  0.52645212689E+03  0.10100000352E+00 0.  1.
       -3    1    3    3    0  502 -0.11450989857E+03  0.28374172590E+03  0.34758604624E+03  0.46307445797E+03  0.10100000352E+00 0. -1.
</event>
<event>
 5   0  0.1502642E-01  0.5891431E+03  0.7818609E-02  0.9928190E-01
        2   -1    0    0  501    0  0.00000000000E+00  0.00000000000E+00  0.30259482850E+03  0.30259482851E+03  0.25500000920E-02 0.  1.
       -2   -1    0    0    0  501  0.00000000000E+00  0.00000000000E+00 -0.28676097932E+03  0.28676097934E+03  0.25500000920E-02 0. -1.
    10030    2    1    2    0    0  0.00000000000E+00  0.00000000000E+00  0.15833849173E+02  0.58935580784E+03  0.58914307045E+03 0.  0.
        2    1    3    3  502    0  0.18138039954E+03  0.22107564090E+03 -0.62812927591E+02  0.29277764979E+03  0.25500000920E-02 0.  1.
       -2    1    3    3    0  502 -0.18138039954E+03 -0.22107564090E+03  0.78646776763E+02  0.29657815806E+03  0.25500000920E-02 0. -1.
</event>
<event>
 5   0  0.1532571E-01  0.6042710E+03  0.7818609E-02  0.9896585E-01
        2   -1    0    0  501    0  0.00000000000E+00  0.00000000000E+00  0.40779117738E+03  0.40779117739E+03  0.25500000920E-02 0. -1.
       -2   -1    0    0    0  501  0.00000000000E+00  0.00000000000E+00 -0.22385439063E+03  0.22385439065E+03  0.25500000920E-02 0.  1.
    10030    2    1    2    0    0  0.00000000000E+00  0.00000000000E+00  0.18393678675E+03  0.63164556803E+03  0.60427095090E+03 0.  0.
        1    1    3    3  502    0 -0.16682178733E+03 -0.17246777515E+02  0.35466772330E+03  0.39232149322E+03  0.50400001928E-02 0. -1.
       -1    1    3    3    0  502  0.16682178733E+03  0.17246777515E+02 -0.17073093656E+03  0.23932407482E+03  0.50400001928E-02 0.  1.
</event>
<event>
 5   0  0.1502642E-01  0.5956345E+03  0.7818609E-02  0.9914505E-01
        2   -1    0    0  501    0  0.00000000000E+00  0.00000000000E+00  0.79567501790E+03  0.79567501791E+03  0.25500000920E-02 0. -1.
       -2   -1    0    0    0  501  0.00000000000E+00  0.00000000000E+00 -0.11147154382E+03  0.11147154385E+03  0.25500000920E-02 0.  1.
    10030    2    1    2    0    0  0.00000000000E+00  0.00000000000E+00  0.68420347409E+03  0.90714656175E+03  0.59563452767E+03 0.  0.
        2    1    3    3  502    0 -0.20548800826E+03  0.11473567754E+03  0.64158738571E+02  0.24393839588E+03  0.25500000920E-02 0.  1.
       -2    1    3    3    0  502  0.20548800826E+03 -0.11473567754E+03  0.62004473552E+03  0.66320816588E+03  0.25500000920E-02 0. -1.
</event>
<event>
 5   0  0.9411028E-02  0.4064411E+03  0.7818609E-02  0.1041572E+00
       -1   -1    0    0    0  501  0.00000000000E+00  0.00000000000E+00  0.30404880787E+02  0.30404881204E+02  0.50400001928E-02 0.  1.
        1   -1    0    0  501    0  0.00000000000E+00  0.00000000000E+00 -0.13582885092E+04  0.13582885092E+04  0.50400001928E-02 0. -1.
    10030    2    1    2    0    0  0.00000000000E+00  0.00000000000E+00 -0.13278836284E+04  0.13886933904E+04  0.40644114207E+03 0.  0.
        4    1    3    3  502    0  0.67688902675E+02 -0.91163251825E+02 -0.88101606430E+02  0.14372206506E+03  0.12699999809E+01 0.  1.
       -4    1    3    3    0  502 -0.67688902675E+02  0.91163251825E+02 -0.12397820220E+04  0.12449713253E+04  0.12699999809E+01 0. -1.
</event>
<event>
 5   0  0.9420349E-02  0.6292788E+03  0.7818609E-02  0.9846457E-01
        1   -1    0    0  501    0  0.00000000000E+00  0.00000000000E+00  0.21329182954E+03  0.21329182960E+03  0.50400001928E-02 0. -1.
       -1   -1    0    0    0  501  0.00000000000E+00  0.00000000000E+00 -0.46414315020E+03  0.46414315023E+03  0.50400001928E-02 0.  1.
    10030    2    1    2    0    0  0.00000000000E+00  0.00000000000E+00 -0.25085132066E+03  0.67743497983E+03  0.62927876717E+03 0.  0.
        2    1    3    3  502    0 -0.14664473335E+03  0.17739764909E+03  0.10552201587E+03  0.25319853783E+03  0.25500000920E-02 0. -1.
       -2    1    3    3    0  502  0.14664473335E+03 -0.17739764909E+03 -0.35637333653E+03  0.42423644200E+03  0.25500000920E-02 0.  1.
</event>
<event>
 5   0  0.9420349E-02  0.5833721E+03  0.7818609E-02  0.9940517E-01
        1   -1    0    0  501    0  0.00000000000E+00  0.00000000000E+00  0.71990008441E+03  0.71990008443E+03  0.50400001928E-02 0. -1.
       -1   -1    0    0    0  501  0.00000000000E+00  0.00000000000E+00 -0.11818411614E+03  0.11818411625E+03  0.50400001928E-02 0.  1.
    10030    2    1    2    0    0  0.00000000000E+00  0.00000000000E+00  0.60171596827E+03  0.83808420068E+03  0.58337211191E+03 0.  0.
        2    1    3    3  502    0 -0.17668757741E+03 -0.17016601736E+02 -0.31658912467E+02  0.18030627136E+03  0.25500000920E-02 0.  1.
       -2    1    3    3    0  502  0.17668757741E+03  0.17016601736E+02  0.63337488074E+03  0.65777792932E+03  0.25500000920E-02 0. -1.
</event>
<event>
 5   0  0.6170500E-02  0.6055869E+03  0.7818609E-02  0.9893882E-01
        3   -1    0    0  501    0  0.00000000000E+00  0.00000000000E+00  0.38528655152E+03  0.38528656476E+03  0.10100000352E+00 0. -1.
       -3   -1    0    0    0  501  0.00000000000E+00  0.00000000000E+00 -0.23796276573E+03  0.23796278716E+03  0.10100000352E+00 0.  1.
    10030    2    1    2    0    0  0.00000000000E+00  0.00000000000E+00  0.14732378580E+03  0.62324935192E+03  0.60558686974E+03 0.  0.
        3    1    3    3  502    0 -0.13338737115E+03  0.20579477125E+03 -0.10911337831E+03  0.26842022685E+03  0.10100000352E+00 0.  1.
       -3    1    3    3    0  502  0.13338737115E+03 -0.20579477125E+03  0.25643716411E+03  0.35482912506E+03  0.10100000352E+00 0. -1.
</event>
<event>
 5   0  0.9497860E-02  0.6075419E+03  0.7818609E-02  0.9889881E-01
       -1   -1    0    0    0  501  0.00000000000E+00  0.00000000000E+00  0.38536799750E+02  0.38536800080E+02  0.50400001928E-02 0. -1.
        1   -1    0    0  501    0  0.00000000000E+00  0.00000000000E+00 -0.23945108565E+04  0.23945108565E+04  0.50400001928E-02 0.  1.
    10030    2    1    2    0    0  0.00000000000E+00  0.00000000000E+00 -0.23559740568E+04  0.24330476566E+04  0.60754188591E+03 0.  0.
        5    1    3    3  502    0 -0.29478101652E+01  0.22900670329E+03 -0.37902435609E+03  0.44287053666E+03  0.46999998093E+01 0. -1.
       -5    1    3    3    0  502  0.29478101652E+01 -0.22900670329E+03 -0.19769497007E+04  0.19901771200E+04  0.46999998093E+01 0.  1.
</event>
<event>
 5   0  0.1513339E-01  0.5988756E+03  0.7818609E-02  0.9907742E-01
       -2   -1    0    0    0  501  0.00000000000E+00  0.00000000000E+00  0.16143968005E+03  0.16143968007E+03  0.25500000920E-02 0.  1.
        2   -1    0    0  501    0  0.00000000000E+00  0.00000000000E+00 -0.55539620738E+03  0.55539620738E+03  0.25500000920E-02 0. -1.
    10030    2    1    2    0    0  0.00000000000E+00  0.00000000000E+00 -0.39395652733E+03  0.71683588746E+03  0.59887556648E+03 0.  0.
        3    1    3    3  502    0 -0.27817580402E+03  0.41195381753E+02 -0.73834931743E+02  0.29074119895E+03  0.10100000352E+00 0.  1.
       -3    1    3    3    0  502  0.27817580402E+03 -0.41195381753E+02 -0.32012159558E+03  0.42609468851E+03  0.10100000352E+00 0. -1.
</event>
<event>
 5   0  0.9497860E-02  0.6276358E+03  0.7818609E-02  0.9849673E-01
        1   -1    0    0  501    0  0.00000000000E+00  0.00000000000E+00  0.26844740795E+03  0.26844740800E+03  0.50400001928E-02 0. -1.
       -1   -1    0    0    0  501  0.00000000000E+00  0.00000000000E+00 -0.36685652215E+03  0.36685652218E+03  0.50400001928E-02 0.  1.
    10030    2    1    2    0    0  0.00000000000E+00  0.00000000000E+00 -0.98409114200E+02  0.63530393018E+03  0.62763582589E+03 0.  0.
        5    1    3    3  502    0  0.84186538406E+02  0.23104633595E+03 -0.24649560369E+03  0.34821251448E+03  0.46999998093E+01 0.  1.
       -5    1    3    3    0  502 -0.84186538406E+02 -0.23104633595E+03  0.14808648949E+03  0.28709141570E+03  0.46999998093E+01 0. -1.
</event>
<event>
 5   0  0.1513339E-01  0.5294057E+03  0.7818609E-02  0.1006376E+00
       -2   -1    0    0    0  501  0.00000000000E+00  0.00000000000E+00  0.36197174365E+02  0.36197174455E+02  0.25500000920E-02 0.  1.
        2   -1    0    0  501    0  0.00000000000E+00  0.00000000000E+00 -0.19357198091E+04  0.19357198091E+04  0.25500000920E-02 0. -1.
    10030    2    1    2    0    0  0.00000000000E+00  0.00000000000E+00 -0.18995226347E+04  0.19719169836E+04  0.52940565748E+03 0.  0.
        3    1    3    3  502    0 -0.24342354516E+03  0.81883302411E+02 -0.11884865581E+04  0.12159194901E+04  0.10100000352E+00 0.  1.
       -3    1    3    3    0  502  0.24342354516E+03 -0.81883302411E+02 -0.71103607666E+03  0.75599749342E+03  0.10100000352E+00 0. -1.
</event>
<event>
 5   0  0.9177281E-02  0.5999734E+03  0.7818609E-02  0.9905461E-01
       -1   -1    0    0    0  501  0.00000000000E+00  0.00000000000E+00  0.16917362405E+03  0.16917362412E+03  0.50400001928E-02 0.  1.
        1   -1    0    0  501    0  0.00000000000E+00  0.00000000000E+00 -0.53195062720E+03  0.53195062722E+03  0.50400001928E-02 0. -1.
    10030    2    1    2    0    0  0.00000000000E+00  0.00000000000E+00 -0.36277700315E+03  0.70112425134E+03  0.59997338425E+03 0.  0.
        1    1    3    3  502    0  0.21573022292E+03 -0.19226779061E+03 -0.87278123824E+02  0.30186736045E+03  0.50400001928E-02 0.  1.
       -1    1    3    3    0  502 -0.21573022292E+03  0.19226779061E+03 -0.27549887932E+03  0.39925689088E+03  0.50400001928E-02 0. -1.
</event>
<event>
 5   0  0.9420349E-02  0.6243077E+03  0.7818609E-02  0.9856220E-01
       -1   -1    0    0    0  501  0.00000000000E+00  0.00000000000E+00  0.66568899562E+03  0.66568899564E+03  0.50400001928E-02 0.  1.
        1   -1    0    0  501    0  0.00000000000E+00  0.00000000000E+00 -0.14637471939E+03  0.14637471948E+03  0.50400001928E-02 0. -1.
    10030    2    1    2    0    0  0.00000000000E+00  0.00000000000E+00  0.51931427623E+03  0.81206371512E+03  0.62430774456E+03 0.  0.
        2    1    3    3  502    0  0.13715331929E+03 -0.69639943973E+02 -0.93655038133E+02  0.18008892516E+03  0.25500000920E-02 0. -1.
       -2    1    3    3    0  502 -0.13715331929E+03  0.69639943973E+02  0.61296931437E+03  0.63197478996E+03  0.25500000920E-02 0.  1.
</event>
<event>
 5   0  0.9497860E-02  0.6023892E+03  0.7818609E-02  0.9900462E-01
        1   -1    0    0  501    0  0.00000000000E+00  0.00000000000E+00  0.35534523769E+03  0.35534523772E+03  0.50400001928E-02 0.  1.
       -1   -1    0    0    0  501  0.00000000000E+00  0.00000000000E+00 -0.25529587830E+03  0.25529587835E+03  0.50400001928E-02 0. -1.
    10030    2    1    2    0    0  0.00000000000E+00  0.00000000000E+00  0.10004935938E+03  0.61064111608E+03  0.60238915854E+03 0.  0.
        5    1    3    3  502    0 -0.14910062311E+02 -0.28598775348E+03  0.14449345690E+03  0.32079861936E+03  0.46999998093E+01 0.  1.
       -5    1    3    3    0  502  0.14910062311E+02  0.28598775348E+03 -0.44444097520E+02  0.28984249671E+03  0.46999998093E+01 0. -1.
</event>
<event>
 5   0  0.1483942E-01  0.6036130E+03  0.7818609E-02  0.9897939E-01
       -2   -1    0    0    0  501  0.00000000000E+00  0.00000000000E+00  0.10436958995E+03  0.10436958998E+03  0.25500000920E-02 0.  1.
        2   -1    0    0  501    0  0.00000000000E+00  0.00000000000E+00 -0.87273650660E+03  0.87273650661E+03  0.25500000920E-02 0. -1.
    10030    2    1    2    0    0  0.00000000000E+00  0.00000000000E+00 -0.76836691665E+03  0.97710609658E+03  0.60361295991E+03 0.  0.
        4    1    3    3  502    0  0.31246930053E+02  0.16624471248E+03  0.20416093449E+02  0.17038810063E+03  0.12699999809E+01 0.  1.
       -4    1    3    3    0  502 -0.31246930053E+02 -0.16624471248E+03 -0.78878301010E+03  0.80671799595E+03  0.12699999809E+01 0. -1.
</event>
<event>
 5   0  0.1483942E-01  0.6072689E+03  0.7818609E-02  0.9890439E-01
        2   -1    0    0  501    0  0.00000000000E+00  0.00000000000E+00  0.10749850274E+03  0.10749850277E+03  0.25500000920E-02 0.  1.
       -2   -1    0    0    0  501  0.00000000000E+00  0.00000000000E+00 -0.85762954669E+03  0.85762954669E+03  0.25500000920E-02 0. -1.
    10030    2    1    2    0    0  0.00000000000E+00  0.00000000000E+00 -0.75013104395E+03  0.96512804946E+03  0.60726894270E+03 0.  0.
        4    1    3    3  502    0  0.55902415423E+02  0.20304018180E+03 -0.27442922407E+02  0.21237966561E+03  0.12699999809E+01 0. -1.
       -4    1    3    3    0  502 -0.55902415423E+02 -0.20304018180E+03 -0.72268812154E+03  0.75274838385E+03  0.12699999809E+01 0.  1.
</event>
<event>
 5   0  0.1513339E-01  0.5994454E+03  0.7818609E-02  0.9906557E-01
        2   -1    0    0  501    0  0.00000000000E+00  0.00000000000E+00  0.13131381790E+04  0.13131381790E+04  0.25500000920E-02 0.  1.
       -2   -1    0    0    0  501  0.00000000000E+00  0.00000000000E+00 -0.68411465703E+02  0.68411465750E+02  0.25500000920E-02 0. -1.
    10030    2    1    2    0    0  0.00000000000E+00  0.00000000000E+00  0.12447267133E+04  0.13815496447E+04  0.59944543548E+03 0.  0.
        3    1    3    3  502    0 -0.19260250284E+02 -0.28006046025E+03  0.86440077828E+03  0.90884186432E+03  0.10100000352E+00 0. -1.
       -3    1    3    3    0  502  0.19260250284E+02  0.28006046025E+03  0.38032593501E+03  0.47270778043E+03  0.10100000352E+00 0.  1.
</event>
<event>
 5   0  0.6170500E-02  0.5959201E+03  0.7818609E-02  0.9913907E-01
        3   -1    0    0  501    0  0.00000000000E+00  0.00000000000E+00  0.10417396861E+03  0.10417401757E+03  0.10100000352E+00 0.  1.
       -3   -1    0    0    0  501  0.00000000000E+00  0.00000000000E+00 -0.85222972302E+03  0.85222972900E+03  0.10100000352E+00 0. -1.
    10030    2    1    2    0    0  0.00000000000E+00  0.00000000000E+00 -0.74805575441E+03  0.95640374657E+03  0.59592005734E+03 0.  0.
        5    1    3    3  502    0  0.26390913645E+03  0.10898751404E+02 -0.15285579277E+03  0.30521107199E+03  0.46999998093E+01 0.  1.
       -5    1    3    3    0  502 -0.26390913645E+03 -0.10898751404E+02 -0.59519996164E+03  0.65119267458E+03  0.46999998093E+01 0. -1.
</event>
<event>
 5   0  0.9411028E-02  0.6496382E+03  0.7818609E-02  0.9807458E-01
       -1   -1    0    0    0  501  0.00000000000E+00  0.00000000000E+00  0.17723912127E+03  0.17723912134E+03  0.50400001928E-02 0. -1.
        1   -1    0    0  501    0  0.00000000000E+00  0.00000000000E+00 -0.59528303619E+03  0.59528303621E+03  0.50400001928E-02 0.  1.
    10030    2    1    2    0    0  0.00000000000E+00  0.00000000000E+00 -0.41804391492E+03  0.77252215756E+03  0.64963818323E+03 0.  0.
        4    1    3    3  502    0  0.13869005429E+03 -0.25267659258E+03 -0.38709979226E+03  0.48262641211E+03  0.12699999809E+01 0.  1.
       -4    1    3    3    0  502 -0.13869005429E+03  0.25267659258E+03 -0.30944122661E+02  0.28989574545E+03  0.12699999809E+01 0. -1.
</event>
<event>
 5   0  0.1483942E-01  0.6237652E+03  0.7818609E-02  0.9857292E-01
       -2   -1    0    0    0  501  0.00000000000E+00  0.00000000000E+00  0.10141080831E+03  0.10141080834E+03  0.25500000920E-02 0. -1.
        2   -1    0    0  501    0  0.00000000000E+00  0.00000000000E+00 -0.95917552928E+03  0.95917552928E+03  0.25500000920E-02 0.  1.
    10030    2    1    2    0    0  0.00000000000E+00  0.00000000000E+00 -0.85776472097E+03  0.10605863376E+04  0.62376523068E+03 0.  0.
        4    1    3    3  502    0  0.83109212681E+02 -0.22568438888E+03 -0.91260647788E+02  0.25723666797E+03  0.12699999809E+01 0. -1.
       -4    1    3    3    0  502 -0.83109212681E+02  0.22568438888E+03 -0.76650407318E+03  0.80334966965E+03  0.12699999809E+01 0.  1.
</event>
<event>
 5   0  0.9411028E-02  0.6283015E+03  0.7818609E-02  0.9848369E-01
        1   -1    0    0  501    0  0.00000000000E+00  0.00000000000E+00  0.52329881327E+03  0.52329881330E+03  0.50400001928E-02 0.  1.
       -1   -1    0    0    0  501  0.00000000000E+00  0.00000000000E+00 -0.18859335426E+03  0.18859335432E+03  0.50400001928E-02 0. -1.
    10030    2    1    2    0    0  0.00000000000E+00  0.00000000000E+00  0.33470545902E+03  0.71189216762E+03  0.62830145155E+03 0.  0.
        4    1    3    3  502    0 -0.20385698488E+03  0.11924606921E+02 -0.10313179872E+03  0.22877422788E+03  0.12699999809E+01 0. -1.
       -4    1    3    3    0  502  0.20385698488E+03 -0.11924606921E+02  0.43783725774E+03  0.48311793974E+03  0.12699999809E+01 0.  1.
</event>
<event>
 5   0  0.1532571E-01  0.6008818E+03  0.7818609E-02  0.9903578E-01
        2   -1    0    0  501    0  0.00000000000E+00  0.00000000000E+00  0.18661291404E+03  0.18661291406E+03  0.25500000920E-02 0. -1.
       -2   -1    0    0    0  501  0.00000000000E+00  0.00000000000E+00 -0.48370028712E+03  0.48370028712E+03  0.25500000920E-02 0.  1.
    10030    2    1    2    0    0  0.00000000000E+00  0.00000000000E+00 -0.29708737308E+03  0.67031320118E+03  0.60088175246E+03 0.  0.
        1    1    3    3  502    0  0.77286773109E+01  0.21664278064E+03 -0.38059641921E+03  0.43800395112E+03  0.50400001928E-02 0.  1.
       -1    1    3    3    0  502 -0.77286773109E+01 -0.21664278064E+03  0.83509046129E+02  0.23230925007E+03  0.50400001928E-02 0. -1.
</event>
<event>
 5   0  0.1488510E-01  0.6126799E+03  0.7818609E-02  0.9879443E-01
        2   -1    0    0  501    0  0.00000000000E+00  0.00000000000E+00  0.49223847143E+03  0.49223847144E+03  0.25500000920E-02 0. -1.
       -2   -1    0    0    0  501  0.00000000000E+00  0.00000000000E+00 -0.19064776540E+03  0.19064776542E+03  0.25500000920E-02 0.  1.
    10030    2    1    2    0    0  0.00000000000E+00  0.00000000000E+00  0.30159070604E+03  0.68288623686E+03  0.61267989890E+03 0.  0.
        5    1    3    3  502    0 -0.12195015003E+03  0.26354210980E+03  0.42182724986E+02  0.29347530563E+03  0.46999998093E+01 0.  1.
       -5    1    3    3    0  502  0.12195015003E+03 -0.26354210980E+03  0.25940798105E+03  0.38941093123E+03  0.46999998093E+01 0. -1.
</event>
<event>
 5   0  0.9411028E-02  0.5959502E+03  0.7818609E-02  0.9913844E-01
       -1   -1    0    0    0  501  0.00000000000E+00  0.00000000000E+00  0.28091230300E+03  0.28091230305E+03  0.50400001928E-02 0. -1.
        1   -1    0    0  501    0  0.00000000000E+00  0.00000000000E+00 -0.31607432888E+03  0.31607432892E+03  0.50400001928E-02 0.  1.
    10030    2    1    2    0    0  0.00000000000E+00  0.00000000000E+00 -0.35162025879E+02  0.59698663197E+03  0.59595022501E+03 0.  0.
        4    1    3    3  502    0  0.19524181611E+03  0.66189820332E+02 -0.23309952699E+03  0.31118718074E+03  0.12699999809E+01 0.  1.
       -4    1    3    3    0  502 -0.19524181611E+03 -0.66189820332E+02  0.19793750111E+03  0.28579945123E+03  0.12699999809E+01 0. -1.
</event>
<event>
 5   0  0.9411028E-02  0.6107106E+03  0.7818609E-02  0.9883431E-01
        1   -1    0    0  501    0  0.00000000000E+00  0.00000000000E+00  0.35529975464E+03  0.35529975467E+03  0.50400001928E-02 0.  1.
       -1   -1    0    0    0  501  0.00000000000E+00  0.00000000000E+00 -0.26243155954E+03  0.26243155959E+03  0.50400001928E-02 0. -1.
    10030    2    1    2    0    0  0.00000000000E+00  0.00000000000E+00  0.92868195097E+02  0.61773131427E+03  0.61071063112E+03 0.  0.
        4    1    3    3  502    0  0.25440409098E+02 -0.11326039994E+03 -0.23923986402E+03  0.26591814163E+03  0.12699999809E+01 0. -1.
       -4    1    3    3    0  502 -0.25440409098E+02  0.11326039994E+03  0.33210805912E+03  0.35181317264E+03  0.12699999809E+01 0.  1.
</event>
<event>
 5   0  0.9411028E-02  0.5883747E+03  0.7818609E-02  0.9929823E-01
       -1   -1    0    0    0  501  0.00000000000E+00  0.00000000000E+00  0.85338763756E+02  0.85338763905E+02  0.50400001928E-02 0. -1.
        1   -1    0    0  501    0  0.00000000000E+00  0.00000000000E+00 -0.10141486018E+04  0.10141486018E+04  0.50400001928E-02 0.  1.
    10030    2    1    2    0    0  0.00000000000E+00  0.00000000000E+00 -0.92880983800E+03  0.10994873657E+04  0.58837466984E+03 0.  0.
        4    1    3    3  502    0 -0.14037603778E+03  0.45725939897E+02  0.11094947013E+02  0.14805743586E+03  0.12699999809E+01 0. -1.
       -4    1    3    3    0  502  0.14037603778E+03 -0.45725939897E+02 -0.93990478501E+03  0.95142992982E+03  0.12699999809E+01 0.  1.
</event>
<event>
 5   0  0.1483942E-01  0.5995502E+03  0.7818609E-02  0.9906340E-01
        2   -1    0    0  501    0  0.00000000000E+00  0.00000000000E+00  0.37144038399E+03  0.37144038400E+03  0.25500000920E-02 0.  1.
       -2   -1    0    0    0  501  0.00000000000E+00  0.00000000000E+00 -0.24193683357E+03  0.24193683358E+03  0.25500000920E-02 0. -1.
    10030    2    1    2    0    0  0.00000000000E+00  0.00000000000E+00  0.12950355042E+03  0.61337721758E+03  0.59955019930E+03 0.  0.
        4    1    3    3  502    0 -0.93966870119E+02 -0.21722293436E+03  0.25297278216E+03  0.34642808389E+03  0.12699999809E+01 0.  1.
       -4    1    3    3    0  502  0.93966870119E+02  0.21722293436E+03 -0.12346923174E+03  0.26694913369E+03  0.12699999809E+01 0. -1.
</event>
<event>
 5   0  0.9177281E-02  0.5953146E+03  0.7818609E-02  0.9915175E-01
       -1   -1    0    0    0  501  0.00000000000E+00  0.00000000000E+00  0.98619949266E+02  0.98619949395E+02  0.50400001928E-02 0.  1.
        1   -1    0    0  501    0  0.00000000000E+00  0.00000000000E+00 -0.89839700716E+03  0.89839700717E+03  0.50400001928E-02 0. -1.
    10030    2    1    2    0    0  0.00000000000E+00  0.00000000000E+00 -0.79977705789E+03  0.99701695657E+03  0.59531459696E+03 0.  0.
        1    1    3    3  502    0 -0.63069862631E+02 -0.18095707529E+02 -0.88613437400E+03  0.88856029115E+03  0.50400001928E-02 0. -1.
       -1    1    3    3    0  502  0.63069862631E+02  0.18095707529E+02  0.86357316105E+02  0.10845666542E+03  0.50400001928E-02 0.  1.
</event>
<event>
 5   0  0.1483942E-01  0.5992420E+03  0.7818609E-02  0.9906980E-01
        2   -1    0    0  501    0  0.00000000000E+00  0.00000000000E+00  0.45487491223E+03  0.45487491224E+03  0.25500000920E-02 0.  1.
       -2   -1    0    0    0  501  0.00000000000E+00  0.00000000000E+00 -0.19735698471E+03  0.19735698472E+03  0.25500000920E-02 0. -1.
    10030    2    1    2    0    0  0.00000000000E+00  0.00000000000E+00  0.25751792753E+03  0.65223189696E+03  0.59924199153E+03 0.  0.
        4    1    3    3  502    0 -0.29194270858E+02  0.24652040901E+02 -0.19469124922E+03  0.19840948565E+03  0.12699999809E+01 0. -1.
       -4    1    3    3    0  502  0.29194270858E+02 -0.24652040901E+02  0.45220917675E+03  0.45382241131E+03  0.12699999809E+01 0.  1.
</event>
<event>
 5   0  0.9497860E-02  0.5888079E+03  0.7818609E-02  0.9928902E-01
       -1   -1    0    0    0  501  0.00000000000E+00  0.00000000000E+00  0.33809534366E+03  0.33809534370E+03  0.50400001928E-02 0. -1.
        1   -1    0    0  501    0  0.00000000000E+00  0.00000000000E+00 -0.25635874977E+03  0.25635874982E+03  0.50400001928E-02 0.  1.
    10030    2    1    2    0    0  0.00000000000E+00  0.00000000000E+00  0.81736593893E+02  0.59445409351E+03  0.58880794705E+03 0.  0.
        5    1    3    3  502    0 -0.10052019595E+03 -0.54009642456E+02  0.31481925352E+03  0.33489491435E+03  0.46999998093E+01 0. -1.
       -5    1    3    3    0  502  0.10052019595E+03  0.54009642456E+02 -0.23308265962E+03  0.25955917916E+03  0.46999998093E+01 0.  1.
</event>
<event>
 5   0  0.9497860E-02  0.5983818E+03  0.7818609E-02  0.9908769E-01
       -1   -1    0    0    0  501  0.00000000000E+00  0.00000000000E+00  0.13755272880E+03  0.13755272889E+03  0.50400001928E-02 0.  1.
        1   -1    0    0  501    0  0.00000000000E+00  0.00000000000E+00 -0.65077013003E+03  0.65077013005E+03  0.50400001928E-02 0. -1.
    10030    2    1    2    0    0  0.00000000000E+00  0.00000000000E+00 -0.51321740122E+03  0.78832285894E+03  0.59838184214E+03 0.  0.
        5    1    3    3  502    0  0.77006410127E+02  0.18733944032E+01  0.12421497712E+03  0.14623593042E+03  0.46999998093E+01 0.  1.
       -5    1    3    3    0  502 -0.77006410127E+02 -0.18733944032E+01 -0.63743237835E+03  0.64208692852E+03  0.46999998093E+01 0. -1.
</event>
<event>
 5   0  0.1513339E-01  0.5615925E+03  0.7818609E-02  0.9988458E-01
        2   -1    0    0  501    0  0.00000000000E+00  0.00000000000E+00  0.10613977522E+04  0.10613977522E+04  0.25500000920E-02 0. -1.
       -2   -1    0    0    0  501  0.00000000000E+00  0.00000000000E+00 -0.74285570586E+02  0.74285570630E+02  0.25500000920E-02 0.  1.
    10030    2    1    2    0    0  0.00000000000E+00  0.00000000000E+00  0.98711218162E+03  0.11356833228E+04  0.56159251301E+03 0.  0.
        3    1    3    3  502    0  0.82180040126E+02  0.24602209838E+03  0.71104110013E+03  0.75687508095E+03  0.10100000352E+00 0. -1.
       -3    1    3    3    0  502 -0.82180040126E+02 -0.24602209838E+03  0.27607108150E+03  0.37880824189E+03  0.10100000352E+00 0.  1.
</event>
<event>
 5   0  0.9177281E-02  0.6023954E+03  0.7818609E-02  0.9900449E-01
        1   -1    0    0  501    0  0.00000000000E+00  0.00000000000E+00  0.52383480674E+03  0.52383480676E+03  0.50400001928E-02 0. -1.
       -1   -1    0    0    0  501  0.00000000000E+00  0.00000000000E+00 -0.17318446100E+03  0.17318446107E+03  0.50400001928E-02 0.  1.
    10030    2    1    2    0    0  0.00000000000E+00  0.00000000000E+00  0.35065034574E+03  0.69701926783E+03  0.60239538076E+03 0.  0.
        1    1    3    3  502    0 -0.15181808399E+03 -0.21329418114E+03  0.34763643788E+03  0.43519447527E+03  0.50400001928E-02 0. -1.
       -1    1    3    3    0  502  0.15181808399E+03  0.21329418114E+03  0.30139078565E+01  0.26182479256E+03  0.50400001928E-02 0.  1.
</event>
<event>
 5   0  0.9497860E-02  0.5997676E+03  0.7818609E-02  0.9905888E-01
       -1   -1    0    0    0  501  0.00000000000E+00  0.00000000000E+00  0.51264806078E+03  0.51264806080E+03  0.50400001928E-02 0.  1.
        1   -1    0    0  501    0  0.00000000000E+00  0.00000000000E+00 -0.17542304310E+03  0.17542304318E+03  0.50400001928E-02 0. -1.
    10030    2    1    2    0    0  0.00000000000E+00  0.00000000000E+00  0.33722501767E+03  0.68807110398E+03  0.59976756463E+03 0.  0.
        5    1    3    3  502    0  0.20655906135E+03  0.21731270101E+03  0.17330593315E+03  0.34633580859E+03  0.46999998093E+01 0. -1.
       -5    1    3    3    0  502 -0.20655906135E+03 -0.21731270101E+03  0.16391908453E+03  0.34173529539E+03  0.46999998093E+01 0.  1.
</event>
<event>
 5   0  0.9497860E-02  0.6057688E+03  0.7818609E-02  0.9893509E-01
        1   -1    0    0  501    0  0.00000000000E+00  0.00000000000E+00  0.10608021830E+04  0.10608021830E+04  0.50400001928E-02 0. -1.
       -1   -1    0    0    0  501  0.00000000000E+00  0.00000000000E+00 -0.86480755840E+02  0.86480755987E+02  0.50400001928E-02 0.  1.
    10030    2    1    2    0    0  0.00000000000E+00  0.00000000000E+00  0.97432142713E+03  0.11472829390E+04  0.60576884922E+03 0.  0.
        5    1    3    3  502    0 -0.89246771236E+02 -0.26513287850E+03  0.26746128153E+03  0.38706337537E+03  0.46999998093E+01 0.  1.
       -5    1    3    3    0  502  0.89246771236E+02  0.26513287850E+03  0.70686014560E+03  0.76021956360E+03  0.46999998093E+01 0. -1.
</event>
<event>
 5   0  0.6170500E-02  0.5975735E+03  0.7818609E-02  0.9910453E-01
       -3   -1    0    0    0  501  0.00000000000E+00  0.00000000000E+00  0.65303216466E+03  0.65303217247E+03  0.10100000352E+00 0.  1.
        3   -1    0    0  501    0  0.00000000000E+00  0.00000000000E+00 -0.13670611374E+03  0.13670615105E+03  0.10100000352E+00 0. -1.
    10030    2    1    2    0    0  0.00000000000E+00  0.00000000000E+00  0.51632605092E+03  0.78973832352E+03  0.59757345053E+03 0.  0.
        3    1    3    3  502    0 -0.16630223931E+03 -0.73262054358E+02  0.57160139126E+03  0.59979323446E+03  0.10100000352E+00 0.  1.
       -3    1    3    3    0  502  0.16630223931E+03  0.73262054358E+02 -0.55275340341E+02  0.18994508907E+03  0.10100000352E+00 0. -1.
</event>
<event>
 5   0  0.1488510E-01  0.5136337E+03  0.7818609E-02  0.1010280E+00
        2   -1    0    0  501    0  0.00000000000E+00  0.00000000000E+00  0.24657436330E+03  0.24657436332E+03  0.25500000920E-02 0. -1.
       -2   -1    0    0    0  501  0.00000000000E+00  0.00000000000E+00 -0.26748484271E+03  0.26748484273E+03  0.25500000920E-02 0.  1.
    10030    2    1    2    0    0  0.00000000000E+00  0.00000000000E+00 -0.20910479409E+02  0.51405920604E+03  0.51363374029E+03 0.  0.
        5    1    3    3  502    0 -0.17245476509E+03  0.93513355490E+02 -0.17626510617E+03  0.26377428098E+03  0.46999998093E+01 0.  1.
       -5    1    3    3    0  502  0.17245476509E+03 -0.93513355490E+02  0.15535462677E+03  0.25028492506E+03  0.46999998093E+01 0. -1.
</event>
<event>
 5   0  0.9177281E-02  0.5975682E+03  0.7818609E-02  0.9910464E-01
        1   -1    0    0  501    0  0.00000000000E+00  0.00000000000E+00  0.10289440150E+04  0.10289440150E+04  0.50400001928E-02 0.  1.
       -1   -1    0    0    0  501  0.00000000000E+00  0.00000000000E+00 -0.86760727347E+02  0.86760727493E+02  0.50400001928E-02 0. -1.
    10030    2    1    2    0    0  0.00000000000E+00  0.00000000000E+00  0.94218328765E+03  0.11157047425E+04  0.59756817596E+03 0.  0.
        1    1    3    3  502    0 -0.29677118033E+03  0.24361149020E+02  0.42515506074E+03  0.51906013597E+03  0.50400001928E-02 0.  1.
       -1    1    3    3    0  502  0.29677118033E+03 -0.24361149020E+02  0.51702822691E+03  0.59664460653E+03  0.50400001928E-02 0. -1.
</event>
<event>
 5   0  0.9497860E-02  0.5571243E+03  0.7818609E-02  0.9998583E-01
       -1   -1    0    0    0  501  0.00000000000E+00  0.00000000000E+00  0.15862201575E+03  0.15862201583E+03  0.50400001928E-02 0.  1.
        1   -1    0    0  501    0  0.00000000000E+00  0.00000000000E+00 -0.48919355214E+03  0.48919355216E+03  0.50400001928E-02 0. -1.
    10030    2    1    2    0    0  0.00000000000E+00  0.00000000000E+00 -0.33057153639E+03  0.64781556799E+03  0.55712428547E+03 0.  0.
        5    1    3    3  502    0 -0.14476654109E+03  0.16116819072E+03  0.38258813989E+02  0.22004173233E+03  0.46999998093E+01 0.  1.
       -5    1    3    3    0  502  0.14476654109E+03 -0.16116819072E+03 -0.36883035038E+03  0.42777383566E+03  0.46999998093E+01 0. -1.
</event>
<event>
 5   0  0.9177281E-02  0.6012115E+03  0.7818609E-02  0.9902896E-01
        1   -1    0    0  501    0  0.00000000000E+00  0.00000000000E+00  0.89783080586E+03  0.89783080587E+03  0.50400001928E-02 0.  1.
       -1   -1    0    0    0  501  0.00000000000E+00  0.00000000000E+00 -0.10064680643E+03  0.10064680655E+03  0.50400001928E-02 0. -1.
    10030    2    1    2    0    0  0.00000000000E+00  0.00000000000E+00  0.79718399943E+03  0.99847761242E+03  0.60121145496E+03 0.  0.
        1    1    3    3  502    0  0.16891245728E+02 -0.28243373935E+03  0.22996251593E+03  0.36460511525E+03  0.50400001928E-02 0. -1.
       -1    1    3    3    0  502 -0.16891245728E+02  0.28243373935E+03  0.56722148350E+03  0.63387249717E+03  0.50400001928E-02 0.  1.
</event>
<event>
 5   0  0.1483942E-01  0.5943033E+03  0.7818609E-02  0.9917296E-01
       -2   -1    0    0    0  501  0.00000000000E+00  0.00000000000E+00  0.67901942977E+02  0.67901943025E+02  0.25500000920E-02 0.  1.
        2   -1    0    0  501    0  0.00000000000E+00  0.00000000000E+00 -0.13003912228E+04  0.13003912228E+04  0.25500000920E-02 0. -1.
    10030    2    1    2    0    0  0.00000000000E+00  0.00000000000E+00 -0.12324892798E+04  0.13682931658E+04  0.59430325825E+03 0.  0.
        4    1    3    3  502    0 -0.28531802246E+03  0.67267768749E+02 -0.50425127651E+03  0.58326862543E+03  0.12699999809E+01 0.  1.
       -4    1    3    3    0  502  0.28531802246E+03 -0.67267768749E+02 -0.72823800331E+03  0.78502454040E+03  0.12699999809E+01 0. -1.
</event>
<event>
 5   0  0.6170500E-02  0.5553685E+03  0.7818609E-02  0.1000259E+00
        4   -1    0    0  501    0  0.00000000000E+00  0.00000000000E+00  0.26627639470E+03  0.26627942331E+03  0.12699999809E+01 0. -1.
       -4   -1    0    0    0  501  0.00000000000E+00  0.00000000000E+00 -0.28957481903E+03  0.28957760396E+03  0.12699999809E+01 0.  1.
    10030    2    1    2    0    0  0.00000000000E+00  0.00000000000E+00 -0.23298424326E+02  0.55585702727E+03  0.55536854267E+03 0.  0.
        3    1    3    3  502    0  0.25856680246E+03  0.56099842493E+02 -0.96011905760E+02  0.28146452692E+03  0.10100000352E+00 0.  1.
       -3    1    3    3    0  502 -0.25856680246E+03 -0.56099842493E+02  0.72713481434E+02  0.27439250035E+03  0.10100000352E+00 0. -1.
</event>
<event>
 5   0  0.9497860E-02  0.5991802E+03  0.7818609E-02  0.9907108E-01
       -1   -1    0    0    0  501  0.00000000000E+00  0.00000000000E+00  0.11549418280E+03  0.11549418291E+03  0.50400001928E-02 0. -1.
        1   -1    0    0  501    0  0.00000000000E+00  0.00000000000E+00 -0.77713208211E+03  0.77713208213E+03  0.50400001928E-02 0.  1.
    10030    2    1    2    0    0  0.00000000000E+00  0.00000000000E+00 -0.66163789931E+03  0.89262626503E+03  0.59918022265E+03 0.  0.
        5    1    3    3  502    0 -0.20549618026E+03  0.21728921103E+03 -0.30549925235E+03  0.42754551163E+03  0.46999998093E+01 0. -1.
       -5    1    3    3    0  502  0.20549618026E+03 -0.21728921103E+03 -0.35613864697E+03  0.46508075341E+03  0.46999998093E+01 0.  1.
</event>
<event>
 5   0  0.1532571E-01  0.6035961E+03  0.7818609E-02  0.9897973E-01
        2   -1    0    0  501    0  0.00000000000E+00  0.00000000000E+00  0.37811636190E+03  0.37811636191E+03  0.25500000920E-02 0. -1.
       -2   -1    0    0    0  501  0.00000000000E+00  0.00000000000E+00 -0.24088364720E+03  0.24088364722E+03  0.25500000920E-02 0.  1.
    10030    2    1    2    0    0  0.00000000000E+00  0.00000000000E+00  0.13723271470E+03  0.61900000912E+03  0.60359605144E+03 0.  0.
        1    1    3    3  502    0 -0.73409271554E+02 -0.18277566855E+03 -0.16588088026E+03  0.25751181065E+03  0.50400001928E-02 0.  1.
       -1    1    3    3    0  502  0.73409271554E+02  0.18277566855E+03  0.30311359496E+03  0.36148819847E+03  0.50400001928E-02 0. -1.
</event>
<event>
 5   0  0.1483942E-01  0.5773683E+03  0.7818609E-02  0.9953505E-01
       -2   -1    0    0    0  501  0.00000000000E+00  0.00000000000E+00  0.50465429036E+03  0.50465429037E+03  0.25500000920E-02 0.  1.
        2   -1    0    0  501    0  0.00000000000E+00  0.00000000000E+00 -0.16513987269E+03  0.16513987271E+03  0.25500000920E-02 0. -1.
    10030    2    1    2    0    0  0.00000000000E+00  0.00000000000E+00  0.33951441767E+03  0.66979416307E+03  0.57736832359E+03 0.  0.
        4    1    3    3  502    0 -0.12190449801E+03  0.23738438512E+02  0.47207516510E+03  0.48814013818E+03  0.12699999809E+01 0.  1.
       -4    1    3    3    0  502  0.12190449801E+03 -0.23738438512E+02 -0.13256074743E+03  0.18165402489E+03  0.12699999809E+01 0. -1.
</event>
<event>
 5   0  0.1483942E-01  0.5880332E+03  0.7818609E-02  0.9930549E-01
        2   -1    0    0  501    0  0.00000000000E+00  0.00000000000E+00  0.39760461518E+03  0.39760461519E+03  0.25500000920E-02 0. -1.
       -2   -1    0    0    0  501  0.00000000000E+00  0.00000000000E+00 -0.21741638149E+03  0.21741638151E+03  0.25500000920E-02 0.  1.
    10030    2    1    2    0    0  0.00000000000E+00  0.00000000000E+00  0.18018823368E+03  0.61502099669E+03  0.58803318513E+03 0.  0.
        4    1    3    3  502    0  0.10311877031E+03  0.10898116597E+02 -0.19765420097E+03  0.22320628530E+03  0.12699999809E+01 0.  1.
       -4    1    3    3    0  502 -0.10311877031E+03 -0.10898116597E+02  0.37784243466E+03  0.39181471139E+03  0.12699999809E+01 0. -1.
</event>
<event>
 5   0  0.1502642E-01  0.5837727E+03  0.7818609E-02  0.9939656E-01
       -2   -1    0    0    0  501  0.00000000000E+00  0.00000000000E+00  0.43347051731E+03  0.43347051732E+03  0.25500000920E-02 0. -1.
        2   -1    0    0  501    0  0.00000000000E+00  0.00000000000E+00 -0.19654773977E+03  0.19654773978E+03  0.25500000920E-02 0.  1.
    10030    2    1    2    0    0  0.00000000000E+00  0.00000000000E+00  0.23692277755E+03  0.63001825710E+03  0.58377273126E+03 0.  0.
        2    1    3    3  502    0  0.22366079118E+03 -0.66126505536E+01 -0.83815845425E+02  0.23894135810E+03  0.25500000920E-02 0.  1.
       -2    1    3    3    0  502 -0.22366079118E+03  0.66126505536E+01  0.32073862297E+03  0.39107689900E+03  0.25500000920E-02 0. -1.
</event>
<event>
 5   0  0.1513339E-01  0.6105335E+03  0.7818609E-02  0.9883790E-01
        2   -1    0    0  501    0  0.00000000000E+00  0.00000000000E+00  0.20903774499E+03  0.20903774500E+03  0.25500000920E-02 0. -1.
       -2   -1    0    0    0  501  0.00000000000E+00  0.00000000000E+00 -0.44579401668E+03  0.44579401669E+03  0.25500000920E-02 0.  1.
    10030    2    1    2    0    0  0.00000000000E+00  0.00000000000E+00 -0.23675627169E+03  0.65483176169E+03  0.61053345849E+03 0.  0.
        3    1    3    3  502    0 -0.30790586325E+02  0.20164670013E+03 -0.36196498480E+03  0.41548539361E+03  0.10100000352E+00 0.  1.
       -3    1    3    3    0  502  0.30790586325E+02 -0.20164670013E+03  0.12520871311E+03  0.23934636809E+03  0.10100000352E+00 0. -1.
</event>
<event>
 5   0  0.9177281E-02  0.6032923E+03  0.7818609E-02  0.9898599E-01
        1   -1    0    0  501    0  0.00000000000E+00  0.00000000000E+00  0.64889284712E+03  0.64889284714E+03  0.50400001928E-02 0.  1.
       -1   -1    0    0    0  501  0.00000000000E+00  0.00000000000E+00 -0.14022407699E+03  0.14022407708E+03  0.50400001928E-02 0. -1.
    10030    2    1    2    0    0  0.00000000000E+00  0.00000000000E+00  0.50866877012E+03  0.78911692422E+03  0.60329230262E+03 0.  0.
        1    1    3    3  502    0  0.45304846399E+02 -0.11571444383E+03  0.61385613702E+03  0.62630800617E+03  0.50400001928E-02 0.  1.
       -1    1    3    3    0  502 -0.45304846399E+02  0.11571444383E+03 -0.10518736689E+03  0.16280891805E+03  0.50400001928E-02 0. -1.
</event>
<event>
 5   0  0.9411028E-02  0.5956558E+03  0.7818609E-02  0.9914460E-01
        1   -1    0    0  501    0  0.00000000000E+00  0.00000000000E+00  0.12551005632E+04  0.12551005632E+04  0.50400001928E-02 0. -1.
       -1   -1    0    0    0  501  0.00000000000E+00  0.00000000000E+00 -0.70672779344E+02  0.70672779523E+02  0.50400001928E-02 0.  1.
    10030    2    1    2    0    0  0.00000000000E+00  0.00000000000E+00  0.11844277839E+04  0.13257733427E+04  0.59565575724E+03 0.  0.
        4    1    3    3  502    0  0.88072266490E+02  0.31959613598E+02  0.12214393299E+04  0.12250280775E+04  0.12699999809E+01 0. -1.
       -4    1    3    3    0  502 -0.88072266490E+02 -0.31959613598E+02 -0.37011546079E+02  0.10074526524E+03  0.12699999809E+01 0.  1.
</event>
<event>
 5   0  0.1513339E-01  0.5819093E+03  0.7818609E-02  0.9943666E-01
       -2   -1    0    0    0  501  0.00000000000E+00  0.00000000000E+00  0.30051808282E+03  0.30051808283E+03  0.25500000920E-02 0.  1.
        2   -1    0    0  501    0  0.00000000000E+00  0.00000000000E+00 -0.28169555896E+03  0.28169555897E+03  0.25500000920E-02 0. -1.
    10030    2    1    2    0    0  0.00000000000E+00  0.00000000000E+00  0.18822523865E+02  0.58221364180E+03  0.58190930332E+03 0.  0.
        3    1    3    3  502    0 -0.27842930838E+03 -0.78483596591E+02 -0.21782670941E+02  0.29009834479E+03  0.10100000352E+00 0.  1.
       -3    1    3    3    0  502  0.27842930838E+03  0.78483596591E+02  0.40605194805E+02  0.29211529700E+03  0.10100000352E+00 0. -1.
</event>
<event>
 5   0  0.1502642E-01  0.6268560E+03  0.7818609E-02  0.9851203E-01
       -2   -1    0    0    0  501  0.00000000000E+00  0.00000000000E+00  0.11384080515E+03  0.11384080518E+03  0.25500000920E-02 0. -1.
        2   -1    0    0  501    0  0.00000000000E+00  0.00000000000E+00 -0.86293412243E+03  0.86293412243E+03  0.25500000920E-02 0.  1.
    10030    2    1    2    0    0  0.00000000000E+00  0.00000000000E+00 -0.74909331728E+03  0.97677492761E+03  0.62685601314E+03 0.  0.
        2    1    3    3  502    0  0.18585330491E+03 -0.23330770626E+02 -0.76612439415E+03  0.78869028340E+03  0.25500000920E-02 0.  1.
       -2    1    3    3    0  502 -0.18585330491E+03  0.23330770626E+02  0.17031076875E+02  0.18808464421E+03  0.25500000920E-02 0. -1.
</event>
<event>
 5   0  0.9177281E-02  0.3967578E+03  0.7818609E-02  0.1044908E+00
       -1   -1    0    0    0  501  0.00000000000E+00  0.00000000000E+00  0.56784095952E+03  0.56784095954E+03  0.50400001928E-02 0. -1.
        1   -1    0    0  501    0  0.00000000000E+00  0.00000000000E+00 -0.69304963956E+02  0.69304964139E+02  0.50400001928E-02 0.  1.
    10030    2    1    2    0    0  0.00000000000E+00  0.00000000000E+00  0.49853599556E+03  0.63714592368E+03  0.39675784704E+03 0.  0.
        1    1    3    3  502    0 -0.84809147366E+02 -0.14194693885E+03  0.42527631866E+03  0.45629099505E+03  0.50400001928E-02 0. -1.
       -1    1    3    3    0  502  0.84809147366E+02  0.14194693885E+03  0.73259676903E+02  0.18085492863E+03  0.50400001928E-02 0.  1.
</event>
<event>
 5   0  0.1532571E-01  0.4692151E+03  0.7818609E-02  0.1022142E+00
        2   -1    0    0  501    0  0.00000000000E+00  0.00000000000E+00  0.22292254064E+04  0.22292254064E+04  0.25500000920E-02 0.  1.
       -2   -1    0    0    0  501  0.00000000000E+00  0.00000000000E+00 -0.24690501318E+02  0.24690501449E+02  0.25500000920E-02 0. -1.
    10030    2    1    2    0    0  0.00000000000E+00  0.00000000000E+00  0.22045349050E+04  0.22539159078E+04  0.46921505936E+03 0.  0.
        1    1    3    3  502    0 -0.12604109436E+03 -0.55210617354E+02  0.18950829994E+03  0.23419642505E+03  0.50400001928E-02 0. -1.
       -1    1    3    3    0  502  0.12604109436E+03  0.55210617354E+02  0.20150266051E+04  0.20197194828E+04  0.50400001928E-02 0.  1.
</event>
<event>
 5   0  0.9420349E-02  0.6010498E+03  0.7818609E-02  0.9903230E-01
        1   -1    0    0  501    0  0.00000000000E+00  0.00000000000E+00  0.94531534312E+03  0.94531534313E+03  0.50400001928E-02 0. -1.
       -1   -1    0    0    0  501  0.00000000000E+00  0.00000000000E+00 -0.95539768791E+02  0.95539768924E+02  0.50400001928E-02 0.  1.
    10030    2    1    2    0    0  0.00000000000E+00  0.00000000000E+00  0.84977557433E+03  0.10408551121E+04  0.60104977961E+03 0.  0.
        2    1    3    3  502    0 -0.16108783785E+03 -0.48046651314E+02  0.85628442443E+03  0.87262866543E+03  0.25500000920E-02 0. -1.
       -2    1    3    3    0  502  0.16108783785E+03  0.48046651314E+02 -0.65088501059E+01  0.16822644662E+03  0.25500000920E-02 0.  1.
</event>
<event>
 5   0  0.1488510E-01  0.6084735E+03  0.7818609E-02  0.9887980E-01
        2   -1    0    0  501    0  0.00000000000E+00  0.00000000000E+00  0.78279867010E+03  0.78279867011E+03  0.25500000920E-02 0. -1.
       -2   -1    0    0    0  501  0.00000000000E+00  0.00000000000E+00 -0.11824242029E+03  0.11824242032E+03  0.25500000920E-02 0.  1.
    10030    2    1    2    0    0  0.00000000000E+00  0.00000000000E+00  0.66455624981E+03  0.90104109042E+03  0.60847353062E+03 0.  0.
        5    1    3    3  502    0 -0.24323692506E+02 -0.30311450556E+03  0.34447796705E+03  0.45951844934E+03  0.46999998093E+01 0. -1.
       -5    1    3    3    0  502  0.24323692506E+02  0.30311450556E+03  0.32007828276E+03  0.44152264109E+03  0.46999998093E+01 0.  1.
</event>
<event>
 5   0  0.6170500E-02  0.6158378E+03  0.7818609E-02  0.9873082E-01
        4   -1    0    0  501    0  0.00000000000E+00  0.00000000000E+00  0.73605716471E+03  0.73605826034E+03  0.12699999809E+01 0. -1.
       -4   -1    0    0    0  501  0.00000000000E+00  0.00000000000E+00 -0.12880912826E+03  0.12881538892E+03  0.12699999809E+01 0.  1.
    10030    2    1    2    0    0  0.00000000000E+00  0.00000000000E+00  0.60724803645E+03  0.86487364926E+03  0.61583784506E+03 0.  0.
        1    1    3    3  502    0 -0.10809390713E+03  0.23700068178E+03  0.73029045582E+02  0.27053069594E+03  0.50400001928E-02 0.  1.
       -1    1    3    3    0  502  0.10809390713E+03 -0.23700068178E+03  0.53421899087E+03  0.59434295331E+03  0.50400001928E-02 0. -1.
</event>
<event>
 5   0  0.9177281E-02  0.6019398E+03  0.7818609E-02  0.9901390E-01
        1   -1    0    0  501    0  0.00000000000E+00  0.00000000000E+00  0.48141685387E+03  0.48141685390E+03  0.50400001928E-02 0.  1.
       -1   -1    0    0    0  501  0.00000000000E+00  0.00000000000E+00 -0.18815891420E+03  0.18815891426E+03  0.50400001928E-02 0. -1.
    10030    2    1    2    0    0  0.00000000000E+00  0.00000000000E+00  0.29325793968E+03  0.66957576816E+03  0.60193977284E+03 0.  0.
        1    1    3    3  502    0  0.56534443106E+02 -0.23181309529E+03  0.35067843809E+03  0.42415660006E+03  0.50400001928E-02 0.  1.
       -1    1    3    3    0  502 -0.56534443106E+02  0.23181309529E+03 -0.57420498415E+02  0.24541916810E+03  0.50400001928E-02 0. -1.
</event>
<event>
 5   0  0.9497860E-02  0.5818874E+03  0.7818609E-02  0.9943713E-01
        1   -1    0    0  501    0  0.00000000000E+00  0.00000000000E+00  0.46702473971E+03  0.46702473974E+03  0.50400001928E-02 0.  1.
       -1   -1    0    0    0  501  0.00000000000E+00  0.00000000000E+00 -0.18124999254E+03  0.18124999261E+03  0.50400001928E-02 0. -1.
    10030    2    1    2    0    0  0.00000000000E+00  0.00000000000E+00  0.28577474717E+03  0.64827473235E+03  0.58188737955E+03 0.  0.
        5    1    3    3  502    0  0.20048489493E+03 -0.11353525926E+03 -0.54974744056E+02  0.23691509170E+03  0.46999998093E+01 0. -1.
       -5    1    3    3    0  502 -0.20048489493E+03  0.11353525926E+03  0.34074949122E+03  0.41135964065E+03  0.46999998093E+01 0.  1.
</event>
<event>
 5   0  0.1532571E-01  0.5974177E+03  0.7818609E-02  0.9910778E-01
        2   -1    0    0  501    0  0.00000000000E+00  0.00000000000E+00  0.52465169527E+03  0.52465169527E+03  0.25500000920E-02 0.  1.
       -2   -1    0    0    0  501  0.00000000000E+00  0.00000000000E+00 -0.17006898693E+03  0.17006898695E+03  0.25500000920E-02 0. -1.
    10030    2    1    2    0    0  0.00000000000E+00  0.00000000000E+00  0.35458270834E+03  0.69472068222E+03  0.59741771756E+03 0.  0.
        1    1    3    3  502    0  0.88328544561E+02 -0.19452178909E+03  0.42006819274E+03  0.47127268624E+03  0.50400001928E-02 0.  1.
       -1    1    3    3    0  502 -0.88328544561E+02  0.19452178909E+03 -0.65485484407E+02  0.22344799598E+03  0.50400001928E-02 0. -1.
</event>
<event>
 5   0  0.8860626E-02  0.5988879E+03  0.7818609E-02  0.9907716E-01
        1   -1    0    0  501    0  0.00000000000E+00  0.00000000000E+00  0.55937122558E+03  0.55937122560E+03  0.50400001928E-02 0. -1.
       -1   -1    0    0    0  501  0.00000000000E+00  0.00000000000E+00 -0.16029906071E+03  0.16029906079E+03  0.50400001928E-02 0.  1.
    10030    2    1    2    0    0  0.00000000000E+00  0.00000000000E+00  0.39907216487E+03  0.71967028639E+03  0.59888790967E+03 0.  0.
        3    1    3    3  502    0  0.17806631032E+03 -0.47337895964E+02  0.48318851042E+03  0.51712632313E+03  0.10100000352E+00 0. -1.
       -3    1    3    3    0  502 -0.17806631032E+03  0.47337895964E+02 -0.84116345551E+02  0.20254396327E+03  0.10100000352E+00 0.  1.
</event>
<event>
 5   0  0.1502642E-01  0.5827764E+03  0.7818609E-02  0.9941798E-01
       -2   -1    0    0    0  501  0.00000000000E+00  0.00000000000E+00  0.11316193596E+03  0.11316193599E+03  0.25500000920E-02 0. -1.
        2   -1    0    0  501    0  0.00000000000E+00  0.00000000000E+00 -0.75031477958E+03  0.75031477958E+03  0.25500000920E-02 0.  1.
    10030    2    1    2    0    0  0.00000000000E+00  0.00000000000E+00 -0.63715284362E+03  0.86347671557E+03  0.58277636551E+03 0.  0.
        2    1    3    3  502    0  0.21969871552E+03 -0.18961776582E+03 -0.35734528893E+03  0.46034560739E+03  0.25500000920E-02 0. -1.
       -2    1    3    3    0  502 -0.21969871552E+03  0.18961776582E+03 -0.27980755469E+03  0.40313110818E+03  0.25500000920E-02 0.  1.
</event>
<event>
 5   0  0.9411028E-02  0.6672130E+03  0.7818609E-02  0.9775006E-01
        1   -1    0    0  501    0  0.00000000000E+00  0.00000000000E+00  0.35510154982E+03  0.35510154986E+03  0.50400001928E-02 0.  1.
       -1   -1    0    0    0  501  0.00000000000E+00  0.00000000000E+00 -0.31341260047E+03  0.31341260051E+03  0.50400001928E-02 0. -1.
    10030    2    1    2    0    0  0.00000000000E+00  0.00000000000E+00  0.41688949351E+02  0.66851415037E+03  0.66721301003E+03 0.  0.
        4    1    3    3  502    0  0.26740592168E+03 -0.49516767379E+02  0.21444096863E+03  0.34632987039E+03  0.12699999809E+01 0.  1.
       -4    1    3    3    0  502 -0.26740592168E+03  0.49516767379E+02 -0.17275201928E+03  0.32218427998E+03  0.12699999809E+01 0. -1.
</event>
<event>
 5   0  0.8860626E-02  0.5382905E+03  0.7818609E-02  0.1004241E+00
       -1   -1    0    0    0  501  0.00000000000E+00  0.00000000000E+00  0.12570583024E+03  0.12570583034E+03  0.50400001928E-02 0. -1.
        1   -1    0    0  501    0  0.00000000000E+00  0.00000000000E+00 -0.57625934085E+03  0.57625934087E+03  0.50400001928E-02 0.  1.
    10030    2    1    2    0    0  0.00000000000E+00  0.00000000000E+00 -0.45055351061E+03  0.70196517121E+03  0.53829047518E+03 0.  0.
        3    1    3    3  502    0 -0.21890513712E+03  0.15463189594E+03 -0.25744953154E+03  0.37163255212E+03  0.10100000352E+00 0.  1.
       -3    1    3    3    0  502  0.21890513712E+03 -0.15463189594E+03 -0.19310397907E+03  0.33033261909E+03  0.10100000352E+00 0. -1.
</event>
<event>
 5   0  0.1488510E-01  0.5953223E+03  0.7818609E-02  0.9915159E-01
        2   -1    0    0  501    0  0.00000000000E+00  0.00000000000E+00  0.68214797727E+03  0.68214797728E+03  0.25500000920E-02 0.  1.
       -2   -1    0    0    0  501  0.00000000000E+00  0.00000000000E+00 -0.12988702000E+03  0.12988702003E+03  0.25500000920E-02 0. -1.
    10030    2    1    2    0    0  0.00000000000E+00  0.00000000000E+00  0.55226095727E+03  0.81203499730E+03  0.59532232608E+03 0.  0.
        5    1    3    3  502    0 -0.72198797582E+02 -0.23777238468E+03  0.52697790929E+02  0.25406204057E+03  0.46999998093E+01 0. -1.
       -5    1    3    3    0  502  0.72198797582E+02  0.23777238468E+03  0.49956316634E+03  0.55797295674E+03  0.46999998093E+01 0.  1.
</event>
<event>
 5   0  0.9497860E-02  0.5917801E+03  0.7818609E-02  0.9922608E-01
       -1   -1    0    0    0  501  0.00000000000E+00  0.00000000000E+00  0.12816782760E+03  0.12816782770E+03  0.50400001928E-02 0.  1.
        1   -1    0    0  501    0  0.00000000000E+00  0.00000000000E+00 -0.68309598506E+03  0.68309598508E+03  0.50400001928E-02 0. -1.
    10030    2    1    2    0    0  0.00000000000E+00  0.00000000000E+00 -0.55492815747E+03  0.81126381278E+03  0.59178012300E+03 0.  0.
        5    1    3    3  502    0 -0.36067947530E+02 -0.19899465249E+03 -0.57349024926E+03  0.60812245852E+03  0.46999998093E+01 0. -1.
       -5    1    3    3    0  502  0.36067947530E+02  0.19899465249E+03  0.18562091797E+02  0.20314135426E+03  0.46999998093E+01 0.  1.
</event>
<event>
 5   0  0.6170500E-02  0.6036820E+03  0.7818609E-02  0.9897796E-01
        4   -1    0    0  501    0  0.00000000000E+00  0.00000000000E+00  0.67896527346E+03  0.67896646122E+03  0.12699999809E+01 0. -1.
       -4   -1    0    0    0  501  0.00000000000E+00  0.00000000000E+00 -0.13418222686E+03  0.13418823684E+03  0.12699999809E+01 0.  1.
    10030    2    1    2    0    0  0.00000000000E+00  0.00000000000E+00  0.54478304660E+03  0.81315469806E+03  0.60368203147E+03 0.  0.
        4    1    3    3  502    0 -0.19235548679E+03 -0.20468704278E+03  0.12355675767E+03  0.30686365709E+03  0.12699999809E+01 0.  1.
       -4    1    3    3    0  502  0.19235548679E+03  0.20468704278E+03  0.42122628893E+03  0.50629104097E+03  0.12699999809E+01 0. -1.
</event>
<event>
 5   0  0.1532571E-01  0.6043617E+03  0.7818609E-02  0.9896398E-01
       -2   -1    0    0    0  501  0.00000000000E+00  0.00000000000E+00  0.22672176342E+03  0.22672176343E+03  0.25500000920E-02 0. -1.
        2   -1    0    0  501    0  0.00000000000E+00  0.00000000000E+00 -0.40275469774E+03  0.40275469775E+03  0.25500000920E-02 0.  1.
    10030    2    1    2    0    0  0.00000000000E+00  0.00000000000E+00 -0.17603293433E+03  0.62947646118E+03  0.60436166425E+03 0.  0.
        1    1    3    3  502    0 -0.23728696528E+03 -0.65476712286E+02 -0.27057406720E+03  0.36579041761E+03  0.50400001928E-02 0.  1.
       -1    1    3    3    0  502  0.23728696528E+03  0.65476712286E+02  0.94541132879E+02  0.26368604357E+03  0.50400001928E-02 0. -1.
</event>
<event>
 5   0  0.9411028E-02  0.6422277E+03  0.7818609E-02  0.9821474E-01
       -1   -1    0    0    0  501  0.00000000000E+00  0.00000000000E+00  0.10237547647E+03  0.10237547659E+03  0.50400001928E-02 0.  1.
        1   -1    0    0  501    0  0.00000000000E+00  0.00000000000E+00 -0.10072150463E+04  0.10072150463E+04  0.50400001928E-02 0. -1.
    10030    2    1    2    0    0  0.00000000000E+00  0.00000000000E+00 -0.90483956981E+03  0.11095905229E+04  0.64222774884E+03 0.  0.
        4    1    3    3  502    0 -0.25899040671E+03  0.16168558995E+03 -0.28056365028E+03  0.41465146270E+03  0.12699999809E+01 0.  1.
       -4    1    3    3    0  502  0.25899040671E+03 -0.16168558995E+03 -0.62427591953E+03  0.69493906018E+03  0.12699999809E+01 0. -1.
</event>
<event>
 5   0  0.1532571E-01  0.6145964E+03  0.7818609E-02  0.9875578E-01
       -2   -1    0    0    0  501  0.00000000000E+00  0.00000000000E+00  0.12577439407E+03  0.12577439410E+03  0.25500000920E-02 0. -1.
        2   -1    0    0  501    0  0.00000000000E+00  0.00000000000E+00 -0.75080610532E+03  0.75080610532E+03  0.25500000920E-02 0.  1.
    10030    2    1    2    0    0  0.00000000000E+00  0.00000000000E+00 -0.62503171125E+03  0.87658049942E+03  0.61459639757E+03 0.  0.
        1    1    3    3  502    0 -0.81420939642E+02  0.25354753919E+03 -0.93796227920E+02  0.28233571584E+03  0.50400001928E-02 0. -1.
       -1    1    3    3    0  502  0.81420939642E+02 -0.25354753919E+03 -0.53123548333E+03  0.59424478358E+03  0.50400001928E-02 0.  1.
</event>
<event>
 5   0  0.1532571E-01  0.5562882E+03  0.7818609E-02  0.1000049E+00
       -2   -1    0    0    0  501  0.00000000000E+00  0.00000000000E+00  0.68452611947E+02  0.68452611995E+02  0.25500000920E-02 0.  1.
        2   -1    0    0  501    0  0.00000000000E+00  0.00000000000E+00 -0.11301852349E+04  0.11301852349E+04  0.25500000920E-02 0. -1.
    10030    2    1    2    0    0  0.00000000000E+00  0.00000000000E+00 -0.10617326230E+04  0.11986378469E+04  0.55628816757E+03 0.  0.
        1    1    3    3  502    0  0.11092392517E+03  0.24085846167E+03 -0.71174897427E+03  0.75954165004E+03  0.50400001928E-02 0. -1.
       -1    1    3    3    0  502 -0.11092392517E+03 -0.24085846167E+03 -0.34998364868E+03  0.43909619687E+03  0.50400001928E-02 0.  1.
</event>
<event>
 5   0  0.9411028E-02  0.5919764E+03  0.7818609E-02  0.9922194E-01
        1   -1    0    0  501    0  0.00000000000E+00  0.00000000000E+00  0.89206955636E+03  0.89206955637E+03  0.50400001928E-02 0.  1.
       -1   -1    0    0    0  501  0.00000000000E+00  0.00000000000E+00 -0.98208735313E+02  0.98208735442E+02  0.50400001928E-02 0. -1.
    10030    2    1    2    0    0  0.00000000000E+00  0.00000000000E+00  0.79386082104E+03  0.99027829181E+03  0.59197642863E+03 0.  0.
        4    1    3    3  502    0 -0.21355960148E+03  0.86141973002E+02  0.85858542332E+02  0.24576705452E+03  0.12699999809E+01 0. -1.
       -4    1    3    3    0  502  0.21355960148E+03 -0.86141973002E+02  0.70800227871E+03  0.74451123729E+03  0.12699999809E+01 0.  1.
</event>
<event>
 5   0  0.8860626E-02  0.6133414E+03  0.7818609E-02  0.9878107E-01
        1   -1    0    0  501    0  0.00000000000E+00  0.00000000000E+00  0.65086271770E+03  0.65086271772E+03  0.50400001928E-02 0.  1.
       -1   -1    0    0    0  501  0.00000000000E+00  0.00000000000E+00 -0.14449578303E+03  0.14449578312E+03  0.50400001928E-02 0. -1.
    10030    2    1    2    0    0  0.00000000000E+00  0.00000000000E+00  0.50636693467E+03  0.79535850084E+03  0.61334139949E+03 0.  0.
        3    1    3    3  502    0 -0.13056037270E+03  0.20084740378E+03  0.48906889081E+01  0.23960304581E+03  0.10100000352E+00 0. -1.
       -3    1    3    3    0  502  0.13056037270E+03 -0.20084740378E+03  0.50147624576E+03  0.55575545502E+03  0.10100000352E+00 0.  1.
</event>
<event>
 5   0  0.6170500E-02  0.5823648E+03  0.7818609E-02  0.9942684E-01
        3   -1    0    0  501    0  0.00000000000E+00  0.00000000000E+00  0.35221277243E+03  0.35221278691E+03  0.10100000352E+00 0. -1.
       -3   -1    0    0    0  501  0.00000000000E+00  0.00000000000E+00 -0.24072714778E+03  0.24072716896E+03  0.10100000352E+00 0.  1.
    10030    2    1    2    0    0  0.00000000000E+00  0.00000000000E+00  0.11148562465E+03  0.59293995587E+03  0.58236478840E+03 0.  0.
        2    1    3    3  502    0  0.27183456814E+03 -0.28363794411E+02  0.15800901348E+03  0.31569825089E+03  0.25500000920E-02 0. -1.
       -2    1    3    3    0  502 -0.27183456814E+03  0.28363794411E+02 -0.46523388833E+02  0.27724170498E+03  0.25500000920E-02 0.  1.
</event>
<event>
 5   0  0.1483942E-01  0.6180993E+03  0.7818609E-02  0.9868551E-01
       -2   -1    0    0    0  501  0.00000000000E+00  0.00000000000E+00  0.79370732148E+02  0.79370732189E+02  0.25500000920E-02 0.  1.
        2   -1    0    0  501    0  0.00000000000E+00  0.00000000000E+00 -0.12033615604E+04  0.12033615604E+04  0.25500000920E-02 0. -1.
    10030    2    1    2    0    0  0.00000000000E+00  0.00000000000E+00 -0.11239908282E+04  0.12827322926E+04  0.61809930631E+03 0.  0.
        4    1    3    3  502    0 -0.13502405125E+03 -0.64219381604E+02 -0.11232994335E+04  0.11332073304E+04  0.12699999809E+01 0. -1.
       -4    1    3    3    0  502  0.13502405125E+03  0.64219381604E+02 -0.69139470335E+00  0.14952496218E+03  0.12699999809E+01 0.  1.
</event>
<event>
 5   0  0.9411028E-02  0.6058521E+03  0.7818609E-02  0.9893339E-01
       -1   -1    0    0    0  501  0.00000000000E+00  0.00000000000E+00  0.52257951764E+03  0.52257951766E+03  0.50400001928E-02 0.  1.
        1   -1    0    0  501    0  0.00000000000E+00  0.00000000000E+00 -0.17559853180E+03  0.17559853187E+03  0.50400001928E-02 0. -1.
    10030    2    1    2    0    0  0.00000000000E+00  0.00000000000E+00  0.34698098583E+03  0.69817804953E+03  0.60585211423E+03 0.  0.
        4    1    3    3  502    0 -0.13486586611E+03  0.95313702152E+02 -0.11915554720E+03  0.20364960345E+03  0.12699999809E+01 0. -1.
       -4    1    3    3    0  502  0.13486586611E+03 -0.95313702152E+02  0.46613653303E+03  0.49452844608E+03  0.12699999809E+01 0.  1.
</event>
<event>
 5   0  0.9177281E-02  0.6222374E+03  0.7818609E-02  0.9860315E-01
       -1   -1    0    0    0  501  0.00000000000E+00  0.00000000000E+00  0.91876954730E+02  0.91876954868E+02  0.50400001928E-02 0.  1.
        1   -1    0    0  501    0  0.00000000000E+00  0.00000000000E+00 -0.10535269624E+04  0.10535269624E+04  0.50400001928E-02 0. -1.
    10030    2    1    2    0    0  0.00000000000E+00  0.00000000000E+00 -0.96165000769E+03  0.11454039173E+04  0.62223741167E+03 0.  0.
        1    1    3    3  502    0  0.19497048860E+03  0.10197224005E+03 -0.75923834554E+02  0.23275793831E+03  0.50400001928E-02 0.  1.
       -1    1    3    3    0  502 -0.19497048860E+03 -0.10197224005E+03 -0.88572617314E+03  0.91264597899E+03  0.50400001928E-02 0. -1.
</event>
<event>
 5   0  0.9497860E-02  0.6093217E+03  0.7818609E-02  0.9886253E-01
       -1   -1    0    0    0  501  0.00000000000E+00  0.00000000000E+00  0.16352029382E+03  0.16352029390E+03  0.50400001928E-02 0. -1.
        1   -1    0    0  501    0  0.00000000000E+00  0.00000000000E+00 -0.56762509646E+03  0.56762509648E+03  0.50400001928E-02 0.  1.
    10030    2    1    2    0    0  0.00000000000E+00  0.00000000000E+00 -0.40410480264E+03  0.73114539038E+03  0.60932166411E+03 0.  0.
        5    1    3    3  502    0 -0.23789049742E+03 -0.12534547640E+03 -0.37382635216E+03  0.46051233294E+03  0.46999998093E+01 0.  1.
       -5    1    3    3    0  502  0.23789049742E+03  0.12534547640E+03 -0.30278450481E+02  0.27063305744E+03  0.46999998093E+01 0. -1.
</event>
<event>
 5   0  0.1483942E-01  0.5914860E+03  0.7818609E-02  0.9923229E-01
       -2   -1    0    0    0  501  0.00000000000E+00  0.00000000000E+00  0.61989066979E+02  0.61989067031E+02  0.25500000920E-02 0.  1.
        2   -1    0    0  501    0  0.00000000000E+00  0.00000000000E+00 -0.14109569930E+04  0.14109569930E+04  0.25500000920E-02 0. -1.
    10030    2    1    2    0    0  0.00000000000E+00  0.00000000000E+00 -0.13489679260E+04  0.14729460600E+04  0.59148595108E+03 0.  0.
        4    1    3    3  502    0 -0.21974640938E+02  0.22854380139E+03 -0.21028737319E+03  0.31134795040E+03  0.12699999809E+01 0.  1.
       -4    1    3    3    0  502  0.21974640938E+02 -0.22854380139E+03 -0.11386805528E+04  0.11615981096E+04  0.12699999809E+01 0. -1.
</event>
<event>
 5   0  0.1502642E-01  0.5400914E+03  0.7818609E-02  0.1003814E+00
        2   -1    0    0  501    0  0.00000000000E+00  0.00000000000E+00  0.13542218089E+03  0.13542218092E+03  0.25500000920E-02 0. -1.
       -2   -1    0    0    0  501  0.00000000000E+00  0.00000000000E+00 -0.53849882518E+03  0.53849882519E+03  0.25500000920E-02 0.  1.
    10030    2    1    2    0    0  0.00000000000E+00  0.00000000000E+00 -0.40307664429E+03  0.67392100610E+03  0.54009141939E+03 0.  0.
        2    1    3    3  502    0  0.17720525689E+03  0.77628811495E+02 -0.43662932638E+03  0.47756999917E+03  0.25500000920E-02 0.  1.
       -2    1    3    3    0  502 -0.17720525689E+03 -0.77628811495E+02  0.33552682095E+02  0.19635100694E+03  0.25500000920E-02 0. -1.
</event>
<event>
 5   0  0.9497860E-02  0.5870370E+03  0.7818609E-02  0.9932671E-01
        1   -1    0    0  501    0  0.00000000000E+00  0.00000000000E+00  0.10749761616E+04  0.10749761616E+04  0.50400001928E-02 0.  1.
       -1   -1    0    0    0  501  0.00000000000E+00  0.00000000000E+00 -0.80144200213E+02  0.80144200372E+02  0.50400001928E-02 0. -1.
    10030    2    1    2    0    0  0.00000000000E+00  0.00000000000E+00  0.99483196135E+03  0.11551203619E+04  0.58703698287E+03 0.  0.
        5    1    3    3  502    0  0.75937836990E+02  0.28302956205E+03  0.46576534548E+03  0.55030149475E+03  0.46999998093E+01 0. -1.
       -5    1    3    3    0  502 -0.75937836990E+02 -0.28302956205E+03  0.52906661587E+03  0.60481886719E+03  0.46999998093E+01 0.  1.
</event>
<event>
 5   0  0.9177281E-02  0.5966787E+03  0.7818609E-02  0.9912321E-01
       -1   -1    0    0    0  501  0.00000000000E+00  0.00000000000E+00  0.91091683195E+02  0.91091683334E+02  0.50400001928E-02 0.  1.
        1   -1    0    0  501    0  0.00000000000E+00  0.00000000000E+00 -0.97710736823E+03  0.97710736824E+03  0.50400001928E-02 0. -1.
    10030    2    1    2    0    0  0.00000000000E+00  0.00000000000E+00 -0.88601568503E+03  0.10681990516E+04  0.59667865695E+03 0.  0.
        1    1    3    3  502    0  0.12102577354E+03  0.13254088388E+03 -0.86964176603E+03  0.88797022755E+03  0.50400001928E-02 0. -1.
       -1    1    3    3    0  502 -0.12102577354E+03 -0.13254088388E+03 -0.16373919001E+02  0.18022882403E+03  0.50400001928E-02 0.  1.
</event>
<event>
 5   0  0.1513339E-01  0.5843674E+03  0.7818609E-02  0.9938380E-01
       -2   -1    0    0    0  501  0.00000000000E+00  0.00000000000E+00  0.23840630357E+03  0.23840630359E+03  0.25500000920E-02 0.  1.
        2   -1    0    0  501    0  0.00000000000E+00  0.00000000000E+00 -0.35809171975E+03  0.35809171976E+03  0.25500000920E-02 0. -1.
    10030    2    1    2    0    0  0.00000000000E+00  0.00000000000E+00 -0.11968541618E+03  0.59649802334E+03  0.58436742980E+03 0.  0.
        3    1    3    3  502    0 -0.26383969568E+03 -0.12521243480E+03 -0.69073334500E+02  0.30010110727E+03  0.10100000352E+00 0.  1.
       -3    1    3    3    0  502  0.26383969568E+03  0.12521243480E+03 -0.50612081679E+02  0.29639691607E+03  0.10100000352E+00 0. -1.
</event>
<event>
 5   0  0.1483942E-01  0.5985596E+03  0.7818609E-02  0.9908399E-01
        2   -1    0    0  501    0  0.00000000000E+00  0.00000000000E+00  0.26637281826E+03  0.26637281827E+03  0.25500000920E-02 0. -1.
       -2   -1    0    0    0  501  0.00000000000E+00  0.00000000000E+00 -0.33625197695E+03  0.33625197696E+03  0.25500000920E-02 0.  1.
    10030    2    1    2    0    0  0.00000000000E+00  0.00000000000E+00 -0.69879158697E+02  0.60262479523E+03  0.59855956012E+03 0.  0.
        4    1    3    3  502    0  0.18952304525E+02  0.39762155952E+02  0.26308871281E+03  0.26675363653E+03  0.12699999809E+01 0. -1.
       -4    1    3    3    0  502 -0.18952304525E+02 -0.39762155952E+02 -0.33296787151E+03  0.33587115870E+03  0.12699999809E+01 0.  1.
</event>
<event>
 5   0  0.1483942E-01  0.6003596E+03  0.7818609E-02  0.9904660E-01
       -2   -1    0    0    0  501  0.00000000000E+00  0.00000000000E+00  0.22483314011E+03  0.22483314013E+03  0.25500000920E-02 0. -1.
        2   -1    0    0  501    0  0.00000000000E+00  0.00000000000E+00 -0.40077677468E+03  0.40077677469E+03  0.25500000920E-02 0.  1.
    10030    2    1    2    0    0  0.00000000000E+00  0.00000000000E+00 -0.17594363457E+03  0.62560991482E+03  0.60035956141E+03 0.  0.
        4    1    3    3  502    0  0.24241002583E+03 -0.17167235785E+03 -0.42882227144E+02  0.30012416994E+03  0.12699999809E+01 0. -1.
       -4    1    3    3    0  502 -0.24241002583E+03  0.17167235785E+03 -0.13306140742E+03  0.32548574488E+03  0.12699999809E+01 0.  1.
</event>
<event>
 5   0  0.9177281E-02  0.6004877E+03  0.7818609E-02  0.9904395E-01
       -1   -1    0    0    0  501  0.00000000000E+00  0.00000000000E+00  0.76271893884E+03  0.76271893885E+03  0.50400001928E-02 0. -1.
        1   -1    0    0  501    0  0.00000000000E+00  0.00000000000E+00 -0.11819079277E+03  0.11819079288E+03  0.50400001928E-02 0.  1.
    10030    2    1    2    0    0  0.00000000000E+00  0.00000000000E+00  0.64452814607E+03  0.88090973173E+03  0.60048765548E+03 0.  0.
        1    1    3    3  502    0  0.31054069498E+02 -0.96417549626E+02  0.73689503525E+03  0.74382457079E+03  0.50400001928E-02 0. -1.
       -1    1    3    3    0  502 -0.31054069498E+02  0.96417549626E+02 -0.92366889182E+02  0.13708516094E+03  0.50400001928E-02 0.  1.
</event>
<event>
 5   0  0.8860626E-02  0.5903642E+03  0.7818609E-02  0.9925601E-01
       -1   -1    0    0    0  501  0.00000000000E+00  0.00000000000E+00  0.16369063689E+03  0.16369063697E+03  0.50400001928E-02 0. -1.
        1   -1    0    0  501    0  0.00000000000E+00  0.00000000000E+00 -0.53229970700E+03  0.53229970702E+03  0.50400001928E-02 0.  1.
    10030    2    1    2    0    0  0.00000000000E+00  0.00000000000E+00 -0.36860907010E+03  0.69599034399E+03  0.59036422009E+03 0.  0.
        3    1    3    3  502    0  0.16244178096E+03  0.80744319932E+02 -0.45883145044E+03  0.49338959000E+03  0.10100000352E+00 0.  1.
       -3    1    3    3    0  502 -0.16244178096E+03 -0.80744319932E+02  0.90222380339E+02  0.20260075399E+03  0.10100000352E+00 0. -1.
</event>
<event>
 5   0  0.9177281E-02  0.5891533E+03  0.7818609E-02  0.9928169E-01
        1   -1    0    0  501    0  0.00000000000E+00  0.00000000000E+00  0.57943626160E+03  0.57943626162E+03  0.50400001928E-02 0. -1.
       -1   -1    0    0    0  501  0.00000000000E+00  0.00000000000E+00 -0.14975831431E+03  0.14975831440E+03  0.50400001928E-02 0.  1.
    10030    2    1    2    0    0  0.00000000000E+00  0.00000000000E+00  0.42967794728E+03  0.72919457602E+03  0.58915328337E+03 0.  0.
        1    1    3    3  502    0 -0.27579286210E+03  0.10120484325E+03  0.24170801664E+03  0.38042987319E+03  0.50400001928E-02 0. -1.
       -1    1    3    3    0  502  0.27579286210E+03 -0.10120484325E+03  0.18796993064E+03  0.34876470282E+03  0.50400001928E-02 0.  1.
</event>
<event>
 5   0  0.6170500E-02  0.5999884E+03  0.7818609E-02  0.9905430E-01
       -4   -1    0    0    0  501  0.00000000000E+00  0.00000000000E+00  0.13475486583E+03  0.13476085027E+03  0.12699999809E+01 0. -1.
        4   -1    0    0  501    0  0.00000000000E+00  0.00000000000E+00 -0.66783222551E+03  0.66783343307E+03  0.12699999809E+01 0.  1.
    10030    2    1    2    0    0  0.00000000000E+00  0.00000000000E+00 -0.53307735968E+03  0.80259428333E+03  0.59998842675E+03 0.  0.
        4    1    3    3  502    0  0.24689517399E+03 -0.13799430215E+03 -0.40027527242E+03  0.49012402612E+03  0.12699999809E+01 0.  1.
       -4    1    3    3    0  502 -0.24689517399E+03  0.13799430215E+03 -0.13280208726E+03  0.31247025722E+03  0.12699999809E+01 0. -1.
</event>
<event>
 5   0  0.1513339E-01  0.6529974E+03  0.7818609E-02  0.9801171E-01
        2   -1    0    0  501    0  0.00000000000E+00  0.00000000000E+00  0.74742119557E+03  0.74742119558E+03  0.25500000920E-02 0.  1.
       -2   -1    0    0    0  501  0.00000000000E+00  0.00000000000E+00 -0.14262559073E+03  0.14262559075E+03  0.25500000920E-02 0. -1.
    10030    2    1    2    0    0  0.00000000000E+00  0.00000000000E+00  0.60479560485E+03  0.89004678633E+03  0.65299736462E+03 0.  0.
        3    1    3    3  502    0 -0.17639198440E+03  0.38249015000E+02  0.67323940166E+03  0.69701393204E+03  0.10100000352E+00 0.  1.
       -3    1    3    3    0  502  0.17639198440E+03 -0.38249015000E+02 -0.68443796813E+02  0.19303285428E+03  0.10100000352E+00 0. -1.
</event>
<event>
 5   0  0.1513339E-01  0.4821791E+03  0.7818609E-02  0.1018538E+00
        2   -1    0    0  501    0  0.00000000000E+00  0.00000000000E+00  0.57640738047E+03  0.57640738048E+03  0.25500000920E-02 0.  1.
       -2   -1    0    0    0  501  0.00000000000E+00  0.00000000000E+00 -0.10083868586E+03  0.10083868590E+03  0.25500000920E-02 0. -1.
    10030    2    1    2    0    0  0.00000000000E+00  0.00000000000E+00  0.47556869461E+03  0.67724606637E+03  0.48217906542E+03 0.  0.
        3    1    3    3  502    0  0.67865020586E+02 -0.17608911088E+03  0.44851934122E+03  0.48660317060E+03  0.10100000352E+00 0.  1.
       -3    1    3    3    0  502 -0.67865020586E+02  0.17608911088E+03  0.27049353392E+02  0.19064289578E+03  0.10100000352E+00 0. -1.
</event>
<event>
 5   0  0.6170500E-02  0.5617395E+03  0.7818609E-02  0.9988126E-01
        3   -1    0    0  501    0  0.00000000000E+00  0.00000000000E+00  0.44630024264E+03  0.44630025407E+03  0.10100000352E+00 0. -1.
       -3   -1    0    0    0  501  0.00000000000E+00  0.00000000000E+00 -0.17675948937E+03  0.17675951823E+03  0.10100000352E+00 0.  1.
    10030    2    1    2    0    0  0.00000000000E+00  0.00000000000E+00  0.26954075327E+03  0.62305977230E+03  0.56173949673E+03 0.  0.
        4    1    3    3  502    0  0.63693333416E+02  0.92382283355E+02  0.42035494161E+03  0.43507610464E+03  0.12699999809E+01 0. -1.
       -4    1    3    3    0  502 -0.63693333416E+02 -0.92382283355E+02 -0.15081418834E+03  0.18798366765E+03  0.12699999809E+01 0.  1.
</event>
<event>
 5   0  0.8860626E-02  0.5894491E+03  0.7818609E-02  0.9927541E-01
       -1   -1    0    0    0  501  0.00000000000E+00  0.00000000000E+00  0.11366216792E+03  0.11366216803E+03  0.50400001928E-02 0.  1.
        1   -1    0    0  501    0  0.00000000000E+00  0.00000000000E+00 -0.76421706552E+03  0.76421706554E+03  0.50400001928E-02 0. -1.
    10030    2    1    2    0    0  0.00000000000E+00  0.00000000000E+00 -0.65055489760E+03  0.87787923356E+03  0.58944912751E+03 0.  0.
        3    1    3    3  502    0  0.20986714311E+03  0.15224209830E+03 -0.11655615840E+03  0.28426611214E+03  0.10100000352E+00 0.  1.
       -3    1    3    3    0  502 -0.20986714311E+03 -0.15224209830E+03 -0.53399873921E+03  0.59361312142E+03  0.10100000352E+00 0. -1.
</event>
<event>
 5   0  0.1502642E-01  0.5738740E+03  0.7818609E-02  0.9961143E-01
        2   -1    0    0  501    0  0.00000000000E+00  0.00000000000E+00  0.54308514701E+03  0.54308514701E+03  0.25500000920E-02 0.  1.
       -2   -1    0    0    0  501  0.00000000000E+00  0.00000000000E+00 -0.15160206535E+03  0.15160206537E+03  0.25500000920E-02 0. -1.
    10030    2    1    2    0    0  0.00000000000E+00  0.00000000000E+00  0.39148308166E+03  0.69468721238E+03  0.57387395813E+03 0.  0.
        2    1    3    3  502    0 -0.24267796909E+03 -0.55183514273E+02  0.22865510827E+02  0.24992128465E+03  0.25500000920E-02 0. -1.
       -2    1    3    3    0  502  0.24267796909E+03  0.55183514273E+02  0.36861757084E+03  0.44476592773E+03  0.25500000920E-02 0.  1.
</event>
<event>
 5   0  0.1532571E-01  0.5955529E+03  0.7818609E-02  0.9914676E-01
        2   -1    0    0  501    0  0.00000000000E+00  0.00000000000E+00  0.93238599156E+03  0.93238599156E+03  0.25500000920E-02 0.  1.
       -2   -1    0    0    0  501  0.00000000000E+00  0.00000000000E+00 -0.95100969919E+02  0.95100969954E+02  0.25500000920E-02 0. -1.
    10030    2    1    2    0    0  0.00000000000E+00  0.00000000000E+00  0.83728502164E+03  0.10274869615E+04  0.59555289322E+03 0.  0.
        1    1    3    3  502    0 -0.19183297370E+03 -0.18521914657E+03  0.18998921664E+03  0.32741704983E+03  0.50400001928E-02 0. -1.
       -1    1    3    3    0  502  0.19183297370E+03  0.18521914657E+03  0.64729580500E+03  0.70006991169E+03  0.50400001928E-02 0.  1.
</event>
<event>
 5   0  0.1483942E-01  0.5943964E+03  0.7818609E-02  0.9917100E-01
       -2   -1    0    0    0  501  0.00000000000E+00  0.00000000000E+00  0.69320476408E+02  0.69320476454E+02  0.25500000920E-02 0.  1.
        2   -1    0    0  501    0  0.00000000000E+00  0.00000000000E+00 -0.12741801536E+04  0.12741801536E+04  0.25500000920E-02 0. -1.
    10030    2    1    2    0    0  0.00000000000E+00  0.00000000000E+00 -0.12048596772E+04  0.13435006301E+04  0.59439641759E+03 0.  0.
        4    1    3    3  502    0  0.11041752761E+03 -0.24877441175E+03 -0.33266574807E+03  0.42982420963E+03  0.12699999809E+01 0.  1.
       -4    1    3    3    0  502 -0.11041752761E+03  0.24877441175E+03 -0.87219392915E+03  0.91367642045E+03  0.12699999809E+01 0. -1.
</event>
<event>
 5   0  0.6170500E-02  0.3635900E+03  0.7818609E-02  0.1057171E+00
        3   -1    0    0  501    0  0.00000000000E+00  0.00000000000E+00  0.41230790305E+02  0.41230914011E+02  0.10100000352E+00 0. -1.
       -3   -1    0    0    0  501  0.00000000000E+00  0.00000000000E+00 -0.80156986569E+03  0.80156987206E+03  0.10100000352E+00 0.  1.
    10030    2    1    2    0    0  0.00000000000E+00  0.00000000000E+00 -0.76033907539E+03  0.84280078607E+03  0.36358995508E+03 0.  0.
        4    1    3    3  502    0 -0.94249802016E+02  0.88800144267E+02 -0.67592382865E+03  0.68821735363E+03  0.12699999809E+01 0.  1.
       -4    1    3    3    0  502  0.94249802016E+02 -0.88800144267E+02 -0.84415246738E+02  0.15458343244E+03  0.12699999809E+01 0. -1.
</event>
<event>
 5   0  0.9497860E-02  0.4855983E+03  0.7818609E-02  0.1017608E+00
       -1   -1    0    0    0  501  0.00000000000E+00  0.00000000000E+00  0.37573197457E+02  0.37573197795E+02  0.50400001928E-02 0.  1.
        1   -1    0    0  501    0  0.00000000000E+00  0.00000000000E+00 -0.15689755888E+04  0.15689755888E+04  0.50400001928E-02 0. -1.
    10030    2    1    2    0    0  0.00000000000E+00  0.00000000000E+00 -0.15314023914E+04  0.16065487866E+04  0.48559831088E+03 0.  0.
        5    1    3    3  502    0 -0.23992581292E+03  0.13834084798E+02 -0.65236468918E+03  0.69523920724E+03  0.46999998093E+01 0.  1.
       -5    1    3    3    0  502  0.23992581292E+03 -0.13834084798E+02 -0.87903770220E+03  0.91130957939E+03  0.46999998093E+01 0. -1.
</event>
<event>
 5   0  0.1532571E-01  0.5820447E+03  0.7818609E-02  0.9943374E-01
        2   -1    0    0  501    0  0.00000000000E+00  0.00000000000E+00  0.19321295855E+03  0.19321295856E+03  0.25500000920E-02 0.  1.
       -2   -1    0    0    0  501  0.00000000000E+00  0.00000000000E+00 -0.43834543520E+03  0.43834543520E+03  0.25500000920E-02 0. -1.
    10030    2    1    2    0    0  0.00000000000E+00  0.00000000000E+00 -0.24513247665E+03  0.63155839377E+03  0.58204473508E+03 0.  0.
        1    1    3    3  502    0 -0.15788972626E+03  0.19184787178E+03 -0.28697916676E+03  0.37959427517E+03  0.50400001928E-02 0. -1.
       -1    1    3    3    0  502  0.15788972626E+03 -0.19184787178E+03  0.41846690109E+02  0.25196411860E+03  0.50400001928E-02 0.  1.
</event>
<event>
 5   0  0.1513339E-01  0.5736299E+03  0.7818609E-02  0.9961678E-01
        2   -1    0    0  501    0  0.00000000000E+00  0.00000000000E+00  0.11318664679E+03  0.11318664682E+03  0.25500000920E-02 0.  1.
       -2   -1    0    0    0  501  0.00000000000E+00  0.00000000000E+00 -0.72678897822E+03  0.72678897823E+03  0.25500000920E-02 0. -1.
    10030    2    1    2    0    0  0.00000000000E+00  0.00000000000E+00 -0.61360233143E+03  0.83997562504E+03  0.57362987154E+03 0.  0.
        3    1    3    3  502    0 -0.20883507659E+03 -0.15141880174E+03 -0.12318818378E+03  0.28585849920E+03  0.10100000352E+00 0.  1.
       -3    1    3    3    0  502  0.20883507659E+03  0.15141880174E+03 -0.49041414765E+03  0.55411712585E+03  0.10100000352E+00 0. -1.
</event>
<event>
 5   0  0.9411028E-02  0.6639910E+03  0.7818609E-02  0.9780875E-01
       -1   -1    0    0    0  501  0.00000000000E+00  0.00000000000E+00  0.83535916987E+02  0.83535917139E+02  0.50400001928E-02 0.  1.
        1   -1    0    0  501    0  0.00000000000E+00  0.00000000000E+00 -0.13194446248E+04  0.13194446249E+04  0.50400001928E-02 0. -1.
    10030    2    1    2    0    0  0.00000000000E+00  0.00000000000E+00 -0.12359087079E+04  0.14029805420E+04  0.66399101429E+03 0.  0.
        4    1    3    3  502    0 -0.95898962390E+02  0.91552376755E+02 -0.12610727874E+04  0.12680239102E+04  0.12699999809E+01 0. -1.
       -4    1    3    3    0  502  0.95898962390E+02 -0.91552376755E+02  0.25164079554E+02  0.13495663184E+03  0.12699999809E+01 0.  1.
</event>
<event>
 5   0  0.6170500E-02  0.5678219E+03  0.7818609E-02  0.9974510E-01
       -3   -1    0    0    0  501  0.00000000000E+00  0.00000000000E+00  0.15028176955E+04  0.15028176989E+04  0.10100000352E+00 0.  1.
        3   -1    0    0  501    0  0.00000000000E+00  0.00000000000E+00 -0.53636149271E+02  0.53636244365E+02  0.10100000352E+00 0. -1.
    10030    2    1    2    0    0  0.00000000000E+00  0.00000000000E+00  0.14491815462E+04  0.15564539433E+04  0.56782191183E+03 0.  0.
        3    1    3    3  502    0  0.11515178394E+03  0.16292496008E+03  0.17091026345E+03  0.26270668875E+03  0.10100000352E+00 0. -1.
       -3    1    3    3    0  502 -0.11515178394E+03 -0.16292496008E+03  0.12782712828E+04  0.12937472545E+04  0.10100000352E+00 0.  1.
</event>
<event>
 5   0  0.1488510E-01  0.6246453E+03  0.7818609E-02  0.9855554E-01
       -2   -1    0    0    0  501  0.00000000000E+00  0.00000000000E+00  0.70169634472E+02  0.70169634518E+02  0.25500000920E-02 0.  1.
        2   -1    0    0  501    0  0.00000000000E+00  0.00000000000E+00 -0.13901373355E+04  0.13901373355E+04  0.25500000920E-02 0. -1.
    10030    2    1    2    0    0  0.00000000000E+00  0.00000000000E+00 -0.13199677010E+04  0.14603069700E+04  0.62464527127E+03 0.  0.
        5    1    3    3  502    0 -0.19361647248E+03  0.10296319724E+03 -0.11797717048E+04  0.11999883849E+04  0.46999998093E+01 0. -1.
       -5    1    3    3    0  502  0.19361647248E+03 -0.10296319724E+03 -0.14019599619E+03  0.26031858510E+03  0.46999998093E+01 0.  1.
</event>
<event>
 5   0  0.1502642E-01  0.5801248E+03  0.7818609E-02  0.9947521E-01
        2   -1    0    0  501    0  0.00000000000E+00  0.00000000000E+00  0.10619648729E+04  0.10619648729E+04  0.25500000920E-02 0.  1.
       -2   -1    0    0    0  501  0.00000000000E+00  0.00000000000E+00 -0.79226905626E+02  0.79226905667E+02  0.25500000920E-02 0. -1.
    10030    2    1    2    0    0  0.00000000000E+00  0.00000000000E+00  0.98273796730E+03  0.11411917786E+04  0.58012478241E+03 0.  0.
        2    1    3    3  502    0 -0.69594618858E+02 -0.15508881499E+03  0.29025233576E+02  0.17244829863E+03  0.25500000920E-02 0. -1.
       -2    1    3    3    0  502  0.69594618858E+02  0.15508881499E+03  0.95371273373E+03  0.96874347997E+03  0.25500000920E-02 0.  1.
</event>
<event>
 5   0  0.1502642E-01  0.5980125E+03  0.7818609E-02  0.9909538E-01
       -2   -1    0    0    0  501  0.00000000000E+00  0.00000000000E+00  0.63596262860E+02  0.63596262911E+02  0.25500000920E-02 0. -1.
        2   -1    0    0  501    0  0.00000000000E+00  0.00000000000E+00 -0.14058176730E+04  0.14058176730E+04  0.25500000920E-02 0.  1.
    10030    2    1    2    0    0  0.00000000000E+00  0.00000000000E+00 -0.13422214101E+04  0.14694139359E+04  0.59801254269E+03 0.  0.
        2    1    3    3  502    0 -0.22524406522E+03  0.10007678494E+03 -0.25517110741E+03  0.35477111757E+03  0.25500000920E-02 0. -1.
       -2    1    3    3    0  502  0.22524406522E+03 -0.10007678494E+03 -0.10870503027E+04  0.11146428183E+04  0.25500000920E-02 0.  1.
</event>
<event>
 5   0  0.8860626E-02  0.6598049E+03  0.7818609E-02  0.9788553E-01
       -1   -1    0    0    0  501  0.00000000000E+00  0.00000000000E+00  0.23110431085E+03  0.23110431091E+03  0.50400001928E-02 0.  1.
        1   -1    0    0  501    0  0.00000000000E+00  0.00000000000E+00 -0.47093719074E+03  0.47093719076E+03  0.50400001928E-02 0. -1.
    10030    2    1    2    0    0  0.00000000000E+00  0.00000000000E+00 -0.23983287988E+03  0.70204150167E+03  0.65980486494E+03 0.  0.
        3    1    3    3  502    0 -0.19854492848E+03 -0.16167662023E+03 -0.34126248444E+03  0.42663744753E+03  0.10100000352E+00 0. -1.
       -3    1    3    3    0  502  0.19854492848E+03  0.16167662023E+03  0.10142960455E+03  0.27540405414E+03  0.10100000352E+00 0.  1.
</event>
<event>
 5   0  0.9420349E-02  0.5942756E+03  0.7818609E-02  0.9917354E-01
       -1   -1    0    0    0  501  0.00000000000E+00  0.00000000000E+00  0.18626447628E+03  0.18626447635E+03  0.50400001928E-02 0.  1.
        1   -1    0    0  501    0  0.00000000000E+00  0.00000000000E+00 -0.47400805220E+03  0.47400805223E+03  0.50400001928E-02 0. -1.
    10030    2    1    2    0    0  0.00000000000E+00  0.00000000000E+00 -0.28774357592E+03  0.66027252858E+03  0.59427556445E+03 0.  0.
        2    1    3    3  502    0  0.17571920607E+03  0.23310327271E+03 -0.82245946650E+02  0.30328002057E+03  0.25500000920E-02 0.  1.
       -2    1    3    3    0  502 -0.17571920607E+03 -0.23310327271E+03 -0.20549762927E+03  0.35699250801E+03  0.25500000920E-02 0. -1.
</event>
<event>
 5   0  0.1532571E-01  0.6141371E+03  0.7818609E-02  0.9876502E-01
        2   -1    0    0  501    0  0.00000000000E+00  0.00000000000E+00  0.90603371313E+03  0.90603371314E+03  0.25500000920E-02 0. -1.
       -2   -1    0    0    0  501  0.00000000000E+00  0.00000000000E+00 -0.10407019632E+03  0.10407019635E+03  0.25500000920E-02 0.  1.
    10030    2    1    2    0    0  0.00000000000E+00  0.00000000000E+00  0.80196351681E+03  0.10101039095E+04  0.61413713914E+03 0.  0.
        1    1    3    3  502    0  0.23292208890E+03 -0.18872109613E+03  0.51036407579E+03  0.59189512712E+03  0.50400001928E-02 0.  1.
       -1    1    3    3    0  502 -0.23292208890E+03  0.18872109613E+03  0.29159944102E+03  0.41820878237E+03  0.50400001928E-02 0. -1.
</event>
<event>
 5   0  0.6170500E-02  0.5849551E+03  0.7818609E-02  0.9937121E-01
       -4   -1    0    0    0  501  0.00000000000E+00  0.00000000000E+00  0.27983865491E+03  0.27984153673E+03  0.12699999809E+01 0.  1.
        4   -1    0    0  501    0  0.00000000000E+00  0.00000000000E+00 -0.30568148575E+03  0.30568412394E+03  0.12699999809E+01 0. -1.
    10030    2    1    2    0    0  0.00000000000E+00  0.00000000000E+00 -0.25842830838E+02  0.58552566067E+03  0.58495508152E+03 0.  0.
        2    1    3    3  502    0  0.43630796154E+01 -0.28640717030E+03  0.46254844444E+02  0.29015101983E+03  0.25500000920E-02 0.  1.
       -2    1    3    3    0  502 -0.43630796154E+01  0.28640717030E+03 -0.72097675282E+02  0.29537464084E+03  0.25500000920E-02 0. -1.
</event>
<event>
 5   0  0.8860626E-02  0.5973810E+03  0.7818609E-02  0.9910855E-01
       -1   -1    0    0    0  501  0.00000000000E+00  0.00000000000E+00  0.53351875531E+03  0.53351875534E+03  0.50400001928E-02 0. -1.
        1   -1    0    0  501    0  0.00000000000E+00  0.00000000000E+00 -0.16722186826E+03  0.16722186833E+03  0.50400001928E-02 0.  1.
    10030    2    1    2    0    0  0.00000000000E+00  0.00000000000E+00  0.36629688705E+03  0.70074062367E+03  0.59738096069E+03 0.  0.
        3    1    3    3  502    0  0.22131892661E+03  0.18859768116E+03  0.10303151237E+03  0.30849093238E+03  0.10100000352E+00 0.  1.
       -3    1    3    3    0  502 -0.22131892661E+03 -0.18859768116E+03  0.26326537468E+03  0.39224969130E+03  0.10100000352E+00 0. -1.
</event>
<event>
 5   0  0.1488510E-01  0.5887123E+03  0.7818609E-02  0.9929105E-01
        2   -1    0    0  501    0  0.00000000000E+00  0.00000000000E+00  0.42345573793E+03  0.42345573794E+03  0.25500000920E-02 0. -1.
       -2   -1    0    0    0  501  0.00000000000E+00  0.00000000000E+00 -0.20461532498E+03  0.20461532500E+03  0.25500000920E-02 0.  1.
    10030    2    1    2    0    0  0.00000000000E+00  0.00000000000E+00  0.21884041295E+03  0.62807106294E+03  0.58871226738E+03 0.  0.
        5    1    3    3  502    0  0.13913032867E+03  0.20481260574E+03  0.27917432701E+03  0.37318339551E+03  0.46999998093E+01 0. -1.
       -5    1    3    3    0  502 -0.13913032867E+03 -0.20481260574E+03 -0.60333914055E+02  0.25488766743E+03  0.46999998093E+01 0.  1.
</event>
<event>
 5   0  0.6170500E-02  0.5025793E+03  0.7818609E-02  0.1013108E+00
        4   -1    0    0  501    0  0.00000000000E+00  0.00000000000E+00  0.35937460267E+03  0.35937684670E+03  0.12699999809E+01 0.  1.
       -4   -1    0    0    0  501  0.00000000000E+00  0.00000000000E+00 -0.17570710452E+03  0.17571169420E+03  0.12699999809E+01 0. -1.
    10030    2    1    2    0    0  0.00000000000E+00  0.00000000000E+00  0.18366749816E+03  0.53508854090E+03  0.50257934371E+03 0.  0.
        4    1    3    3  502    0  0.10588283975E+03  0.18562293922E+02  0.33365819940E+03  0.35054977027E+03  0.12699999809E+01 0.  1.
       -4    1    3    3    0  502 -0.10588283975E+03 -0.18562293922E+02 -0.14999070124E+03  0.18453877063E+03  0.12699999809E+01 0. -1.
</event>
<event>
 5   0  0.9177281E-02  0.5855254E+03  0.7818609E-02  0.9935900E-01
       -1   -1    0    0    0  501  0.00000000000E+00  0.00000000000E+00  0.33739173311E+03  0.33739173315E+03  0.50400001928E-02 0.  1.
        1   -1    0    0  501    0  0.00000000000E+00  0.00000000000E+00 -0.25403704647E+03  0.25403704652E+03  0.50400001928E-02 0. -1.
    10030    2    1    2    0    0  0.00000000000E+00  0.00000000000E+00  0.83354686637E+02  0.59142877967E+03  0.58552540307E+03 0.  0.
        1    1    3    3  502    0 -0.11155632640E+03  0.25360711407E+03 -0.53873533252E+02  0.28224765699E+03  0.50400001928E-02 0. -1.
       -1    1    3    3    0  502  0.11155632640E+03 -0.25360711407E+03  0.13722821989E+03  0.30918112268E+03  0.50400001928E-02 0.  1.
</event>
<event>
 5   0  0.8860626E-02  0.5934847E+03  0.7818609E-02  0.9919016E-01
       -1   -1    0    0    0  501  0.00000000000E+00  0.00000000000E+00  0.14800173925E+03  0.14800173933E+03  0.50400001928E-02 0.  1.
        1   -1    0    0  501    0  0.00000000000E+00  0.00000000000E+00 -0.59496612519E+03  0.59496612521E+03  0.50400001928E-02 0. -1.
    10030    2    1    2    0    0  0.00000000000E+00  0.00000000000E+00 -0.44696438594E+03  0.74296786454E+03  0.59348469689E+03 0.  0.
        3    1    3    3  502    0 -0.17277272034E+03  0.14200159549E+03  0.20684991653E+02  0.22459462393E+03  0.10100000352E+00 0.  1.
       -3    1    3    3    0  502  0.17277272034E+03 -0.14200159549E+03 -0.46764937760E+03  0.51837324061E+03  0.10100000352E+00 0. -1.
</event>
<event>
 5   0  0.1502642E-01  0.5903492E+03  0.7818609E-02  0.9925633E-01
        2   -1    0    0  501    0  0.00000000000E+00  0.00000000000E+00  0.86743965091E+02  0.86743965128E+02  0.25500000920E-02 0.  1.
       -2   -1    0    0    0  501  0.00000000000E+00  0.00000000000E+00 -0.10044278250E+04  0.10044278250E+04  0.25500000920E-02 0. -1.
    10030    2    1    2    0    0  0.00000000000E+00  0.00000000000E+00 -0.91768385987E+03  0.10911717901E+04  0.59034922616E+03 0.  0.
        2    1    3    3  502    0 -0.63508688609E+02  0.28568615607E+03 -0.38777970238E+03  0.48582201564E+03  0.25500000920E-02 0. -1.
       -2    1    3    3    0  502  0.63508688609E+02 -0.28568615607E+03 -0.52990415749E+03  0.60534977445E+03  0.25500000920E-02 0.  1.
</event>
<event>
 5   0  0.1532571E-01  0.6309753E+03  0.7818609E-02  0.9843147E-01
       -2   -1    0    0    0  501  0.00000000000E+00  0.00000000000E+00  0.15275438015E+03  0.15275438018E+03  0.25500000920E-02 0.  1.
        2   -1    0    0  501    0  0.00000000000E+00  0.00000000000E+00 -0.65158492853E+03  0.65158492854E+03  0.25500000920E-02 0. -1.
    10030    2    1    2    0    0  0.00000000000E+00  0.00000000000E+00 -0.49883054838E+03  0.80433930871E+03  0.63097528283E+03 0.  0.
        1    1    3    3  502    0  0.34179885196E+02  0.92244778264E+02  0.13270341911E+03  0.16518947042E+03  0.50400001928E-02 0.  1.
       -1    1    3    3    0  502 -0.34179885196E+02 -0.92244778264E+02 -0.63153396749E+03  0.63914983829E+03  0.50400001928E-02 0. -1.
</event>
<event>
 5   0  0.9177281E-02  0.5417550E+03  0.7818609E-02  0.1003421E+00
       -1   -1    0    0    0  501  0.00000000000E+00  0.00000000000E+00  0.20599742636E+03  0.20599742642E+03  0.50400001928E-02 0. -1.
        1   -1    0    0  501    0  0.00000000000E+00  0.00000000000E+00 -0.35619196640E+03  0.35619196643E+03  0.50400001928E-02 0.  1.
    10030    2    1    2    0    0  0.00000000000E+00  0.00000000000E+00 -0.15019454004E+03  0.56218939286E+03  0.54175503097E+03 0.  0.
        1    1    3    3  502    0  0.34046921702E+01  0.10044505230E+03  0.18593352657E+03  0.21135769867E+03  0.50400001928E-02 0. -1.
       -1    1    3    3    0  502 -0.34046921702E+01 -0.10044505230E+03 -0.33612806660E+03  0.35083169418E+03  0.50400001928E-02 0.  1.
</event>
<event>
 5   0  0.1532571E-01  0.5999426E+03  0.7818609E-02  0.9905525E-01
        2   -1    0    0  501    0  0.00000000000E+00  0.00000000000E+00  0.22574032644E+04  0.22574032644E+04  0.25500000920E-02 0. -1.
       -2   -1    0    0    0  501  0.00000000000E+00  0.00000000000E+00 -0.39861191502E+02  0.39861191583E+02  0.25500000920E-02 0.  1.
    10030    2    1    2    0    0  0.00000000000E+00  0.00000000000E+00  0.22175420729E+04  0.22972644560E+04  0.59994261030E+03 0.  0.
        1    1    3    3  502    0 -0.49887952066E+02  0.13345705435E+03  0.97970883243E+02  0.17291005496E+03  0.50400001928E-02 0.  1.
       -1    1    3    3    0  502  0.49887952066E+02 -0.13345705435E+03  0.21195711897E+04  0.21243544010E+04  0.50400001928E-02 0. -1.
</event>
<event>
 5   0  0.1532571E-01  0.5969167E+03  0.7818609E-02  0.9911824E-01
        2   -1    0    0  501    0  0.00000000000E+00  0.00000000000E+00  0.98394670924E+03  0.98394670924E+03  0.25500000920E-02 0. -1.
       -2   -1    0    0    0  501  0.00000000000E+00  0.00000000000E+00 -0.90530695474E+02  0.90530695510E+02  0.25500000920E-02 0.  1.
    10030    2    1    2    0    0  0.00000000000E+00  0.00000000000E+00  0.89341601377E+03  0.10744774048E+04  0.59691667733E+03 0.  0.
        1    1    3    3  502    0  0.90336561412E+02  0.51811933175E+01  0.95866156367E+03  0.96292239187E+03  0.50400001928E-02 0. -1.
       -1    1    3    3    0  502 -0.90336561412E+02 -0.51811933175E+01 -0.65245549899E+02  0.11155501288E+03  0.50400001928E-02 0.  1.
</event>
<event>
 5   0  0.1488510E-01  0.6003872E+03  0.7818609E-02  0.9904603E-01
        2   -1    0    0  501    0  0.00000000000E+00  0.00000000000E+00  0.65399380560E+03  0.65399380561E+03  0.25500000920E-02 0. -1.
       -2   -1    0    0    0  501  0.00000000000E+00  0.00000000000E+00 -0.13779365752E+03  0.13779365754E+03  0.25500000920E-02 0.  1.
    10030    2    1    2    0    0  0.00000000000E+00  0.00000000000E+00  0.51620014809E+03  0.79178746315E+03  0.60038720332E+03 0.  0.
        5    1    3    3  502    0  0.21175531872E+03  0.15745810311E+03  0.44674184035E+03  0.51887737584E+03  0.46999998093E+01 0. -1.
       -5    1    3    3    0  502 -0.21175531872E+03 -0.15745810311E+03  0.69458307735E+02  0.27291008730E+03  0.46999998093E+01 0.  1.
</event>
<event>
 5   0  0.1532571E-01  0.5857658E+03  0.7818609E-02  0.9935385E-01
       -2   -1    0    0    0  501  0.00000000000E+00  0.00000000000E+00  0.81635541738E+02  0.81635541778E+02  0.25500000920E-02 0.  1.
        2   -1    0    0  501    0  0.00000000000E+00  0.00000000000E+00 -0.10507727977E+04  0.10507727977E+04  0.25500000920E-02 0. -1.
    10030    2    1    2    0    0  0.00000000000E+00  0.00000000000E+00 -0.96913725591E+03  0.11324083394E+04  0.58576584607E+03 0.  0.
        1    1    3    3  502    0  0.16453351266E+01  0.18508892676E+03 -0.92336805257E+03  0.94173731925E+03  0.50400001928E-02 0. -1.
       -1    1    3    3    0  502 -0.16453351266E+01 -0.18508892676E+03 -0.45769203349E+02  0.19067102019E+03  0.50400001928E-02 0.  1.
</event>
<event>
 5   0  0.9411028E-02  0.5930506E+03  0.7818609E-02  0.9919930E-01
       -1   -1    0    0    0  501  0.00000000000E+00  0.00000000000E+00  0.80804628944E+02  0.80804629101E+02  0.50400001928E-02 0. -1.
        1   -1    0    0  501    0  0.00000000000E+00  0.00000000000E+00 -0.10881462592E+04  0.10881462592E+04  0.50400001928E-02 0.  1.
    10030    2    1    2    0    0  0.00000000000E+00  0.00000000000E+00 -0.10073416302E+04  0.11689508883E+04  0.59305060428E+03 0.  0.
        4    1    3    3  502    0  0.16687385584E+02 -0.63466525900E+02  0.66306336909E+02  0.93298509965E+02  0.12699999809E+01 0. -1.
       -4    1    3    3    0  502 -0.16687385584E+02  0.63466525900E+02 -0.10736479672E+04  0.10756523783E+04  0.12699999809E+01 0.  1.
</event>
<event>
 5   0  0.9177281E-02  0.5976137E+03  0.7818609E-02  0.9910369E-01
        1   -1    0    0  501    0  0.00000000000E+00  0.00000000000E+00  0.23964731726E+03  0.23964731731E+03  0.50400001928E-02 0.  1.
       -1   -1    0    0    0  501  0.00000000000E+00  0.00000000000E+00 -0.37257055065E+03  0.37257055068E+03  0.50400001928E-02 0. -1.
    10030    2    1    2    0    0  0.00000000000E+00  0.00000000000E+00 -0.13292323339E+03  0.61221786799E+03  0.59761369790E+03 0.  0.
        1    1    3    3  502    0 -0.11692809136E+03 -0.24832832326E+03  0.54519193591E+02  0.27984187888E+03  0.50400001928E-02 0.  1.
       -1    1    3    3    0  502  0.11692809136E+03  0.24832832326E+03 -0.18744242698E+03  0.33237598911E+03  0.50400001928E-02 0. -1.
</event>
<event>
 5   0  0.9177281E-02  0.6002438E+03  0.7818609E-02  0.9904900E-01
        1   -1    0    0  501    0  0.00000000000E+00  0.00000000000E+00  0.13300690112E+03  0.13300690122E+03  0.50400001928E-02 0.  1.
       -1   -1    0    0    0  501  0.00000000000E+00  0.00000000000E+00 -0.67720662859E+03  0.67720662861E+03  0.50400001928E-02 0. -1.
    10030    2    1    2    0    0  0.00000000000E+00  0.00000000000E+00 -0.54419972747E+03  0.81021352982E+03  0.60024380091E+03 0.  0.
        1    1    3    3  502    0 -0.28820391661E+03 -0.69534719561E+01 -0.38473647408E+03  0.48076189827E+03  0.50400001928E-02 0. -1.
       -1    1    3    3    0  502  0.28820391661E+03  0.69534719561E+01 -0.15946325339E+03  0.32945163155E+03  0.50400001928E-02 0.  1.
</event>
<event>
 5   0  0.1488510E-01  0.6041980E+03  0.7818609E-02  0.9896735E-01
        2   -1    0    0  501    0  0.00000000000E+00  0.00000000000E+00  0.24426115006E+03  0.24426115007E+03  0.25500000920E-02 0.  1.
       -2   -1    0    0    0  501  0.00000000000E+00  0.00000000000E+00 -0.37363215229E+03  0.37363215229E+03  0.25500000920E-02 0. -1.
    10030    2    1    2    0    0  0.00000000000E+00  0.00000000000E+00 -0.12937100223E+03  0.61789330237E+03  0.60419804443E+03 0.  0.
        5    1    3    3  502    0  0.17758487006E+03  0.19024127289E+03  0.92131717543E+02  0.27611314956E+03  0.46999998093E+01 0.  1.
       -5    1    3    3    0  502 -0.17758487006E+03 -0.19024127289E+03 -0.22150271977E+03  0.34178015280E+03  0.46999998093E+01 0. -1.
</event>
<event>
 5   0  0.1532571E-01  0.5922724E+03  0.7818609E-02  0.9921569E-01
        2   -1    0    0  501    0  0.00000000000E+00  0.00000000000E+00  0.14652200037E+04  0.14652200037E+04  0.25500000920E-02 0. -1.
       -2   -1    0    0    0  501  0.00000000000E+00  0.00000000000E+00 -0.59852198049E+02  0.59852198103E+02  0.25500000920E-02 0.  1.
    10030    2    1    2    0    0  0.00000000000E+00  0.00000000000E+00  0.14053678057E+04  0.15250722018E+04  0.59227236265E+03 0.  0.
        1    1    3    3  502    0 -0.17762252863E+03 -0.87744545851E+02  0.13591523596E+03  0.24025365636E+03  0.50400001928E-02 0.  1.
       -1    1    3    3    0  502  0.17762252863E+03  0.87744545851E+02  0.12694525697E+04  0.12848185455E+04  0.50400001928E-02 0. -1.
</event>
<event>
 5   0  0.6170500E-02  0.5987198E+03  0.7818609E-02  0.9908066E-01
       -3   -1    0    0    0  501  0.00000000000E+00  0.00000000000E+00  0.25400576224E+03  0.25400578232E+03  0.10100000352E+00 0. -1.
        3   -1    0    0  501    0  0.00000000000E+00  0.00000000000E+00 -0.35281223151E+03  0.35281224597E+03  0.10100000352E+00 0.  1.
    10030    2    1    2    0    0  0.00000000000E+00  0.00000000000E+00 -0.98806469269E+02  0.60681802829E+03  0.59871980182E+03 0.  0.
        5    1    3    3  502    0 -0.14790834944E+02 -0.27620471430E+03 -0.16534655481E+03  0.32228773819E+03  0.46999998093E+01 0.  1.
       -5    1    3    3    0  502  0.14790834944E+02  0.27620471430E+03  0.66540085544E+02  0.28453029010E+03  0.46999998093E+01 0. -1.
</event>
<event>
 5   0  0.8860626E-02  0.5950421E+03  0.7818609E-02  0.9915746E-01
       -1   -1    0    0    0  501  0.00000000000E+00  0.00000000000E+00  0.10615524299E+03  0.10615524311E+03  0.50400001928E-02 0. -1.
        1   -1    0    0  501    0  0.00000000000E+00  0.00000000000E+00 -0.83386149699E+03  0.83386149701E+03  0.50400001928E-02 0.  1.
    10030    2    1    2    0    0  0.00000000000E+00  0.00000000000E+00 -0.72770625401E+03  0.94001674012E+03  0.59504208219E+03 0.  0.
        3    1    3    3  502    0 -0.21210497809E+02  0.19302072454E+03 -0.77543231752E+01  0.19433740003E+03  0.10100000352E+00 0. -1.
       -3    1    3    3    0  502  0.21210497809E+02 -0.19302072454E+03 -0.71995193083E+03  0.74567934009E+03  0.10100000352E+00 0.  1.
</event>
<event>
 5   0  0.8860626E-02  0.5977418E+03  0.7818609E-02  0.9910102E-01
       -1   -1    0    0    0  501  0.00000000000E+00  0.00000000000E+00  0.11865417508E+03  0.11865417518E+03  0.50400001928E-02 0. -1.
        1   -1    0    0  501    0  0.00000000000E+00  0.00000000000E+00 -0.75280810752E+03  0.75280810754E+03  0.50400001928E-02 0.  1.
    10030    2    1    2    0    0  0.00000000000E+00  0.00000000000E+00 -0.63415393244E+03  0.87146228272E+03  0.59774183405E+03 0.  0.
        3    1    3    3  502    0 -0.78930292713E+02 -0.23773173928E+03 -0.55475636949E+03  0.60868794194E+03  0.10100000352E+00 0.  1.
       -3    1    3    3    0  502  0.78930292713E+02  0.23773173928E+03 -0.79397562953E+02  0.26277434078E+03  0.10100000352E+00 0. -1.
</event>
<event>
 5   0  0.1532571E-01  0.6313439E+03  0.7818609E-02  0.9842430E-01
       -2   -1    0    0    0  501  0.00000000000E+00  0.00000000000E+00  0.13619713512E+03  0.13619713514E+03  0.25500000920E-02 0. -1.
        2   -1    0    0  501    0  0.00000000000E+00  0.00000000000E+00 -0.73165118733E+03  0.73165118734E+03  0.25500000920E-02 0.  1.
    10030    2    1    2    0    0  0.00000000000E+00  0.00000000000E+00 -0.59545405222E+03  0.86784832248E+03  0.63134394947E+03 0.  0.
        1    1    3    3  502    0 -0.28366051872E+03 -0.11575581613E+03 -0.40228824845E+03  0.50566642534E+03  0.50400001928E-02 0.  1.
       -1    1    3    3    0  502  0.28366051872E+03  0.11575581613E+03 -0.19316580376E+03  0.36218189714E+03  0.50400001928E-02 0. -1.
</event>
<event>
 5   0  0.6170500E-02  0.6104903E+03  0.7818609E-02  0.9883878E-01
        3   -1    0    0  501    0  0.00000000000E+00  0.00000000000E+00  0.13680705461E+03  0.13680709189E+03  0.10100000352E+00 0. -1.
       -3   -1    0    0    0  501  0.00000000000E+00  0.00000000000E+00 -0.68106570337E+03  0.68106571086E+03  0.10100000352E+00 0.  1.
    10030    2    1    2    0    0  0.00000000000E+00  0.00000000000E+00 -0.54425864876E+03  0.81787280275E+03  0.61049033140E+03 0.  0.
        3    1    3    3  502    0 -0.24013320142E+03 -0.16758174312E+02 -0.20673252041E+02  0.24160336170E+03  0.10100000352E+00 0. -1.
       -3    1    3    3    0  502  0.24013320142E+03  0.16758174312E+02 -0.52358539672E+03  0.57626944106E+03  0.10100000352E+00 0.  1.
</event>
<event>
 5   0  0.9177281E-02  0.6108286E+03  0.7818609E-02  0.9883191E-01
       -1   -1    0    0    0  501  0.00000000000E+00  0.00000000000E+00  0.55432495712E+02  0.55432495941E+02  0.50400001928E-02 0. -1.
        1   -1    0    0  501    0  0.00000000000E+00  0.00000000000E+00 -0.16827293249E+04  0.16827293249E+04  0.50400001928E-02 0.  1.
    10030    2    1    2    0    0  0.00000000000E+00  0.00000000000E+00 -0.16272968292E+04  0.17381618208E+04  0.61082857265E+03 0.  0.
        1    1    3    3  502    0  0.18437165172E+03 -0.64640347026E+02 -0.14816426179E+04  0.14944685101E+04  0.50400001928E-02 0.  1.
       -1    1    3    3    0  502 -0.18437165172E+03  0.64640347026E+02 -0.14565421128E+03  0.24369331076E+03  0.50400001928E-02 0. -1.
</event>
<event>
 5   0  0.9420349E-02  0.6046461E+03  0.7818609E-02  0.9895814E-01
       -1   -1    0    0    0  501  0.00000000000E+00  0.00000000000E+00  0.10283070689E+03  0.10283070701E+03  0.50400001928E-02 0. -1.
        1   -1    0    0  501    0  0.00000000000E+00  0.00000000000E+00 -0.88883195698E+03  0.88883195700E+03  0.50400001928E-02 0.  1.
    10030    2    1    2    0    0  0.00000000000E+00  0.00000000000E+00 -0.78600125009E+03  0.99166266401E+03  0.60464607337E+03 0.  0.
        2    1    3    3  502    0 -0.16919487254E+03 -0.21999177535E+03 -0.19635660850E+03  0.33996941601E+03  0.25500000920E-02 0. -1.
       -2    1    3    3    0  502  0.16919487254E+03  0.21999177535E+03 -0.58964464160E+03  0.65169324800E+03  0.25500000920E-02 0.  1.
</event>
<event>
 5   0  0.9411028E-02  0.6018798E+03  0.7818609E-02  0.9901514E-01
        1   -1    0    0  501    0  0.00000000000E+00  0.00000000000E+00  0.23548833981E+03  0.23548833987E+03  0.50400001928E-02 0.  1.
       -1   -1    0    0    0  501  0.00000000000E+00  0.00000000000E+00 -0.38458306752E+03  0.38458306756E+03  0.50400001928E-02 0. -1.
    10030    2    1    2    0    0  0.00000000000E+00  0.00000000000E+00 -0.14909472771E+03  0.62007140743E+03  0.60187981564E+03 0.  0.
        4    1    3    3  502    0  0.10168209673E+03 -0.21255553269E+03 -0.26740616198E+03  0.35640815316E+03  0.12699999809E+01 0. -1.
       -4    1    3    3    0  502 -0.10168209673E+03  0.21255553269E+03  0.11831143427E+03  0.26366325427E+03  0.12699999809E+01 0.  1.
</event>
<event>
 5   0  0.9420349E-02  0.6001060E+03  0.7818609E-02  0.9905186E-01
       -1   -1    0    0    0  501  0.00000000000E+00  0.00000000000E+00  0.24027620860E+03  0.24027620866E+03  0.50400001928E-02 0. -1.
        1   -1    0    0  501    0  0.00000000000E+00  0.00000000000E+00 -0.37470126550E+03  0.37470126553E+03  0.50400001928E-02 0.  1.
    10030    2    1    2    0    0  0.00000000000E+00  0.00000000000E+00 -0.13442505689E+03  0.61497747419E+03  0.60010598884E+03 0.  0.
        2    1    3    3  502    0 -0.12090332065E+03  0.19287131080E+03 -0.26754312901E+03  0.35127806842E+03  0.25500000920E-02 0.  1.
       -2    1    3    3    0  502  0.12090332065E+03 -0.19287131080E+03  0.13311807211E+03  0.26369940576E+03  0.25500000920E-02 0. -1.
</event>
<event>
 5   0  0.9411028E-02  0.5873697E+03  0.7818609E-02  0.9931962E-01
       -1   -1    0    0    0  501  0.00000000000E+00  0.00000000000E+00  0.19804932432E+03  0.19804932438E+03  0.50400001928E-02 0.  1.
        1   -1    0    0  501    0  0.00000000000E+00  0.00000000000E+00 -0.43550155935E+03  0.43550155938E+03  0.50400001928E-02 0. -1.
    10030    2    1    2    0    0  0.00000000000E+00  0.00000000000E+00 -0.23745223503E+03  0.63355088376E+03  0.58736969482E+03 0.  0.
        4    1    3    3  502    0  0.14112410208E+03 -0.25596652067E+03 -0.87946482512E+02  0.30523936276E+03  0.12699999809E+01 0. -1.
       -4    1    3    3    0  502 -0.14112410208E+03  0.25596652067E+03 -0.14950575252E+03  0.32831152101E+03  0.12699999809E+01 0.  1.
</event>
<event>
 5   0  0.8860626E-02  0.6161466E+03  0.7818609E-02  0.9872462E-01
        1   -1    0    0  501    0  0.00000000000E+00  0.00000000000E+00  0.10257235323E+03  0.10257235335E+03  0.50400001928E-02 0.  1.
       -1   -1    0    0    0  501  0.00000000000E+00  0.00000000000E+00 -0.92528979265E+03  0.92528979266E+03  0.50400001928E-02 0. -1.
    10030    2    1    2    0    0  0.00000000000E+00  0.00000000000E+00 -0.82271743942E+03  0.10278621460E+04  0.61614657840E+03 0.  0.
        3    1    3    3  502    0  0.24317425318E+03 -0.18262446687E+03 -0.49348700814E+03  0.57966787967E+03  0.10100000352E+00 0.  1.
       -3    1    3    3    0  502 -0.24317425318E+03  0.18262446687E+03 -0.32923043128E+03  0.44819426635E+03  0.10100000352E+00 0. -1.
</event>
<event>
 5   0  0.9411028E-02  0.6227812E+03  0.7818609E-02  0.9859238E-01
       -1   -1    0    0    0  501  0.00000000000E+00  0.00000000000E+00  0.34477770046E+03  0.34477770050E+03  0.50400001928E-02 0.  1.
        1   -1    0    0  501    0  0.00000000000E+00  0.00000000000E+00 -0.28123659841E+03  0.28123659845E+03  0.50400001928E-02 0. -1.
    10030    2    1    2    0    0  0.00000000000E+00  0.00000000000E+00  0.63541102055E+02  0.62601429895E+03  0.62278120624E+03 0.  0.
        4    1    3    3  502    0 -0.21379149511E+02  0.28111834969E+03  0.16466088198E+03  0.32649565620E+03  0.12699999809E+01 0.  1.
       -4    1    3    3    0  502  0.21379149511E+02 -0.28111834969E+03 -0.10111977992E+03  0.29951864275E+03  0.12699999809E+01 0. -1.
</event>
<event>
 5   0  0.1513339E-01  0.5359712E+03  0.7818609E-02  0.1004794E+00
        2   -1    0    0  501    0  0.00000000000E+00  0.00000000000E+00  0.11937197810E+04  0.11937197810E+04  0.25500000920E-02 0. -1.
       -2   -1    0    0    0  501  0.00000000000E+00  0.00000000000E+00 -0.60161749953E+02  0.60161750007E+02  0.25500000920E-02 0.  1.
    10030    2    1    2    0    0  0.00000000000E+00  0.00000000000E+00  0.11335580310E+04  0.12538815310E+04  0.53597115972E+03 0.  0.
        3    1    3    3  502    0 -0.37801030902E+02 -0.99557286277E+02 -0.85357217150E+01  0.10683370224E+03  0.10100000352E+00 0.  1.
       -3    1    3    3    0  502  0.37801030902E+02  0.99557286277E+02  0.11420937527E+04  0.11470478287E+04  0.10100000352E+00 0. -1.
</event>
<event>
 5   0  0.9420349E-02  0.6194236E+03  0.7818609E-02  0.9865908E-01
        1   -1    0    0  501    0  0.00000000000E+00  0.00000000000E+00  0.56595898290E+03  0.56595898293E+03  0.50400001928E-02 0. -1.
       -1   -1    0    0    0  501  0.00000000000E+00  0.00000000000E+00 -0.16948470731E+03  0.16948470738E+03  0.50400001928E-02 0.  1.
    10030    2    1    2    0    0  0.00000000000E+00  0.00000000000E+00  0.39647427560E+03  0.73544369031E+03  0.61942357915E+03 0.  0.
        2    1    3    3  502    0 -0.59250682718E+02  0.89140385651E+02  0.54330095312E+03  0.55374414437E+03  0.25500000920E-02 0. -1.
       -2    1    3    3    0  502  0.59250682718E+02 -0.89140385651E+02 -0.14682667752E+03  0.18169954594E+03  0.25500000920E-02 0.  1.
</event>
<event>
 5   0  0.9177281E-02  0.6126775E+03  0.7818609E-02  0.9879448E-01
       -1   -1    0    0    0  501  0.00000000000E+00  0.00000000000E+00  0.12027727485E+03  0.12027727495E+03  0.50400001928E-02 0.  1.
        1   -1    0    0  501    0  0.00000000000E+00  0.00000000000E+00 -0.78022589792E+03  0.78022589794E+03  0.50400001928E-02 0. -1.
    10030    2    1    2    0    0  0.00000000000E+00  0.00000000000E+00 -0.65994862308E+03  0.90050317289E+03  0.61267754919E+03 0.  0.
        1    1    3    3  502    0  0.10879056096E+03 -0.15498987666E+03 -0.68390285875E+03  0.70963396780E+03  0.50400001928E-02 0. -1.
       -1    1    3    3    0  502 -0.10879056096E+03  0.15498987666E+03  0.23954235672E+02  0.19086920509E+03  0.50400001928E-02 0.  1.
</event>
<event>
 5   0  0.6170500E-02  0.6121697E+03  0.7818609E-02  0.9880474E-01
       -4   -1    0    0    0  501  0.00000000000E+00  0.00000000000E+00  0.13587142131E+04  0.13587148067E+04  0.12699999809E+01 0.  1.
        4   -1    0    0  501    0  0.00000000000E+00  0.00000000000E+00 -0.68946932111E+02  0.68958627796E+02  0.12699999809E+01 0. -1.
    10030    2    1    2    0    0  0.00000000000E+00  0.00000000000E+00  0.12897672810E+04  0.14276734345E+04  0.61216974467E+03 0.  0.
        4    1    3    3  502    0 -0.22181883750E+03 -0.69028832429E+02  0.18010154539E+03  0.29395026098E+03  0.12699999809E+01 0. -1.
       -4    1    3    3    0  502  0.22181883750E+03  0.69028832429E+02  0.11096657356E+04  0.11337231735E+04  0.12699999809E+01 0.  1.
</event>
<event>
 5   0  0.1532571E-01  0.6189681E+03  0.7818609E-02  0.9866816E-01
       -2   -1    0    0    0  501  0.00000000000E+00  0.00000000000E+00  0.12244407747E+03  0.12244407749E+03  0.25500000920E-02 0. -1.
        2   -1    0    0  501    0  0.00000000000E+00  0.00000000000E+00 -0.78223780775E+03  0.78223780775E+03  0.25500000920E-02 0.  1.
    10030    2    1    2    0    0  0.00000000000E+00  0.00000000000E+00 -0.65979373028E+03  0.90468188525E+03  0.61896813082E+03 0.  0.
        1    1    3    3  502    0 -0.11739010160E+03 -0.68839780097E+02  0.76366692831E+02  0.15604878428E+03  0.50400001928E-02 0. -1.
       -1    1    3    3    0  502  0.11739010160E+03  0.68839780097E+02 -0.73616042311E+03  0.74863310097E+03  0.50400001928E-02 0.  1.
</event>
<event>
 5   0  0.6170500E-02  0.5955983E+03  0.7818609E-02  0.9914580E-01
        3   -1    0    0  501    0  0.00000000000E+00  0.00000000000E+00  0.29473326540E+03  0.29473328271E+03  0.10100000352E+00 0.  1.
       -3   -1    0    0    0  501  0.00000000000E+00  0.00000000000E+00 -0.30089693911E+03  0.30089695606E+03  0.10100000352E+00 0. -1.
    10030    2    1    2    0    0  0.00000000000E+00  0.00000000000E+00 -0.61636737108E+01  0.59563023877E+03  0.59559834660E+03 0.  0.
        2    1    3    3  502    0  0.13459554722E+03  0.64971835319E+02 -0.26067483439E+03  0.30048073151E+03  0.25500000920E-02 0. -1.
       -2    1    3    3    0  502 -0.13459554722E+03 -0.64971835319E+02  0.25451116068E+03  0.29514950726E+03  0.25500000920E-02 0.  1.
</event>
<event>
 5   0  0.9177281E-02  0.6008010E+03  0.7818609E-02  0.9903746E-01
       -1   -1    0    0    0  501  0.00000000000E+00  0.00000000000E+00  0.22705806259E+03  0.22705806265E+03  0.50400001928E-02 0.  1.
        1   -1    0    0  501    0  0.00000000000E+00  0.00000000000E+00 -0.39743339306E+03  0.39743339310E+03  0.50400001928E-02 0. -1.
    10030    2    1    2    0    0  0.00000000000E+00  0.00000000000E+00 -0.17037533047E+03  0.62449145574E+03  0.60080098624E+03 0.  0.
        1    1    3    3  502    0 -0.15493657549E+03 -0.24156031793E+03 -0.17747915191E+03  0.33742492351E+03  0.50400001928E-02 0.  1.
       -1    1    3    3    0  502  0.15493657549E+03  0.24156031793E+03  0.71038214348E+01  0.28706653223E+03  0.50400001928E-02 0. -1.
</event>
<event>
 5   0  0.1502642E-01  0.6611647E+03  0.7818609E-02  0.9786052E-01
       -2   -1    0    0    0  501  0.00000000000E+00  0.00000000000E+00  0.14586980037E+03  0.14586980039E+03  0.25500000920E-02 0.  1.
        2   -1    0    0  501    0  0.00000000000E+00  0.00000000000E+00 -0.74919340929E+03  0.74919340929E+03  0.25500000920E-02 0. -1.
    10030    2    1    2    0    0  0.00000000000E+00  0.00000000000E+00 -0.60332360892E+03  0.89506320969E+03  0.66116470887E+03 0.  0.
        2    1    3    3  502    0  0.35488662658E+02 -0.54050697765E+01 -0.74654698980E+03  0.74740957175E+03  0.25500000920E-02 0. -1.
       -2    1    3    3    0  502 -0.35488662658E+02  0.54050697765E+01  0.14322338088E+03  0.14765363793E+03  0.25500000920E-02 0.  1.
</event>
<event>
 5   0  0.9497860E-02  0.6148087E+03  0.7818609E-02  0.9875150E-01
       -1   -1    0    0    0  501  0.00000000000E+00  0.00000000000E+00  0.25539731921E+03  0.25539731926E+03  0.50400001928E-02 0.  1.
        1   -1    0    0  501    0  0.00000000000E+00  0.00000000000E+00 -0.37000165733E+03  0.37000165737E+03  0.50400001928E-02 0. -1.
    10030    2    1    2    0    0  0.00000000000E+00  0.00000000000E+00 -0.11460433812E+03  0.62539897662E+03  0.61480869028E+03 0.  0.
        5    1    3    3  502    0  0.10997606355E+03 -0.18987802541E+03  0.16164230426E+03  0.27257792210E+03  0.46999998093E+01 0.  1.
       -5    1    3    3    0  502 -0.10997606355E+03  0.18987802541E+03 -0.27624664239E+03  0.35282105453E+03  0.46999998093E+01 0. -1.
</event>
<event>
 5   0  0.9411028E-02  0.5958943E+03  0.7818609E-02  0.9913961E-01
        1   -1    0    0  501    0  0.00000000000E+00  0.00000000000E+00  0.13911570245E+03  0.13911570254E+03  0.50400001928E-02 0. -1.
       -1   -1    0    0    0  501  0.00000000000E+00  0.00000000000E+00 -0.63811999852E+03  0.63811999854E+03  0.50400001928E-02 0.  1.
    10030    2    1    2    0    0  0.00000000000E+00  0.00000000000E+00 -0.49900429607E+03  0.77723570108E+03  0.59589432582E+03 0.  0.
        4    1    3    3  502    0  0.25195004977E+03  0.54599800833E+02 -0.44432610440E+03  0.51369958710E+03  0.12699999809E+01 0.  1.
       -4    1    3    3    0  502 -0.25195004977E+03 -0.54599800833E+02 -0.54678191667E+02  0.26353611399E+03  0.12699999809E+01 0. -1.
</event>
<event>
 5   0  0.9177281E-02  0.5953741E+03  0.7818609E-02  0.9915050E-01
        1   -1    0    0  501    0  0.00000000000E+00  0.00000000000E+00  0.13537885934E+04  0.13537885934E+04  0.50400001928E-02 0.  1.
       -1   -1    0    0    0  501  0.00000000000E+00  0.00000000000E+00 -0.65458959628E+02  0.65458959822E+02  0.50400001928E-02 0. -1.
    10030    2    1    2    0    0  0.00000000000E+00  0.00000000000E+00  0.12883296338E+04  0.14192475533E+04  0.59537414464E+03 0.  0.
        1    1    3    3  502    0  0.69381028622E+02  0.33438135083E+02 -0.41297424888E+02  0.87391723512E+02  0.50400001928E-02 0. -1.
       -1    1    3    3    0  502 -0.69381028622E+02 -0.33438135083E+02  0.13296270587E+04  0.13318558298E+04  0.50400001928E-02 0.  1.
</event>
<event>
 5   0  0.9497860E-02  0.5962294E+03  0.7818609E-02  0.9913260E-01
        1   -1    0    0  501    0  0.00000000000E+00  0.00000000000E+00  0.16666416552E+03  0.16666416560E+03  0.50400001928E-02 0.  1.
       -1   -1    0    0    0  501  0.00000000000E+00  0.00000000000E+00 -0.53324216001E+03  0.53324216003E+03  0.50400001928E-02 0. -1.
    10030    2    1    2    0    0  0.00000000000E+00  0.00000000000E+00 -0.36657799449E+03  0.69990632563E+03  0.59622935068E+03 0.  0.
        5    1    3    3  502    0  0.44650880021E+02  0.14758169638E+03 -0.48274822353E+03  0.50679581244E+03  0.46999998093E+01 0. -1.
       -5    1    3    3    0  502 -0.44650880021E+02 -0.14758169638E+03  0.11617022904E+03  0.19311051319E+03  0.46999998093E+01 0.  1.
</event>
<event>
 5   0  0.1513339E-01  0.6098529E+03  0.7818609E-02  0.9885173E-01
        2   -1    0    0  501    0  0.00000000000E+00  0.00000000000E+00  0.72824975024E+03  0.72824975025E+03  0.25500000920E-02 0.  1.
       -2   -1    0    0    0  501  0.00000000000E+00  0.00000000000E+00 -0.12767618144E+03  0.12767618146E+03  0.25500000920E-02 0. -1.
    10030    2    1    2    0    0  0.00000000000E+00  0.00000000000E+00  0.60057356881E+03  0.85592593171E+03  0.60985292409E+03 0.  0.
        3    1    3    3  502    0 -0.23275601909E+02  0.29808831971E+03  0.38428265273E+03  0.48689995624E+03  0.10100000352E+00 0.  1.
       -3    1    3    3    0  502  0.23275601909E+02 -0.29808831971E+03  0.21629091608E+03  0.36902597547E+03  0.10100000352E+00 0. -1.
</event>
<event>
 5   0  0.1483942E-01  0.6031338E+03  0.7818609E-02  0.9898926E-01
        2   -1    0    0  501    0  0.00000000000E+00  0.00000000000E+00  0.99643666628E+03  0.99643666629E+03  0.25500000920E-02 0.  1.
       -2   -1    0    0    0  501  0.00000000000E+00  0.00000000000E+00 -0.91267819109E+02  0.91267819145E+02  0.25500000920E-02 0. -1.
    10030    2    1    2    0    0  0.00000000000E+00  0.00000000000E+00  0.90516884718E+03  0.10877044854E+04  0.60313382075E+03 0.  0.
        4    1    3    3  502    0 -0.14562093982E+03 -0.25838497541E+03  0.35425684866E+03  0.46202573668E+03  0.12699999809E+01 0. -1.
       -4    1    3    3    0  502  0.14562093982E+03  0.25838497541E+03  0.55091199851E+03  0.62567874875E+03  0.12699999809E+01 0.  1.
</event>
<event>
 5   0  0.9411028E-02  0.5553824E+03  0.7818609E-02  0.1000256E+00
        1   -1    0    0  501    0  0.00000000000E+00  0.00000000000E+00  0.10055216358E+04  0.10055216358E+04  0.50400001928E-02 0.  1.
       -1   -1    0    0    0  501  0.00000000000E+00  0.00000000000E+00 -0.76688943548E+02  0.76688943714E+02  0.50400001928E-02 0. -1.
    10030    2    1    2    0    0  0.00000000000E+00  0.00000000000E+00  0.92883269222E+03  0.10822105795E+04  0.55538236219E+03 0.  0.
        4    1    3    3  502    0  0.39567942346E+02 -0.24917087717E+03  0.69047783817E+03  0.73512788411E+03  0.12699999809E+01 0.  1.
       -4    1    3    3    0  502 -0.39567942346E+02  0.24917087717E+03  0.23835485406E+03  0.34708269539E+03  0.12699999809E+01 0. -1.
</event>
<event>
 5   0  0.8860626E-02  0.6029665E+03  0.7818609E-02  0.9899270E-01
       -1   -1    0    0    0  501  0.00000000000E+00  0.00000000000E+00  0.89875570637E+02  0.89875570779E+02  0.50400001928E-02 0. -1.
        1   -1    0    0  501    0  0.00000000000E+00  0.00000000000E+00 -0.10113111064E+04  0.10113111064E+04  0.50400001928E-02 0.  1.
    10030    2    1    2    0    0  0.00000000000E+00  0.00000000000E+00 -0.92143553574E+03  0.11011866772E+04  0.60296654256E+03 0.  0.
        3    1    3    3  502    0 -0.26552030624E+03  0.25534083649E+02 -0.71730304899E+03  0.76529516969E+03  0.10100000352E+00 0. -1.
       -3    1    3    3    0  502  0.26552030624E+03 -0.25534083649E+02 -0.20413248675E+03  0.33589150749E+03  0.10100000352E+00 0.  1.
</event>
<event>
 5   0  0.1513339E-01  0.6405563E+03  0.7818609E-02  0.9824663E-01
       -2   -1    0    0    0  501  0.00000000000E+00  0.00000000000E+00  0.10639994477E+03  0.10639994480E+03  0.25500000920E-02 0.  1.
        2   -1    0    0  501    0  0.00000000000E+00  0.00000000000E+00 -0.96408025322E+03  0.96408025322E+03  0.25500000920E-02 0. -1.
    10030    2    1    2    0    0  0.00000000000E+00  0.00000000000E+00 -0.85768030845E+03  0.10704801980E+04  0.64055627610E+03 0.  0.
        3    1    3    3  502    0 -0.16410044043E+02 -0.31210668694E+03 -0.54580078179E+03  0.62895021837E+03  0.10100000352E+00 0. -1.
       -3    1    3    3    0  502  0.16410044043E+02  0.31210668694E+03 -0.31187952666E+03  0.44152997965E+03  0.10100000352E+00 0.  1.
</event>
<event>
 5   0  0.9420349E-02  0.5903044E+03  0.7818609E-02  0.9925728E-01
       -1   -1    0    0    0  501  0.00000000000E+00  0.00000000000E+00  0.44475788299E+02  0.44475788585E+02  0.50400001928E-02 0.  1.
        1   -1    0    0  501    0  0.00000000000E+00  0.00000000000E+00 -0.19587018971E+04  0.19587018971E+04  0.50400001928E-02 0. -1.
    10030    2    1    2    0    0  0.00000000000E+00  0.00000000000E+00 -0.19142261088E+04  0.20031776857E+04  0.59030436626E+03 0.  0.
        2    1    3    3  502    0  0.12705537167E+03  0.24951210359E+03 -0.12739154690E+04  0.13043235716E+04  0.25500000920E-02 0. -1.
       -2    1    3    3    0  502 -0.12705537167E+03 -0.24951210359E+03 -0.64031063975E+03  0.69885411402E+03  0.25500000920E-02 0.  1.
</event>
<event>
 5   0  0.1513339E-01  0.6197943E+03  0.7818609E-02  0.9865169E-01
       -2   -1    0    0    0  501  0.00000000000E+00  0.00000000000E+00  0.98907088991E+02  0.98907089024E+02  0.25500000920E-02 0.  1.
        2   -1    0    0  501    0  0.00000000000E+00  0.00000000000E+00 -0.97097419598E+03  0.97097419598E+03  0.25500000920E-02 0. -1.
    10030    2    1    2    0    0  0.00000000000E+00  0.00000000000E+00 -0.87206710699E+03  0.10698812850E+04  0.61979426015E+03 0.  0.
        3    1    3    3  502    0 -0.28866709393E+03  0.69245037355E+02 -0.28248379136E+03  0.40978124517E+03  0.10100000352E+00 0.  1.
       -3    1    3    3    0  502  0.28866709393E+03 -0.69245037355E+02 -0.58958331563E+03  0.66010003983E+03  0.10100000352E+00 0. -1.
</event>
<event>
 5   0  0.9497860E-02  0.5841588E+03  0.7818609E-02  0.9938828E-01
       -1   -1    0    0    0  501  0.00000000000E+00  0.00000000000E+00  0.17587152186E+03  0.17587152193E+03  0.50400001928E-02 0.  1.
        1   -1    0    0  501    0  0.00000000000E+00  0.00000000000E+00 -0.48507217804E+03  0.48507217807E+03  0.50400001928E-02 0. -1.
    10030    2    1    2    0    0  0.00000000000E+00  0.00000000000E+00 -0.30920065618E+03  0.66094370000E+03  0.58415882155E+03 0.  0.
        5    1    3    3  502    0  0.24481724854E+03  0.10042118362E+03 -0.14792917739E+02  0.26506757575E+03  0.46999998093E+01 0.  1.
       -5    1    3    3    0  502 -0.24481724854E+03 -0.10042118362E+03 -0.29440773844E+03  0.39587612425E+03  0.46999998093E+01 0. -1.
</event>
<event>
 5   0  0.9420349E-02  0.6119749E+03  0.7818609E-02  0.9880869E-01
        1   -1    0    0  501    0  0.00000000000E+00  0.00000000000E+00  0.10395525310E+04  0.10395525310E+04  0.50400001928E-02 0. -1.
       -1   -1    0    0    0  501  0.00000000000E+00  0.00000000000E+00 -0.90065982171E+02  0.90065982312E+02  0.50400001928E-02 0.  1.
    10030    2    1    2    0    0  0.00000000000E+00  0.00000000000E+00  0.94948654882E+03  0.11296185133E+04  0.61197490082E+03 0.  0.
        2    1    3    3  502    0  0.14351249214E+02  0.37330845456E+02  0.10347071339E+04  0.10354797938E+04  0.25500000920E-02 0. -1.
       -2    1    3    3    0  502 -0.14351249214E+02 -0.37330845456E+02 -0.85220585112E+02  0.94138719503E+02  0.25500000920E-02 0.  1.
</event>
<event>
 5   0  0.1488510E-01  0.6031416E+03  0.7818609E-02  0.9898910E-01
       -2   -1    0    0    0  501  0.00000000000E+00  0.00000000000E+00  0.24958529882E+03  0.24958529884E+03  0.25500000920E-02 0. -1.
        2   -1    0    0  501    0  0.00000000000E+00  0.00000000000E+00 -0.36438419185E+03  0.36438419185E+03  0.25500000920E-02 0.  1.
    10030    2    1    2    0    0  0.00000000000E+00  0.00000000000E+00 -0.11479889302E+03  0.61396949069E+03  0.60314156685E+03 0.  0.
        5    1    3    3  502    0  0.60099185176E+02 -0.28057753345E+03 -0.15173011063E+03  0.32462252048E+03  0.46999998093E+01 0. -1.
       -5    1    3    3    0  502 -0.60099185176E+02  0.28057753345E+03  0.36931217607E+02  0.28934697021E+03  0.46999998093E+01 0.  1.
</event>
<event>
 5   0  0.9177281E-02  0.6066569E+03  0.7818609E-02  0.9891691E-01
        1   -1    0    0  501    0  0.00000000000E+00  0.00000000000E+00  0.66664987558E+03  0.66664987560E+03  0.50400001928E-02 0.  1.
       -1   -1    0    0    0  501  0.00000000000E+00  0.00000000000E+00 -0.13801570437E+03  0.13801570446E+03  0.50400001928E-02 0. -1.
    10030    2    1    2    0    0  0.00000000000E+00  0.00000000000E+00  0.52863417121E+03  0.80466558006E+03  0.60665691190E+03 0.  0.
        1    1    3    3  502    0 -0.13573623446E+03  0.27073230177E+03  0.28682076743E+03  0.41711683881E+03  0.50400001928E-02 0. -1.
       -1    1    3    3    0  502  0.13573623446E+03 -0.27073230177E+03  0.24181340378E+03  0.38754874124E+03  0.50400001928E-02 0.  1.
</event>
<event>
 5   0  0.9177281E-02  0.6057295E+03  0.7818609E-02  0.9893590E-01
       -1   -1    0    0    0  501  0.00000000000E+00  0.00000000000E+00  0.59036802874E+03  0.59036802876E+03  0.50400001928E-02 0.  1.
        1   -1    0    0  501    0  0.00000000000E+00  0.00000000000E+00 -0.15537266887E+03  0.15537266895E+03  0.50400001928E-02 0. -1.
    10030    2    1    2    0    0  0.00000000000E+00  0.00000000000E+00  0.43499535987E+03  0.74574069771E+03  0.60572949830E+03 0.  0.
        1    1    3    3  502    0  0.12445994399E+03 -0.20661016008E+03 -0.80036161806E+01  0.24133398808E+03  0.50400001928E-02 0. -1.
       -1    1    3    3    0  502 -0.12445994399E+03  0.20661016008E+03  0.44299897605E+03  0.50440670963E+03  0.50400001928E-02 0.  1.
</event>
<event>
 5   0  0.1513339E-01  0.5967670E+03  0.7818609E-02  0.9912136E-01
       -2   -1    0    0    0  501  0.00000000000E+00  0.00000000000E+00  0.29997708705E+03  0.29997708706E+03  0.25500000920E-02 0. -1.
        2   -1    0    0  501    0  0.00000000000E+00  0.00000000000E+00 -0.29679835034E+03  0.29679835036E+03  0.25500000920E-02 0.  1.
    10030    2    1    2    0    0  0.00000000000E+00  0.00000000000E+00  0.31787367030E+01  0.59677543741E+03  0.59676697155E+03 0.  0.
        3    1    3    3  502    0  0.36106320326E+02 -0.74016248300E+02 -0.28520839431E+03  0.29686008450E+03  0.10100000352E+00 0.  1.
       -3    1    3    3    0  502 -0.36106320326E+02  0.74016248300E+02  0.28838713101E+03  0.29991535292E+03  0.10100000352E+00 0. -1.
</event>
<event>
 5   0  0.9420349E-02  0.5280662E+03  0.7818609E-02  0.1006702E+00
        1   -1    0    0  501    0  0.00000000000E+00  0.00000000000E+00  0.41139599218E+03  0.41139599221E+03  0.50400001928E-02 0. -1.
       -1   -1    0    0    0  501  0.00000000000E+00  0.00000000000E+00 -0.16945586927E+03  0.16945586935E+03  0.50400001928E-02 0.  1.
    10030    2    1    2    0    0  0.00000000000E+00  0.00000000000E+00  0.24194012291E+03  0.58085186156E+03  0.52806615305E+03 0.  0.
        2    1    3    3  502    0 -0.98879461348E+02  0.49925951320E+02  0.38460218065E+03  0.40023566290E+03  0.25500000920E-02 0. -1.
       -2    1    3    3    0  502  0.98879461348E+02 -0.49925951320E+02 -0.14266205774E+03  0.18061619866E+03  0.25500000920E-02 0.  1.
</event>
<event>
 5   0  0.9177281E-02  0.6006517E+03  0.7818609E-02  0.9904055E-01
        1   -1    0    0  501    0  0.00000000000E+00  0.00000000000E+00  0.66332863114E+03  0.66332863116E+03  0.50400001928E-02 0. -1.
       -1   -1    0    0    0  501  0.00000000000E+00  0.00000000000E+00 -0.13597424833E+03  0.13597424843E+03  0.50400001928E-02 0.  1.
    10030    2    1    2    0    0  0.00000000000E+00  0.00000000000E+00  0.52735438281E+03  0.79930287959E+03  0.60065168630E+03 0.  0.
        1    1    3    3  502    0  0.12075723378E+03 -0.18456857767E+02 -0.10141897345E+03  0.15877270959E+03  0.50400001928E-02 0.  1.
       -1    1    3    3    0  502 -0.12075723378E+03  0.18456857767E+02  0.62877335626E+03  0.64053017000E+03  0.50400001928E-02 0. -1.
</event>
<event>
 5   0  0.1488510E-01  0.5807297E+03  0.7818609E-02  0.9946212E-01
       -2   -1    0    0    0  501  0.00000000000E+00  0.00000000000E+00  0.23095920469E+03  0.23095920470E+03  0.25500000920E-02 0.  1.
        2   -1    0    0  501    0  0.00000000000E+00  0.00000000000E+00 -0.36505041636E+03  0.36505041637E+03  0.25500000920E-02 0. -1.
    10030    2    1    2    0    0  0.00000000000E+00  0.00000000000E+00 -0.13409121167E+03  0.59600962107E+03  0.58072972660E+03 0.  0.
        5    1    3    3  502    0 -0.79716799368E+02 -0.22553521316E+03  0.10180919804E+03  0.26001558277E+03  0.46999998093E+01 0.  1.
       -5    1    3    3    0  502  0.79716799368E+02  0.22553521316E+03 -0.23590040971E+03  0.33599403830E+03  0.46999998093E+01 0. -1.
</event>
<event>
 5   0  0.9497860E-02  0.5950323E+03  0.7818609E-02  0.9915766E-01
        1   -1    0    0  501    0  0.00000000000E+00  0.00000000000E+00  0.41137722004E+03  0.41137722007E+03  0.50400001928E-02 0. -1.
       -1   -1    0    0    0  501  0.00000000000E+00  0.00000000000E+00 -0.21516959826E+03  0.21516959832E+03  0.50400001928E-02 0.  1.
    10030    2    1    2    0    0  0.00000000000E+00  0.00000000000E+00  0.19620762178E+03  0.62654681839E+03  0.59503233927E+03 0.  0.
        5    1    3    3  502    0  0.11269393967E+03  0.15253552732E+03  0.33942936241E+03  0.38884623336E+03  0.46999998093E+01 0. -1.
       -5    1    3    3    0  502 -0.11269393967E+03 -0.15253552732E+03 -0.14322174063E+03  0.23770058502E+03  0.46999998093E+01 0.  1.
</event>
<event>
 5   0  0.1513339E-01  0.6097202E+03  0.7818609E-02  0.9885442E-01
        2   -1    0    0  501    0  0.00000000000E+00  0.00000000000E+00  0.38576716965E+03  0.38576716966E+03  0.25500000920E-02 0. -1.
       -2   -1    0    0    0  501  0.00000000000E+00  0.00000000000E+00 -0.24092170878E+03  0.24092170879E+03  0.25500000920E-02 0.  1.
    10030    2    1    2    0    0  0.00000000000E+00  0.00000000000E+00  0.14484546087E+03  0.62668887845E+03  0.60972021685E+03 0.  0.
        3    1    3    3  502    0 -0.23336324859E+03  0.15465536570E+03  0.19645841035E+03  0.34201258037E+03  0.10100000352E+00 0.  1.
       -3    1    3    3    0  502  0.23336324859E+03 -0.15465536570E+03 -0.51612949481E+02  0.28467629808E+03  0.10100000352E+00 0. -1.
</event>
<event>
 5   0  0.9420349E-02  0.5967380E+03  0.7818609E-02  0.9912197E-01
        1   -1    0    0  501    0  0.00000000000E+00  0.00000000000E+00  0.45195896883E+03  0.45195896886E+03  0.50400001928E-02 0. -1.
       -1   -1    0    0    0  501  0.00000000000E+00  0.00000000000E+00 -0.19697376538E+03  0.19697376544E+03  0.50400001928E-02 0.  1.
    10030    2    1    2    0    0  0.00000000000E+00  0.00000000000E+00  0.25498520345E+03  0.64893273430E+03  0.59673799918E+03 0.  0.
        2    1    3    3  502    0 -0.19583750554E+03  0.20390376925E+03  0.23120172507E+03  0.36521680324E+03  0.25500000920E-02 0. -1.
       -2    1    3    3    0  502  0.19583750554E+03 -0.20390376925E+03  0.23783478383E+02  0.28371593106E+03  0.25500000920E-02 0.  1.
</event>
<event>
 5   0  0.9420349E-02  0.6524100E+03  0.7818609E-02  0.9802267E-01
       -1   -1    0    0    0  501  0.00000000000E+00  0.00000000000E+00  0.13205464724E+03  0.13205464733E+03  0.50400001928E-02 0.  1.
        1   -1    0    0  501    0  0.00000000000E+00  0.00000000000E+00 -0.80580051669E+03  0.80580051670E+03  0.50400001928E-02 0. -1.
    10030    2    1    2    0    0  0.00000000000E+00  0.00000000000E+00 -0.67374586945E+03  0.93785516404E+03  0.65241000307E+03 0.  0.
        2    1    3    3  502    0  0.32016054634E+03  0.46096409588E+02 -0.27618883188E+03  0.42533272302E+03  0.25500000920E-02 0.  1.
       -2    1    3    3    0  502 -0.32016054634E+03 -0.46096409588E+02 -0.39755703757E+03  0.51252244101E+03  0.25500000920E-02 0. -1.
</event>
<event>
 5   0  0.9411028E-02  0.6070157E+03  0.7818609E-02  0.9890957E-01
       -1   -1    0    0    0  501  0.00000000000E+00  0.00000000000E+00  0.43105018804E+02  0.43105019099E+02  0.50400001928E-02 0.  1.
        1   -1    0    0  501    0  0.00000000000E+00  0.00000000000E+00 -0.21370369449E+04  0.21370369449E+04  0.50400001928E-02 0. -1.
    10030    2    1    2    0    0  0.00000000000E+00  0.00000000000E+00 -0.20939319261E+04  0.21801419640E+04  0.60701570993E+03 0.  0.
        4    1    3    3  502    0 -0.12732373111E+03 -0.26352926741E+03 -0.75837682231E+03  0.81289361223E+03  0.12699999809E+01 0.  1.
       -4    1    3    3    0  502  0.12732373111E+03  0.26352926741E+03 -0.13355551038E+04  0.13672483518E+04  0.12699999809E+01 0. -1.
</event>
<event>
 5   0  0.9411028E-02  0.5970805E+03  0.7818609E-02  0.9911482E-01
        1   -1    0    0  501    0  0.00000000000E+00  0.00000000000E+00  0.15672315681E+04  0.15672315681E+04  0.50400001928E-02 0. -1.
       -1   -1    0    0    0  501  0.00000000000E+00  0.00000000000E+00 -0.56868610901E+02  0.56868611125E+02  0.50400001928E-02 0.  1.
    10030    2    1    2    0    0  0.00000000000E+00  0.00000000000E+00  0.15103629572E+04  0.16241001792E+04  0.59708050521E+03 0.  0.
        4    1    3    3  502    0  0.23720614035E+03  0.71633776909E+02  0.30225512280E+03  0.39084258106E+03  0.12699999809E+01 0.  1.
       -4    1    3    3    0  502 -0.23720614035E+03 -0.71633776909E+02  0.12081078344E+04  0.12332575982E+04  0.12699999809E+01 0. -1.
</event>
<event>
 5   0  0.1502642E-01  0.6160233E+03  0.7818609E-02  0.9872709E-01
       -2   -1    0    0    0  501  0.00000000000E+00  0.00000000000E+00  0.83635558246E+02  0.83635558285E+02  0.25500000920E-02 0.  1.
        2   -1    0    0  501    0  0.00000000000E+00  0.00000000000E+00 -0.11343400413E+04  0.11343400413E+04  0.25500000920E-02 0. -1.
    10030    2    1    2    0    0  0.00000000000E+00  0.00000000000E+00 -0.10507044830E+04  0.12179755995E+04  0.61602325481E+03 0.  0.
        2    1    3    3  502    0  0.23492738959E+03 -0.14846748561E+03 -0.26277182506E+03  0.38246895915E+03  0.25500000920E-02 0.  1.
       -2    1    3    3    0  502 -0.23492738959E+03  0.14846748561E+03 -0.78793265796E+03  0.83550664040E+03  0.25500000920E-02 0. -1.
</event>
<event>
 5   0  0.1532571E-01  0.5930572E+03  0.7818609E-02  0.9919916E-01
       -2   -1    0    0    0  501  0.00000000000E+00  0.00000000000E+00  0.10604115709E+03  0.10604115712E+03  0.25500000920E-02 0.  1.
        2   -1    0    0  501    0  0.00000000000E+00  0.00000000000E+00 -0.82919877505E+03  0.82919877505E+03  0.25500000920E-02 0. -1.
    10030    2    1    2    0    0  0.00000000000E+00  0.00000000000E+00 -0.72315761796E+03  0.93523993218E+03  0.59305715604E+03 0.  0.
        1    1    3    3  502    0 -0.23176473440E+03  0.56859866158E+02 -0.63915105323E+03  0.68224775951E+03  0.50400001928E-02 0. -1.
       -1    1    3    3    0  502  0.23176473440E+03 -0.56859866158E+02 -0.84006564729E+02  0.25299217267E+03  0.50400001928E-02 0.  1.
</event>
<event>
 5   0  0.1513339E-01  0.5934993E+03  0.7818609E-02  0.9918985E-01
       -2   -1    0    0    0  501  0.00000000000E+00  0.00000000000E+00  0.14064017520E+03  0.14064017522E+03  0.25500000920E-02 0.  1.
        2   -1    0    0  501    0  0.00000000000E+00  0.00000000000E+00 -0.62613945466E+03  0.62613945467E+03  0.25500000920E-02 0. -1.
    10030    2    1    2    0    0  0.00000000000E+00  0.00000000000E+00 -0.48549927946E+03  0.76677962989E+03  0.59349932641E+03 0.  0.
        3    1    3    3  502    0 -0.21291301247E+03  0.14232555585E+03 -0.43642288562E+03  0.50601725269E+03  0.10100000352E+00 0. -1.
       -3    1    3    3    0  502  0.21291301247E+03 -0.14232555585E+03 -0.49076393840E+02  0.26076237719E+03  0.10100000352E+00 0.  1.
</event>
<event>
 5   0  0.1532571E-01  0.5910516E+03  0.7818609E-02  0.9924147E-01
       -2   -1    0    0    0  501  0.00000000000E+00  0.00000000000E+00  0.10837869107E+03  0.10837869110E+03  0.25500000920E-02 0.  1.
        2   -1    0    0  501    0  0.00000000000E+00  0.00000000000E+00 -0.80583654461E+03  0.80583654461E+03  0.25500000920E-02 0. -1.
    10030    2    1    2    0    0  0.00000000000E+00  0.00000000000E+00 -0.69745785354E+03  0.91421523571E+03  0.59105163881E+03 0.  0.
        1    1    3    3  502    0  0.75775537126E+02  0.70191591305E+02 -0.77700761715E+03  0.78384285967E+03  0.50400001928E-02 0. -1.
       -1    1    3    3    0  502 -0.75775537126E+02 -0.70191591305E+02  0.79549763616E+02  0.13037237604E+03  0.50400001928E-02 0.  1.
</event>
<event>
 5   0  0.1483942E-01  0.5989557E+03  0.7818609E-02  0.9907575E-01
        2   -1    0    0  501    0  0.00000000000E+00  0.00000000000E+00  0.13506600773E+04  0.13506600773E+04  0.25500000920E-02 0. -1.
       -2   -1    0    0    0  501  0.00000000000E+00  0.00000000000E+00 -0.66402335016E+02  0.66402335065E+02  0.25500000920E-02 0.  1.
    10030    2    1    2    0    0  0.00000000000E+00  0.00000000000E+00  0.12842577422E+04  0.14170624123E+04  0.59895570113E+03 0.  0.
        4    1    3    3  502    0 -0.21536690034E+03  0.12061100823E+03  0.10433228277E+04  0.10721259500E+04  0.12699999809E+01 0. -1.
       -4    1    3    3    0  502  0.21536690034E+03 -0.12061100823E+03  0.24093491459E+03  0.34493646232E+03  0.12699999809E+01 0.  1.
</event>
<event>
 5   0  0.9177281E-02  0.6061715E+03  0.7818609E-02  0.9892684E-01
       -1   -1    0    0    0  501  0.00000000000E+00  0.00000000000E+00  0.16180550983E+03  0.16180550991E+03  0.50400001928E-02 0. -1.
        1   -1    0    0  501    0  0.00000000000E+00  0.00000000000E+00 -0.56772460695E+03  0.56772460697E+03  0.50400001928E-02 0.  1.
    10030    2    1    2    0    0  0.00000000000E+00  0.00000000000E+00 -0.40591909712E+03  0.72953011688E+03  0.60617149226E+03 0.  0.
        1    1    3    3  502    0  0.18658667049E+03  0.60750866039E+02  0.75036225544E+02  0.21008495543E+03  0.50400001928E-02 0. -1.
       -1    1    3    3    0  502 -0.18658667049E+03 -0.60750866039E+02 -0.48095532267E+03  0.51944516145E+03  0.50400001928E-02 0.  1.
</event>
<event>
 5   0  0.9177281E-02  0.6380883E+03  0.7818609E-02  0.9829391E-01
       -1   -1    0    0    0  501  0.00000000000E+00  0.00000000000E+00  0.20325658451E+03  0.20325658457E+03  0.50400001928E-02 0.  1.
        1   -1    0    0  501    0  0.00000000000E+00  0.00000000000E+00 -0.50079147164E+03  0.50079147166E+03  0.50400001928E-02 0. -1.
    10030    2    1    2    0    0  0.00000000000E+00  0.00000000000E+00 -0.29753488713E+03  0.70404805623E+03  0.63808828263E+03 0.  0.
        1    1    3    3  502    0  0.60315461988E+01  0.29582751562E+03 -0.28042907390E+03  0.40766501452E+03  0.50400001928E-02 0. -1.
       -1    1    3    3    0  502 -0.60315461988E+01 -0.29582751562E+03 -0.17105813230E+02  0.29638304172E+03  0.50400001928E-02 0.  1.
</event>
<event>
 5   0  0.9497860E-02  0.5839444E+03  0.7818609E-02  0.9939288E-01
       -1   -1    0    0    0  501  0.00000000000E+00  0.00000000000E+00  0.98210218183E+02  0.98210218312E+02  0.50400001928E-02 0.  1.
        1   -1    0    0  501    0  0.00000000000E+00  0.00000000000E+00 -0.86801328489E+03  0.86801328491E+03  0.50400001928E-02 0. -1.
    10030    2    1    2    0    0  0.00000000000E+00  0.00000000000E+00 -0.76980306671E+03  0.96622350322E+03  0.58394442943E+03 0.  0.
        5    1    3    3  502    0  0.87219614964E+02  0.66723912993E+02  0.62669271917E+02  0.12652616109E+03  0.46999998093E+01 0.  1.
       -5    1    3    3    0  502 -0.87219614964E+02 -0.66723912993E+02 -0.83247233863E+03  0.83969734213E+03  0.46999998093E+01 0. -1.
</event>
<event>
 5   0  0.9411028E-02  0.5802983E+03  0.7818609E-02  0.9947145E-01
       -1   -1    0    0    0  501  0.00000000000E+00  0.00000000000E+00  0.17572427358E+03  0.17572427365E+03  0.50400001928E-02 0.  1.
        1   -1    0    0  501    0  0.00000000000E+00  0.00000000000E+00 -0.47908307857E+03  0.47908307859E+03  0.50400001928E-02 0. -1.
    10030    2    1    2    0    0  0.00000000000E+00  0.00000000000E+00 -0.30335880499E+03  0.65480735224E+03  0.58029828880E+03 0.  0.
        4    1    3    3  502    0  0.10441196875E+03 -0.23729661898E+03 -0.29868919925E+03  0.39551029727E+03  0.12699999809E+01 0. -1.
       -4    1    3    3    0  502 -0.10441196875E+03  0.23729661898E+03 -0.46696057414E+01  0.25929705497E+03  0.12699999809E+01 0.  1.
</event>
<event>
 5   0  0.9411028E-02  0.6346371E+03  0.7818609E-02  0.9836041E-01
       -1   -1    0    0    0  501  0.00000000000E+00  0.00000000000E+00  0.80218930122E+02  0.80218930280E+02  0.50400001928E-02 0. -1.
        1   -1    0    0  501    0  0.00000000000E+00  0.00000000000E+00 -0.12552033320E+04  0.12552033320E+04  0.50400001928E-02 0.  1.
    10030    2    1    2    0    0  0.00000000000E+00  0.00000000000E+00 -0.11749844019E+04  0.13354222623E+04  0.63463711992E+03 0.  0.
        4    1    3    3  502    0  0.17414296265E+02 -0.25896799411E+03 -0.20338078815E+03  0.32974692959E+03  0.12699999809E+01 0. -1.
       -4    1    3    3    0  502 -0.17414296265E+02  0.25896799411E+03 -0.97160361376E+03  0.10056753327E+04  0.12699999809E+01 0.  1.
</event>
<event>
 5   0  0.9177281E-02  0.5763903E+03  0.7818609E-02  0.9955637E-01
        1   -1    0    0  501    0  0.00000000000E+00  0.00000000000E+00  0.23081496030E+04  0.23081496030E+04  0.50400001928E-02 0. -1.
       -1   -1    0    0    0  501  0.00000000000E+00  0.00000000000E+00 -0.35983990021E+02  0.35983990374E+02  0.50400001928E-02 0.  1.
    10030    2    1    2    0    0  0.00000000000E+00  0.00000000000E+00  0.22721656130E+04  0.23441335934E+04  0.57639025912E+03 0.  0.
        1    1    3    3  502    0 -0.65919322271E+02  0.40721508135E+02  0.22649946661E+04  0.22663195794E+04  0.50400001928E-02 0. -1.
       -1    1    3    3    0  502  0.65919322271E+02 -0.40721508135E+02  0.71709468727E+01  0.77814014020E+02  0.50400001928E-02 0.  1.
</event>
<event>
 5   0  0.1483942E-01  0.5977808E+03  0.7818609E-02  0.9910021E-01
       -2   -1    0    0    0  501  0.00000000000E+00  0.00000000000E+00  0.48807242257E+02  0.48807242324E+02  0.25500000920E-02 0. -1.
        2   -1    0    0  501    0  0.00000000000E+00  0.00000000000E+00 -0.18303733132E+04  0.18303733132E+04  0.25500000920E-02 0.  1.
    10030    2    1    2    0    0  0.00000000000E+00  0.00000000000E+00 -0.17815660709E+04  0.18791805555E+04  0.59778080860E+03 0.  0.
        4    1    3    3  502    0  0.22000548576E+03 -0.19738090838E+03 -0.10303892255E+04  0.10719445908E+04  0.12699999809E+01 0. -1.
       -4    1    3    3    0  502 -0.22000548576E+03  0.19738090838E+03 -0.75117684540E+03  0.80723596471E+03  0.12699999809E+01 0.  1.
</event>
<event>
 5   0  0.9420349E-02  0.5883394E+03  0.7818609E-02  0.9929898E-01
       -1   -1    0    0    0  501  0.00000000000E+00  0.00000000000E+00  0.89362528475E+02  0.89362528617E+02  0.50400001928E-02 0. -1.
        1   -1    0    0  501    0  0.00000000000E+00  0.00000000000E+00 -0.96836803109E+03  0.96836803111E+03  0.50400001928E-02 0.  1.
    10030    2    1    2    0    0  0.00000000000E+00  0.00000000000E+00 -0.87900550262E+03  0.10577305597E+04  0.58833941168E+03 0.  0.
        2    1    3    3  502    0  0.56324444489E+02 -0.28255961589E+03 -0.33278655942E+03  0.44018095565E+03  0.25500000920E-02 0.  1.
       -2    1    3    3    0  502 -0.56324444489E+02  0.28255961589E+03 -0.54621894320E+03  0.61754960408E+03  0.25500000920E-02 0. -1.
</event>
<event>
 5   0  0.8860626E-02  0.6193375E+03  0.7818609E-02  0.9866080E-01
       -1   -1    0    0    0  501  0.00000000000E+00  0.00000000000E+00  0.23789017330E+03  0.23789017335E+03  0.50400001928E-02 0.  1.
        1   -1    0    0  501    0  0.00000000000E+00  0.00000000000E+00 -0.40310512499E+03  0.40310512502E+03  0.50400001928E-02 0. -1.
    10030    2    1    2    0    0  0.00000000000E+00  0.00000000000E+00 -0.16521495169E+03  0.64099529837E+03  0.61933754309E+03 0.  0.
        3    1    3    3  502    0  0.26780305690E+03 -0.65353360710E+02  0.63411970383E+02  0.28286149832E+03  0.10100000352E+00 0.  1.
       -3    1    3    3    0  502 -0.26780305690E+03  0.65353360710E+02 -0.22862692207E+03  0.35813380005E+03  0.10100000352E+00 0. -1.
</event>
<event>
 5   0  0.1488510E-01  0.6090581E+03  0.7818609E-02  0.9886789E-01
        2   -1    0    0  501    0  0.00000000000E+00  0.00000000000E+00  0.49956875415E+03  0.49956875416E+03  0.25500000920E-02 0. -1.
       -2   -1    0    0    0  501  0.00000000000E+00  0.00000000000E+00 -0.18563601469E+03  0.18563601471E+03  0.25500000920E-02 0.  1.
    10030    2    1    2    0    0  0.00000000000E+00  0.00000000000E+00  0.31393273946E+03  0.68520476887E+03  0.60905813383E+03 0.  0.
        5    1    3    3  502    0  0.25667769971E+03  0.60926823045E+02 -0.14097687652E+02  0.26422784503E+03  0.46999998093E+01 0.  1.
       -5    1    3    3    0  502 -0.25667769971E+03 -0.60926823045E+02  0.32803042711E+03  0.42097692384E+03  0.46999998093E+01 0. -1.
</event>
<event>
 5   0  0.9420349E-02  0.6011935E+03  0.7818609E-02  0.9902933E-01
       -1   -1    0    0    0  501  0.00000000000E+00  0.00000000000E+00  0.23635337271E+03  0.23635337276E+03  0.50400001928E-02 0. -1.
        1   -1    0    0  501    0  0.00000000000E+00  0.00000000000E+00 -0.38230216837E+03  0.38230216841E+03  0.50400001928E-02 0.  1.
    10030    2    1    2    0    0  0.00000000000E+00  0.00000000000E+00 -0.14594879567E+03  0.61865554117E+03  0.60119350268E+03 0.  0.
        2    1    3    3  502    0  0.29409484344E+03  0.27705897240E+02 -0.15688682049E+02  0.29581333376E+03  0.25500000920E-02 0. -1.
       -2    1    3    3    0  502 -0.29409484344E+03 -0.27705897240E+02 -0.13026011362E+03  0.32284220741E+03  0.25500000920E-02 0.  1.
</event>
<event>
 5   0  0.8860626E-02  0.6128548E+03  0.7818609E-02  0.9879090E-01
        1   -1    0    0  501    0  0.00000000000E+00  0.00000000000E+00  0.12788880976E+04  0.12788880976E+04  0.50400001928E-02 0. -1.
       -1   -1    0    0    0  501  0.00000000000E+00  0.00000000000E+00 -0.73421400794E+02  0.73421400967E+02  0.50400001928E-02 0.  1.
    10030    2    1    2    0    0  0.00000000000E+00  0.00000000000E+00  0.12054666968E+04  0.13523094986E+04  0.61285481383E+03 0.  0.
        3    1    3    3  502    0 -0.66168590564E+02  0.26565414906E+03  0.90646676653E+03  0.94690676327E+03  0.10100000352E+00 0. -1.
       -3    1    3    3    0  502  0.66168590564E+02 -0.26565414906E+03  0.29899993026E+03  0.40540273529E+03  0.10100000352E+00 0.  1.
</event>
<event>
 5   0  0.9497860E-02  0.5128391E+03  0.7818609E-02  0.1010481E+00
       -1   -1    0    0    0  501  0.00000000000E+00  0.00000000000E+00  0.20318514028E+03  0.20318514034E+03  0.50400001928E-02 0. -1.
        1   -1    0    0  501    0  0.00000000000E+00  0.00000000000E+00 -0.32360136430E+03  0.32360136434E+03  0.50400001928E-02 0.  1.
    10030    2    1    2    0    0  0.00000000000E+00  0.00000000000E+00 -0.12041622401E+03  0.52678650468E+03  0.51283911172E+03 0.  0.
        5    1    3    3  502    0  0.12673474815E+03 -0.88567315116E+02  0.14986054708E+03  0.21537441646E+03  0.46999998093E+01 0. -1.
       -5    1    3    3    0  502 -0.12673474815E+03  0.88567315116E+02 -0.27027677110E+03  0.31141208822E+03  0.46999998093E+01 0.  1.
</event>
<event>
 5   0  0.6170500E-02  0.6359345E+03  0.7818609E-02  0.9833536E-01
        3   -1    0    0  501    0  0.00000000000E+00  0.00000000000E+00  0.12941780928E+04  0.12941780967E+04  0.10100000352E+00 0. -1.
       -3   -1    0    0    0  501  0.00000000000E+00  0.00000000000E+00 -0.78121499827E+02  0.78121565116E+02  0.10100000352E+00 0.  1.
    10030    2    1    2    0    0  0.00000000000E+00  0.00000000000E+00  0.12160565929E+04  0.13722996618E+04  0.63593452856E+03 0.  0.
        3    1    3    3  502    0 -0.14402458360E+03  0.23945717702E+03  0.28061786091E+03  0.39601668446E+03  0.10100000352E+00 0.  1.
       -3    1    3    3    0  502  0.14402458360E+03 -0.23945717702E+03  0.93543873203E+03  0.97628297736E+03  0.10100000352E+00 0. -1.
</event>
<event>
 5   0  0.1502642E-01  0.5974322E+03  0.7818609E-02  0.9910748E-01
        2   -1    0    0  501    0  0.00000000000E+00  0.00000000000E+00  0.81058431932E+02  0.81058431972E+02  0.25500000920E-02 0.  1.
       -2   -1    0    0    0  501  0.00000000000E+00  0.00000000000E+00 -0.11008269565E+04  0.11008269565E+04  0.25500000920E-02 0. -1.
    10030    2    1    2    0    0  0.00000000000E+00  0.00000000000E+00 -0.10197685246E+04  0.11818853885E+04  0.59743219515E+03 0.  0.
        2    1    3    3  502    0 -0.26973200728E+03 -0.10878825280E+03 -0.37511350416E+03  0.47465817248E+03  0.25500000920E-02 0.  1.
       -2    1    3    3    0  502  0.26973200728E+03  0.10878825280E+03 -0.64465502043E+03  0.70722721601E+03  0.25500000920E-02 0. -1.
</event>
<event>
 5   0  0.1502642E-01  0.6148876E+03  0.7818609E-02  0.9874991E-01
       -2   -1    0    0    0  501  0.00000000000E+00  0.00000000000E+00  0.10807652993E+03  0.10807652996E+03  0.25500000920E-02 0.  1.
        2   -1    0    0  501    0  0.00000000000E+00  0.00000000000E+00 -0.87458114774E+03  0.87458114774E+03  0.25500000920E-02 0. -1.
    10030    2    1    2    0    0  0.00000000000E+00  0.00000000000E+00 -0.76650461781E+03  0.98265767771E+03  0.61488761773E+03 0.  0.
        2    1    3    3  502    0 -0.64299548893E+02  0.59036664257E+02 -0.85436112316E+03  0.85880887774E+03  0.25500000920E-02 0. -1.
       -2    1    3    3    0  502  0.64299548893E+02 -0.59036664257E+02  0.87856505349E+02  0.12384879997E+03  0.25500000920E-02 0.  1.
</event>
<event>
 5   0  0.1513339E-01  0.5798385E+03  0.7818609E-02  0.9948141E-01
        2   -1    0    0  501    0  0.00000000000E+00  0.00000000000E+00  0.13141916946E+03  0.13141916948E+03  0.25500000920E-02 0.  1.
       -2   -1    0    0    0  501  0.00000000000E+00  0.00000000000E+00 -0.63958064862E+03  0.63958064862E+03  0.25500000920E-02 0. -1.
    10030    2    1    2    0    0  0.00000000000E+00  0.00000000000E+00 -0.50816147916E+03  0.77099981811E+03  0.57983845217E+03 0.  0.
        3    1    3    3  502    0  0.28628569598E+03 -0.68268333760E+01 -0.31424113031E+03  0.42515127138E+03  0.10100000352E+00 0. -1.
       -3    1    3    3    0  502 -0.28628569598E+03  0.68268333760E+01 -0.19392034884E+03  0.34584854672E+03  0.10100000352E+00 0.  1.
</event>
<event>
 5   0  0.1483942E-01  0.8831756E+03  0.7818609E-02  0.9446861E-01
       -2   -1    0    0    0  501  0.00000000000E+00  0.00000000000E+00  0.41452574886E+03  0.41452574887E+03  0.25500000920E-02 0.  1.
        2   -1    0    0  501    0  0.00000000000E+00  0.00000000000E+00 -0.47041657903E+03  0.47041657904E+03  0.25500000920E-02 0. -1.
    10030    2    1    2    0    0  0.00000000000E+00  0.00000000000E+00 -0.55890830168E+02  0.88494232791E+03  0.88317559909E+03 0.  0.
        4    1    3    3  502    0 -0.80150863662E+02  0.97807904550E+02 -0.45188470859E+03  0.46924615065E+03  0.12699999809E+01 0. -1.
       -4    1    3    3    0  502  0.80150863662E+02 -0.97807904550E+02  0.39599387842E+03  0.41569617726E+03  0.12699999809E+01 0.  1.
</event>
<event>
 5   0  0.9177281E-02  0.6003160E+03  0.7818609E-02  0.9904751E-01
       -1   -1    0    0    0  501  0.00000000000E+00  0.00000000000E+00  0.24672954462E+03  0.24672954467E+03  0.50400001928E-02 0. -1.
        1   -1    0    0  501    0  0.00000000000E+00  0.00000000000E+00 -0.36515619730E+03  0.36515619733E+03  0.50400001928E-02 0.  1.
    10030    2    1    2    0    0  0.00000000000E+00  0.00000000000E+00 -0.11842665268E+03  0.61188574200E+03  0.60031599112E+03 0.  0.
        1    1    3    3  502    0  0.42535325255E+02  0.15263804638E+03 -0.31905231547E+03  0.35623307979E+03  0.50400001928E-02 0.  1.
       -1    1    3    3    0  502 -0.42535325255E+02 -0.15263804638E+03  0.20062566280E+03  0.25565266221E+03  0.50400001928E-02 0. -1.
</event>
<event>
 5   0  0.1483942E-01  0.5957618E+03  0.7818609E-02  0.9914238E-01
       -2   -1    0    0    0  501  0.00000000000E+00  0.00000000000E+00  0.19979005432E+03  0.19979005433E+03  0.25500000920E-02 0. -1.
        2   -1    0    0  501    0  0.00000000000E+00  0.00000000000E+00 -0.44413130190E+03  0.44413130190E+03  0.25500000920E-02 0.  1.
    10030    2    1    2    0    0  0.00000000000E+00  0.00000000000E+00 -0.24434124758E+03  0.64392135623E+03  0.59576175418E+03 0.  0.
        4    1    3    3  502    0  0.39326631215E+02 -0.58730791024E+02  0.19059214961E+03  0.20328027482E+03  0.12699999809E+01 0. -1.
       -4    1    3    3    0  502 -0.39326631215E+02  0.58730791024E+02 -0.43493339719E+03  0.44064108142E+03  0.12699999809E+01 0.  1.
</event>
<event>
 5   0  0.9411028E-02  0.7795427E+03  0.7818609E-02  0.9590110E-01
        1   -1    0    0  501    0  0.00000000000E+00  0.00000000000E+00  0.99581586670E+03  0.99581586671E+03  0.50400001928E-02 0. -1.
       -1   -1    0    0    0  501  0.00000000000E+00  0.00000000000E+00 -0.15256002498E+03  0.15256002506E+03  0.50400001928E-02 0.  1.
    10030    2    1    2    0    0  0.00000000000E+00  0.00000000000E+00  0.84325584172E+03  0.11483758918E+04  0.77954266991E+03 0.  0.
        4    1    3    3  502    0 -0.39383131731E+02  0.35967597331E+03  0.20813817397E+03  0.41742178813E+03  0.12699999809E+01 0.  1.
       -4    1    3    3    0  502  0.39383131731E+02 -0.35967597331E+03  0.63511766775E+03  0.73095410364E+03  0.12699999809E+01 0. -1.
</event>
<event>
 5   0  0.1532571E-01  0.6070398E+03  0.7818609E-02  0.9890907E-01
       -2   -1    0    0    0  501  0.00000000000E+00  0.00000000000E+00  0.12820639682E+03  0.12820639684E+03  0.25500000920E-02 0.  1.
        2   -1    0    0  501    0  0.00000000000E+00  0.00000000000E+00 -0.71856270465E+03  0.71856270466E+03  0.25500000920E-02 0. -1.
    10030    2    1    2    0    0  0.00000000000E+00  0.00000000000E+00 -0.59035630783E+03  0.84676910150E+03  0.60703981834E+03 0.  0.
        1    1    3    3  502    0  0.21742797834E+02  0.60648399427E+02  0.11855793710E+03  0.13493317637E+03  0.50400001928E-02 0.  1.
       -1    1    3    3    0  502 -0.21742797834E+02 -0.60648399427E+02 -0.70891424493E+03  0.71183592513E+03  0.50400001928E-02 0. -1.
</event>
<event>
 5   0  0.8860626E-02  0.5814924E+03  0.7818609E-02  0.9944565E-01
       -1   -1    0    0    0  501  0.00000000000E+00  0.00000000000E+00  0.85146773351E+02  0.85146773501E+02  0.50400001928E-02 0. -1.
        1   -1    0    0  501    0  0.00000000000E+00  0.00000000000E+00 -0.99279569288E+03  0.99279569290E+03  0.50400001928E-02 0.  1.
    10030    2    1    2    0    0  0.00000000000E+00  0.00000000000E+00 -0.90764891953E+03  0.10779424664E+04  0.58149239009E+03 0.  0.
        3    1    3    3  502    0  0.23394073244E+03 -0.56057234248E+02 -0.15113082894E+03  0.28409719721E+03  0.10100000352E+00 0. -1.
       -3    1    3    3    0  502 -0.23394073244E+03  0.56057234248E+02 -0.75651809059E+03  0.79384526918E+03  0.10100000352E+00 0.  1.
</event>
<event>
 5   0  0.1513339E-01  0.6414608E+03  0.7818609E-02  0.9822936E-01
       -2   -1    0    0    0  501  0.00000000000E+00  0.00000000000E+00  0.94964940074E+02  0.94964940109E+02  0.25500000920E-02 0.  1.
        2   -1    0    0  501    0  0.00000000000E+00  0.00000000000E+00 -0.10832207295E+04  0.10832207295E+04  0.25500000920E-02 0. -1.
    10030    2    1    2    0    0  0.00000000000E+00  0.00000000000E+00 -0.98825578946E+03  0.11781856696E+04  0.64146080688E+03 0.  0.
        3    1    3    3  502    0  0.82631617691E+02  0.70894832544E+02  0.59984059727E+02  0.12430671400E+03  0.10100000352E+00 0.  1.
       -3    1    3    3    0  502 -0.82631617691E+02 -0.70894832544E+02 -0.10482398492E+04  0.10538789556E+04  0.10100000352E+00 0. -1.
</event>
<event>
 5   0  0.9497860E-02  0.6027029E+03  0.7818609E-02  0.9899814E-01
       -1   -1    0    0    0  501  0.00000000000E+00  0.00000000000E+00  0.41262137985E+03  0.41262137988E+03  0.50400001928E-02 0.  1.
        1   -1    0    0  501    0  0.00000000000E+00  0.00000000000E+00 -0.22008725585E+03  0.22008725591E+03  0.50400001928E-02 0. -1.
    10030    2    1    2    0    0  0.00000000000E+00  0.00000000000E+00  0.19253412400E+03  0.63270863578E+03  0.60270293586E+03 0.  0.
        5    1    3    3  502    0  0.16151932197E+03 -0.25344899108E+03  0.73611763461E+02  0.30946027882E+03  0.46999998093E+01 0. -1.
       -5    1    3    3    0  502 -0.16151932197E+03  0.25344899108E+03  0.11892236054E+03  0.32324835697E+03  0.46999998093E+01 0.  1.
</event>
<event>
 5   0  0.1532571E-01  0.6051489E+03  0.7818609E-02  0.9894781E-01
        2   -1    0    0  501    0  0.00000000000E+00  0.00000000000E+00  0.86056313098E+03  0.86056313099E+03  0.25500000920E-02 0. -1.
       -2   -1    0    0    0  501  0.00000000000E+00  0.00000000000E+00 -0.10638534390E+03  0.10638534393E+03  0.25500000920E-02 0.  1.
    10030    2    1    2    0    0  0.00000000000E+00  0.00000000000E+00  0.75417778708E+03  0.96694847492E+03  0.60514892268E+03 0.  0.
        1    1    3    3  502    0 -0.15881536422E+03 -0.23321581068E+02 -0.32742101205E+02  0.16382387272E+03  0.50400001928E-02 0.  1.
       -1    1    3    3    0  502  0.15881536422E+03  0.23321581068E+02  0.78691988829E+03  0.80312460220E+03  0.50400001928E-02 0. -1.
</event>
<event>
 5   0  0.1513339E-01  0.6058950E+03  0.7818609E-02  0.9893251E-01
        2   -1    0    0  501    0  0.00000000000E+00  0.00000000000E+00  0.13256091630E+04  0.13256091630E+04  0.25500000920E-02 0.  1.
       -2   -1    0    0    0  501  0.00000000000E+00  0.00000000000E+00 -0.69233969528E+02  0.69233969574E+02  0.25500000920E-02 0. -1.
    10030    2    1    2    0    0  0.00000000000E+00  0.00000000000E+00  0.12563751935E+04  0.13948431326E+04  0.60589498903E+03 0.  0.
        3    1    3    3  502    0  0.76020087344E+02  0.97388372611E+02 -0.86041090623E+01  0.12384502288E+03  0.10100000352E+00 0. -1.
       -3    1    3    3    0  502 -0.76020087344E+02 -0.97388372611E+02  0.12649793025E+04  0.12709981097E+04  0.10100000352E+00 0.  1.
</event>
<event>
 5   0  0.9497860E-02  0.5965388E+03  0.7818609E-02  0.9912613E-01
       -1   -1    0    0    0  501  0.00000000000E+00  0.00000000000E+00  0.10795681160E+04  0.10795681160E+04  0.50400001928E-02 0. -1.
        1   -1    0    0  501    0  0.00000000000E+00  0.00000000000E+00 -0.82407603173E+02  0.82407603327E+02  0.50400001928E-02 0.  1.
    10030    2    1    2    0    0  0.00000000000E+00  0.00000000000E+00  0.99716051285E+03  0.11619757194E+04  0.59653875314E+03 0.  0.
        5    1    3    3  502    0  0.18470013073E+02 -0.26569509283E+03  0.75996798231E+03  0.80530022219E+03  0.46999998093E+01 0. -1.
       -5    1    3    3    0  502 -0.18470013073E+02  0.26569509283E+03  0.23719253055E+03  0.35667549717E+03  0.46999998093E+01 0.  1.
</event>
<event>
 5   0  0.9411028E-02  0.6318049E+03  0.7818609E-02  0.9841533E-01
       -1   -1    0    0    0  501  0.00000000000E+00  0.00000000000E+00  0.14538259008E+03  0.14538259017E+03  0.50400001928E-02 0. -1.
        1   -1    0    0  501    0  0.00000000000E+00  0.00000000000E+00 -0.68642582929E+03  0.68642582931E+03  0.50400001928E-02 0.  1.
    10030    2    1    2    0    0  0.00000000000E+00  0.00000000000E+00 -0.54104323920E+03  0.83180841948E+03  0.63180492245E+03 0.  0.
        4    1    3    3  502    0  0.65731585552E+02 -0.30607306045E+03 -0.21479846756E+03  0.37965952410E+03  0.12699999809E+01 0. -1.
       -4    1    3    3    0  502 -0.65731585552E+02  0.30607306045E+03 -0.32624477164E+03  0.45214889538E+03  0.12699999809E+01 0.  1.
</event>
<event>
 5   0  0.9420349E-02  0.6136753E+03  0.7818609E-02  0.9877433E-01
       -1   -1    0    0    0  501  0.00000000000E+00  0.00000000000E+00  0.22499120790E+03  0.22499120796E+03  0.50400001928E-02 0.  1.
        1   -1    0    0  501    0  0.00000000000E+00  0.00000000000E+00 -0.41845792731E+03  0.41845792734E+03  0.50400001928E-02 0. -1.
    10030    2    1    2    0    0  0.00000000000E+00  0.00000000000E+00 -0.19346671941E+03  0.64344913530E+03  0.61367533615E+03 0.  0.
        2    1    3    3  502    0 -0.10550585352E+03 -0.12281510536E+03 -0.37002111062E+03  0.40389436433E+03  0.25500000920E-02 0. -1.
       -2    1    3    3    0  502  0.10550585352E+03  0.12281510536E+03  0.17655439121E+03  0.23955477097E+03  0.25500000920E-02 0.  1.
</event>
<event>
 5   0  0.1483942E-01  0.5548043E+03  0.7818609E-02  0.1000388E+00
       -2   -1    0    0    0  501  0.00000000000E+00  0.00000000000E+00  0.17397821497E+03  0.17397821499E+03  0.25500000920E-02 0. -1.
        2   -1    0    0  501    0  0.00000000000E+00  0.00000000000E+00 -0.44230793463E+03  0.44230793464E+03  0.25500000920E-02 0.  1.
    10030    2    1    2    0    0  0.00000000000E+00  0.00000000000E+00 -0.26832971966E+03  0.61628614963E+03  0.55480427158E+03 0.  0.
        4    1    3    3  502    0  0.67569037139E+02 -0.13181663771E+03  0.12636649903E+03  0.19470825800E+03  0.12699999809E+01 0. -1.
       -4    1    3    3    0  502 -0.67569037139E+02  0.13181663771E+03 -0.39469621869E+03  0.42157789162E+03  0.12699999809E+01 0.  1.
</event>
<event>
 5   0  0.1532571E-01  0.5961857E+03  0.7818609E-02  0.9913351E-01
        2   -1    0    0  501    0  0.00000000000E+00  0.00000000000E+00  0.44156196741E+03  0.44156196741E+03  0.25500000920E-02 0.  1.
       -2   -1    0    0    0  501  0.00000000000E+00  0.00000000000E+00 -0.20123866926E+03  0.20123866927E+03  0.25500000920E-02 0. -1.
    10030    2    1    2    0    0  0.00000000000E+00  0.00000000000E+00  0.24032329815E+03  0.64280063669E+03  0.59618568491E+03 0.  0.
        1    1    3    3  502    0  0.29296116943E+03  0.41218677552E+02  0.15954309302E+03  0.33612382351E+03  0.50400001928E-02 0. -1.
       -1    1    3    3    0  502 -0.29296116943E+03 -0.41218677552E+02  0.80780205125E+02  0.30667681318E+03  0.50400001928E-02 0.  1.
</event>
<event>
 5   0  0.9411028E-02  0.6022708E+03  0.7818609E-02  0.9900706E-01
       -1   -1    0    0    0  501  0.00000000000E+00  0.00000000000E+00  0.34870750709E+03  0.34870750713E+03  0.50400001928E-02 0. -1.
        1   -1    0    0  501    0  0.00000000000E+00  0.00000000000E+00 -0.26005330462E+03  0.26005330466E+03  0.50400001928E-02 0.  1.
    10030    2    1    2    0    0  0.00000000000E+00  0.00000000000E+00  0.88654202480E+02  0.60876081179E+03  0.60227083472E+03 0.  0.
        4    1    3    3  502    0  0.18847302580E+03  0.92660680331E+02  0.26246003093E+03  0.33614723540E+03  0.12699999809E+01 0. -1.
       -4    1    3    3    0  502 -0.18847302580E+03 -0.92660680331E+02 -0.17380582845E+03  0.27261357640E+03  0.12699999809E+01 0.  1.
</event>
<event>
 5   0  0.1488510E-01  0.5886779E+03  0.7818609E-02  0.9929178E-01
        2   -1    0    0  501    0  0.00000000000E+00  0.00000000000E+00  0.72164184970E+03  0.72164184970E+03  0.25500000920E-02 0.  1.
       -2   -1    0    0    0  501  0.00000000000E+00  0.00000000000E+00 -0.12005320383E+03  0.12005320386E+03  0.25500000920E-02 0. -1.
    10030    2    1    2    0    0  0.00000000000E+00  0.00000000000E+00  0.60158864586E+03  0.84169505356E+03  0.58867789525E+03 0.  0.
        5    1    3    3  502    0 -0.67469991137E+02 -0.14276167940E+03  0.65589380284E+03  0.67464944038E+03  0.46999998093E+01 0.  1.
       -5    1    3    3    0  502  0.67469991137E+02  0.14276167940E+03 -0.54305156974E+02  0.16704561318E+03  0.46999998093E+01 0. -1.
</event>
<event>
 5   0  0.9420349E-02  0.5981257E+03  0.7818609E-02  0.9909302E-01
       -1   -1    0    0    0  501  0.00000000000E+00  0.00000000000E+00  0.11242310425E+03  0.11242310436E+03  0.50400001928E-02 0. -1.
        1   -1    0    0  501    0  0.00000000000E+00  0.00000000000E+00 -0.79555343440E+03  0.79555343442E+03  0.50400001928E-02 0.  1.
    10030    2    1    2    0    0  0.00000000000E+00  0.00000000000E+00 -0.68313033015E+03  0.90797653878E+03  0.59812569499E+03 0.  0.
        2    1    3    3  502    0 -0.32941870227E+02 -0.22969742660E+03 -0.55172765591E+02  0.23851647463E+03  0.25500000920E-02 0. -1.
       -2    1    3    3    0  502  0.32941870227E+02  0.22969742660E+03 -0.62795756456E+03  0.66946006415E+03  0.25500000920E-02 0.  1.
</event>
<event>
 5   0  0.8860626E-02  0.6066336E+03  0.7818609E-02  0.9891738E-01
        1   -1    0    0  501    0  0.00000000000E+00  0.00000000000E+00  0.21509553791E+03  0.21509553797E+03  0.50400001928E-02 0.  1.
       -1   -1    0    0    0  501  0.00000000000E+00  0.00000000000E+00 -0.42772193123E+03  0.42772193126E+03  0.50400001928E-02 0. -1.
    10030    2    1    2    0    0  0.00000000000E+00  0.00000000000E+00 -0.21262639332E+03  0.64281746923E+03  0.60663359255E+03 0.  0.
        3    1    3    3  502    0  0.14194561627E+03 -0.21195974784E+03  0.67564435053E+02  0.26389478162E+03  0.10100000352E+00 0.  1.
       -3    1    3    3    0  502 -0.14194561627E+03  0.21195974784E+03 -0.28019082837E+03  0.37892268761E+03  0.10100000352E+00 0. -1.
</event>
<event>
 5   0  0.9497860E-02  0.6247712E+03  0.7818609E-02  0.9855306E-01
       -1   -1    0    0    0  501  0.00000000000E+00  0.00000000000E+00  0.11942648028E+03  0.11942648039E+03  0.50400001928E-02 0.  1.
        1   -1    0    0  501    0  0.00000000000E+00  0.00000000000E+00 -0.81711164018E+03  0.81711164019E+03  0.50400001928E-02 0. -1.
    10030    2    1    2    0    0  0.00000000000E+00  0.00000000000E+00 -0.69768515990E+03  0.93653812058E+03  0.62477121330E+03 0.  0.
        5    1    3    3  502    0  0.96507047847E+02  0.15501927275E+03  0.31025802645E+02  0.18528161170E+03  0.46999998093E+01 0.  1.
       -5    1    3    3    0  502 -0.96507047847E+02 -0.15501927275E+03 -0.72871096254E+03  0.75125650888E+03  0.46999998093E+01 0. -1.
</event>
<event>
 5   0  0.9420349E-02  0.5842998E+03  0.7818609E-02  0.9938525E-01
       -1   -1    0    0    0  501  0.00000000000E+00  0.00000000000E+00  0.78429609404E+02  0.78429609566E+02  0.50400001928E-02 0. -1.
        1   -1    0    0  501    0  0.00000000000E+00  0.00000000000E+00 -0.10882567709E+04  0.10882567710E+04  0.50400001928E-02 0.  1.
    10030    2    1    2    0    0  0.00000000000E+00  0.00000000000E+00 -0.10098271615E+04  0.11666863805E+04  0.58429976409E+03 0.  0.
        2    1    3    3  502    0 -0.14678616729E+02 -0.16274970920E+03 -0.98847019774E+03  0.10018863516E+04  0.25500000920E-02 0.  1.
       -2    1    3    3    0  502  0.14678616729E+02  0.16274970920E+03 -0.21356963807E+02  0.16480002896E+03  0.25500000920E-02 0. -1.
</event>
<event>
 5   0  0.6170500E-02  0.6146839E+03  0.7818609E-02  0.9875401E-01
        3   -1    0    0  501    0  0.00000000000E+00  0.00000000000E+00  0.67721733445E+02  0.67721808760E+02  0.10100000352E+00 0.  1.
       -3   -1    0    0    0  501  0.00000000000E+00  0.00000000000E+00 -0.13948111074E+04  0.13948111110E+04  0.10100000352E+00 0. -1.
    10030    2    1    2    0    0  0.00000000000E+00  0.00000000000E+00 -0.13270893739E+04  0.14625329198E+04  0.61468393104E+03 0.  0.
        2    1    3    3  502    0 -0.16497851737E+03 -0.25930088052E+03 -0.65865349169E+03  0.72682823278E+03  0.25500000920E-02 0.  1.
       -2    1    3    3    0  502  0.16497851737E+03  0.25930088052E+03 -0.66843588223E+03  0.73570468701E+03  0.25500000920E-02 0. -1.
</event>
<event>
 5   0  0.1483942E-01  0.8478511E+03  0.7818609E-02  0.9493226E-01
       -2   -1    0    0    0  501  0.00000000000E+00  0.00000000000E+00  0.11762604532E+03  0.11762604535E+03  0.25500000920E-02 0.  1.
        2   -1    0    0  501    0  0.00000000000E+00  0.00000000000E+00 -0.15278321625E+04  0.15278321625E+04  0.25500000920E-02 0. -1.
    10030    2    1    2    0    0  0.00000000000E+00  0.00000000000E+00 -0.14102061172E+04  0.16454582079E+04  0.84785106056E+03 0.  0.
        4    1    3    3  502    0  0.10230007542E+03  0.45630526022E+01 -0.15034647657E+04  0.15069485862E+04  0.12699999809E+01 0. -1.
       -4    1    3    3    0  502 -0.10230007542E+03 -0.45630526022E+01  0.93258648491E+02  0.13850962168E+03  0.12699999809E+01 0.  1.
</event>
<event>
 5   0  0.9177281E-02  0.5732496E+03  0.7818609E-02  0.9962513E-01
       -1   -1    0    0    0  501  0.00000000000E+00  0.00000000000E+00  0.26711628480E+03  0.26711628485E+03  0.50400001928E-02 0. -1.
        1   -1    0    0  501    0  0.00000000000E+00  0.00000000000E+00 -0.30755813224E+03  0.30755813228E+03  0.50400001928E-02 0.  1.
    10030    2    1    2    0    0  0.00000000000E+00  0.00000000000E+00 -0.40441847434E+02  0.57467441713E+03  0.57324963382E+03 0.  0.
        1    1    3    3  502    0  0.18513564655E+03 -0.21448257316E+03  0.23197273547E+02  0.28428171826E+03  0.50400001928E-02 0. -1.
       -1    1    3    3    0  502 -0.18513564655E+03  0.21448257316E+03 -0.63639120981E+02  0.29039269887E+03  0.50400001928E-02 0.  1.
</event>
<event>
 5   0  0.8860626E-02  0.6029170E+03  0.7818609E-02  0.9899373E-01
       -1   -1    0    0    0  501  0.00000000000E+00  0.00000000000E+00  0.51702893811E+02  0.51702894057E+02  0.50400001928E-02 0. -1.
        1   -1    0    0  501    0  0.00000000000E+00  0.00000000000E+00 -0.17576818695E+04  0.17576818695E+04  0.50400001928E-02 0.  1.
    10030    2    1    2    0    0  0.00000000000E+00  0.00000000000E+00 -0.17059789756E+04  0.18093847635E+04  0.60291703999E+03 0.  0.
        3    1    3    3  502    0  0.16409844912E+02  0.28014904312E+03 -0.11834385836E+04  0.12162564124E+04  0.10100000352E+00 0.  1.
       -3    1    3    3    0  502 -0.16409844912E+02 -0.28014904312E+03 -0.52254039206E+03  0.59312835113E+03  0.10100000352E+00 0. -1.
</event>
<event>
 5   0  0.1502642E-01  0.6034234E+03  0.7818609E-02  0.9898329E-01
        2   -1    0    0  501    0  0.00000000000E+00  0.00000000000E+00  0.80749083888E+03  0.80749083888E+03  0.25500000920E-02 0. -1.
       -2   -1    0    0    0  501  0.00000000000E+00  0.00000000000E+00 -0.11273185574E+03  0.11273185577E+03  0.25500000920E-02 0.  1.
    10030    2    1    2    0    0  0.00000000000E+00  0.00000000000E+00  0.69475898314E+03  0.92022269465E+03  0.60342336970E+03 0.  0.
        2    1    3    3  502    0 -0.63111161714E+02  0.24953219170E+03  0.10731563037E+03  0.27886551948E+03  0.25500000920E-02 0.  1.
       -2    1    3    3    0  502  0.63111161714E+02 -0.24953219170E+03  0.58744335277E+03  0.64135717517E+03  0.25500000920E-02 0. -1.
</event>
<event>
 5   0  0.1483942E-01  0.6021861E+03  0.7818609E-02  0.9900881E-01
       -2   -1    0    0    0  501  0.00000000000E+00  0.00000000000E+00  0.13521474721E+03  0.13521474724E+03  0.25500000920E-02 0. -1.
        2   -1    0    0  501    0  0.00000000000E+00  0.00000000000E+00 -0.67046693330E+03  0.67046693330E+03  0.25500000920E-02 0.  1.
    10030    2    1    2    0    0  0.00000000000E+00  0.00000000000E+00 -0.53525218609E+03  0.80568168054E+03  0.60218607394E+03 0.  0.
        4    1    3    3  502    0  0.11188548995E+03  0.14099373523E+03 -0.59055717680E+03  0.61737912842E+03  0.12699999809E+01 0.  1.
       -4    1    3    3    0  502 -0.11188548995E+03 -0.14099373523E+03  0.55304990715E+02  0.18830255212E+03  0.12699999809E+01 0. -1.
</event>
<event>
 5   0  0.9497860E-02  0.6766272E+03  0.7818609E-02  0.9758059E-01
       -1   -1    0    0    0  501  0.00000000000E+00  0.00000000000E+00  0.21610724299E+03  0.21610724305E+03  0.50400001928E-02 0.  1.
        1   -1    0    0  501    0  0.00000000000E+00  0.00000000000E+00 -0.52962636518E+03  0.52962636520E+03  0.50400001928E-02 0. -1.
    10030    2    1    2    0    0  0.00000000000E+00  0.00000000000E+00 -0.31351912219E+03  0.74573360825E+03  0.67662720497E+03 0.  0.
        5    1    3    3  502    0  0.27149160900E+03 -0.19162600264E+03 -0.22651500030E+03  0.40219317996E+03  0.46999998093E+01 0.  1.
       -5    1    3    3    0  502 -0.27149160900E+03  0.19162600264E+03 -0.87004121883E+02  0.34354042829E+03  0.46999998093E+01 0. -1.
</event>
<event>
 5   0  0.1483942E-01  0.5395847E+03  0.7818609E-02  0.1003934E+00
       -2   -1    0    0    0  501  0.00000000000E+00  0.00000000000E+00  0.81290408736E+02  0.81290408776E+02  0.25500000920E-02 0.  1.
        2   -1    0    0  501    0  0.00000000000E+00  0.00000000000E+00 -0.89540588419E+03  0.89540588420E+03  0.25500000920E-02 0. -1.
    10030    2    1    2    0    0  0.00000000000E+00  0.00000000000E+00 -0.81411547546E+03  0.97669629297E+03  0.53958469338E+03 0.  0.
        4    1    3    3  502    0 -0.60508551814E+02  0.18342024127E+03 -0.66097187529E+02  0.20414387292E+03  0.12699999809E+01 0.  1.
       -4    1    3    3    0  502  0.60508551814E+02 -0.18342024127E+03 -0.74801828793E+03  0.77255242005E+03  0.12699999809E+01 0. -1.
</event>
<event>
 5   0  0.9420349E-02  0.5936316E+03  0.7818609E-02  0.9918707E-01
       -1   -1    0    0    0  501  0.00000000000E+00  0.00000000000E+00  0.16246792288E+03  0.16246792296E+03  0.50400001928E-02 0.  1.
        1   -1    0    0  501    0  0.00000000000E+00  0.00000000000E+00 -0.54225860286E+03  0.54225860288E+03  0.50400001928E-02 0. -1.
    10030    2    1    2    0    0  0.00000000000E+00  0.00000000000E+00 -0.37979067998E+03  0.70472652584E+03  0.59363163294E+03 0.  0.
        2    1    3    3  502    0 -0.47924518666E+02 -0.14510062460E+03  0.11218261794E+03  0.18956764102E+03  0.25500000920E-02 0.  1.
       -2    1    3    3    0  502  0.47924518666E+02  0.14510062460E+03 -0.49197329791E+03  0.51515888482E+03  0.25500000920E-02 0. -1.
</event>
<event>
 5   0  0.1488510E-01  0.6111094E+03  0.7818609E-02  0.9882622E-01
       -2   -1    0    0    0  501  0.00000000000E+00  0.00000000000E+00  0.90954754343E+02  0.90954754379E+02  0.25500000920E-02 0. -1.
        2   -1    0    0  501    0  0.00000000000E+00  0.00000000000E+00 -0.10264848686E+04  0.10264848686E+04  0.25500000920E-02 0.  1.
    10030    2    1    2    0    0  0.00000000000E+00  0.00000000000E+00 -0.93553011429E+03  0.11174396230E+04  0.61110941438E+03 0.  0.
        5    1    3    3  502    0  0.26147994238E+02  0.14857098980E+03 -0.95356768959E+03  0.96543797587E+03  0.46999998093E+01 0.  1.
       -5    1    3    3    0  502 -0.26147994238E+02 -0.14857098980E+03  0.18037575306E+02  0.15200164714E+03  0.46999998093E+01 0. -1.
</event>
<event>
 5   0  0.9420349E-02  0.5899819E+03  0.7818609E-02  0.9926411E-01
        1   -1    0    0  501    0  0.00000000000E+00  0.00000000000E+00  0.19833039453E+03  0.19833039459E+03  0.50400001928E-02 0. -1.
       -1   -1    0    0    0  501  0.00000000000E+00  0.00000000000E+00 -0.43876104148E+03  0.43876104151E+03  0.50400001928E-02 0.  1.
    10030    2    1    2    0    0  0.00000000000E+00  0.00000000000E+00 -0.24043064695E+03  0.63709143610E+03  0.58998186578E+03 0.  0.
        2    1    3    3  502    0 -0.28900600028E+03  0.56972390287E+02 -0.10316433626E+03  0.31211088051E+03  0.25500000920E-02 0. -1.
       -2    1    3    3    0  502  0.28900600028E+03 -0.56972390287E+02 -0.13726631069E+03  0.32498055558E+03  0.25500000920E-02 0.  1.
</event>
<event>
 5   0  0.1532571E-01  0.5814850E+03  0.7818609E-02  0.9944581E-01
       -2   -1    0    0    0  501  0.00000000000E+00  0.00000000000E+00  0.97231935804E+02  0.97231935837E+02  0.25500000920E-02 0. -1.
        2   -1    0    0  501    0  0.00000000000E+00  0.00000000000E+00 -0.86937684571E+03  0.86937684571E+03  0.25500000920E-02 0.  1.
    10030    2    1    2    0    0  0.00000000000E+00  0.00000000000E+00 -0.77214490990E+03  0.96660878155E+03  0.58148497373E+03 0.  0.
        1    1    3    3  502    0 -0.69450541710E+02 -0.25916741593E+03 -0.57222207674E+03  0.63200413952E+03  0.50400001928E-02 0.  1.
       -1    1    3    3    0  502  0.69450541710E+02  0.25916741593E+03 -0.19992283316E+03  0.33460464203E+03  0.50400001928E-02 0. -1.
</event>
<event>
 5   0  0.1488510E-01  0.5977994E+03  0.7818609E-02  0.9909982E-01
        2   -1    0    0  501    0  0.00000000000E+00  0.00000000000E+00  0.12313137828E+04  0.12313137828E+04  0.25500000920E-02 0.  1.
       -2   -1    0    0    0  501  0.00000000000E+00  0.00000000000E+00 -0.72557477079E+02  0.72557477124E+02  0.25500000920E-02 0. -1.
    10030    2    1    2    0    0  0.00000000000E+00  0.00000000000E+00  0.11587563057E+04  0.13038712599E+04  0.59779936970E+03 0.  0.
        5    1    3    3  502    0  0.11801452056E+03  0.17850941265E+03  0.12433444807E+03  0.24753622451E+03  0.46999998093E+01 0. -1.
       -5    1    3    3    0  502 -0.11801452056E+03 -0.17850941265E+03  0.10344218576E+04  0.10563350354E+04  0.46999998093E+01 0.  1.
</event>
<event>
 5   0  0.1502642E-01  0.5767763E+03  0.7818609E-02  0.9954795E-01
        2   -1    0    0  501    0  0.00000000000E+00  0.00000000000E+00  0.22209781367E+04  0.22209781367E+04  0.25500000920E-02 0.  1.
       -2   -1    0    0    0  501  0.00000000000E+00  0.00000000000E+00 -0.37446441803E+02  0.37446441889E+02  0.25500000920E-02 0. -1.
    10030    2    1    2    0    0  0.00000000000E+00  0.00000000000E+00  0.21835316949E+04  0.22584245786E+04  0.57677631241E+03 0.  0.
        2    1    3    3  502    0  0.54283675293E+01  0.87034027309E+02  0.21681164228E+04  0.21698693997E+04  0.25500000920E-02 0.  1.
       -2    1    3    3    0  502 -0.54283675293E+01 -0.87034027309E+02  0.15415272109E+02  0.88555178868E+02  0.25500000920E-02 0. -1.
</event>
<event>
 5   0  0.9497860E-02  0.5880015E+03  0.7818609E-02  0.9930617E-01
       -1   -1    0    0    0  501  0.00000000000E+00  0.00000000000E+00  0.20558948309E+03  0.20558948315E+03  0.50400001928E-02 0.  1.
        1   -1    0    0  501    0  0.00000000000E+00  0.00000000000E+00 -0.42043227239E+03  0.42043227242E+03  0.50400001928E-02 0. -1.
    10030    2    1    2    0    0  0.00000000000E+00  0.00000000000E+00 -0.21484278930E+03  0.62602175558E+03  0.58800154280E+03 0.  0.
        5    1    3    3  502    0  0.23138223705E+03 -0.18082929064E+03 -0.12160143605E+03  0.31787728957E+03  0.46999998093E+01 0. -1.
       -5    1    3    3    0  502 -0.23138223705E+03  0.18082929064E+03 -0.93241353255E+02  0.30814446601E+03  0.46999998093E+01 0.  1.
</event>
<event>
 5   0  0.1483942E-01  0.5995526E+03  0.7818609E-02  0.9906335E-01
        2   -1    0    0  501    0  0.00000000000E+00  0.00000000000E+00  0.89933701238E+03  0.89933701239E+03  0.25500000920E-02 0. -1.
       -2   -1    0    0    0  501  0.00000000000E+00  0.00000000000E+00 -0.99924527498E+02  0.99924527531E+02  0.25500000920E-02 0.  1.
    10030    2    1    2    0    0  0.00000000000E+00  0.00000000000E+00  0.79941248488E+03  0.99926153992E+03  0.59955258666E+03 0.  0.
        4    1    3    3  502    0  0.27652441667E+03 -0.11525564998E+03  0.38186458283E+03  0.48535738418E+03  0.12699999809E+01 0.  1.
       -4    1    3    3    0  502 -0.27652441667E+03  0.11525564998E+03  0.41754790206E+03  0.51390415573E+03  0.12699999809E+01 0. -1.
</event>
<event>
 5   0  0.1488510E-01  0.3914068E+03  0.7818609E-02  0.1046796E+00
        2   -1    0    0  501    0  0.00000000000E+00  0.00000000000E+00  0.21551498289E+03  0.21551498291E+03  0.25500000920E-02 0. -1.
       -2   -1    0    0    0  501  0.00000000000E+00  0.00000000000E+00 -0.17771307331E+03  0.17771307333E+03  0.25500000920E-02 0.  1.
    10030    2    1    2    0    0  0.00000000000E+00  0.00000000000E+00  0.37801909584E+02  0.39322805624E+03  0.39140684696E+03 0.  0.
        5    1    3    3  502    0 -0.74546554251E+02  0.14508396016E+03  0.12743694027E+03  0.20704783986E+03  0.46999998093E+01 0. -1.
       -5    1    3    3    0  502  0.74546554251E+02 -0.14508396016E+03 -0.89635030685E+02  0.18618021638E+03  0.46999998093E+01 0.  1.
</event>
<event>
 5   0  0.9411028E-02  0.6044589E+03  0.7818609E-02  0.9896198E-01
        1   -1    0    0  501    0  0.00000000000E+00  0.00000000000E+00  0.14495896468E+03  0.14495896477E+03  0.50400001928E-02 0. -1.
       -1   -1    0    0    0  501  0.00000000000E+00  0.00000000000E+00 -0.63012752442E+03  0.63012752445E+03  0.50400001928E-02 0.  1.
    10030    2    1    2    0    0  0.00000000000E+00  0.00000000000E+00 -0.48516855974E+03  0.77508648922E+03  0.60445887735E+03 0.  0.
        4    1    3    3  502    0 -0.29432498292E+03 -0.13588092876E+02 -0.32888086725E+03  0.44156094662E+03  0.12699999809E+01 0.  1.
       -4    1    3    3    0  502  0.29432498292E+03  0.13588092876E+02 -0.15628769249E+03  0.33352554260E+03  0.12699999809E+01 0. -1.
</event>
<event>
 5   0  0.6170500E-02  0.5968790E+03  0.7818609E-02  0.9911902E-01
        4   -1    0    0  501    0  0.00000000000E+00  0.00000000000E+00  0.83627162904E+03  0.83627259338E+03  0.12699999809E+01 0. -1.
       -4   -1    0    0    0  501  0.00000000000E+00  0.00000000000E+00 -0.10649900927E+03  0.10650658137E+03  0.12699999809E+01 0.  1.
    10030    2    1    2    0    0  0.00000000000E+00  0.00000000000E+00  0.72977261977E+03  0.94277917475E+03  0.59687896241E+03 0.  0.
        2    1    3    3  502    0 -0.13161918107E+03 -0.23661891254E+03  0.16663356782E+03  0.31792902436E+03  0.25500000920E-02 0.  1.
       -2    1    3    3    0  502  0.13161918107E+03  0.23661891254E+03  0.56313905196E+03  0.62485015039E+03  0.25500000920E-02 0. -1.
</event>
<event>
 5   0  0.1488510E-01  0.5949636E+03  0.7818609E-02  0.9915910E-01
        2   -1    0    0  501    0  0.00000000000E+00  0.00000000000E+00  0.21458413296E+04  0.21458413296E+04  0.25500000920E-02 0. -1.
       -2   -1    0    0    0  501  0.00000000000E+00  0.00000000000E+00 -0.41240433563E+02  0.41240433641E+02  0.25500000920E-02 0.  1.
    10030    2    1    2    0    0  0.00000000000E+00  0.00000000000E+00  0.21046008961E+04  0.21870817633E+04  0.59496361865E+03 0.  0.
        5    1    3    3  502    0  0.29930760911E+02 -0.22107445176E+02 -0.32514425859E+02  0.49637359600E+02  0.46999998093E+01 0.  1.
       -5    1    3    3    0  502 -0.29930760911E+02  0.22107445176E+02  0.21371153219E+04  0.21374444037E+04  0.46999998093E+01 0. -1.
</event>
<event>
 5   0  0.9177281E-02  0.6036357E+03  0.7818609E-02  0.9897892E-01
       -1   -1    0    0    0  501  0.00000000000E+00  0.00000000000E+00  0.19804621845E+03  0.19804621851E+03  0.50400001928E-02 0.  1.
        1   -1    0    0  501    0  0.00000000000E+00  0.00000000000E+00 -0.45996339576E+03  0.45996339579E+03  0.50400001928E-02 0. -1.
    10030    2    1    2    0    0  0.00000000000E+00  0.00000000000E+00 -0.26191717732E+03  0.65800961430E+03  0.60363568875E+03 0.  0.
        1    1    3    3  502    0 -0.15348055157E+03 -0.46460235524E+02 -0.40968431664E+03  0.43995007958E+03  0.50400001928E-02 0. -1.
       -1    1    3    3    0  502  0.15348055157E+03  0.46460235524E+02  0.14776713932E+03  0.21805953472E+03  0.50400001928E-02 0.  1.
</event>
<event>
 5   0  0.1532571E-01  0.5937110E+03  0.7818609E-02  0.9918540E-01
       -2   -1    0    0    0  501  0.00000000000E+00  0.00000000000E+00  0.18145289292E+03  0.18145289294E+03  0.25500000920E-02 0.  1.
        2   -1    0    0  501    0  0.00000000000E+00  0.00000000000E+00 -0.48565329516E+03  0.48565329517E+03  0.25500000920E-02 0. -1.
    10030    2    1    2    0    0  0.00000000000E+00  0.00000000000E+00 -0.30420040224E+03  0.66710618810E+03  0.59371102523E+03 0.  0.
        1    1    3    3  502    0  0.15861758061E+03  0.48937805495E+02 -0.42863141470E+03  0.45965131935E+03  0.50400001928E-02 0. -1.
       -1    1    3    3    0  502 -0.15861758061E+03 -0.48937805495E+02  0.12443101246E+03  0.20745486876E+03  0.50400001928E-02 0.  1.
</event>
<event>
 5   0  0.9411028E-02  0.6046420E+03  0.7818609E-02  0.9895822E-01
        1   -1    0    0  501    0  0.00000000000E+00  0.00000000000E+00  0.12809304237E+04  0.12809304237E+04  0.50400001928E-02 0. -1.
       -1   -1    0    0    0  501  0.00000000000E+00  0.00000000000E+00 -0.71352809611E+02  0.71352809789E+02  0.50400001928E-02 0.  1.
    10030    2    1    2    0    0  0.00000000000E+00  0.00000000000E+00  0.12095776141E+04  0.13522832335E+04  0.60464199250E+03 0.  0.
        4    1    3    3  502    0 -0.28077129286E+03  0.11208775440E+03  0.60575928411E+03  0.67700967996E+03  0.12699999809E+01 0.  1.
       -4    1    3    3    0  502  0.28077129286E+03 -0.11208775440E+03  0.60381832997E+03  0.67527355353E+03  0.12699999809E+01 0. -1.
</event>
<event>
 5   0  0.1532571E-01  0.3457024E+03  0.7818609E-02  0.1064393E+00
       -2   -1    0    0    0  501  0.00000000000E+00  0.00000000000E+00  0.15067806002E+02  0.15067806218E+02  0.25500000920E-02 0.  1.
        2   -1    0    0  501    0  0.00000000000E+00  0.00000000000E+00 -0.19828728554E+04  0.19828728554E+04  0.25500000920E-02 0. -1.
    10030    2    1    2    0    0  0.00000000000E+00  0.00000000000E+00 -0.19678050494E+04  0.19979406616E+04  0.34570243696E+03 0.  0.
        1    1    3    3  502    0  0.15142613279E+03 -0.55992695875E+02 -0.13407514461E+04  0.13504367797E+04  0.50400001928E-02 0. -1.
       -1    1    3    3    0  502 -0.15142613279E+03  0.55992695875E+02 -0.62705360324E+03  0.64750388188E+03  0.50400001928E-02 0.  1.
</event>
<event>
 5   0  0.1532571E-01  0.5952055E+03  0.7818609E-02  0.9915403E-01
       -2   -1    0    0    0  501  0.00000000000E+00  0.00000000000E+00  0.17408437856E+03  0.17408437857E+03  0.25500000920E-02 0. -1.
        2   -1    0    0  501    0  0.00000000000E+00  0.00000000000E+00 -0.50876123413E+03  0.50876123413E+03  0.25500000920E-02 0.  1.
    10030    2    1    2    0    0  0.00000000000E+00  0.00000000000E+00 -0.33467685557E+03  0.68284561271E+03  0.59520545456E+03 0.  0.
        1    1    3    3  502    0 -0.25112719690E+03  0.11902658044E+02 -0.35003796458E+03  0.43096765419E+03  0.50400001928E-02 0.  1.
       -1    1    3    3    0  502  0.25112719690E+03 -0.11902658044E+02  0.15361109004E+02  0.25187795852E+03  0.50400001928E-02 0. -1.
</event>
<event>
 5   0  0.1488510E-01  0.4855003E+03  0.7818609E-02  0.1017634E+00
       -2   -1    0    0    0  501  0.00000000000E+00  0.00000000000E+00  0.88821590976E+03  0.88821590977E+03  0.25500000920E-02 0.  1.
        2   -1    0    0  501    0  0.00000000000E+00  0.00000000000E+00 -0.66343810830E+02  0.66343810879E+02  0.25500000920E-02 0. -1.
    10030    2    1    2    0    0  0.00000000000E+00  0.00000000000E+00  0.82187209893E+03  0.95455972064E+03  0.48550027114E+03 0.  0.
        5    1    3    3  502    0 -0.16948008453E+03 -0.12940911783E+03  0.63883253455E+03  0.67349782184E+03  0.46999998093E+01 0.  1.
       -5    1    3    3    0  502  0.16948008453E+03  0.12940911783E+03  0.18303956438E+03  0.28106189880E+03  0.46999998093E+01 0. -1.
</event>
<event>
 5   0  0.1513339E-01  0.5636019E+03  0.7818609E-02  0.9983938E-01
       -2   -1    0    0    0  501  0.00000000000E+00  0.00000000000E+00  0.67260227668E+02  0.67260227716E+02  0.25500000920E-02 0.  1.
        2   -1    0    0  501    0  0.00000000000E+00  0.00000000000E+00 -0.11806644744E+04  0.11806644745E+04  0.25500000920E-02 0. -1.
    10030    2    1    2    0    0  0.00000000000E+00  0.00000000000E+00 -0.11134042468E+04  0.12479247022E+04  0.56360185018E+03 0.  0.
        3    1    3    3  502    0  0.35392330793E+02 -0.21094590241E+03 -0.96293888599E+03  0.98640868771E+03  0.10100000352E+00 0. -1.
       -3    1    3    3    0  502 -0.35392330793E+02  0.21094590241E+03 -0.15046536079E+03  0.26151601446E+03  0.10100000352E+00 0.  1.
</event>
<event>
 5   0  0.9420349E-02  0.5739880E+03  0.7818609E-02  0.9960892E-01
        1   -1    0    0  501    0  0.00000000000E+00  0.00000000000E+00  0.33178584689E+03  0.33178584692E+03  0.50400001928E-02 0.  1.
       -1   -1    0    0    0  501  0.00000000000E+00  0.00000000000E+00 -0.24824912263E+03  0.24824912269E+03  0.50400001928E-02 0. -1.
    10030    2    1    2    0    0  0.00000000000E+00  0.00000000000E+00  0.83536724251E+02  0.58003496961E+03  0.57398796300E+03 0.  0.
        2    1    3    3  502    0 -0.33896039550E+01 -0.21760133224E+02 -0.24739400744E+03  0.24837227651E+03  0.25500000920E-02 0. -1.
       -2    1    3    3    0  502  0.33896039550E+01  0.21760133224E+02  0.33093073169E+03  0.33166269310E+03  0.25500000920E-02 0.  1.
</event>
<event>
 5   0  0.8860626E-02  0.6181071E+03  0.7818609E-02  0.9868536E-01
       -1   -1    0    0    0  501  0.00000000000E+00  0.00000000000E+00  0.86368492716E+02  0.86368492863E+02  0.50400001928E-02 0. -1.
        1   -1    0    0  501    0  0.00000000000E+00  0.00000000000E+00 -0.11058906894E+04  0.11058906894E+04  0.50400001928E-02 0.  1.
    10030    2    1    2    0    0  0.00000000000E+00  0.00000000000E+00 -0.10195221967E+04  0.11922591823E+04  0.61810714944E+03 0.  0.
        3    1    3    3  502    0 -0.24981425918E+03  0.15087860166E+03 -0.31359612436E+03  0.42838540585E+03  0.10100000352E+00 0. -1.
       -3    1    3    3    0  502  0.24981425918E+03 -0.15087860166E+03 -0.70592607234E+03  0.76387377644E+03  0.10100000352E+00 0.  1.
</event>
<event>
 5   0  0.9497860E-02  0.3702082E+03  0.7818609E-02  0.1054613E+00
       -1   -1    0    0    0  501  0.00000000000E+00  0.00000000000E+00  0.94228760348E+02  0.94228760482E+02  0.50400001928E-02 0. -1.
        1   -1    0    0  501    0  0.00000000000E+00  0.00000000000E+00 -0.36362065390E+03  0.36362065393E+03  0.50400001928E-02 0.  1.
    10030    2    1    2    0    0  0.00000000000E+00  0.00000000000E+00 -0.26939189355E+03  0.45784941442E+03  0.37020817653E+03 0.  0.
        5    1    3    3  502    0  0.90980004935E+02 -0.15254134626E+03 -0.19890155306E+03  0.26670234612E+03  0.46999998093E+01 0. -1.
       -5    1    3    3    0  502 -0.90980004935E+02  0.15254134626E+03 -0.70490340493E+02  0.19114706830E+03  0.46999998093E+01 0.  1.
</event>
<event>
 5   0  0.6170500E-02  0.6063125E+03  0.7818609E-02  0.9892395E-01
       -3   -1    0    0    0  501  0.00000000000E+00  0.00000000000E+00  0.87422196010E+03  0.87422196593E+03  0.10100000352E+00 0. -1.
        3   -1    0    0  501    0  0.00000000000E+00  0.00000000000E+00 -0.10512626616E+03  0.10512631468E+03  0.10100000352E+00 0.  1.
    10030    2    1    2    0    0  0.00000000000E+00  0.00000000000E+00  0.76909569394E+03  0.97934828061E+03  0.60631251702E+03 0.  0.
        4    1    3    3  502    0  0.25805507295E+03 -0.13812040317E+03  0.25703040120E+03  0.38953293377E+03  0.12699999809E+01 0.  1.
       -4    1    3    3    0  502 -0.25805507295E+03  0.13812040317E+03  0.51206529274E+03  0.58981534684E+03  0.12699999809E+01 0. -1.
</event>
<event>
 5   0  0.9420349E-02  0.5185586E+03  0.7818609E-02  0.1009045E+00
       -1   -1    0    0    0  501  0.00000000000E+00  0.00000000000E+00  0.75349990415E+02  0.75349990583E+02  0.50400001928E-02 0.  1.
        1   -1    0    0  501    0  0.00000000000E+00  0.00000000000E+00 -0.89218011368E+03  0.89218011370E+03  0.50400001928E-02 0. -1.
    10030    2    1    2    0    0  0.00000000000E+00  0.00000000000E+00 -0.81683012327E+03  0.96753010428E+03  0.51855862967E+03 0.  0.
        2    1    3    3  502    0 -0.10101304115E+03  0.11115598029E+02  0.36643648131E+02  0.10802753333E+03  0.25500000920E-02 0.  1.
       -2    1    3    3    0  502  0.10101304115E+03 -0.11115598029E+02 -0.85347377140E+03  0.85950257095E+03  0.25500000920E-02 0. -1.
</event>
<event>
 5   0  0.6170500E-02  0.5887443E+03  0.7818609E-02  0.9929037E-01
       -3   -1    0    0    0  501  0.00000000000E+00  0.00000000000E+00  0.25017495136E+03  0.25017497175E+03  0.10100000352E+00 0.  1.
        3   -1    0    0  501    0  0.00000000000E+00  0.00000000000E+00 -0.34637735583E+03  0.34637737055E+03  0.10100000352E+00 0. -1.
    10030    2    1    2    0    0  0.00000000000E+00  0.00000000000E+00 -0.96202404469E+02  0.59655234230E+03  0.58874425218E+03 0.  0.
        5    1    3    3  502    0  0.11799787998E+03 -0.61808013956E+01 -0.32125227550E+03  0.34232560013E+03  0.46999998093E+01 0. -1.
       -5    1    3    3    0  502 -0.11799787998E+03  0.61808013956E+01  0.22504987103E+03  0.25422674218E+03  0.46999998093E+01 0.  1.
</event>
<event>
 5   0  0.9177281E-02  0.5967036E+03  0.7818609E-02  0.9912269E-01
        1   -1    0    0  501    0  0.00000000000E+00  0.00000000000E+00  0.37753212642E+03  0.37753212646E+03  0.50400001928E-02 0. -1.
       -1   -1    0    0    0  501  0.00000000000E+00  0.00000000000E+00 -0.23577810128E+03  0.23577810133E+03  0.50400001928E-02 0.  1.
    10030    2    1    2    0    0  0.00000000000E+00  0.00000000000E+00  0.14175402514E+03  0.61331022779E+03  0.59670363822E+03 0.  0.
        1    1    3    3  502    0 -0.15205031341E+02 -0.29587897242E+03  0.10704509234E+03  0.31501462048E+03  0.50400001928E-02 0.  1.
       -1    1    3    3    0  502  0.15205031341E+02  0.29587897242E+03  0.34708932806E+02  0.29829560731E+03  0.50400001928E-02 0. -1.
</event>
<event>
 5   0  0.1483942E-01  0.5608663E+03  0.7818609E-02  0.9990096E-01
        2   -1    0    0  501    0  0.00000000000E+00  0.00000000000E+00  0.23816816309E+04  0.23816816310E+04  0.25500000920E-02 0.  1.
       -2   -1    0    0    0  501  0.00000000000E+00  0.00000000000E+00 -0.33019847059E+02  0.33019847157E+02  0.25500000920E-02 0. -1.
    10030    2    1    2    0    0  0.00000000000E+00  0.00000000000E+00  0.23486617839E+04  0.24147014781E+04  0.56086634171E+03 0.  0.
        4    1    3    3  502    0 -0.10882037775E+03 -0.79974702665E+02  0.22324498228E+04  0.22365311650E+04  0.12699999809E+01 0.  1.
       -4    1    3    3    0  502  0.10882037775E+03  0.79974702665E+02  0.11621196107E+03  0.17817031311E+03  0.12699999809E+01 0. -1.
</event>
<event>
 5   0  0.8860626E-02  0.6025620E+03  0.7818609E-02  0.9900105E-01
       -1   -1    0    0    0  501  0.00000000000E+00  0.00000000000E+00  0.23279353274E+03  0.23279353280E+03  0.50400001928E-02 0.  1.
        1   -1    0    0  501    0  0.00000000000E+00  0.00000000000E+00 -0.38991736962E+03  0.38991736965E+03  0.50400001928E-02 0. -1.
    10030    2    1    2    0    0  0.00000000000E+00  0.00000000000E+00 -0.15712383688E+03  0.62271090245E+03  0.60256200338E+03 0.  0.
        3    1    3    3  502    0 -0.26886773206E+03  0.13281842142E+03 -0.10850742337E+03  0.31891136941E+03  0.10100000352E+00 0. -1.
       -3    1    3    3    0  502  0.26886773206E+03 -0.13281842142E+03 -0.48616413502E+02  0.30379953304E+03  0.10100000352E+00 0.  1.
</event>
<event>
 5   0  0.1502642E-01  0.6061838E+03  0.7818609E-02  0.9892659E-01
        2   -1    0    0  501    0  0.00000000000E+00  0.00000000000E+00  0.93592433732E+03  0.93592433732E+03  0.25500000920E-02 0.  1.
       -2   -1    0    0    0  501  0.00000000000E+00  0.00000000000E+00 -0.98153971028E+02  0.98153971061E+02  0.25500000920E-02 0. -1.
    10030    2    1    2    0    0  0.00000000000E+00  0.00000000000E+00  0.83777036629E+03  0.10340783084E+04  0.60618376853E+03 0.  0.
        2    1    3    3  502    0 -0.16264653718E+03 -0.13519421832E+03  0.48534517464E+02  0.21699532741E+03  0.25500000920E-02 0. -1.
       -2    1    3    3    0  502  0.16264653718E+03  0.13519421832E+03  0.78923584883E+03  0.81708298098E+03  0.25500000920E-02 0.  1.
</event>
<event>
 5   0  0.9497860E-02  0.5681698E+03  0.7818609E-02  0.9973737E-01
        1   -1    0    0  501    0  0.00000000000E+00  0.00000000000E+00  0.37773581973E+03  0.37773581976E+03  0.50400001928E-02 0.  1.
       -1   -1    0    0    0  501  0.00000000000E+00  0.00000000000E+00 -0.21365255166E+03  0.21365255172E+03  0.50400001928E-02 0. -1.
    10030    2    1    2    0    0  0.00000000000E+00  0.00000000000E+00  0.16408326807E+03  0.59138837148E+03  0.56816976957E+03 0.  0.
        5    1    3    3  502    0  0.20791021197E+03  0.15258598304E+03 -0.41873813301E+02  0.26131330755E+03  0.46999998093E+01 0. -1.
       -5    1    3    3    0  502 -0.20791021197E+03 -0.15258598304E+03  0.20595708137E+03  0.33007506393E+03  0.46999998093E+01 0.  1.
</event>
<event>
 5   0  0.1483942E-01  0.6173886E+03  0.7818609E-02  0.9869973E-01
       -2   -1    0    0    0  501  0.00000000000E+00  0.00000000000E+00  0.10818901167E+03  0.10818901170E+03  0.25500000920E-02 0.  1.
        2   -1    0    0  501    0  0.00000000000E+00  0.00000000000E+00 -0.88079345329E+03  0.88079345329E+03  0.25500000920E-02 0. -1.
    10030    2    1    2    0    0  0.00000000000E+00  0.00000000000E+00 -0.77260444162E+03  0.98898246499E+03  0.61738860765E+03 0.  0.
        4    1    3    3  502    0  0.20925044011E+03  0.70697254447E+02 -0.40850152375E+02  0.22462011558E+03  0.12699999809E+01 0.  1.
       -4    1    3    3    0  502 -0.20925044011E+03 -0.70697254447E+02 -0.73175428924E+03  0.76436234941E+03  0.12699999809E+01 0. -1.
</event>
<event>
 5   0  0.1532571E-01  0.6135566E+03  0.7818609E-02  0.9877673E-01
        2   -1    0    0  501    0  0.00000000000E+00  0.00000000000E+00  0.44352661477E+03  0.44352661478E+03  0.25500000920E-02 0.  1.
       -2   -1    0    0    0  501  0.00000000000E+00  0.00000000000E+00 -0.21219230053E+03  0.21219230055E+03  0.25500000920E-02 0. -1.
    10030    2    1    2    0    0  0.00000000000E+00  0.00000000000E+00  0.23133431424E+03  0.65571891533E+03  0.61355662410E+03 0.  0.
        1    1    3    3  502    0 -0.75765310243E+01 -0.94399991987E+02 -0.19617908987E+03  0.21784168022E+03  0.50400001928E-02 0. -1.
       -1    1    3    3    0  502  0.75765310243E+01  0.94399991987E+02  0.42751340411E+03  0.43787723511E+03  0.50400001928E-02 0.  1.
</event>
<event>
 5   0  0.1532571E-01  0.5842383E+03  0.7818609E-02  0.9938657E-01
       -2   -1    0    0    0  501  0.00000000000E+00  0.00000000000E+00  0.57765497974E+02  0.57765498030E+02  0.25500000920E-02 0.  1.
        2   -1    0    0  501    0  0.00000000000E+00  0.00000000000E+00 -0.14772415535E+04  0.14772415535E+04  0.25500000920E-02 0. -1.
    10030    2    1    2    0    0  0.00000000000E+00  0.00000000000E+00 -0.14194760556E+04  0.15350070516E+04  0.58423828704E+03 0.  0.
        1    1    3    3  502    0  0.29190350859E+03  0.11211741242E+02 -0.71100494069E+03  0.76867508558E+03  0.50400001928E-02 0. -1.
       -1    1    3    3    0  502 -0.29190350859E+03 -0.11211741242E+02 -0.70847111486E+03  0.76633196598E+03  0.50400001928E-02 0.  1.
</event>
<event>
 5   0  0.9420349E-02  0.6295711E+03  0.7818609E-02  0.9845886E-01
       -1   -1    0    0    0  501  0.00000000000E+00  0.00000000000E+00  0.15452952743E+03  0.15452952751E+03  0.50400001928E-02 0. -1.
        1   -1    0    0  501    0  0.00000000000E+00  0.00000000000E+00 -0.64123635858E+03  0.64123635860E+03  0.50400001928E-02 0.  1.
    10030    2    1    2    0    0  0.00000000000E+00  0.00000000000E+00 -0.48670683115E+03  0.79576588611E+03  0.62957112863E+03 0.  0.
        2    1    3    3  502    0 -0.77492233511E+02 -0.91287501544E+02  0.12461810170E+03  0.17282397250E+03  0.25500000920E-02 0. -1.
       -2    1    3    3    0  502  0.77492233511E+02  0.91287501544E+02 -0.61132493285E+03  0.62294191360E+03  0.25500000920E-02 0.  1.
</event>
<event>
 5   0  0.1483942E-01  0.5958969E+03  0.7818609E-02  0.9913955E-01
       -2   -1    0    0    0  501  0.00000000000E+00  0.00000000000E+00  0.55610620682E+02  0.55610620741E+02  0.25500000920E-02 0. -1.
        2   -1    0    0  501    0  0.00000000000E+00  0.00000000000E+00 -0.15963368300E+04  0.15963368300E+04  0.25500000920E-02 0.  1.
    10030    2    1    2    0    0  0.00000000000E+00  0.00000000000E+00 -0.15407262093E+04  0.16519474507E+04  0.59589691049E+03 0.  0.
        4    1    3    3  502    0 -0.17369199611E+03 -0.43601200679E+02 -0.14304834445E+04  0.14416499132E+04  0.12699999809E+01 0.  1.
       -4    1    3    3    0  502  0.17369199611E+03  0.43601200679E+02 -0.11024276479E+03  0.21029753756E+03  0.12699999809E+01 0. -1.
</event>
<event>
 5   0  0.1483942E-01  0.6058274E+03  0.7818609E-02  0.9893389E-01
        2   -1    0    0  501    0  0.00000000000E+00  0.00000000000E+00  0.41953639744E+03  0.41953639745E+03  0.25500000920E-02 0. -1.
       -2   -1    0    0    0  501  0.00000000000E+00  0.00000000000E+00 -0.21870974201E+03  0.21870974202E+03  0.25500000920E-02 0.  1.
    10030    2    1    2    0    0  0.00000000000E+00  0.00000000000E+00  0.20082665544E+03  0.63824613948E+03  0.60582735909E+03 0.  0.
        4    1    3    3  502    0  0.92560861055E+02  0.20632895519E+03  0.31273167978E+03  0.38592987341E+03  0.12699999809E+01 0. -1.
       -4    1    3    3    0  502 -0.92560861055E+02 -0.20632895519E+03 -0.11190502434E+03  0.25231626607E+03  0.12699999809E+01 0.  1.
</event>
<event>
 5   0  0.6170500E-02  0.6032900E+03  0.7818609E-02  0.9898604E-01
        4   -1    0    0  501    0  0.00000000000E+00  0.00000000000E+00  0.74033875783E+02  0.74044767968E+02  0.12699999809E+01 0.  1.
       -4   -1    0    0    0  501  0.00000000000E+00  0.00000000000E+00 -0.12289265227E+04  0.12289271790E+04  0.12699999809E+01 0. -1.
    10030    2    1    2    0    0  0.00000000000E+00  0.00000000000E+00 -0.11548926470E+04  0.13029719469E+04  0.60329003679E+03 0.  0.
        2    1    3    3  502    0  0.50275164753E+02 -0.14511273910E+03 -0.11381754214E+04  0.11484896992E+04  0.25500000920E-02 0. -1.
       -2    1    3    3    0  502 -0.50275164753E+02  0.14511273910E+03 -0.16717225585E+02  0.15448224778E+03  0.25500000920E-02 0.  1.
</event>
<event>
 5   0  0.1483942E-01  0.5968001E+03  0.7818609E-02  0.9912067E-01
        2   -1    0    0  501    0  0.00000000000E+00  0.00000000000E+00  0.43788068724E+03  0.43788068724E+03  0.25500000920E-02 0.  1.
       -2   -1    0    0    0  501  0.00000000000E+00  0.00000000000E+00 -0.20334897003E+03  0.20334897005E+03  0.25500000920E-02 0. -1.
    10030    2    1    2    0    0  0.00000000000E+00  0.00000000000E+00  0.23453171720E+03  0.64122965729E+03  0.59680008966E+03 0.  0.
        4    1    3    3  502    0  0.14664674474E+02 -0.44666134171E+02 -0.19934205522E+03  0.20481451145E+03  0.12699999809E+01 0. -1.
       -4    1    3    3    0  502 -0.14664674474E+02  0.44666134171E+02  0.43387377243E+03  0.43641514584E+03  0.12699999809E+01 0.  1.
</event>
<event>
 5   0  0.8860626E-02  0.5777870E+03  0.7818609E-02  0.9952594E-01
       -1   -1    0    0    0  501  0.00000000000E+00  0.00000000000E+00  0.19178075850E+03  0.19178075857E+03  0.50400001928E-02 0. -1.
        1   -1    0    0  501    0  0.00000000000E+00  0.00000000000E+00 -0.43518155611E+03  0.43518155614E+03  0.50400001928E-02 0.  1.
    10030    2    1    2    0    0  0.00000000000E+00  0.00000000000E+00 -0.24340079761E+03  0.62696231471E+03  0.57778698132E+03 0.  0.
        3    1    3    3  502    0 -0.22741973841E+03  0.56851843987E+02 -0.30491234089E+03  0.38460813228E+03  0.10100000352E+00 0.  1.
       -3    1    3    3    0  502  0.22741973841E+03 -0.56851843987E+02  0.61511543283E+02  0.24235418243E+03  0.10100000352E+00 0. -1.
</event>
<event>
 5   0  0.8860626E-02  0.5625114E+03  0.7818609E-02  0.9986388E-01
       -1   -1    0    0    0  501  0.00000000000E+00  0.00000000000E+00  0.96535757929E+02  0.96535758060E+02  0.50400001928E-02 0.  1.
        1   -1    0    0  501    0  0.00000000000E+00  0.00000000000E+00 -0.81943491173E+03  0.81943491174E+03  0.50400001928E-02 0. -1.
    10030    2    1    2    0    0  0.00000000000E+00  0.00000000000E+00 -0.72289915380E+03  0.91597066980E+03  0.56251140555E+03 0.  0.
        3    1    3    3  502    0 -0.20625076349E+03 -0.42862703725E+02 -0.57996746656E+02  0.21849535839E+03  0.10100000352E+00 0.  1.
       -3    1    3    3    0  502  0.20625076349E+03  0.42862703725E+02 -0.66490240714E+03  0.69747531142E+03  0.10100000352E+00 0. -1.
</event>
<event>
 5   0  0.8860626E-02  0.5983796E+03  0.7818609E-02  0.9908774E-01
       -1   -1    0    0    0  501  0.00000000000E+00  0.00000000000E+00  0.38623955040E+03  0.38623955043E+03  0.50400001928E-02 0.  1.
        1   -1    0    0  501    0  0.00000000000E+00  0.00000000000E+00 -0.23175908429E+03  0.23175908434E+03  0.50400001928E-02 0. -1.
    10030    2    1    2    0    0  0.00000000000E+00  0.00000000000E+00  0.15448046611E+03  0.61799863477E+03  0.59837956029E+03 0.  0.
        3    1    3    3  502    0 -0.23114982543E+03 -0.18780264428E+03  0.10671430499E+03  0.31636692002E+03  0.10100000352E+00 0. -1.
       -3    1    3    3    0  502  0.23114982543E+03  0.18780264428E+03  0.47766161114E+02  0.30163171475E+03  0.10100000352E+00 0.  1.
</event>
<event>
 5   0  0.6170500E-02  0.6059685E+03  0.7818609E-02  0.9893100E-01
       -4   -1    0    0    0  501  0.00000000000E+00  0.00000000000E+00  0.53918454521E+03  0.53918604089E+03  0.12699999809E+01 0. -1.
        4   -1    0    0  501    0  0.00000000000E+00  0.00000000000E+00 -0.17025201554E+03  0.17025675228E+03  0.12699999809E+01 0.  1.
    10030    2    1    2    0    0  0.00000000000E+00  0.00000000000E+00  0.36893252966E+03  0.70944279317E+03  0.60596853494E+03 0.  0.
        4    1    3    3  502    0  0.55323782229E+02 -0.87706955941E+02 -0.14882920371E+03  0.18139728713E+03  0.12699999809E+01 0.  1.
       -4    1    3    3    0  502 -0.55323782229E+02  0.87706955941E+02  0.51776173338E+03  0.52804550604E+03  0.12699999809E+01 0. -1.
</event>
<event>
 5   0  0.1513339E-01  0.6128962E+03  0.7818609E-02  0.9879006E-01
       -2   -1    0    0    0  501  0.00000000000E+00  0.00000000000E+00  0.34075236670E+03  0.34075236671E+03  0.25500000920E-02 0. -1.
        2   -1    0    0  501    0  0.00000000000E+00  0.00000000000E+00 -0.27559729577E+03  0.27559729578E+03  0.25500000920E-02 0.  1.
    10030    2    1    2    0    0  0.00000000000E+00  0.00000000000E+00  0.65155070930E+02  0.61634966249E+03  0.61289617651E+03 0.  0.
        3    1    3    3  502    0  0.21205449907E+03  0.44428833356E+02 -0.18536786336E+03  0.28513555860E+03  0.10100000352E+00 0.  1.
       -3    1    3    3    0  502 -0.21205449907E+03 -0.44428833356E+02  0.25052293429E+03  0.33121410389E+03  0.10100000352E+00 0. -1.
</event>
<event>
 5   0  0.1488510E-01  0.5387620E+03  0.7818609E-02  0.1004129E+00
       -2   -1    0    0    0  501  0.00000000000E+00  0.00000000000E+00  0.41089444047E+02  0.41089444126E+02  0.25500000920E-02 0. -1.
        2   -1    0    0  501    0  0.00000000000E+00  0.00000000000E+00 -0.17660527019E+04  0.17660527019E+04  0.25500000920E-02 0.  1.
    10030    2    1    2    0    0  0.00000000000E+00  0.00000000000E+00 -0.17249632578E+04  0.18071421460E+04  0.53876200219E+03 0.  0.
        5    1    3    3  502    0 -0.79629843631E+02 -0.14175060576E+03 -0.14221650240E+03  0.21605964404E+03  0.46999998093E+01 0. -1.
       -5    1    3    3    0  502  0.79629843631E+02  0.14175060576E+03 -0.15827467554E+04  0.15910825019E+04  0.46999998093E+01 0.  1.
</event>
<event>
 5   0  0.1502642E-01  0.5682676E+03  0.7818609E-02  0.9973520E-01
        2   -1    0    0  501    0  0.00000000000E+00  0.00000000000E+00  0.47907577935E+03  0.47907577935E+03  0.25500000920E-02 0. -1.
       -2   -1    0    0    0  501  0.00000000000E+00  0.00000000000E+00 -0.16851615613E+03  0.16851615615E+03  0.25500000920E-02 0.  1.
    10030    2    1    2    0    0  0.00000000000E+00  0.00000000000E+00  0.31055962322E+03  0.64759193550E+03  0.56826757373E+03 0.  0.
        2    1    3    3  502    0  0.21631398025E+03 -0.18383472300E+03  0.14155423891E+03  0.31721372289E+03  0.25500000920E-02 0. -1.
       -2    1    3    3    0  502 -0.21631398025E+03  0.18383472300E+03  0.16900538431E+03  0.33037821261E+03  0.25500000920E-02 0.  1.
</event>
<event>
 5   0  0.9420349E-02  0.5221205E+03  0.7818609E-02  0.1008161E+00
       -1   -1    0    0    0  501  0.00000000000E+00  0.00000000000E+00  0.67160545276E+02  0.67160545466E+02  0.50400001928E-02 0.  1.
        1   -1    0    0  501    0  0.00000000000E+00  0.00000000000E+00 -0.10147692661E+04  0.10147692661E+04  0.50400001928E-02 0. -1.
    10030    2    1    2    0    0  0.00000000000E+00  0.00000000000E+00 -0.94760872079E+03  0.10819298115E+04  0.52212051233E+03 0.  0.
        2    1    3    3  502    0  0.45673961462E+02 -0.23885863825E+03 -0.67052981088E+03  0.71326698165E+03  0.25500000920E-02 0. -1.
       -2    1    3    3    0  502 -0.45673961462E+02  0.23885863825E+03 -0.27707890991E+03  0.36866282990E+03  0.25500000920E-02 0.  1.
</event>
<event>
 5   0  0.1532571E-01  0.3931826E+03  0.7818609E-02  0.1046166E+00
       -2   -1    0    0    0  501  0.00000000000E+00  0.00000000000E+00  0.93435581244E+02  0.93435581279E+02  0.25500000920E-02 0. -1.
        2   -1    0    0  501    0  0.00000000000E+00  0.00000000000E+00 -0.41363397863E+03  0.41363397864E+03  0.25500000920E-02 0.  1.
    10030    2    1    2    0    0  0.00000000000E+00  0.00000000000E+00 -0.32019839738E+03  0.50706955991E+03  0.39318255926E+03 0.  0.
        1    1    3    3  502    0 -0.62477476788E+02 -0.35274658393E+02 -0.39614607408E+03  0.40259091975E+03  0.50400001928E-02 0.  1.
       -1    1    3    3    0  502  0.62477476788E+02  0.35274658393E+02  0.75947676694E+02  0.10447864017E+03  0.50400001928E-02 0. -1.
</event>
<event>
 5   0  0.9497860E-02  0.6027673E+03  0.7818609E-02  0.9899681E-01
       -1   -1    0    0    0  501  0.00000000000E+00  0.00000000000E+00  0.14441086551E+03  0.14441086559E+03  0.50400001928E-02 0. -1.
        1   -1    0    0  501    0  0.00000000000E+00  0.00000000000E+00 -0.62898386753E+03  0.62898386755E+03  0.50400001928E-02 0.  1.
    10030    2    1    2    0    0  0.00000000000E+00  0.00000000000E+00 -0.48457300202E+03  0.77339473314E+03  0.60276730084E+03 0.  0.
        5    1    3    3  502    0  0.19143633598E+03  0.18730401567E+03 -0.41951489826E+03  0.49774039909E+03  0.46999998093E+01 0.  1.
       -5    1    3    3    0  502 -0.19143633598E+03 -0.18730401567E+03 -0.65058103758E+02  0.27565433405E+03  0.46999998093E+01 0. -1.
</event>
<event>
 5   0  0.6170500E-02  0.5948959E+03  0.7818609E-02  0.9916052E-01
       -4   -1    0    0    0  501  0.00000000000E+00  0.00000000000E+00  0.21557071745E+03  0.21557445841E+03  0.12699999809E+01 0.  1.
        4   -1    0    0  501    0  0.00000000000E+00  0.00000000000E+00 -0.41041519302E+03  0.41041715798E+03  0.12699999809E+01 0. -1.
    10030    2    1    2    0    0  0.00000000000E+00  0.00000000000E+00 -0.19484447557E+03  0.62599161639E+03  0.59489590193E+03 0.  0.
        2    1    3    3  502    0  0.78617936486E+02  0.20490696271E+03  0.11383968418E+03  0.24723898763E+03  0.25500000920E-02 0.  1.
       -2    1    3    3    0  502 -0.78617936486E+02 -0.20490696271E+03 -0.30868415975E+03  0.37875262876E+03  0.25500000920E-02 0. -1.
</event>
<event>
 5   0  0.9177281E-02  0.6044632E+03  0.7818609E-02  0.9896189E-01
       -1   -1    0    0    0  501  0.00000000000E+00  0.00000000000E+00  0.32494430380E+03  0.32494430384E+03  0.50400001928E-02 0. -1.
        1   -1    0    0  501    0  0.00000000000E+00  0.00000000000E+00 -0.28110647195E+03  0.28110647200E+03  0.50400001928E-02 0.  1.
    10030    2    1    2    0    0  0.00000000000E+00  0.00000000000E+00  0.43837831851E+02  0.60605077584E+03  0.60446322253E+03 0.  0.
        1    1    3    3  502    0 -0.28884158700E+03  0.50382053723E+02  0.95433606869E+02  0.30834296986E+03  0.50400001928E-02 0.  1.
       -1    1    3    3    0  502  0.28884158700E+03 -0.50382053723E+02 -0.51595775017E+02  0.29770780598E+03  0.50400001928E-02 0. -1.
</event>
<event>
 5   0  0.6170500E-02  0.5989321E+03  0.7818609E-02  0.9907624E-01
        3   -1    0    0  501    0  0.00000000000E+00  0.00000000000E+00  0.23484435904E+03  0.23484438076E+03  0.10100000352E+00 0. -1.
       -3   -1    0    0    0  501  0.00000000000E+00  0.00000000000E+00 -0.38186954530E+03  0.38186955865E+03  0.10100000352E+00 0.  1.
    10030    2    1    2    0    0  0.00000000000E+00  0.00000000000E+00 -0.14702518626E+03  0.61671393941E+03  0.59893211441E+03 0.  0.
        4    1    3    3  502    0  0.44759800604E+02  0.19792105826E+03 -0.30028307969E+03  0.36241926811E+03  0.12699999809E+01 0.  1.
       -4    1    3    3    0  502 -0.44759800604E+02 -0.19792105826E+03  0.15325789343E+03  0.25429467130E+03  0.12699999809E+01 0. -1.
</event>
<event>
 5   0  0.9177281E-02  0.6436013E+03  0.7818609E-02  0.9818860E-01
       -1   -1    0    0    0  501  0.00000000000E+00  0.00000000000E+00  0.71853102438E+03  0.71853102440E+03  0.50400001928E-02 0.  1.
        1   -1    0    0  501    0  0.00000000000E+00  0.00000000000E+00 -0.14412136460E+03  0.14412136469E+03  0.50400001928E-02 0. -1.
    10030    2    1    2    0    0  0.00000000000E+00  0.00000000000E+00  0.57440965978E+03  0.86265238909E+03  0.64360134178E+03 0.  0.
        1    1    3    3  502    0  0.29467738981E+03  0.38143520007E+02  0.12159686240E+03  0.32105371693E+03  0.50400001928E-02 0. -1.
       -1    1    3    3    0  502 -0.29467738981E+03 -0.38143520007E+02  0.45281279739E+03  0.54159867216E+03  0.50400001928E-02 0.  1.
</event>
<event>
 5   0  0.9420349E-02  0.5968775E+03  0.7818609E-02  0.9911905E-01
       -1   -1    0    0    0  501  0.00000000000E+00  0.00000000000E+00  0.10938614215E+04  0.10938614215E+04  0.50400001928E-02 0.  1.
        1   -1    0    0  501    0  0.00000000000E+00  0.00000000000E+00 -0.81423191934E+02  0.81423192090E+02  0.50400001928E-02 0. -1.
    10030    2    1    2    0    0  0.00000000000E+00  0.00000000000E+00  0.10124382296E+04  0.11752846136E+04  0.59687750359E+03 0.  0.
        2    1    3    3  502    0 -0.67074581009E+02  0.22669812401E+03  0.86486100351E+03  0.89659109646E+03  0.25500000920E-02 0.  1.
       -2    1    3    3    0  502  0.67074581009E+02 -0.22669812401E+03  0.14757722608E+03  0.27869351717E+03  0.25500000920E-02 0. -1.
</event>
<event>
 5   0  0.8860626E-02  0.6053515E+03  0.7818609E-02  0.9894365E-01
        1   -1    0    0  501    0  0.00000000000E+00  0.00000000000E+00  0.88933569448E+03  0.88933569450E+03  0.50400001928E-02 0. -1.
       -1   -1    0    0    0  501  0.00000000000E+00  0.00000000000E+00 -0.10301240233E+03  0.10301240245E+03  0.50400001928E-02 0.  1.
    10030    2    1    2    0    0  0.00000000000E+00  0.00000000000E+00  0.78632329215E+03  0.99234809695E+03  0.60535148942E+03 0.  0.
        3    1    3    3  502    0  0.24334697278E+03  0.21034546984E+02  0.10013431235E+03  0.26398312832E+03  0.10100000352E+00 0.  1.
       -3    1    3    3    0  502 -0.24334697278E+03 -0.21034546984E+02  0.68618897980E+03  0.72836496863E+03  0.10100000352E+00 0. -1.
</event>
<event>
 5   0  0.9411028E-02  0.6192185E+03  0.7818609E-02  0.9866317E-01
       -1   -1    0    0    0  501  0.00000000000E+00  0.00000000000E+00  0.16381285251E+03  0.16381285258E+03  0.50400001928E-02 0.  1.
        1   -1    0    0  501    0  0.00000000000E+00  0.00000000000E+00 -0.58516699671E+03  0.58516699674E+03  0.50400001928E-02 0. -1.
    10030    2    1    2    0    0  0.00000000000E+00  0.00000000000E+00 -0.42135414421E+03  0.74897984932E+03  0.61921845890E+03 0.  0.
        4    1    3    3  502    0 -0.21435073463E+03  0.51213769201E+02 -0.47370261254E+03  0.52246039622E+03  0.12699999809E+01 0. -1.
       -4    1    3    3    0  502  0.21435073463E+03 -0.51213769201E+02  0.52348468333E+02  0.22651945310E+03  0.12699999809E+01 0.  1.
</event>
<event>
 5   0  0.6170500E-02  0.6135138E+03  0.7818609E-02  0.9877759E-01
       -4   -1    0    0    0  501  0.00000000000E+00  0.00000000000E+00  0.23245639791E+03  0.23245986714E+03  0.12699999809E+01 0. -1.
        4   -1    0    0  501    0  0.00000000000E+00  0.00000000000E+00 -0.40479870169E+03  0.40480069391E+03  0.12699999809E+01 0.  1.
    10030    2    1    2    0    0  0.00000000000E+00  0.00000000000E+00 -0.17234230378E+03  0.63726056105E+03  0.61351377572E+03 0.  0.
        1    1    3    3  502    0 -0.22726398834E+03 -0.12522083969E+02 -0.29978649265E+03  0.37640093542E+03  0.50400001928E-02 0.  1.
       -1    1    3    3    0  502  0.22726398834E+03  0.12522083969E+02  0.12744418887E+03  0.26085962563E+03  0.50400001928E-02 0. -1.
</event>
<event>
 5   0  0.1502642E-01  0.5986403E+03  0.7818609E-02  0.9908231E-01
       -2   -1    0    0    0  501  0.00000000000E+00  0.00000000000E+00  0.12018963678E+03  0.12018963681E+03  0.25500000920E-02 0.  1.
        2   -1    0    0  501    0  0.00000000000E+00  0.00000000000E+00 -0.74542663900E+03  0.74542663900E+03  0.25500000920E-02 0. -1.
    10030    2    1    2    0    0  0.00000000000E+00  0.00000000000E+00 -0.62523700222E+03  0.86561627581E+03  0.59864031605E+03 0.  0.
        2    1    3    3  502    0 -0.88057809466E+02 -0.20496432436E+03 -0.24046807525E+02  0.22437201480E+03  0.25500000920E-02 0.  1.
       -2    1    3    3    0  502  0.88057809466E+02  0.20496432436E+03 -0.60119019469E+03  0.64124426100E+03  0.25500000920E-02 0. -1.
</event>
<event>
 5   0  0.9420349E-02  0.6229124E+03  0.7818609E-02  0.9858978E-01
        1   -1    0    0  501    0  0.00000000000E+00  0.00000000000E+00  0.21880697557E+03  0.21880697563E+03  0.50400001928E-02 0. -1.
       -1   -1    0    0    0  501  0.00000000000E+00  0.00000000000E+00 -0.44333582477E+03  0.44333582480E+03  0.50400001928E-02 0.  1.
    10030    2    1    2    0    0  0.00000000000E+00  0.00000000000E+00 -0.22452884920E+03  0.66214280043E+03  0.62291242084E+03 0.  0.
        2    1    3    3  502    0 -0.10389270210E+03  0.43582222025E+02 -0.42091637430E+03  0.43573351694E+03  0.25500000920E-02 0.  1.
       -2    1    3    3    0  502  0.10389270210E+03 -0.43582222025E+02  0.19638752510E+03  0.22640928349E+03  0.25500000920E-02 0. -1.
</event>
<event>
 5   0  0.8860626E-02  0.6238376E+03  0.7818609E-02  0.9857149E-01
        1   -1    0    0  501    0  0.00000000000E+00  0.00000000000E+00  0.31600867633E+03  0.31600867637E+03  0.50400001928E-02 0. -1.
       -1   -1    0    0    0  501  0.00000000000E+00  0.00000000000E+00 -0.30788188516E+03  0.30788188520E+03  0.50400001928E-02 0.  1.
    10030    2    1    2    0    0  0.00000000000E+00  0.00000000000E+00  0.81267911711E+01  0.62389056158E+03  0.62383762959E+03 0.  0.
        3    1    3    3  502    0 -0.39301549225E+02 -0.71807404601E+02  0.30507468391E+03  0.31586625032E+03  0.10100000352E+00 0. -1.
       -3    1    3    3    0  502  0.39301549225E+02  0.71807404601E+02 -0.29694789274E+03  0.30802431126E+03  0.10100000352E+00 0.  1.
</event>
<event>
 5   0  0.9497860E-02  0.5748925E+03  0.7818609E-02  0.9958910E-01
        1   -1    0    0  501    0  0.00000000000E+00  0.00000000000E+00  0.18548703791E+04  0.18548703791E+04  0.50400001928E-02 0.  1.
       -1   -1    0    0    0  501  0.00000000000E+00  0.00000000000E+00 -0.44545081007E+02  0.44545081292E+02  0.50400001928E-02 0. -1.
    10030    2    1    2    0    0  0.00000000000E+00  0.00000000000E+00  0.18103252981E+04  0.18994154604E+04  0.57489251716E+03 0.  0.
        5    1    3    3  502    0  0.36276574617E+02  0.16858068094E+03  0.14548554459E+03  0.22566251247E+03  0.46999998093E+01 0. -1.
       -5    1    3    3    0  502 -0.36276574617E+02 -0.16858068094E+03  0.16648397535E+04  0.16737529479E+04  0.46999998093E+01 0.  1.
</event>
<event>
 5   0  0.1513339E-01  0.5332427E+03  0.7818609E-02  0.1005449E+00
        2   -1    0    0  501    0  0.00000000000E+00  0.00000000000E+00  0.83736570138E+03  0.83736570138E+03  0.25500000920E-02 0.  1.
       -2   -1    0    0    0  501  0.00000000000E+00  0.00000000000E+00 -0.84893539967E+02  0.84893540005E+02  0.25500000920E-02 0. -1.
    10030    2    1    2    0    0  0.00000000000E+00  0.00000000000E+00  0.75247216141E+03  0.92225924139E+03  0.53324267892E+03 0.  0.
        3    1    3    3  502    0  0.24987128397E+03  0.84126382211E+02  0.44485335685E+03  0.51711451927E+03  0.10100000352E+00 0.  1.
       -3    1    3    3    0  502 -0.24987128397E+03 -0.84126382211E+02  0.30761880456E+03  0.40514472212E+03  0.10100000352E+00 0. -1.
</event>
<event>
 5   0  0.1513339E-01  0.5950450E+03  0.7818609E-02  0.9915740E-01
       -2   -1    0    0    0  501  0.00000000000E+00  0.00000000000E+00  0.10238144840E+03  0.10238144844E+03  0.25500000920E-02 0.  1.
        2   -1    0    0  501    0  0.00000000000E+00  0.00000000000E+00 -0.86460612685E+03  0.86460612685E+03  0.25500000920E-02 0. -1.
    10030    2    1    2    0    0  0.00000000000E+00  0.00000000000E+00 -0.76222467844E+03  0.96698757529E+03  0.59504496496E+03 0.  0.
        3    1    3    3  502    0  0.16105926984E+02  0.16664312666E+03  0.18569047910E+02  0.16844628903E+03  0.10100000352E+00 0.  1.
       -3    1    3    3    0  502 -0.16105926984E+02 -0.16664312666E+03 -0.78079372635E+03  0.79854128626E+03  0.10100000352E+00 0. -1.
</event>
<event>
 5   0  0.1483942E-01  0.6499298E+03  0.7818609E-02  0.9806911E-01
       -2   -1    0    0    0  501  0.00000000000E+00  0.00000000000E+00  0.12852587842E+03  0.12852587844E+03  0.25500000920E-02 0.  1.
        2   -1    0    0  501    0  0.00000000000E+00  0.00000000000E+00 -0.82164139669E+03  0.82164139670E+03  0.25500000920E-02 0. -1.
    10030    2    1    2    0    0  0.00000000000E+00  0.00000000000E+00 -0.69311551828E+03  0.95016727514E+03  0.64992978780E+03 0.  0.
        4    1    3    3  502    0 -0.74913217990E+02 -0.40177326970E+02  0.11197945698E+03  0.14059594417E+03  0.12699999809E+01 0.  1.
       -4    1    3    3    0  502  0.74913217990E+02  0.40177326970E+02 -0.80509497526E+03  0.80957133097E+03  0.12699999809E+01 0. -1.
</event>
<event>
 5   0  0.1513339E-01  0.5988586E+03  0.7818609E-02  0.9907777E-01
       -2   -1    0    0    0  501  0.00000000000E+00  0.00000000000E+00  0.39394213787E+03  0.39394213788E+03  0.25500000920E-02 0. -1.
        2   -1    0    0  501    0  0.00000000000E+00  0.00000000000E+00 -0.22759153290E+03  0.22759153291E+03  0.25500000920E-02 0.  1.
    10030    2    1    2    0    0  0.00000000000E+00  0.00000000000E+00  0.16635060498E+03  0.62153367080E+03  0.59885856440E+03 0.  0.
        3    1    3    3  502    0 -0.10866466583E+03 -0.25551976199E+03 -0.33137368487E+02  0.27963628835E+03  0.10100000352E+00 0.  1.
       -3    1    3    3    0  502  0.10866466583E+03  0.25551976199E+03  0.19948797346E+03  0.34189738245E+03  0.10100000352E+00 0. -1.
</event>
<event>
 5   0  0.1532571E-01  0.6203153E+03  0.7818609E-02  0.9864132E-01
       -2   -1    0    0    0  501  0.00000000000E+00  0.00000000000E+00  0.20638094391E+03  0.20638094393E+03  0.25500000920E-02 0. -1.
        2   -1    0    0  501    0  0.00000000000E+00  0.00000000000E+00 -0.46611742683E+03  0.46611742684E+03  0.25500000920E-02 0.  1.
    10030    2    1    2    0    0  0.00000000000E+00  0.00000000000E+00 -0.25973648292E+03  0.67249837076E+03  0.62031525704E+03 0.  0.
        1    1    3    3  502    0 -0.20156463413E+03  0.17571774286E+03 -0.30022654489E+03  0.40204602370E+03  0.50400001928E-02 0.  1.
       -1    1    3    3    0  502  0.20156463413E+03 -0.17571774286E+03  0.40490061965E+02  0.27045234707E+03  0.50400001928E-02 0. -1.
</event>
<event>
 5   0  0.1513339E-01  0.5843366E+03  0.7818609E-02  0.9938446E-01
       -2   -1    0    0    0  501  0.00000000000E+00  0.00000000000E+00  0.44934191183E+02  0.44934191256E+02  0.25500000920E-02 0. -1.
        2   -1    0    0  501    0  0.00000000000E+00  0.00000000000E+00 -0.18997185823E+04  0.18997185823E+04  0.25500000920E-02 0.  1.
    10030    2    1    2    0    0  0.00000000000E+00  0.00000000000E+00 -0.18547843911E+04  0.19446527735E+04  0.58433660861E+03 0.  0.
        3    1    3    3  502    0 -0.23620802819E+03  0.16048899907E+03 -0.11328481605E+04  0.11682876000E+04  0.10100000352E+00 0.  1.
       -3    1    3    3    0  502  0.23620802819E+03 -0.16048899907E+03 -0.72193623056E+03  0.77636517349E+03  0.10100000352E+00 0. -1.
</event>
<event>
 5   0  0.1488510E-01  0.6383574E+03  0.7818609E-02  0.9828874E-01
        2   -1    0    0  501    0  0.00000000000E+00  0.00000000000E+00  0.10023398307E+04  0.10023398307E+04  0.25500000920E-02 0.  1.
       -2   -1    0    0    0  501  0.00000000000E+00  0.00000000000E+00 -0.10163721303E+03  0.10163721306E+03  0.25500000920E-02 0. -1.
    10030    2    1    2    0    0  0.00000000000E+00  0.00000000000E+00  0.90070261766E+03  0.11039770438E+04  0.63835735108E+03 0.  0.
        5    1    3    3  502    0 -0.18394192397E+03 -0.26004010982E+03  0.48482880255E+03  0.58011770175E+03  0.46999998093E+01 0.  1.
       -5    1    3    3    0  502  0.18394192397E+03  0.26004010982E+03  0.41587381511E+03  0.52385934200E+03  0.46999998093E+01 0. -1.
</event>
<event>
 5   0  0.8860626E-02  0.5891481E+03  0.7818609E-02  0.9928180E-01
       -1   -1    0    0    0  501  0.00000000000E+00  0.00000000000E+00  0.11440597910E+03  0.11440597921E+03  0.50400001928E-02 0.  1.
        1   -1    0    0  501    0  0.00000000000E+00  0.00000000000E+00 -0.75847317407E+03  0.75847317409E+03  0.50400001928E-02 0. -1.
    10030    2    1    2    0    0  0.00000000000E+00  0.00000000000E+00 -0.64406719497E+03  0.87287915330E+03  0.58914808379E+03 0.  0.
        3    1    3    3  502    0 -0.84928050475E+02 -0.10709325236E+02  0.95572415147E+02  0.12830261160E+03  0.10100000352E+00 0.  1.
       -3    1    3    3    0  502  0.84928050475E+02  0.10709325236E+02 -0.73963961011E+03  0.74457654170E+03  0.10100000352E+00 0. -1.
</event>
<event>
 5   0  0.6170500E-02  0.5936322E+03  0.7818609E-02  0.9918706E-01
       -3   -1    0    0    0  501  0.00000000000E+00  0.00000000000E+00  0.26402907912E+03  0.26402909844E+03  0.10100000352E+00 0. -1.
        3   -1    0    0  501    0  0.00000000000E+00  0.00000000000E+00 -0.33367450688E+03  0.33367452216E+03  0.10100000352E+00 0.  1.
    10030    2    1    2    0    0  0.00000000000E+00  0.00000000000E+00 -0.69645427755E+02  0.59770362060E+03  0.59363215249E+03 0.  0.
        4    1    3    3  502    0  0.67181060542E+02  0.17025450813E+03  0.20044262226E+03  0.27143829898E+03  0.12699999809E+01 0. -1.
       -4    1    3    3    0  502 -0.67181060542E+02 -0.17025450813E+03 -0.27008805002E+03  0.32626532162E+03  0.12699999809E+01 0.  1.
</event>
<event>
 5   0  0.9177281E-02  0.5424030E+03  0.7818609E-02  0.1003268E+00
       -1   -1    0    0    0  501  0.00000000000E+00  0.00000000000E+00  0.31493445243E+03  0.31493445247E+03  0.50400001928E-02 0. -1.
        1   -1    0    0  501    0  0.00000000000E+00  0.00000000000E+00 -0.23354143355E+03  0.23354143360E+03  0.50400001928E-02 0.  1.
    10030    2    1    2    0    0  0.00000000000E+00  0.00000000000E+00  0.81393018879E+02  0.54847588607E+03  0.54240296282E+03 0.  0.
        1    1    3    3  502    0  0.13333489491E+03 -0.33530569200E+02 -0.19568942367E+03  0.23915861648E+03  0.50400001928E-02 0.  1.
       -1    1    3    3    0  502 -0.13333489491E+03  0.33530569200E+02  0.27708244255E+03  0.30931726959E+03  0.50400001928E-02 0. -1.
</event>
<event>
 5   0  0.8860626E-02  0.6027497E+03  0.7818609E-02  0.9899718E-01
       -1   -1    0    0    0  501  0.00000000000E+00  0.00000000000E+00  0.54818352723E+02  0.54818352954E+02  0.50400001928E-02 0. -1.
        1   -1    0    0  501    0  0.00000000000E+00  0.00000000000E+00 -0.16568685596E+04  0.16568685596E+04  0.50400001928E-02 0.  1.
    10030    2    1    2    0    0  0.00000000000E+00  0.00000000000E+00 -0.16020502069E+04  0.17116869126E+04  0.60274971695E+03 0.  0.
        3    1    3    3  502    0  0.24909961175E+03 -0.14948186260E+03 -0.57328556750E+03  0.64269105792E+03  0.10100000352E+00 0. -1.
       -3    1    3    3    0  502 -0.24909961175E+03  0.14948186260E+03 -0.10287646394E+04  0.10689958546E+04  0.10100000352E+00 0.  1.
</event>
<event>
 5   0  0.9411028E-02  0.5951794E+03  0.7818609E-02  0.9915458E-01
        1   -1    0    0  501    0  0.00000000000E+00  0.00000000000E+00  0.16562622243E+04  0.16562622243E+04  0.50400001928E-02 0. -1.
       -1   -1    0    0    0  501  0.00000000000E+00  0.00000000000E+00 -0.53469566603E+02  0.53469566840E+02  0.50400001928E-02 0.  1.
    10030    2    1    2    0    0  0.00000000000E+00  0.00000000000E+00  0.16027926577E+04  0.17097317912E+04  0.59517937977E+03 0.  0.
        4    1    3    3  502    0  0.12432393242E+03  0.26592038302E+03  0.66102124509E+03  0.72327089644E+03  0.12699999809E+01 0. -1.
       -4    1    3    3    0  502 -0.12432393242E+03 -0.26592038302E+03  0.94177141263E+03  0.98646089472E+03  0.12699999809E+01 0.  1.
</event>
<event>
 5   0  0.9420349E-02  0.5909093E+03  0.7818609E-02  0.9924448E-01
       -1   -1    0    0    0  501  0.00000000000E+00  0.00000000000E+00  0.80879538677E+03  0.80879538679E+03  0.50400001928E-02 0.  1.
        1   -1    0    0  501    0  0.00000000000E+00  0.00000000000E+00 -0.10793018525E+03  0.10793018537E+03  0.50400001928E-02 0. -1.
    10030    2    1    2    0    0  0.00000000000E+00  0.00000000000E+00  0.70086520152E+03  0.91672557216E+03  0.59090925187E+03 0.  0.
        2    1    3    3  502    0  0.29363701926E+03  0.32463884117E+02  0.34406756363E+03  0.45349651730E+03  0.25500000920E-02 0.  1.
       -2    1    3    3    0  502 -0.29363701926E+03 -0.32463884117E+02  0.35679763788E+03  0.46322905485E+03  0.25500000920E-02 0. -1.
</event>
<event>
 5   0  0.1483942E-01  0.6106655E+03  0.7818609E-02  0.9883522E-01
        2   -1    0    0  501    0  0.00000000000E+00  0.00000000000E+00  0.97970616793E+03  0.97970616793E+03  0.25500000920E-02 0. -1.
       -2   -1    0    0    0  501  0.00000000000E+00  0.00000000000E+00 -0.95159239876E+02  0.95159239910E+02  0.25500000920E-02 0.  1.
    10030    2    1    2    0    0  0.00000000000E+00  0.00000000000E+00  0.88454692805E+03  0.10748654078E+04  0.61066551978E+03 0.  0.
        4    1    3    3  502    0 -0.20122724906E+03  0.72526603651E+02  0.58761911465E+02  0.22182670971E+03  0.12699999809E+01 0.  1.
       -4    1    3    3    0  502  0.20122724906E+03 -0.72526603651E+02  0.82578501659E+03  0.85303869814E+03  0.12699999809E+01 0. -1.
</event>
<event>
 5   0  0.1488510E-01  0.5916213E+03  0.7818609E-02  0.9922943E-01
       -2   -1    0    0    0  501  0.00000000000E+00  0.00000000000E+00  0.13927926908E+03  0.13927926910E+03  0.25500000920E-02 0.  1.
        2   -1    0    0  501    0  0.00000000000E+00  0.00000000000E+00 -0.62826259520E+03  0.62826259521E+03  0.25500000920E-02 0. -1.
    10030    2    1    2    0    0  0.00000000000E+00  0.00000000000E+00 -0.48898332612E+03  0.76754186431E+03  0.59162134870E+03 0.  0.
        5    1    3    3  502    0 -0.21674258129E+03 -0.16990208435E+03 -0.10453496594E+03  0.29460772887E+03  0.46999998093E+01 0.  1.
       -5    1    3    3    0  502  0.21674258129E+03  0.16990208435E+03 -0.38444836019E+03  0.47293413543E+03  0.46999998093E+01 0. -1.
</event>
<event>
 5   0  0.9411028E-02  0.6354795E+03  0.7818609E-02  0.9834414E-01
       -1   -1    0    0    0  501  0.00000000000E+00  0.00000000000E+00  0.13502300827E+03  0.13502300837E+03  0.50400001928E-02 0. -1.
        1   -1    0    0  501    0  0.00000000000E+00  0.00000000000E+00 -0.74771357807E+03  0.74771357809E+03  0.50400001928E-02 0.  1.
    10030    2    1    2    0    0  0.00000000000E+00  0.00000000000E+00 -0.61269056979E+03  0.88273658645E+03  0.63547946210E+03 0.  0.
        4    1    3    3  502    0 -0.94776066536E+02  0.45802399733E+02 -0.72278566228E+03  0.73041158884E+03  0.12699999809E+01 0.  1.
       -4    1    3    3    0  502  0.94776066536E+02 -0.45802399733E+02  0.11009509249E+03  0.15232499762E+03  0.12699999809E+01 0. -1.
</event>
<event>
 5   0  0.1513339E-01  0.6047385E+03  0.7818609E-02  0.9895624E-01
        2   -1    0    0  501    0  0.00000000000E+00  0.00000000000E+00  0.69882980064E+03  0.69882980065E+03  0.25500000920E-02 0. -1.
       -2   -1    0    0    0  501  0.00000000000E+00  0.00000000000E+00 -0.13082894968E+03  0.13082894970E+03  0.25500000920E-02 0.  1.
    10030    2    1    2    0    0  0.00000000000E+00  0.00000000000E+00  0.56800085097E+03  0.82965875035E+03  0.60473851815E+03 0.  0.
        3    1    3    3  502    0  0.12274962606E+03 -0.95181609776E+02 -0.71909319861E+02  0.17116649795E+03  0.10100000352E+00 0.  1.
       -3    1    3    3    0  502 -0.12274962606E+03  0.95181609776E+02  0.63991017083E+03  0.65849225240E+03  0.10100000352E+00 0. -1.
</event>
<event>
 5   0  0.1532571E-01  0.6101930E+03  0.7818609E-02  0.9884482E-01
        2   -1    0    0  501    0  0.00000000000E+00  0.00000000000E+00  0.39086697536E+03  0.39086697536E+03  0.25500000920E-02 0. -1.
       -2   -1    0    0    0  501  0.00000000000E+00  0.00000000000E+00 -0.23814723168E+03  0.23814723169E+03  0.25500000920E-02 0.  1.
    10030    2    1    2    0    0  0.00000000000E+00  0.00000000000E+00  0.15271974368E+03  0.62901420706E+03  0.61019304533E+03 0.  0.
        1    1    3    3  502    0 -0.26244974145E+03 -0.38579546843E+02  0.23172576600E+03  0.35222873090E+03  0.50400001928E-02 0. -1.
       -1    1    3    3    0  502  0.26244974145E+03  0.38579546843E+02 -0.79006022323E+02  0.27678547615E+03  0.50400001928E-02 0.  1.
</event>
<event>
 5   0  0.6170500E-02  0.6655481E+03  0.7818609E-02  0.9778034E-01
       -3   -1    0    0    0  501  0.00000000000E+00  0.00000000000E+00  0.18056091460E+04  0.18056091489E+04  0.10100000352E+00 0. -1.
        3   -1    0    0  501    0  0.00000000000E+00  0.00000000000E+00 -0.61330268843E+02  0.61330352007E+02  0.10100000352E+00 0.  1.
    10030    2    1    2    0    0  0.00000000000E+00  0.00000000000E+00  0.17442788772E+04  0.18669395009E+04  0.66554811883E+03 0.  0.
        1    1    3    3  502    0 -0.16868945803E+03 -0.27364951216E+03  0.11134182989E+04  0.11588962409E+04  0.50400001928E-02 0. -1.
       -1    1    3    3    0  502  0.16868945803E+03  0.27364951216E+03  0.63086057824E+03  0.70804325995E+03  0.50400001928E-02 0.  1.
</event>
<event>
 5   0  0.1502642E-01  0.6212677E+03  0.7818609E-02  0.9862239E-01
        2   -1    0    0  501    0  0.00000000000E+00  0.00000000000E+00  0.99162404903E+03  0.99162404904E+03  0.25500000920E-02 0. -1.
       -2   -1    0    0    0  501  0.00000000000E+00  0.00000000000E+00 -0.97308432585E+02  0.97308432618E+02  0.25500000920E-02 0.  1.
    10030    2    1    2    0    0  0.00000000000E+00  0.00000000000E+00  0.89431561645E+03  0.10889324817E+04  0.62126767804E+03 0.  0.
        2    1    3    3  502    0  0.72285944543E+02 -0.28223781863E+03  0.63601657139E+03  0.69957167119E+03  0.25500000920E-02 0. -1.
       -2    1    3    3    0  502 -0.72285944543E+02  0.28223781863E+03  0.25829904506E+03  0.38936081047E+03  0.25500000920E-02 0.  1.
</event>
<event>
 5   0  0.6170500E-02  0.5752107E+03  0.7818609E-02  0.9958214E-01
        4   -1    0    0  501    0  0.00000000000E+00  0.00000000000E+00  0.62870001249E+03  0.62870129521E+03  0.12699999809E+01 0. -1.
       -4   -1    0    0    0  501  0.00000000000E+00  0.00000000000E+00 -0.13156356228E+03  0.13156969187E+03  0.12699999809E+01 0.  1.
    10030    2    1    2    0    0  0.00000000000E+00  0.00000000000E+00  0.49713645021E+03  0.76027098708E+03  0.57521067764E+03 0.  0.
        2    1    3    3  502    0  0.13932108829E+03  0.49902121514E+01  0.58105936521E+03  0.59754937350E+03  0.25500000920E-02 0. -1.
       -2    1    3    3    0  502 -0.13932108829E+03 -0.49902121514E+01 -0.83922915003E+02  0.16272161359E+03  0.25500000920E-02 0.  1.
</event>
<event>
 5   0  0.9411028E-02  0.5802070E+03  0.7818609E-02  0.9947343E-01
       -1   -1    0    0    0  501  0.00000000000E+00  0.00000000000E+00  0.21128001218E+03  0.21128001224E+03  0.50400001928E-02 0.  1.
        1   -1    0    0  501    0  0.00000000000E+00  0.00000000000E+00 -0.39833412340E+03  0.39833412343E+03  0.50400001928E-02 0. -1.
    10030    2    1    2    0    0  0.00000000000E+00  0.00000000000E+00 -0.18705411121E+03  0.60961413567E+03  0.58020699228E+03 0.  0.
        4    1    3    3  502    0 -0.23643619113E+02 -0.19879470792E+02  0.20954418386E+03  0.21181263412E+03  0.12699999809E+01 0.  1.
       -4    1    3    3    0  502  0.23643619113E+02  0.19879470792E+02 -0.39659829507E+03  0.39780150155E+03  0.12699999809E+01 0. -1.
</event>
<event>
 5   0  0.1488510E-01  0.6098125E+03  0.7818609E-02  0.9885255E-01
        2   -1    0    0  501    0  0.00000000000E+00  0.00000000000E+00  0.96231235341E+03  0.96231235342E+03  0.25500000920E-02 0.  1.
       -2   -1    0    0    0  501  0.00000000000E+00  0.00000000000E+00 -0.96608768944E+02  0.96608768977E+02  0.25500000920E-02 0. -1.
    10030    2    1    2    0    0  0.00000000000E+00  0.00000000000E+00  0.86570358447E+03  0.10589211224E+04  0.60981246895E+03 0.  0.
        5    1    3    3  502    0 -0.16162765009E+03 -0.11419495679E+03  0.83555465869E+03  0.85868368046E+03  0.46999998093E+01 0.  1.
       -5    1    3    3    0  502  0.16162765009E+03  0.11419495679E+03  0.30148925781E+02  0.20023744194E+03  0.46999998093E+01 0. -1.
</event>
<event>
 5   0  0.1488510E-01  0.6940803E+03  0.7818609E-02  0.9727410E-01
        2   -1    0    0  501    0  0.00000000000E+00  0.00000000000E+00  0.67137788284E+03  0.67137788284E+03  0.25500000920E-02 0. -1.
       -2   -1    0    0    0  501  0.00000000000E+00  0.00000000000E+00 -0.17938760590E+03  0.17938760592E+03  0.25500000920E-02 0.  1.
    10030    2    1    2    0    0  0.00000000000E+00  0.00000000000E+00  0.49199027693E+03  0.85076548877E+03  0.69408031544E+03 0.  0.
        5    1    3    3  502    0  0.15263812839E+03  0.77858387258E+02 -0.12387624768E+03  0.21148934120E+03  0.46999998093E+01 0.  1.
       -5    1    3    3    0  502 -0.15263812839E+03 -0.77858387258E+02  0.61586652461E+03  0.63927614756E+03  0.46999998093E+01 0. -1.
</event>
<event>
 5   0  0.9497860E-02  0.5992609E+03  0.7818609E-02  0.9906941E-01
        1   -1    0    0  501    0  0.00000000000E+00  0.00000000000E+00  0.91421133806E+03  0.91421133808E+03  0.50400001928E-02 0. -1.
       -1   -1    0    0    0  501  0.00000000000E+00  0.00000000000E+00 -0.98203116414E+02  0.98203116544E+02  0.50400001928E-02 0.  1.
    10030    2    1    2    0    0  0.00000000000E+00  0.00000000000E+00  0.81600822165E+03  0.10124144546E+04  0.59926088653E+03 0.  0.
        5    1    3    3  502    0  0.75057979311E+02  0.21218064341E+03  0.73930772222E+02  0.23694339994E+03  0.46999998093E+01 0.  1.
       -5    1    3    3    0  502 -0.75057979311E+02 -0.21218064341E+03  0.74207744943E+03  0.77547105468E+03  0.46999998093E+01 0. -1.
</event>
<event>
 5   0  0.9411028E-02  0.6022458E+03  0.7818609E-02  0.9900758E-01
        1   -1    0    0  501    0  0.00000000000E+00  0.00000000000E+00  0.10680132004E+04  0.10680132005E+04  0.50400001928E-02 0.  1.
       -1   -1    0    0    0  501  0.00000000000E+00  0.00000000000E+00 -0.84900642429E+02  0.84900642579E+02  0.50400001928E-02 0. -1.
    10030    2    1    2    0    0  0.00000000000E+00  0.00000000000E+00  0.98311255801E+03  0.11529138430E+04  0.60224582002E+03 0.  0.
        4    1    3    3  502    0  0.13047032692E+03  0.21427365430E+03  0.17272700090E+03  0.30458485661E+03  0.12699999809E+01 0. -1.
       -4    1    3    3    0  502 -0.13047032692E+03 -0.21427365430E+03  0.81038555711E+03  0.84832898642E+03  0.12699999809E+01 0.  1.
</event>
<event>
 5   0  0.8860626E-02  0.5993412E+03  0.7818609E-02  0.9906774E-01
       -1   -1    0    0    0  501  0.00000000000E+00  0.00000000000E+00  0.87416967508E+03  0.87416967509E+03  0.50400001928E-02 0. -1.
        1   -1    0    0  501    0  0.00000000000E+00  0.00000000000E+00 -0.10272888507E+03  0.10272888520E+03  0.50400001928E-02 0.  1.
    10030    2    1    2    0    0  0.00000000000E+00  0.00000000000E+00  0.77144079000E+03  0.97689856029E+03  0.59934122552E+03 0.  0.
        3    1    3    3  502    0  0.22370006214E+03 -0.13923995002E+03  0.15307061559E+03  0.30472956050E+03  0.10100000352E+00 0.  1.
       -3    1    3    3    0  502 -0.22370006214E+03  0.13923995002E+03  0.61837017441E+03  0.67216899979E+03  0.10100000352E+00 0. -1.
</event>
<event>
 5   0  0.6170500E-02  0.4795324E+03  0.7818609E-02  0.1019264E+00
        3   -1    0    0  501    0  0.00000000000E+00  0.00000000000E+00  0.35365539300E+03  0.35365540742E+03  0.10100000352E+00 0.  1.
       -3   -1    0    0    0  501  0.00000000000E+00  0.00000000000E+00 -0.16255320509E+03  0.16255323647E+03  0.10100000352E+00 0. -1.
    10030    2    1    2    0    0  0.00000000000E+00  0.00000000000E+00  0.19110218791E+03  0.51620864389E+03  0.47953239494E+03 0.  0.
        1    1    3    3  502    0 -0.55886099316E+02 -0.14917055322E-01  0.34654623386E+03  0.35102357264E+03  0.50400001928E-02 0.  1.
       -1    1    3    3    0  502  0.55886099316E+02  0.14917055322E-01 -0.15544404595E+03  0.16518507125E+03  0.50400001928E-02 0. -1.
</event>
<event>
 5   0  0.9497860E-02  0.6158347E+03  0.7818609E-02  0.9873088E-01
        1   -1    0    0  501    0  0.00000000000E+00  0.00000000000E+00  0.15994157867E+03  0.15994157875E+03  0.50400001928E-02 0. -1.
       -1   -1    0    0    0  501  0.00000000000E+00  0.00000000000E+00 -0.59279822268E+03  0.59279822270E+03  0.50400001928E-02 0.  1.
    10030    2    1    2    0    0  0.00000000000E+00  0.00000000000E+00 -0.43285664401E+03  0.75273980145E+03  0.61583466485E+03 0.  0.
        5    1    3    3  502    0  0.13433217071E+03  0.57101974005E+02 -0.54777358498E+03  0.56690718634E+03  0.46999998093E+01 0.  1.
       -5    1    3    3    0  502 -0.13433217071E+03 -0.57101974005E+02  0.11491694097E+03  0.18583261512E+03  0.46999998093E+01 0. -1.
</event>
<event>
 5   0  0.8860626E-02  0.5958764E+03  0.7818609E-02  0.9913998E-01
        1   -1    0    0  501    0  0.00000000000E+00  0.00000000000E+00  0.21238516948E+04  0.21238516948E+04  0.50400001928E-02 0. -1.
       -1   -1    0    0    0  501  0.00000000000E+00  0.00000000000E+00 -0.41795366191E+02  0.41795366495E+02  0.50400001928E-02 0.  1.
    10030    2    1    2    0    0  0.00000000000E+00  0.00000000000E+00  0.20820563286E+04  0.21656470613E+04  0.59587636185E+03 0.  0.
        3    1    3    3  502    0 -0.84401075625E+02 -0.28369635718E+03  0.11648102152E+04  0.12018277798E+04  0.10100000352E+00 0.  1.
       -3    1    3    3    0  502  0.84401075625E+02  0.28369635718E+03  0.91724611333E+03  0.96381928143E+03  0.10100000352E+00 0. -1.
</event>
<event>
 5   0  0.9411028E-02  0.5877361E+03  0.7818609E-02  0.9931181E-01
        1   -1    0    0  501    0  0.00000000000E+00  0.00000000000E+00  0.79366055201E+03  0.79366055203E+03  0.50400001928E-02 0. -1.
       -1   -1    0    0    0  501  0.00000000000E+00  0.00000000000E+00 -0.10881030189E+03  0.10881030200E+03  0.50400001928E-02 0.  1.
    10030    2    1    2    0    0  0.00000000000E+00  0.00000000000E+00  0.68485025013E+03  0.90247085403E+03  0.58773614597E+03 0.  0.
        4    1    3    3  502    0 -0.17443441412E+03  0.15221123755E+03  0.62035211432E+03  0.66214347713E+03  0.12699999809E+01 0. -1.
       -4    1    3    3    0  502  0.17443441412E+03 -0.15221123755E+03  0.64498135806E+02  0.24032737690E+03  0.12699999809E+01 0.  1.
</event>
<event>
 5   0  0.9497860E-02  0.6039088E+03  0.7818609E-02  0.9897330E-01
        1   -1    0    0  501    0  0.00000000000E+00  0.00000000000E+00  0.14642623640E+04  0.14642623640E+04  0.50400001928E-02 0. -1.
       -1   -1    0    0    0  501  0.00000000000E+00  0.00000000000E+00 -0.62267845853E+02  0.62267846057E+02  0.50400001928E-02 0.  1.
    10030    2    1    2    0    0  0.00000000000E+00  0.00000000000E+00  0.14019945181E+04  0.15265302100E+04  0.60390881209E+03 0.  0.
        5    1    3    3  502    0 -0.10546110161E+02 -0.27495626615E+03  0.38688225048E+03  0.47477587815E+03  0.46999998093E+01 0.  1.
       -5    1    3    3    0  502  0.10546110161E+02  0.27495626615E+03  0.10151122676E+04  0.10517543319E+04  0.46999998093E+01 0. -1.
</event>
<event>
 5   0  0.1532571E-01  0.6059562E+03  0.7818609E-02  0.9893125E-01
        2   -1    0    0  501    0  0.00000000000E+00  0.00000000000E+00  0.18125882451E+04  0.18125882451E+04  0.25500000920E-02 0.  1.
       -2   -1    0    0    0  501  0.00000000000E+00  0.00000000000E+00 -0.50643451959E+02  0.50643452024E+02  0.25500000920E-02 0. -1.
    10030    2    1    2    0    0  0.00000000000E+00  0.00000000000E+00  0.17619447931E+04  0.18632316971E+04  0.60595618909E+03 0.  0.
        1    1    3    3  502    0  0.22699016136E+03  0.18777106008E+03  0.10986852551E+04  0.11374936458E+04  0.50400001928E-02 0.  1.
       -1    1    3    3    0  502 -0.22699016136E+03 -0.18777106008E+03  0.66325953798E+03  0.72573805130E+03  0.50400001928E-02 0. -1.
</event>
<event>
 5   0  0.9177281E-02  0.5958253E+03  0.7818609E-02  0.9914105E-01
       -1   -1    0    0    0  501  0.00000000000E+00  0.00000000000E+00  0.17476251376E+03  0.17476251383E+03  0.50400001928E-02 0. -1.
        1   -1    0    0  501    0  0.00000000000E+00  0.00000000000E+00 -0.50784312773E+03  0.50784312776E+03  0.50400001928E-02 0.  1.
    10030    2    1    2    0    0  0.00000000000E+00  0.00000000000E+00 -0.33308061398E+03  0.68260564159E+03  0.59582528188E+03 0.  0.
        1    1    3    3  502    0 -0.20110735491E+03  0.20592970567E+02  0.84154195446E+02  0.21897526634E+03  0.50400001928E-02 0. -1.
       -1    1    3    3    0  502  0.20110735491E+03 -0.20592970567E+02 -0.41723480942E+03  0.46363037525E+03  0.50400001928E-02 0.  1.
</event>
<event>
 5   0  0.1483942E-01  0.5731326E+03  0.7818609E-02  0.9962771E-01
       -2   -1    0    0    0  501  0.00000000000E+00  0.00000000000E+00  0.43284730567E+03  0.43284730568E+03  0.25500000920E-02 0.  1.
        2   -1    0    0  501    0  0.00000000000E+00  0.00000000000E+00 -0.18972102981E+03  0.18972102983E+03  0.25500000920E-02 0. -1.
    10030    2    1    2    0    0  0.00000000000E+00  0.00000000000E+00  0.24312627586E+03  0.62256833551E+03  0.57313257312E+03 0.  0.
        4    1    3    3  502    0 -0.38102422562E+02 -0.29301342607E+02 -0.18530786935E+03  0.19144446356E+03  0.12699999809E+01 0. -1.
       -4    1    3    3    0  502  0.38102422562E+02  0.29301342607E+02  0.42843414521E+03  0.43112387195E+03  0.12699999809E+01 0.  1.
</event>
<event>
 5   0  0.1488510E-01  0.6087272E+03  0.7818609E-02  0.9887464E-01
        2   -1    0    0  501    0  0.00000000000E+00  0.00000000000E+00  0.40867219776E+03  0.40867219777E+03  0.25500000920E-02 0.  1.
       -2   -1    0    0    0  501  0.00000000000E+00  0.00000000000E+00 -0.22667847961E+03  0.22667847962E+03  0.25500000920E-02 0. -1.
    10030    2    1    2    0    0  0.00000000000E+00  0.00000000000E+00  0.18199371815E+03  0.63535067739E+03  0.60872717190E+03 0.  0.
        5    1    3    3  502    0  0.40694251225E+01  0.46809146167E+02  0.40482574123E+03  0.40757039533E+03  0.46999998093E+01 0.  1.
       -5    1    3    3    0  502 -0.40694251225E+01 -0.46809146167E+02 -0.22283202308E+03  0.22778028206E+03  0.46999998093E+01 0. -1.
</event>
<event>
 5   0  0.6170500E-02  0.5871244E+03  0.7818609E-02  0.9932485E-01
        4   -1    0    0  501    0  0.00000000000E+00  0.00000000000E+00  0.56534080431E+03  0.56534223080E+03  0.12699999809E+01 0.  1.
       -4   -1    0    0    0  501  0.00000000000E+00  0.00000000000E+00 -0.15243257375E+03  0.15243786419E+03  0.12699999809E+01 0. -1.
    10030    2    1    2    0    0  0.00000000000E+00  0.00000000000E+00  0.41290823057E+03  0.71778009499E+03  0.58712439729E+03 0.  0.
        4    1    3    3  502    0 -0.21684468633E+03 -0.84380683773E+02 -0.12360631663E+02  0.23301526967E+03  0.12699999809E+01 0. -1.
       -4    1    3    3    0  502  0.21684468633E+03  0.84380683773E+02  0.42526886223E+03  0.48476482532E+03  0.12699999809E+01 0.  1.
</event>
<event>
 5   0  0.9177281E-02  0.5564059E+03  0.7818609E-02  0.1000022E+00
       -1   -1    0    0    0  501  0.00000000000E+00  0.00000000000E+00  0.66021636391E+02  0.66021636584E+02  0.50400001928E-02 0. -1.
        1   -1    0    0  501    0  0.00000000000E+00  0.00000000000E+00 -0.11722959079E+04  0.11722959079E+04  0.50400001928E-02 0.  1.
    10030    2    1    2    0    0  0.00000000000E+00  0.00000000000E+00 -0.11062742715E+04  0.12383175445E+04  0.55640594640E+03 0.  0.
        1    1    3    3  502    0 -0.80389642183E+02 -0.50051877885E+02 -0.11353221522E+04  0.11392647078E+04  0.50400001928E-02 0.  1.
       -1    1    3    3    0  502  0.80389642183E+02  0.50051877885E+02  0.29047880756E+02  0.99052836668E+02  0.50400001928E-02 0. -1.
</event>
<event>
 5   0  0.1502642E-01  0.5806759E+03  0.7818609E-02  0.9946329E-01
        2   -1    0    0  501    0  0.00000000000E+00  0.00000000000E+00  0.22264545406E+03  0.22264545407E+03  0.25500000920E-02 0. -1.
       -2   -1    0    0    0  501  0.00000000000E+00  0.00000000000E+00 -0.37861150120E+03  0.37861150121E+03  0.25500000920E-02 0.  1.
    10030    2    1    2    0    0  0.00000000000E+00  0.00000000000E+00 -0.15596604714E+03  0.60125695528E+03  0.58067591513E+03 0.  0.
        2    1    3    3  502    0 -0.99448037729E+02  0.18582142803E+03  0.12878598194E+03  0.24699260004E+03  0.25500000920E-02 0. -1.
       -2    1    3    3    0  502  0.99448037729E+02 -0.18582142803E+03 -0.28475202908E+03  0.35426435524E+03  0.25500000920E-02 0.  1.
</event>
<event>
 5   0  0.8860626E-02  0.5273735E+03  0.7818609E-02  0.1006871E+00
        1   -1    0    0  501    0  0.00000000000E+00  0.00000000000E+00  0.28588693527E+03  0.28588693531E+03  0.50400001928E-02 0. -1.
       -1   -1    0    0    0  501  0.00000000000E+00  0.00000000000E+00 -0.24321050206E+03  0.24321050211E+03  0.50400001928E-02 0.  1.
    10030    2    1    2    0    0  0.00000000000E+00  0.00000000000E+00  0.42676433207E+02  0.52909743742E+03  0.52737351122E+03 0.  0.
        3    1    3    3  502    0  0.15663046731E+03  0.17685903278E+03 -0.96170545141E+02  0.25507058772E+03  0.10100000352E+00 0.  1.
       -3    1    3    3    0  502 -0.15663046731E+03 -0.17685903278E+03  0.13884697835E+03  0.27402684971E+03  0.10100000352E+00 0. -1.
</event>
<event>
 5   0  0.8860626E-02  0.5974342E+03  0.7818609E-02  0.9910744E-01
        1   -1    0    0  501    0  0.00000000000E+00  0.00000000000E+00  0.91664570611E+03  0.91664570613E+03  0.50400001928E-02 0.  1.
       -1   -1    0    0    0  501  0.00000000000E+00  0.00000000000E+00 -0.97346118661E+02  0.97346118792E+02  0.50400001928E-02 0. -1.
    10030    2    1    2    0    0  0.00000000000E+00  0.00000000000E+00  0.81929958745E+03  0.10139918249E+04  0.59743418634E+03 0.  0.
        3    1    3    3  502    0 -0.16014384986E+03 -0.65713750412E+02 -0.35430975939E+01  0.17313842261E+03  0.10100000352E+00 0. -1.
       -3    1    3    3    0  502  0.16014384986E+03  0.65713750412E+02  0.82284268505E+03  0.84085340231E+03  0.10100000352E+00 0.  1.
</event>
<event>
 5   0  0.1502642E-01  0.6292121E+03  0.7818609E-02  0.9846588E-01
        2   -1    0    0  501    0  0.00000000000E+00  0.00000000000E+00  0.36070568191E+03  0.36070568192E+03  0.25500000920E-02 0.  1.
       -2   -1    0    0    0  501  0.00000000000E+00  0.00000000000E+00 -0.27439810547E+03  0.27439810548E+03  0.25500000920E-02 0. -1.
    10030    2    1    2    0    0  0.00000000000E+00  0.00000000000E+00  0.86307576448E+02  0.63510378740E+03  0.62921206522E+03 0.  0.
        2    1    3    3  502    0  0.18136253307E+03  0.13940967720E+03  0.26116121747E+03  0.34717806385E+03  0.25500000920E-02 0.  1.
       -2    1    3    3    0  502 -0.18136253307E+03 -0.13940967720E+03 -0.17485364102E+03  0.28792572355E+03  0.25500000920E-02 0. -1.
</event>
<event>
 5   0  0.8860626E-02  0.5894654E+03  0.7818609E-02  0.9927506E-01
        1   -1    0    0  501    0  0.00000000000E+00  0.00000000000E+00  0.42466941864E+03  0.42466941867E+03  0.50400001928E-02 0.  1.
       -1   -1    0    0    0  501  0.00000000000E+00  0.00000000000E+00 -0.20455292932E+03  0.20455292939E+03  0.50400001928E-02 0. -1.
    10030    2    1    2    0    0  0.00000000000E+00  0.00000000000E+00  0.22011648932E+03  0.62922234806E+03  0.58946543107E+03 0.  0.
        3    1    3    3  502    0 -0.97637006525E+02 -0.18298959819E+03  0.33358348078E+03  0.39280545686E+03  0.10100000352E+00 0.  1.
       -3    1    3    3    0  502  0.97637006525E+02  0.18298959819E+03 -0.11346699147E+03  0.23641689119E+03  0.10100000352E+00 0. -1.
</event>
<event>
 5   0  0.1513339E-01  0.6074716E+03  0.7818609E-02  0.9890025E-01
       -2   -1    0    0    0  501  0.00000000000E+00  0.00000000000E+00  0.23582568432E+03  0.23582568433E+03  0.25500000920E-02 0. -1.
        2   -1    0    0  501    0  0.00000000000E+00  0.00000000000E+00 -0.39120183340E+03  0.39120183340E+03  0.25500000920E-02 0.  1.
    10030    2    1    2    0    0  0.00000000000E+00  0.00000000000E+00 -0.15537614908E+03  0.62702751773E+03  0.60747161275E+03 0.  0.
        3    1    3    3  502    0  0.25329397932E+03  0.82556078295E+02  0.72892062343E+02  0.27620030589E+03  0.10100000352E+00 0. -1.
       -3    1    3    3    0  502 -0.25329397932E+03 -0.82556078295E+02 -0.22826821142E+03  0.35082721184E+03  0.10100000352E+00 0.  1.
</event>
<event>
 5   0  0.1513339E-01  0.6030423E+03  0.7818609E-02  0.9899114E-01
        2   -1    0    0  501    0  0.00000000000E+00  0.00000000000E+00  0.16011486327E+03  0.16011486329E+03  0.25500000920E-02 0. -1.
       -2   -1    0    0    0  501  0.00000000000E+00  0.00000000000E+00 -0.56781110088E+03  0.56781110088E+03  0.25500000920E-02 0.  1.
    10030    2    1    2    0    0  0.00000000000E+00  0.00000000000E+00 -0.40769623761E+03  0.72792596417E+03  0.60304227642E+03 0.  0.
        3    1    3    3  502    0  0.15945970314E+03 -0.47935966855E+02  0.99584810763E+02  0.19401649049E+03  0.10100000352E+00 0. -1.
       -3    1    3    3    0  502 -0.15945970314E+03  0.47935966855E+02 -0.50728104837E+03  0.53390947368E+03  0.10100000352E+00 0.  1.
</event>
<event>
 5   0  0.1502642E-01  0.5764250E+03  0.7818609E-02  0.9955561E-01
       -2   -1    0    0    0  501  0.00000000000E+00  0.00000000000E+00  0.28129143863E+03  0.28129143864E+03  0.25500000920E-02 0.  1.
        2   -1    0    0  501    0  0.00000000000E+00  0.00000000000E+00 -0.29530383836E+03  0.29530383837E+03  0.25500000920E-02 0. -1.
    10030    2    1    2    0    0  0.00000000000E+00  0.00000000000E+00 -0.14012399727E+02  0.57659527701E+03  0.57642498742E+03 0.  0.
        2    1    3    3  502    0  0.44621073922E+02  0.28460588630E+03 -0.15662701803E+02  0.28850800853E+03  0.25500000920E-02 0. -1.
       -2    1    3    3    0  502 -0.44621073922E+02 -0.28460588630E+03  0.16503020756E+01  0.28808726847E+03  0.25500000920E-02 0.  1.
</event>
<event>
 5   0  0.9411028E-02  0.6140200E+03  0.7818609E-02  0.9876738E-01
        1   -1    0    0  501    0  0.00000000000E+00  0.00000000000E+00  0.32058505852E+03  0.32058505856E+03  0.50400001928E-02 0.  1.
       -1   -1    0    0    0  501  0.00000000000E+00  0.00000000000E+00 -0.29400977762E+03  0.29400977766E+03  0.50400001928E-02 0. -1.
    10030    2    1    2    0    0  0.00000000000E+00  0.00000000000E+00  0.26575280900E+02  0.61459483623E+03  0.61402000550E+03 0.  0.
        4    1    3    3  502    0  0.26266709426E+03  0.33818926907E+02  0.16872567014E+03  0.31401860914E+03  0.12699999809E+01 0.  1.
       -4    1    3    3    0  502 -0.26266709426E+03 -0.33818926907E+02 -0.14215038924E+03  0.30057622708E+03  0.12699999809E+01 0. -1.
</event>
<event>
 5   0  0.1532571E-01  0.6125053E+03  0.7818609E-02  0.9879796E-01
       -2   -1    0    0    0  501  0.00000000000E+00  0.00000000000E+00  0.20496083156E+03  0.20496083158E+03  0.25500000920E-02 0. -1.
        2   -1    0    0  501    0  0.00000000000E+00  0.00000000000E+00 -0.45760298273E+03  0.45760298274E+03  0.25500000920E-02 0.  1.
    10030    2    1    2    0    0  0.00000000000E+00  0.00000000000E+00 -0.25264215117E+03  0.66256381431E+03  0.61250530732E+03 0.  0.
        1    1    3    3  502    0  0.27352288540E+03  0.13474011855E+03 -0.15731628556E+03  0.34310068801E+03  0.50400001928E-02 0. -1.
       -1    1    3    3    0  502 -0.27352288540E+03 -0.13474011855E+03 -0.95325865607E+02  0.31946312630E+03  0.50400001928E-02 0.  1.
</event>
<event>
 5   0  0.1502642E-01  0.6019520E+03  0.7818609E-02  0.9901364E-01
       -2   -1    0    0    0  501  0.00000000000E+00  0.00000000000E+00  0.17569788961E+03  0.17569788962E+03  0.25500000920E-02 0. -1.
        2   -1    0    0  501    0  0.00000000000E+00  0.00000000000E+00 -0.51558138024E+03  0.51558138025E+03  0.25500000920E-02 0.  1.
    10030    2    1    2    0    0  0.00000000000E+00  0.00000000000E+00 -0.33988349064E+03  0.69127926987E+03  0.60195202612E+03 0.  0.
        2    1    3    3  502    0 -0.15519925250E+03 -0.15461336019E+03 -0.40695258989E+03  0.46217151530E+03  0.25500000920E-02 0.  1.
       -2    1    3    3    0  502  0.15519925250E+03  0.15461336019E+03  0.67069099255E+02  0.22910775458E+03  0.25500000920E-02 0. -1.
</event>
<event>
 5   0  0.1483942E-01  0.5725859E+03  0.7818609E-02  0.9963973E-01
        2   -1    0    0  501    0  0.00000000000E+00  0.00000000000E+00  0.10465344282E+04  0.10465344282E+04  0.25500000920E-02 0.  1.
       -2   -1    0    0    0  501  0.00000000000E+00  0.00000000000E+00 -0.78319108665E+02  0.78319108706E+02  0.25500000920E-02 0. -1.
    10030    2    1    2    0    0  0.00000000000E+00  0.00000000000E+00  0.96821531953E+03  0.11248535369E+04  0.57258586650E+03 0.  0.
        4    1    3    3  502    0 -0.12747555218E+03 -0.39928106375E+02  0.98155203823E+03  0.99060097251E+03  0.12699999809E+01 0.  1.
       -4    1    3    3    0  502  0.12747555218E+03  0.39928106375E+02 -0.13336718692E+02  0.13425256440E+03  0.12699999809E+01 0. -1.
</event>
<event>
 5   0  0.1513339E-01  0.5900510E+03  0.7818609E-02  0.9926265E-01
        2   -1    0    0  501    0  0.00000000000E+00  0.00000000000E+00  0.22507472942E+04  0.22507472942E+04  0.25500000920E-02 0. -1.
       -2   -1    0    0    0  501  0.00000000000E+00  0.00000000000E+00 -0.38671625614E+02  0.38671625699E+02  0.25500000920E-02 0.  1.
    10030    2    1    2    0    0  0.00000000000E+00  0.00000000000E+00  0.22120756686E+04  0.22894189199E+04  0.59005103783E+03 0.  0.
        3    1    3    3  502    0  0.12242289436E+03 -0.26839762735E+03  0.11212618100E+04  0.11594191254E+04  0.10100000352E+00 0. -1.
       -3    1    3    3    0  502 -0.12242289436E+03  0.26839762735E+03  0.10908138585E+04  0.11299997945E+04  0.10100000352E+00 0.  1.
</event>
<event>
 5   0  0.6170500E-02  0.5080439E+03  0.7818609E-02  0.1011700E+00
        4   -1    0    0  501    0  0.00000000000E+00  0.00000000000E+00  0.11782478152E+03  0.11783162581E+03  0.12699999809E+01 0.  1.
       -4   -1    0    0    0  501  0.00000000000E+00  0.00000000000E+00 -0.54762998297E+03  0.54763145558E+03  0.12699999809E+01 0. -1.
    10030    2    1    2    0    0  0.00000000000E+00  0.00000000000E+00 -0.42980520145E+03  0.66546308139E+03  0.50804389722E+03 0.  0.
        4    1    3    3  502    0  0.22519610472E+03  0.51599768385E+02 -0.35321293361E+03  0.42206256769E+03  0.12699999809E+01 0. -1.
       -4    1    3    3    0  502 -0.22519610472E+03 -0.51599768385E+02 -0.76592267836E+02  0.24340051370E+03  0.12699999809E+01 0.  1.
</event>
<event>
 5   0  0.1532571E-01  0.5977707E+03  0.7818609E-02  0.9910042E-01
       -2   -1    0    0    0  501  0.00000000000E+00  0.00000000000E+00  0.88987192227E+02  0.88987192264E+02  0.25500000920E-02 0.  1.
        2   -1    0    0  501    0  0.00000000000E+00  0.00000000000E+00 -0.10038798614E+04  0.10038798614E+04  0.25500000920E-02 0. -1.
    10030    2    1    2    0    0  0.00000000000E+00  0.00000000000E+00 -0.91489266917E+03  0.10928670537E+04  0.59777069256E+03 0.  0.
        1    1    3    3  502    0 -0.20859049816E+01  0.10223904032E+03 -0.97090225509E+03  0.97627268800E+03  0.50400001928E-02 0. -1.
       -1    1    3    3    0  502  0.20859049816E+01 -0.10223904032E+03  0.56009585920E+02  0.11659436567E+03  0.50400001928E-02 0.  1.
</event>
<event>
 5   0  0.1483942E-01  0.7335502E+03  0.7818609E-02  0.9661517E-01
       -2   -1    0    0    0  501  0.00000000000E+00  0.00000000000E+00  0.14951269208E+03  0.14951269210E+03  0.25500000920E-02 0. -1.
        2   -1    0    0  501    0  0.00000000000E+00  0.00000000000E+00 -0.89974952719E+03  0.89974952720E+03  0.25500000920E-02 0.  1.
    10030    2    1    2    0    0  0.00000000000E+00  0.00000000000E+00 -0.75023683511E+03  0.10492622193E+04  0.73355020011E+03 0.  0.
        4    1    3    3  502    0  0.27188824181E+03 -0.20873832490E+03 -0.56176888816E+03  0.65808874852E+03  0.12699999809E+01 0.  1.
       -4    1    3    3    0  502 -0.27188824181E+03  0.20873832490E+03 -0.18846794695E+03  0.39117347078E+03  0.12699999809E+01 0. -1.
</event>
<event>
 5   0  0.9411028E-02  0.5889501E+03  0.7818609E-02  0.9928600E-01
       -1   -1    0    0    0  501  0.00000000000E+00  0.00000000000E+00  0.10924971343E+03  0.10924971355E+03  0.50400001928E-02 0. -1.
        1   -1    0    0  501    0  0.00000000000E+00  0.00000000000E+00 -0.79373715768E+03  0.79373715770E+03  0.50400001928E-02 0.  1.
    10030    2    1    2    0    0  0.00000000000E+00  0.00000000000E+00 -0.68448744425E+03  0.90298687124E+03  0.58895010680E+03 0.  0.
        4    1    3    3  502    0 -0.19431807867E+03 -0.13240236636E+03 -0.61403402241E+03  0.65751752516E+03  0.12699999809E+01 0.  1.
       -4    1    3    3    0  502  0.19431807867E+03  0.13240236636E+03 -0.70453421839E+02  0.24546934608E+03  0.12699999809E+01 0. -1.
</event>
<event>
 5   0  0.6170500E-02  0.6053641E+03  0.7818609E-02  0.9894339E-01
        4   -1    0    0  501    0  0.00000000000E+00  0.00000000000E+00  0.43808496233E+03  0.43808680318E+03  0.12699999809E+01 0. -1.
       -4   -1    0    0    0  501  0.00000000000E+00  0.00000000000E+00 -0.20912514153E+03  0.20912899780E+03  0.12699999809E+01 0.  1.
    10030    2    1    2    0    0  0.00000000000E+00  0.00000000000E+00  0.22895982080E+03  0.64721580097E+03  0.60536409993E+03 0.  0.
        3    1    3    3  502    0  0.58898597516E+02  0.25705908744E+03  0.27330308672E+03  0.37979337361E+03  0.10100000352E+00 0. -1.
       -3    1    3    3    0  502 -0.58898597516E+02 -0.25705908744E+03 -0.44343265919E+02  0.26742242737E+03  0.10100000352E+00 0.  1.
</event>
<event>
 5   0  0.8860626E-02  0.5711840E+03  0.7818609E-02  0.9967062E-01
       -1   -1    0    0    0  501  0.00000000000E+00  0.00000000000E+00  0.82405816529E+02  0.82405816683E+02  0.50400001928E-02 0. -1.
        1   -1    0    0  501    0  0.00000000000E+00  0.00000000000E+00 -0.98976978344E+03  0.98976978346E+03  0.50400001928E-02 0.  1.
    10030    2    1    2    0    0  0.00000000000E+00  0.00000000000E+00 -0.90736396692E+03  0.10721756001E+04  0.57118398882E+03 0.  0.
        3    1    3    3  502    0 -0.12574197729E+03  0.25381500047E+03 -0.38523361583E+03  0.47816111123E+03  0.10100000352E+00 0. -1.
       -3    1    3    3    0  502  0.12574197729E+03 -0.25381500047E+03 -0.52213035108E+03  0.59401448891E+03  0.10100000352E+00 0.  1.
</event>
<event>
 5   0  0.9497860E-02  0.6371686E+03  0.7818609E-02  0.9831159E-01
       -1   -1    0    0    0  501  0.00000000000E+00  0.00000000000E+00  0.47093588363E+02  0.47093588633E+02  0.50400001928E-02 0.  1.
        1   -1    0    0  501    0  0.00000000000E+00  0.00000000000E+00 -0.21551970292E+04  0.21551970292E+04  0.50400001928E-02 0. -1.
    10030    2    1    2    0    0  0.00000000000E+00  0.00000000000E+00 -0.21081034408E+04  0.22022906178E+04  0.63716861830E+03 0.  0.
        5    1    3    3  502    0 -0.34558389456E+02  0.24213926846E+03 -0.17594236672E+04  0.17763500326E+04  0.46999998093E+01 0. -1.
       -5    1    3    3    0  502  0.34558389456E+02 -0.24213926846E+03 -0.34867977362E+03  0.42594058522E+03  0.46999998093E+01 0.  1.
</event>
<event>
 5   0  0.9177281E-02  0.5936502E+03  0.7818609E-02  0.9918668E-01
        1   -1    0    0  501    0  0.00000000000E+00  0.00000000000E+00  0.22458995502E+04  0.22458995502E+04  0.50400001928E-02 0.  1.
       -1   -1    0    0    0  501  0.00000000000E+00  0.00000000000E+00 -0.39229328674E+02  0.39229328998E+02  0.50400001928E-02 0. -1.
    10030    2    1    2    0    0  0.00000000000E+00  0.00000000000E+00  0.22066702215E+04  0.22851288792E+04  0.59365017308E+03 0.  0.
        1    1    3    3  502    0  0.29089859131E+02  0.20024840026E+03  0.26741523566E+03  0.33534541894E+03  0.50400001928E-02 0. -1.
       -1    1    3    3    0  502 -0.29089859131E+02 -0.20024840026E+03  0.19392549859E+04  0.19497834603E+04  0.50400001928E-02 0.  1.
</event>
<event>
 5   0  0.1483942E-01  0.6045326E+03  0.7818609E-02  0.9896047E-01
        2   -1    0    0  501    0  0.00000000000E+00  0.00000000000E+00  0.46601931584E+03  0.46601931585E+03  0.25500000920E-02 0. -1.
       -2   -1    0    0    0  501  0.00000000000E+00  0.00000000000E+00 -0.19605395406E+03  0.19605395408E+03  0.25500000920E-02 0.  1.
    10030    2    1    2    0    0  0.00000000000E+00  0.00000000000E+00  0.26996536178E+03  0.66207326993E+03  0.60453264444E+03 0.  0.
        4    1    3    3  502    0 -0.21494298048E+03  0.12292822963E+03 -0.54871097659E+02  0.25362232700E+03  0.12699999809E+01 0.  1.
       -4    1    3    3    0  502  0.21494298048E+03 -0.12292822963E+03  0.32483645944E+03  0.40845094292E+03  0.12699999809E+01 0. -1.
</event>
<event>
 5   0  0.9177281E-02  0.6106662E+03  0.7818609E-02  0.9883521E-01
       -1   -1    0    0    0  501  0.00000000000E+00  0.00000000000E+00  0.81210985063E+02  0.81210985220E+02  0.50400001928E-02 0.  1.
        1   -1    0    0  501    0  0.00000000000E+00  0.00000000000E+00 -0.11479763729E+04  0.11479763729E+04  0.50400001928E-02 0. -1.
    10030    2    1    2    0    0  0.00000000000E+00  0.00000000000E+00 -0.10667653878E+04  0.12291873581E+04  0.61066616796E+03 0.  0.
        1    1    3    3  502    0 -0.11367722161E+03 -0.91326946305E+02  0.65944827923E+01  0.14596783572E+03  0.50400001928E-02 0.  1.
       -1    1    3    3    0  502  0.11367722161E+03  0.91326946305E+02 -0.10733598706E+04  0.10832195224E+04  0.50400001928E-02 0. -1.
</event>
<event>
 5   0  0.1488510E-01  0.5844164E+03  0.7818609E-02  0.9938275E-01
       -2   -1    0    0    0  501  0.00000000000E+00  0.00000000000E+00  0.69521366759E+02  0.69521366805E+02  0.25500000920E-02 0.  1.
        2   -1    0    0  501    0  0.00000000000E+00  0.00000000000E+00 -0.12281924769E+04  0.12281924769E+04  0.25500000920E-02 0. -1.
    10030    2    1    2    0    0  0.00000000000E+00  0.00000000000E+00 -0.11586711101E+04  0.12977138437E+04  0.58441635729E+03 0.  0.
        5    1    3    3  502    0  0.74154872568E+02 -0.33026523184E+02  0.43893317014E+02  0.92403515279E+02  0.46999998093E+01 0.  1.
       -5    1    3    3    0  502 -0.74154872568E+02  0.33026523184E+02 -0.12025644271E+04  0.12053103284E+04  0.46999998093E+01 0. -1.
</event>
<event>
 5   0  0.1488510E-01  0.6004311E+03  0.7818609E-02  0.9904512E-01
        2   -1    0    0  501    0  0.00000000000E+00  0.00000000000E+00  0.22483355668E+03  0.22483355669E+03  0.25500000920E-02 0.  1.
       -2   -1    0    0    0  501  0.00000000000E+00  0.00000000000E+00 -0.40087151695E+03  0.40087151696E+03  0.25500000920E-02 0. -1.
    10030    2    1    2    0    0  0.00000000000E+00  0.00000000000E+00 -0.17603796027E+03  0.62570507365E+03  0.60043107492E+03 0.  0.
        5    1    3    3  502    0  0.16056261271E+03  0.72462295401E+02  0.16526783254E+03  0.24159197695E+03  0.46999998093E+01 0.  1.
       -5    1    3    3    0  502 -0.16056261271E+03 -0.72462295401E+02 -0.34130579281E+03  0.38411309670E+03  0.46999998093E+01 0. -1.
</event>
<event>
 5   0  0.1488510E-01  0.5720274E+03  0.7818609E-02  0.9965202E-01
       -2   -1    0    0    0  501  0.00000000000E+00  0.00000000000E+00  0.36908723625E+03  0.36908723626E+03  0.25500000920E-02 0.  1.
        2   -1    0    0  501    0  0.00000000000E+00  0.00000000000E+00 -0.22163823041E+03  0.22163823043E+03  0.25500000920E-02 0. -1.
    10030    2    1    2    0    0  0.00000000000E+00  0.00000000000E+00  0.14744900584E+03  0.59072546669E+03  0.57202741863E+03 0.  0.
        5    1    3    3  502    0  0.12546254574E+03  0.15158793122E+03 -0.14057242716E+03  0.24187279415E+03  0.46999998093E+01 0. -1.
       -5    1    3    3    0  502 -0.12546254574E+03 -0.15158793122E+03  0.28802143300E+03  0.34885267254E+03  0.46999998093E+01 0.  1.
</event>
<event>
 5   0  0.6170500E-02  0.6000080E+03  0.7818609E-02  0.9905390E-01
        3   -1    0    0  501    0  0.00000000000E+00  0.00000000000E+00  0.50256879892E+03  0.50256880907E+03  0.10100000352E+00 0. -1.
       -3   -1    0    0    0  501  0.00000000000E+00  0.00000000000E+00 -0.17908469263E+03  0.17908472111E+03  0.10100000352E+00 0.  1.
    10030    2    1    2    0    0  0.00000000000E+00  0.00000000000E+00  0.32348410630E+03  0.68165353018E+03  0.60000797343E+03 0.  0.
        3    1    3    3  502    0 -0.92444994535E+02 -0.69293292056E+01  0.48588828743E+03  0.49465293962E+03  0.10100000352E+00 0. -1.
       -3    1    3    3    0  502  0.92444994535E+02  0.69293292056E+01 -0.16240418113E+03  0.18700059056E+03  0.10100000352E+00 0.  1.
</event>
<event>
 5   0  0.1502642E-01  0.5931207E+03  0.7818609E-02  0.9919782E-01
       -2   -1    0    0    0  501  0.00000000000E+00  0.00000000000E+00  0.12730712955E+03  0.12730712958E+03  0.25500000920E-02 0.  1.
        2   -1    0    0  501    0  0.00000000000E+00  0.00000000000E+00 -0.69083351681E+03  0.69083351682E+03  0.25500000920E-02 0. -1.
    10030    2    1    2    0    0  0.00000000000E+00  0.00000000000E+00 -0.56352638726E+03  0.81814064640E+03  0.59312066913E+03 0.  0.
        2    1    3    3  502    0  0.11539117183E+03 -0.23367218401E+01 -0.65858342314E+03  0.66862000273E+03  0.25500000920E-02 0. -1.
       -2    1    3    3    0  502 -0.11539117183E+03  0.23367218401E+01  0.95057035882E+02  0.14952064367E+03  0.25500000920E-02 0.  1.
</event>
<event>
 5   0  0.9411028E-02  0.6042695E+03  0.7818609E-02  0.9896588E-01
       -1   -1    0    0    0  501  0.00000000000E+00  0.00000000000E+00  0.80773062053E+02  0.80773062210E+02  0.50400001928E-02 0.  1.
        1   -1    0    0  501    0  0.00000000000E+00  0.00000000000E+00 -0.11301467191E+04  0.11301467191E+04  0.50400001928E-02 0. -1.
    10030    2    1    2    0    0  0.00000000000E+00  0.00000000000E+00 -0.10493736571E+04  0.12109197813E+04  0.60426951330E+03 0.  0.
        4    1    3    3  502    0 -0.59646463950E+02  0.26958579626E+03 -0.77052375179E+03  0.81850025484E+03  0.12699999809E+01 0. -1.
       -4    1    3    3    0  502  0.59646463950E+02 -0.26958579626E+03 -0.27884990529E+03  0.39241952651E+03  0.12699999809E+01 0.  1.
</event>
<event>
 5   0  0.1532571E-01  0.6121106E+03  0.7818609E-02  0.9880594E-01
       -2   -1    0    0    0  501  0.00000000000E+00  0.00000000000E+00  0.73008768637E+03  0.73008768637E+03  0.25500000920E-02 0.  1.
        2   -1    0    0  501    0  0.00000000000E+00  0.00000000000E+00 -0.12829945168E+03  0.12829945171E+03  0.25500000920E-02 0. -1.
    10030    2    1    2    0    0  0.00000000000E+00  0.00000000000E+00  0.60178823469E+03  0.85838713808E+03  0.61211061044E+03 0.  0.
        1    1    3    3  502    0 -0.20099915700E+03 -0.39624168846E+02  0.61975030110E+03  0.65273361459E+03  0.50400001928E-02 0.  1.
       -1    1    3    3    0  502  0.20099915700E+03  0.39624168846E+02 -0.17962066412E+02  0.20565352349E+03  0.50400001928E-02 0. -1.
</event>
<event>
 5   0  0.1488510E-01  0.6326351E+03  0.7818609E-02  0.9839920E-01
        2   -1    0    0  501    0  0.00000000000E+00  0.00000000000E+00  0.70786893023E+03  0.70786893023E+03  0.25500000920E-02 0. -1.
       -2   -1    0    0    0  501  0.00000000000E+00  0.00000000000E+00 -0.14134931374E+03  0.14134931376E+03  0.25500000920E-02 0.  1.
    10030    2    1    2    0    0  0.00000000000E+00  0.00000000000E+00  0.56651961649E+03  0.84921824399E+03  0.63263508444E+03 0.  0.
        5    1    3    3  502    0  0.66135867435E+02  0.20694856886E+03 -0.25285409682E+02  0.21877638139E+03  0.46999998093E+01 0. -1.
       -5    1    3    3    0  502 -0.66135867435E+02 -0.20694856886E+03  0.59180502617E+03  0.63044186260E+03  0.46999998093E+01 0.  1.
</event>
<event>
 5   0  0.1483942E-01  0.6038366E+03  0.7818609E-02  0.9897478E-01
       -2   -1    0    0    0  501  0.00000000000E+00  0.00000000000E+00  0.10430245120E+03  0.10430245123E+03  0.25500000920E-02 0.  1.
        2   -1    0    0  501    0  0.00000000000E+00  0.00000000000E+00 -0.87394553418E+03  0.87394553419E+03  0.25500000920E-02 0. -1.
    10030    2    1    2    0    0  0.00000000000E+00  0.00000000000E+00 -0.76964308299E+03  0.97824798542E+03  0.60383660520E+03 0.  0.
        4    1    3    3  502    0  0.91548603770E+02 -0.69495143952E+02  0.67467648791E+02  0.13328247604E+03  0.12699999809E+01 0.  1.
       -4    1    3    3    0  502 -0.91548603770E+02  0.69495143952E+02 -0.83711073178E+03  0.84496550938E+03  0.12699999809E+01 0. -1.
</event>
<event>
 5   0  0.1513339E-01  0.6139577E+03  0.7818609E-02  0.9876864E-01
       -2   -1    0    0    0  501  0.00000000000E+00  0.00000000000E+00  0.14573956928E+03  0.14573956930E+03  0.25500000920E-02 0. -1.
        2   -1    0    0  501    0  0.00000000000E+00  0.00000000000E+00 -0.64660553599E+03  0.64660553599E+03  0.25500000920E-02 0.  1.
    10030    2    1    2    0    0  0.00000000000E+00  0.00000000000E+00 -0.50086596671E+03  0.79234510529E+03  0.61395769339E+03 0.  0.
        3    1    3    3  502    0 -0.24649815472E+03  0.62253731098E+02 -0.47246491738E+03  0.53652583878E+03  0.10100000352E+00 0.  1.
       -3    1    3    3    0  502  0.24649815472E+03 -0.62253731098E+02 -0.28401049326E+02  0.25581926652E+03  0.10100000352E+00 0. -1.
</event>
<event>
 5   0  0.1488510E-01  0.5984341E+03  0.7818609E-02  0.9908660E-01
       -2   -1    0    0    0  501  0.00000000000E+00  0.00000000000E+00  0.11353110044E+03  0.11353110047E+03  0.25500000920E-02 0.  1.
        2   -1    0    0  501    0  0.00000000000E+00  0.00000000000E+00 -0.78860189538E+03  0.78860189539E+03  0.25500000920E-02 0. -1.
    10030    2    1    2    0    0  0.00000000000E+00  0.00000000000E+00 -0.67507079494E+03  0.90213299586E+03  0.59843409330E+03 0.  0.
        5    1    3    3  502    0 -0.19385191385E+03 -0.84591581687E+02 -0.65651974563E+03  0.68976413838E+03  0.46999998093E+01 0. -1.
       -5    1    3    3    0  502  0.19385191385E+03  0.84591581687E+02 -0.18551049313E+02  0.21236885748E+03  0.46999998093E+01 0.  1.
</event>
<event>
 5   0  0.9411028E-02  0.5826818E+03  0.7818609E-02  0.9942002E-01
        1   -1    0    0  501    0  0.00000000000E+00  0.00000000000E+00  0.61579134851E+03  0.61579134853E+03  0.50400001928E-02 0.  1.
       -1   -1    0    0    0  501  0.00000000000E+00  0.00000000000E+00 -0.13783813488E+03  0.13783813497E+03  0.50400001928E-02 0. -1.
    10030    2    1    2    0    0  0.00000000000E+00  0.00000000000E+00  0.47795321363E+03  0.75362948351E+03  0.58268183770E+03 0.  0.
        4    1    3    3  502    0 -0.73733457337E+01  0.74459059289E+02 -0.12519541532E+03  0.14585617112E+03  0.12699999809E+01 0. -1.
       -4    1    3    3    0  502  0.73733457337E+01 -0.74459059289E+02  0.60314862895E+03  0.60777331238E+03  0.12699999809E+01 0.  1.
</event>
<event>
 5   0  0.8860626E-02  0.6030283E+03  0.7818609E-02  0.9899143E-01
       -1   -1    0    0    0  501  0.00000000000E+00  0.00000000000E+00  0.34838033016E+03  0.34838033020E+03  0.50400001928E-02 0. -1.
        1   -1    0    0  501    0  0.00000000000E+00  0.00000000000E+00 -0.26095267358E+03  0.26095267363E+03  0.50400001928E-02 0.  1.
    10030    2    1    2    0    0  0.00000000000E+00  0.00000000000E+00  0.87427656578E+02  0.60933300383E+03  0.60302828658E+03 0.  0.
        3    1    3    3  502    0 -0.16415055792E+03  0.24884100611E+03 -0.19640668091E+01  0.29811259575E+03  0.10100000352E+00 0.  1.
       -3    1    3    3    0  502  0.16415055792E+03 -0.24884100611E+03  0.89391723387E+02  0.31122040807E+03  0.10100000352E+00 0. -1.
</event>
<event>
 5   0  0.9497860E-02  0.5364415E+03  0.7818609E-02  0.1004682E+00
        1   -1    0    0  501    0  0.00000000000E+00  0.00000000000E+00  0.72791393400E+02  0.72791393575E+02  0.50400001928E-02 0.  1.
       -1   -1    0    0    0  501  0.00000000000E+00  0.00000000000E+00 -0.98833624563E+03  0.98833624565E+03  0.50400001928E-02 0. -1.
    10030    2    1    2    0    0  0.00000000000E+00  0.00000000000E+00 -0.91554485223E+03  0.10611276392E+04  0.53644150685E+03 0.  0.
        5    1    3    3  502    0 -0.23172055289E+03 -0.67023301824E+01 -0.19105370512E+03  0.30043792055E+03  0.46999998093E+01 0.  1.
       -5    1    3    3    0  502  0.23172055289E+03  0.67023301824E+01 -0.72449114711E+03  0.76068971867E+03  0.46999998093E+01 0. -1.
</event>
<event>
 5   0  0.1532571E-01  0.5923605E+03  0.7818609E-02  0.9921383E-01
       -2   -1    0    0    0  501  0.00000000000E+00  0.00000000000E+00  0.99428983352E+02  0.99428983385E+02  0.25500000920E-02 0.  1.
        2   -1    0    0  501    0  0.00000000000E+00  0.00000000000E+00 -0.88226539589E+03  0.88226539590E+03  0.25500000920E-02 0. -1.
    10030    2    1    2    0    0  0.00000000000E+00  0.00000000000E+00 -0.78283641254E+03  0.98169437928E+03  0.59236053676E+03 0.  0.
        1    1    3    3  502    0 -0.13871124221E+03  0.21193407919E+03 -0.64582698764E+03  0.69372138545E+03  0.50400001928E-02 0. -1.
       -1    1    3    3    0  502  0.13871124221E+03 -0.21193407919E+03 -0.13700942490E+03  0.28797299383E+03  0.50400001928E-02 0.  1.
</event>
<event>
 5   0  0.1488510E-01  0.5445471E+03  0.7818609E-02  0.1002764E+00
       -2   -1    0    0    0  501  0.00000000000E+00  0.00000000000E+00  0.57572610365E+02  0.57572610422E+02  0.25500000920E-02 0. -1.
        2   -1    0    0  501    0  0.00000000000E+00  0.00000000000E+00 -0.12876415449E+04  0.12876415449E+04  0.25500000920E-02 0.  1.
    10030    2    1    2    0    0  0.00000000000E+00  0.00000000000E+00 -0.12300689345E+04  0.13452141553E+04  0.54454709619E+03 0.  0.
        5    1    3    3  502    0 -0.25952800055E+03  0.18813038488E+02 -0.41737547279E+03  0.49186694214E+03  0.46999998093E+01 0. -1.
       -5    1    3    3    0  502  0.25952800055E+03 -0.18813038488E+02 -0.81269346171E+03  0.85334721315E+03  0.46999998093E+01 0.  1.
</event>
<event>
 5   0  0.9497860E-02  0.6240888E+03  0.7818609E-02  0.9856652E-01
        1   -1    0    0  501    0  0.00000000000E+00  0.00000000000E+00  0.87996060429E+03  0.87996060430E+03  0.50400001928E-02 0. -1.
       -1   -1    0    0    0  501  0.00000000000E+00  0.00000000000E+00 -0.11065462804E+03  0.11065462816E+03  0.50400001928E-02 0.  1.
    10030    2    1    2    0    0  0.00000000000E+00  0.00000000000E+00  0.76930597625E+03  0.99061523246E+03  0.62408881875E+03 0.  0.
        5    1    3    3  502    0 -0.17978536019E+03  0.20299217171E+03  0.62963761390E+03  0.68556123895E+03  0.46999998093E+01 0. -1.
       -5    1    3    3    0  502  0.17978536019E+03 -0.20299217171E+03  0.13966836235E+03  0.30505399351E+03  0.46999998093E+01 0.  1.
</event>
<event>
 5   0  0.9177281E-02  0.6055253E+03  0.7818609E-02  0.9894009E-01
       -1   -1    0    0    0  501  0.00000000000E+00  0.00000000000E+00  0.33110835226E+03  0.33110835230E+03  0.50400001928E-02 0. -1.
        1   -1    0    0  501    0  0.00000000000E+00  0.00000000000E+00 -0.27684360914E+03  0.27684360919E+03  0.50400001928E-02 0.  1.
    10030    2    1    2    0    0  0.00000000000E+00  0.00000000000E+00  0.54264743118E+02  0.60795196149E+03  0.60552532989E+03 0.  0.
        1    1    3    3  502    0  0.33131658537E+01  0.12560042950E+03 -0.24943257666E+03  0.27929027065E+03  0.50400001928E-02 0.  1.
       -1    1    3    3    0  502 -0.33131658537E+01 -0.12560042950E+03  0.30369731978E+03  0.32866169084E+03  0.50400001928E-02 0. -1.
</event>
<event>
 5   0  0.6170500E-02  0.6058351E+03  0.7818609E-02  0.9893374E-01
        3   -1    0    0  501    0  0.00000000000E+00  0.00000000000E+00  0.27099928787E+03  0.27099930669E+03  0.10100000352E+00 0.  1.
       -3   -1    0    0    0  501  0.00000000000E+00  0.00000000000E+00 -0.33859508946E+03  0.33859510453E+03  0.10100000352E+00 0. -1.
    10030    2    1    2    0    0  0.00000000000E+00  0.00000000000E+00 -0.67595801597E+02  0.60959441122E+03  0.60583508795E+03 0.  0.
        3    1    3    3  502    0  0.33606563936E+02  0.23381687255E+03 -0.22460395554E+03  0.32595502461E+03  0.10100000352E+00 0. -1.
       -3    1    3    3    0  502 -0.33606563936E+02 -0.23381687255E+03  0.15700815394E+03  0.28363938660E+03  0.10100000352E+00 0.  1.
</event>
<event>
 5   0  0.1502642E-01  0.6161363E+03  0.7818609E-02  0.9872483E-01
        2   -1    0    0  501    0  0.00000000000E+00  0.00000000000E+00  0.68245502951E+03  0.68245502952E+03  0.25500000920E-02 0. -1.
       -2   -1    0    0    0  501  0.00000000000E+00  0.00000000000E+00 -0.13906555543E+03  0.13906555546E+03  0.25500000920E-02 0.  1.
    10030    2    1    2    0    0  0.00000000000E+00  0.00000000000E+00  0.54338947408E+03  0.82152058497E+03  0.61613630878E+03 0.  0.
        2    1    3    3  502    0 -0.31276170468E+02  0.17501057576E+03  0.60715445043E+03  0.63264794883E+03  0.25500000920E-02 0. -1.
       -2    1    3    3    0  502  0.31276170468E+02 -0.17501057576E+03 -0.63764976356E+02  0.18887263614E+03  0.25500000920E-02 0.  1.
</event>
<event>
 5   0  0.9411028E-02  0.5982346E+03  0.7818609E-02  0.9909075E-01
        1   -1    0    0  501    0  0.00000000000E+00  0.00000000000E+00  0.52642155931E+02  0.52642156173E+02  0.50400001928E-02 0.  1.
       -1   -1    0    0    0  501  0.00000000000E+00  0.00000000000E+00 -0.16996104580E+04  0.16996104580E+04  0.50400001928E-02 0. -1.
    10030    2    1    2    0    0  0.00000000000E+00  0.00000000000E+00 -0.16469683020E+04  0.17522526141E+04  0.59823459936E+03 0.  0.
        4    1    3    3  502    0 -0.19810613917E+03 -0.18163411693E+03 -0.12079873690E+04  0.12375266023E+04  0.12699999809E+01 0. -1.
       -4    1    3    3    0  502  0.19810613917E+03  0.18163411693E+03 -0.43898093302E+03  0.51472601184E+03  0.12699999809E+01 0.  1.
</event>
<event>
 5   0  0.1483942E-01  0.6069352E+03  0.7818609E-02  0.9891121E-01
       -2   -1    0    0    0  501  0.00000000000E+00  0.00000000000E+00  0.17230760023E+03  0.17230760025E+03  0.25500000920E-02 0. -1.
        2   -1    0    0  501    0  0.00000000000E+00  0.00000000000E+00 -0.53446625420E+03  0.53446625421E+03  0.25500000920E-02 0.  1.
    10030    2    1    2    0    0  0.00000000000E+00  0.00000000000E+00 -0.36215865397E+03  0.70677385445E+03  0.60693524423E+03 0.  0.
        4    1    3    3  502    0  0.11308601364E+02  0.30295073294E+03 -0.19687333669E+03  0.36147995056E+03  0.12699999809E+01 0. -1.
       -4    1    3    3    0  502 -0.11308601364E+02 -0.30295073294E+03 -0.16528531728E+03  0.34529390389E+03  0.12699999809E+01 0.  1.
</event>
<event>
 5   0  0.1532571E-01  0.5974073E+03  0.7818609E-02  0.9910800E-01
       -2   -1    0    0    0  501  0.00000000000E+00  0.00000000000E+00  0.15751009884E+03  0.15751009886E+03  0.25500000920E-02 0.  1.
        2   -1    0    0  501    0  0.00000000000E+00  0.00000000000E+00 -0.56646453842E+03  0.56646453843E+03  0.25500000920E-02 0. -1.
    10030    2    1    2    0    0  0.00000000000E+00  0.00000000000E+00 -0.40895443958E+03  0.72397463729E+03  0.59740734997E+03 0.  0.
        1    1    3    3  502    0 -0.19259090312E+02  0.12254190603E+03 -0.53377454772E+03  0.54799881306E+03  0.50400001928E-02 0. -1.
       -1    1    3    3    0  502  0.19259090312E+02 -0.12254190603E+03  0.12482010814E+03  0.17597582423E+03  0.50400001928E-02 0.  1.
</event>
<event>
 5   0  0.1488510E-01  0.6003437E+03  0.7818609E-02  0.9904693E-01
        2   -1    0    0  501    0  0.00000000000E+00  0.00000000000E+00  0.47212601494E+03  0.47212601494E+03  0.25500000920E-02 0. -1.
       -2   -1    0    0    0  501  0.00000000000E+00  0.00000000000E+00 -0.19084554247E+03  0.19084554249E+03  0.25500000920E-02 0.  1.
    10030    2    1    2    0    0  0.00000000000E+00  0.00000000000E+00  0.28128047246E+03  0.66297155743E+03  0.60034371969E+03 0.  0.
        5    1    3    3  502    0 -0.94023697107E+02  0.82194161899E+02  0.44203001425E+03  0.45935711529E+03  0.46999998093E+01 0. -1.
       -5    1    3    3    0  502  0.94023697107E+02 -0.82194161899E+02 -0.16074954178E+03  0.20361444215E+03  0.46999998093E+01 0.  1.
</event>
<event>
 5   0  0.9177281E-02  0.6164430E+03  0.7818609E-02  0.9871867E-01
        1   -1    0    0  501    0  0.00000000000E+00  0.00000000000E+00  0.11971099257E+03  0.11971099268E+03  0.50400001928E-02 0.  1.
       -1   -1    0    0    0  501  0.00000000000E+00  0.00000000000E+00 -0.79358194073E+03  0.79358194075E+03  0.50400001928E-02 0. -1.
    10030    2    1    2    0    0  0.00000000000E+00  0.00000000000E+00 -0.67387094816E+03  0.91329293343E+03  0.61644296368E+03 0.  0.
        1    1    3    3  502    0  0.10212226731E+03 -0.88436176651E+02  0.73512384252E+02  0.15379852238E+03  0.50400001928E-02 0.  1.
       -1    1    3    3    0  502 -0.10212226731E+03  0.88436176651E+02 -0.74738333241E+03  0.75949441105E+03  0.50400001928E-02 0. -1.
</event>
<event>
 5   0  0.9497860E-02  0.6182551E+03  0.7818609E-02  0.9868240E-01
       -1   -1    0    0    0  501  0.00000000000E+00  0.00000000000E+00  0.13694009514E+03  0.13694009523E+03  0.50400001928E-02 0. -1.
        1   -1    0    0  501    0  0.00000000000E+00  0.00000000000E+00 -0.69782221153E+03  0.69782221155E+03  0.50400001928E-02 0.  1.
    10030    2    1    2    0    0  0.00000000000E+00  0.00000000000E+00 -0.56088211639E+03  0.83476230679E+03  0.61825509326E+03 0.  0.
        5    1    3    3  502    0 -0.42527238171E+02  0.21366700135E+03  0.15603763557E+02  0.21846675007E+03  0.46999998093E+01 0. -1.
       -5    1    3    3    0  502  0.42527238171E+02 -0.21366700135E+03 -0.57648587995E+03  0.61629555672E+03  0.46999998093E+01 0.  1.
</event>
<event>
 5   0  0.1483942E-01  0.5944478E+03  0.7818609E-02  0.9916992E-01
       -2   -1    0    0    0  501  0.00000000000E+00  0.00000000000E+00  0.72794606870E+02  0.72794606915E+02  0.25500000920E-02 0. -1.
        2   -1    0    0  501    0  0.00000000000E+00  0.00000000000E+00 -0.12135796312E+04  0.12135796312E+04  0.25500000920E-02 0.  1.
    10030    2    1    2    0    0  0.00000000000E+00  0.00000000000E+00 -0.11407850243E+04  0.12863742381E+04  0.59444781836E+03 0.  0.
        4    1    3    3  502    0  0.11116685579E+03 -0.60597562091E+02  0.11514637110E+02  0.12713903463E+03  0.12699999809E+01 0. -1.
       -4    1    3    3    0  502 -0.11116685579E+03  0.60597562091E+02 -0.11522996614E+04  0.11592352035E+04  0.12699999809E+01 0.  1.
</event>
<event>
 5   0  0.6170500E-02  0.5937314E+03  0.7818609E-02  0.9918497E-01
        3   -1    0    0  501    0  0.00000000000E+00  0.00000000000E+00  0.75798047838E+03  0.75798048511E+03  0.10100000352E+00 0.  1.
       -3   -1    0    0    0  501  0.00000000000E+00  0.00000000000E+00 -0.11626847659E+03  0.11626852045E+03  0.10100000352E+00 0. -1.
    10030    2    1    2    0    0  0.00000000000E+00  0.00000000000E+00  0.64171200179E+03  0.87424900556E+03  0.59373144643E+03 0.  0.
        4    1    3    3  502    0 -0.23384924353E+03  0.10583283901E+03  0.54045379528E+03  0.59831260746E+03  0.12699999809E+01 0. -1.
       -4    1    3    3    0  502  0.23384924353E+03 -0.10583283901E+03  0.10125820651E+03  0.27593639810E+03  0.12699999809E+01 0.  1.
</event>
<event>
 5   0  0.9420349E-02  0.5985791E+03  0.7818609E-02  0.9908358E-01
        1   -1    0    0  501    0  0.00000000000E+00  0.00000000000E+00  0.32054855796E+03  0.32054855800E+03  0.50400001928E-02 0. -1.
       -1   -1    0    0    0  501  0.00000000000E+00  0.00000000000E+00 -0.27944044378E+03  0.27944044383E+03  0.50400001928E-02 0.  1.
    10030    2    1    2    0    0  0.00000000000E+00  0.00000000000E+00  0.41108114172E+02  0.59998900183E+03  0.59857908856E+03 0.  0.
        2    1    3    3  502    0  0.24053741813E+03 -0.33653189147E+02 -0.15473909415E+03  0.28798432931E+03  0.25500000920E-02 0. -1.
       -2    1    3    3    0  502 -0.24053741813E+03  0.33653189147E+02  0.19584720832E+03  0.31200467252E+03  0.25500000920E-02 0.  1.
</event>
<event>
 5   0  0.1483942E-01  0.6366374E+03  0.7818609E-02  0.9832181E-01
        2   -1    0    0  501    0  0.00000000000E+00  0.00000000000E+00  0.59236843219E+03  0.59236843219E+03  0.25500000920E-02 0.  1.
       -2   -1    0    0    0  501  0.00000000000E+00  0.00000000000E+00 -0.17105367510E+03  0.17105367512E+03  0.25500000920E-02 0. -1.
    10030    2    1    2    0    0  0.00000000000E+00  0.00000000000E+00  0.42131475709E+03  0.76342210731E+03  0.63663740810E+03 0.  0.
        4    1    3    3  502    0 -0.17902308220E+02 -0.26652273523E+03  0.41825304970E+03  0.49627823599E+03  0.12699999809E+01 0.  1.
       -4    1    3    3    0  502  0.17902308220E+02  0.26652273523E+03  0.30617073830E+01  0.26714387132E+03  0.12699999809E+01 0. -1.
</event>
<event>
 5   0  0.6170500E-02  0.6066235E+03  0.7818609E-02  0.9891759E-01
        4   -1    0    0  501    0  0.00000000000E+00  0.00000000000E+00  0.58805490364E+02  0.58819202621E+02  0.12699999809E+01 0.  1.
       -4   -1    0    0    0  501  0.00000000000E+00  0.00000000000E+00 -0.15642497755E+04  0.15642502910E+04  0.12699999809E+01 0. -1.
    10030    2    1    2    0    0  0.00000000000E+00  0.00000000000E+00 -0.15054442851E+04  0.16230694936E+04  0.60662351226E+03 0.  0.
        4    1    3    3  502    0 -0.61160378077E+02 -0.24448263625E+03 -0.30115867357E+03  0.39269646146E+03  0.12699999809E+01 0.  1.
       -4    1    3    3    0  502  0.61160378077E+02  0.24448263625E+03 -0.12042856115E+04  0.12303730322E+04  0.12699999809E+01 0. -1.
</event>
<event>
 5   0  0.1532571E-01  0.6113048E+03  0.7818609E-02  0.9882226E-01
        2   -1    0    0  501    0  0.00000000000E+00  0.00000000000E+00  0.95583477643E+02  0.95583477677E+02  0.25500000920E-02 0. -1.
       -2   -1    0    0    0  501  0.00000000000E+00  0.00000000000E+00 -0.97740105095E+03  0.97740105095E+03  0.25500000920E-02 0.  1.
    10030    2    1    2    0    0  0.00000000000E+00  0.00000000000E+00 -0.88181757331E+03  0.10729845286E+04  0.61130480620E+03 0.  0.
        1    1    3    3  502    0  0.16660040677E+02 -0.29693517430E+02  0.92244504002E+02  0.98327567227E+02  0.50400001928E-02 0. -1.
       -1    1    3    3    0  502 -0.16660040677E+02  0.29693517430E+02 -0.97406207731E+03  0.97465696140E+03  0.50400001928E-02 0.  1.
</event>
<event>
 5   0  0.9177281E-02  0.6006992E+03  0.7818609E-02  0.9903956E-01
       -1   -1    0    0    0  501  0.00000000000E+00  0.00000000000E+00  0.61618889206E+03  0.61618889208E+03  0.50400001928E-02 0. -1.
        1   -1    0    0  501    0  0.00000000000E+00  0.00000000000E+00 -0.14639972511E+03  0.14639972519E+03  0.50400001928E-02 0.  1.
    10030    2    1    2    0    0  0.00000000000E+00  0.00000000000E+00  0.46978916695E+03  0.76258861727E+03  0.60069920743E+03 0.  0.
        1    1    3    3  502    0 -0.23745547741E+03 -0.18111271358E+03  0.27549811283E+03  0.40630792384E+03  0.50400001928E-02 0.  1.
       -1    1    3    3    0  502  0.23745547741E+03  0.18111271358E+03  0.19429105413E+03  0.35628069344E+03  0.50400001928E-02 0. -1.
</event>
<event>
 5   0  0.9411028E-02  0.5970716E+03  0.7818609E-02  0.9911500E-01
       -1   -1    0    0    0  501  0.00000000000E+00  0.00000000000E+00  0.12479746807E+03  0.12479746817E+03  0.50400001928E-02 0. -1.
        1   -1    0    0  501    0  0.00000000000E+00  0.00000000000E+00 -0.71414603997E+03  0.71414603999E+03  0.50400001928E-02 0.  1.
    10030    2    1    2    0    0  0.00000000000E+00  0.00000000000E+00 -0.58934857190E+03  0.83894350816E+03  0.59707157919E+03 0.  0.
        4    1    3    3  502    0 -0.18602326875E+03 -0.10939426311E+03 -0.48349384729E+01  0.21586280562E+03  0.12699999809E+01 0. -1.
       -4    1    3    3    0  502  0.18602326875E+03  0.10939426311E+03 -0.58451363343E+03  0.62308070255E+03  0.12699999809E+01 0.  1.
</event>
<event>
 5   0  0.9177281E-02  0.6039794E+03  0.7818609E-02  0.9897184E-01
        1   -1    0    0  501    0  0.00000000000E+00  0.00000000000E+00  0.40714959409E+03  0.40714959413E+03  0.50400001928E-02 0.  1.
       -1   -1    0    0    0  501  0.00000000000E+00  0.00000000000E+00 -0.22399081484E+03  0.22399081489E+03  0.50400001928E-02 0. -1.
    10030    2    1    2    0    0  0.00000000000E+00  0.00000000000E+00  0.18315877926E+03  0.63114040902E+03  0.60397936842E+03 0.  0.
        1    1    3    3  502    0 -0.22402080214E+03  0.12529820145E+03  0.25783414078E+03  0.36381781603E+03  0.50400001928E-02 0.  1.
       -1    1    3    3    0  502  0.22402080214E+03 -0.12529820145E+03 -0.74675361519E+02  0.26732259299E+03  0.50400001928E-02 0. -1.
</event>
<event>
 5   0  0.1513339E-01  0.5951699E+03  0.7818609E-02  0.9915478E-01
        2   -1    0    0  501    0  0.00000000000E+00  0.00000000000E+00  0.99856066986E+03  0.99856066987E+03  0.25500000920E-02 0. -1.
       -2   -1    0    0    0  501  0.00000000000E+00  0.00000000000E+00 -0.88684437279E+02  0.88684437315E+02  0.25500000920E-02 0.  1.
    10030    2    1    2    0    0  0.00000000000E+00  0.00000000000E+00  0.90987623258E+03  0.10872451072E+04  0.59516986186E+03 0.  0.
        3    1    3    3  502    0 -0.11822142386E+03  0.23313089449E+01  0.95380339811E+03  0.96110492274E+03  0.10100000352E+00 0. -1.
       -3    1    3    3    0  502  0.11822142386E+03 -0.23313089449E+01 -0.43927165526E+02  0.12614018445E+03  0.10100000352E+00 0.  1.
</event>
<event>
 5   0  0.1502642E-01  0.5948831E+03  0.7818609E-02  0.9916079E-01
        2   -1    0    0  501    0  0.00000000000E+00  0.00000000000E+00  0.68470782410E+03  0.68470782411E+03  0.25500000920E-02 0.  1.
       -2   -1    0    0    0  501  0.00000000000E+00  0.00000000000E+00 -0.12921053045E+03  0.12921053047E+03  0.25500000920E-02 0. -1.
    10030    2    1    2    0    0  0.00000000000E+00  0.00000000000E+00  0.55549729365E+03  0.81391835458E+03  0.59488305125E+03 0.  0.
        2    1    3    3  502    0 -0.23584822938E+03  0.14021490198E+03  0.12063284577E+03  0.29972802593E+03  0.25500000920E-02 0. -1.
       -2    1    3    3    0  502  0.23584822938E+03 -0.14021490198E+03  0.43486444788E+03  0.51419032865E+03  0.25500000920E-02 0.  1.
</event>
<event>
 5   0  0.9420349E-02  0.6328131E+03  0.7818609E-02  0.9839575E-01
       -1   -1    0    0    0  501  0.00000000000E+00  0.00000000000E+00  0.65609932030E+03  0.65609932032E+03  0.50400001928E-02 0. -1.
        1   -1    0    0  501    0  0.00000000000E+00  0.00000000000E+00 -0.15258834585E+03  0.15258834594E+03  0.50400001928E-02 0.  1.
    10030    2    1    2    0    0  0.00000000000E+00  0.00000000000E+00  0.50351097445E+03  0.80868766626E+03  0.63281311631E+03 0.  0.
        2    1    3    3  502    0  0.75926076167E+02 -0.19330605312E+02 -0.13999608575E+03  0.16042863016E+03  0.25500000920E-02 0.  1.
       -2    1    3    3    0  502 -0.75926076167E+02  0.19330605312E+02  0.64350706020E+03  0.64825903610E+03  0.25500000920E-02 0. -1.
</event>
<event>
 5   0  0.1483942E-01  0.6067721E+03  0.7818609E-02  0.9891455E-01
        2   -1    0    0  501    0  0.00000000000E+00  0.00000000000E+00  0.37776168082E+03  0.37776168083E+03  0.25500000920E-02 0. -1.
       -2   -1    0    0    0  501  0.00000000000E+00  0.00000000000E+00 -0.24365386623E+03  0.24365386625E+03  0.25500000920E-02 0.  1.
    10030    2    1    2    0    0  0.00000000000E+00  0.00000000000E+00  0.13410781459E+03  0.62141554708E+03  0.60677209578E+03 0.  0.
        4    1    3    3  502    0 -0.23487306077E+03 -0.81223272271E+02 -0.11115385131E+03  0.27224872120E+03  0.12699999809E+01 0.  1.
       -4    1    3    3    0  502  0.23487306077E+03  0.81223272271E+02  0.24526166590E+03  0.34916682588E+03  0.12699999809E+01 0. -1.
</event>
<event>
 5   0  0.1488510E-01  0.5908924E+03  0.7818609E-02  0.9924484E-01
        2   -1    0    0  501    0  0.00000000000E+00  0.00000000000E+00  0.67318445757E+03  0.67318445757E+03  0.25500000920E-02 0. -1.
       -2   -1    0    0    0  501  0.00000000000E+00  0.00000000000E+00 -0.12966498047E+03  0.12966498050E+03  0.25500000920E-02 0.  1.
    10030    2    1    2    0    0  0.00000000000E+00  0.00000000000E+00  0.54351947709E+03  0.80284943807E+03  0.59089237449E+03 0.  0.
        5    1    3    3  502    0  0.82258880557E+02 -0.29698827169E+02 -0.11162149630E+03  0.14188020370E+03  0.46999998093E+01 0.  1.
       -5    1    3    3    0  502 -0.82258880557E+02  0.29698827169E+02  0.65514097340E+03  0.66096923437E+03  0.46999998093E+01 0. -1.
</event>
<event>
 5   0  0.9411028E-02  0.5946409E+03  0.7818609E-02  0.9916587E-01
       -1   -1    0    0    0  501  0.00000000000E+00  0.00000000000E+00  0.10149705922E+04  0.10149705922E+04  0.50400001928E-02 0.  1.
        1   -1    0    0  501    0  0.00000000000E+00  0.00000000000E+00 -0.87095569188E+02  0.87095569334E+02  0.50400001928E-02 0. -1.
    10030    2    1    2    0    0  0.00000000000E+00  0.00000000000E+00  0.92787502304E+03  0.11020661616E+04  0.59464087154E+03 0.  0.
        4    1    3    3  502    0  0.29532530857E+02  0.85263765454E+02  0.98897581307E+03  0.99308451394E+03  0.12699999809E+01 0.  1.
       -4    1    3    3    0  502 -0.29532530857E+02 -0.85263765454E+02 -0.61100790035E+02  0.10898164763E+03  0.12699999809E+01 0. -1.
</event>
<event>
 5   0  0.1483942E-01  0.6138860E+03  0.7818609E-02  0.9877009E-01
       -2   -1    0    0    0  501  0.00000000000E+00  0.00000000000E+00  0.85809006725E+02  0.85809006762E+02  0.25500000920E-02 0.  1.
        2   -1    0    0  501    0  0.00000000000E+00  0.00000000000E+00 -0.10979499577E+04  0.10979499577E+04  0.25500000920E-02 0. -1.
    10030    2    1    2    0    0  0.00000000000E+00  0.00000000000E+00 -0.10121409510E+04  0.11837589645E+04  0.61388596769E+03 0.  0.
        4    1    3    3  502    0 -0.22705294113E+02  0.30008523964E+03 -0.62250079749E+03  0.69143006674E+03  0.12699999809E+01 0. -1.
       -4    1    3    3    0  502  0.22705294113E+02 -0.30008523964E+03 -0.38964015353E+03  0.49232889776E+03  0.12699999809E+01 0.  1.
</event>
<event>
 5   0  0.9411028E-02  0.6055515E+03  0.7818609E-02  0.9893955E-01
       -1   -1    0    0    0  501  0.00000000000E+00  0.00000000000E+00  0.24769001206E+03  0.24769001211E+03  0.50400001928E-02 0. -1.
        1   -1    0    0  501    0  0.00000000000E+00  0.00000000000E+00 -0.37011246430E+03  0.37011246434E+03  0.50400001928E-02 0.  1.
    10030    2    1    2    0    0  0.00000000000E+00  0.00000000000E+00 -0.12242245224E+03  0.61780247645E+03  0.60555151976E+03 0.  0.
        4    1    3    3  502    0  0.26455501788E+03 -0.11059152745E+03 -0.16039796528E+03  0.32855587591E+03  0.12699999809E+01 0.  1.
       -4    1    3    3    0  502 -0.26455501788E+03  0.11059152745E+03  0.37975513032E+02  0.28924660053E+03  0.12699999809E+01 0. -1.
</event>
<event>
 5   0  0.1532571E-01  0.6091104E+03  0.7818609E-02  0.9886683E-01
       -2   -1    0    0    0  501  0.00000000000E+00  0.00000000000E+00  0.10161641169E+03  0.10161641172E+03  0.25500000920E-02 0. -1.
        2   -1    0    0  501    0  0.00000000000E+00  0.00000000000E+00 -0.91278422250E+03  0.91278422250E+03  0.25500000920E-02 0.  1.
    10030    2    1    2    0    0  0.00000000000E+00  0.00000000000E+00 -0.81116781081E+03  0.10144006342E+04  0.60911035898E+03 0.  0.
        1    1    3    3  502    0 -0.28856769939E+02  0.94766316873E+02  0.74035584930E+02  0.12367148356E+03  0.50400001928E-02 0. -1.
       -1    1    3    3    0  502  0.28856769939E+02 -0.94766316873E+02 -0.88520339574E+03  0.89072915066E+03  0.50400001928E-02 0.  1.
</event>
<event>
 5   0  0.6170500E-02  0.6092307E+03  0.7818609E-02  0.9886438E-01
        3   -1    0    0  501    0  0.00000000000E+00  0.00000000000E+00  0.62466424728E+03  0.62466425544E+03  0.10100000352E+00 0.  1.
       -3   -1    0    0    0  501  0.00000000000E+00  0.00000000000E+00 -0.14854456685E+03  0.14854460119E+03  0.10100000352E+00 0. -1.
    10030    2    1    2    0    0  0.00000000000E+00  0.00000000000E+00  0.47611968043E+03  0.77320885663E+03  0.60923065081E+03 0.  0.
        5    1    3    3  502    0  0.82871988017E+02  0.14954960208E+03 -0.81846976648E+02  0.18961505073E+03  0.46999998093E+01 0. -1.
       -5    1    3    3    0  502 -0.82871988017E+02 -0.14954960208E+03  0.55796665708E+03  0.58359380590E+03  0.46999998093E+01 0.  1.
</event>
<event>
 5   0  0.9420349E-02  0.5959933E+03  0.7818609E-02  0.9913754E-01
       -1   -1    0    0    0  501  0.00000000000E+00  0.00000000000E+00  0.14920063949E+03  0.14920063957E+03  0.50400001928E-02 0.  1.
        1   -1    0    0  501    0  0.00000000000E+00  0.00000000000E+00 -0.59518522456E+03  0.59518522459E+03  0.50400001928E-02 0. -1.
    10030    2    1    2    0    0  0.00000000000E+00  0.00000000000E+00 -0.44598458508E+03  0.74438586416E+03  0.59599334277E+03 0.  0.
        2    1    3    3  502    0 -0.13825313042E+03  0.90377560878E+02  0.86795869159E+02  0.18658926682E+03  0.25500000920E-02 0.  1.
       -2    1    3    3    0  502  0.13825313042E+03 -0.90377560878E+02 -0.53278045424E+03  0.55779659734E+03  0.25500000920E-02 0. -1.
</event>
<event>
 5   0  0.1502642E-01  0.5856571E+03  0.7818609E-02  0.9935618E-01
       -2   -1    0    0    0  501  0.00000000000E+00  0.00000000000E+00  0.67509435935E+02  0.67509435983E+02  0.25500000920E-02 0.  1.
        2   -1    0    0  501    0  0.00000000000E+00  0.00000000000E+00 -0.12701716690E+04  0.12701716690E+04  0.25500000920E-02 0. -1.
    10030    2    1    2    0    0  0.00000000000E+00  0.00000000000E+00 -0.12026622330E+04  0.13376811050E+04  0.58565714526E+03 0.  0.
        2    1    3    3  502    0  0.24205334280E+03  0.10175440746E+03 -0.89742247100E+03  0.93504591955E+03  0.25500000920E-02 0. -1.
       -2    1    3    3    0  502 -0.24205334280E+03 -0.10175440746E+03 -0.30523976204E+03  0.40263518541E+03  0.25500000920E-02 0.  1.
</event>
<event>
 5   0  0.1502642E-01  0.6109040E+03  0.7818609E-02  0.9883038E-01
       -2   -1    0    0    0  501  0.00000000000E+00  0.00000000000E+00  0.14037193893E+03  0.14037193896E+03  0.25500000920E-02 0. -1.
        2   -1    0    0  501    0  0.00000000000E+00  0.00000000000E+00 -0.66466937401E+03  0.66466937401E+03  0.25500000920E-02 0.  1.
    10030    2    1    2    0    0  0.00000000000E+00  0.00000000000E+00 -0.52429743508E+03  0.80504131297E+03  0.61090401469E+03 0.  0.
        2    1    3    3  502    0 -0.27393212159E+03  0.10268066219E+03 -0.14637228279E+03  0.32711919968E+03  0.25500000920E-02 0.  1.
       -2    1    3    3    0  502  0.27393212159E+03 -0.10268066219E+03 -0.37792515229E+03  0.47792211329E+03  0.25500000920E-02 0. -1.
</event>
<event>
 5   0  0.9411028E-02  0.5825313E+03  0.7818609E-02  0.9942326E-01
        1   -1    0    0  501    0  0.00000000000E+00  0.00000000000E+00  0.58444746157E+03  0.58444746159E+03  0.50400001928E-02 0.  1.
       -1   -1    0    0    0  501  0.00000000000E+00  0.00000000000E+00 -0.14515536656E+03  0.14515536665E+03  0.50400001928E-02 0. -1.
    10030    2    1    2    0    0  0.00000000000E+00  0.00000000000E+00  0.43929209501E+03  0.72960282824E+03  0.58253132297E+03 0.  0.
        4    1    3    3  502    0  0.33033560578E+02 -0.25790761300E+03  0.55259604334E+02  0.26582473501E+03  0.12699999809E+01 0. -1.
       -4    1    3    3    0  502 -0.33033560578E+02  0.25790761300E+03  0.38403249067E+03  0.46377809323E+03  0.12699999809E+01 0.  1.
</event>
<event>
 5   0  0.9497860E-02  0.5738263E+03  0.7818609E-02  0.9961247E-01
       -1   -1    0    0    0  501  0.00000000000E+00  0.00000000000E+00  0.22626975255E+03  0.22626975261E+03  0.50400001928E-02 0. -1.
        1   -1    0    0  501    0  0.00000000000E+00  0.00000000000E+00 -0.36380978646E+03  0.36380978649E+03  0.50400001928E-02 0.  1.
    10030    2    1    2    0    0  0.00000000000E+00  0.00000000000E+00 -0.13754003391E+03  0.59007953910E+03  0.57382628167E+03 0.  0.
        5    1    3    3  502    0  0.29588469831E+02  0.11111427323E+03 -0.33903588345E+03  0.35803530486E+03  0.46999998093E+01 0.  1.
       -5    1    3    3    0  502 -0.29588469831E+02 -0.11111427323E+03  0.20149584954E+03  0.23204423424E+03  0.46999998093E+01 0. -1.
</event>
<event>
 5   0  0.6170500E-02  0.5969136E+03  0.7818609E-02  0.9911830E-01
        4   -1    0    0  501    0  0.00000000000E+00  0.00000000000E+00  0.29846254402E+03  0.29846524602E+03  0.12699999809E+01 0.  1.
       -4   -1    0    0    0  501  0.00000000000E+00  0.00000000000E+00 -0.29844567153E+03  0.29844837368E+03  0.12699999809E+01 0. -1.
    10030    2    1    2    0    0  0.00000000000E+00  0.00000000000E+00  0.16872490284E-01  0.59691361970E+03  0.59691361946E+03 0.  0.
        4    1    3    3  502    0 -0.47478418518E+02 -0.28822632223E+03  0.61214982683E+02  0.29845853993E+03  0.12699999809E+01 0.  1.
       -4    1    3    3    0  502  0.47478418518E+02  0.28822632223E+03 -0.61198110193E+02  0.29845507977E+03  0.12699999809E+01 0. -1.
</event>
<event>
 5   0  0.1513339E-01  0.6484461E+03  0.7818609E-02  0.9809699E-01
       -2   -1    0    0    0  501  0.00000000000E+00  0.00000000000E+00  0.98739769895E+02  0.98739769928E+02  0.25500000920E-02 0.  1.
        2   -1    0    0  501    0  0.00000000000E+00  0.00000000000E+00 -0.10646226593E+04  0.10646226593E+04  0.25500000920E-02 0. -1.
    10030    2    1    2    0    0  0.00000000000E+00  0.00000000000E+00 -0.96588288939E+03  0.11633624292E+04  0.64844613168E+03 0.  0.
        3    1    3    3  502    0  0.14812728005E+03 -0.22789987323E+03 -0.80004449282E+03  0.84495635627E+03  0.10100000352E+00 0. -1.
       -3    1    3    3    0  502 -0.14812728005E+03  0.22789987323E+03 -0.16583839657E+03  0.31840607295E+03  0.10100000352E+00 0.  1.
</event>
<event>
 5   0  0.6170500E-02  0.5480068E+03  0.7818609E-02  0.1001956E+00
        4   -1    0    0  501    0  0.00000000000E+00  0.00000000000E+00  0.42388430179E+03  0.42388620431E+03  0.12699999809E+01 0. -1.
       -4   -1    0    0    0  501  0.00000000000E+00  0.00000000000E+00 -0.17711415759E+03  0.17711871081E+03  0.12699999809E+01 0.  1.
    10030    2    1    2    0    0  0.00000000000E+00  0.00000000000E+00  0.24677014419E+03  0.60100491512E+03  0.54800675537E+03 0.  0.
        1    1    3    3  502    0 -0.16385077854E+03 -0.20897120919E+03  0.19745818022E+03  0.33091657084E+03  0.50400001928E-02 0. -1.
       -1    1    3    3    0  502  0.16385077854E+03  0.20897120919E+03  0.49311963978E+02  0.27008834428E+03  0.50400001928E-02 0.  1.
</event>
<event>
 5   0  0.9177281E-02  0.6016998E+03  0.7818609E-02  0.9901886E-01
       -1   -1    0    0    0  501  0.00000000000E+00  0.00000000000E+00  0.18673105457E+03  0.18673105464E+03  0.50400001928E-02 0.  1.
        1   -1    0    0  501    0  0.00000000000E+00  0.00000000000E+00 -0.48471138925E+03  0.48471138927E+03  0.50400001928E-02 0. -1.
    10030    2    1    2    0    0  0.00000000000E+00  0.00000000000E+00 -0.29798033467E+03  0.67144244391E+03  0.60169982187E+03 0.  0.
        1    1    3    3  502    0  0.27050289881E+03 -0.11613200391E+03 -0.21825037486E+03  0.36645830151E+03  0.50400001928E-02 0. -1.
       -1    1    3    3    0  502 -0.27050289881E+03  0.11613200391E+03 -0.79729959818E+02  0.30498414240E+03  0.50400001928E-02 0.  1.
</event>
<event>
 5   0  0.1532571E-01  0.5917007E+03  0.7818609E-02  0.9922776E-01
       -2   -1    0    0    0  501  0.00000000000E+00  0.00000000000E+00  0.20567593075E+03  0.20567593077E+03  0.25500000920E-02 0.  1.
        2   -1    0    0  501    0  0.00000000000E+00  0.00000000000E+00 -0.42555996562E+03  0.42555996563E+03  0.25500000920E-02 0. -1.
    10030    2    1    2    0    0  0.00000000000E+00  0.00000000000E+00 -0.21988403487E+03  0.63123589640E+03  0.59170074203E+03 0.  0.
        1    1    3    3  502    0  0.15541526947E+03 -0.12286482276E+03 -0.34434502554E+03  0.39726964054E+03  0.50400001928E-02 0. -1.
       -1    1    3    3    0  502 -0.15541526947E+03  0.12286482276E+03  0.12446099067E+03  0.23396625586E+03  0.50400001928E-02 0.  1.
</event>
<event>
 5   0  0.9497860E-02  0.6039643E+03  0.7818609E-02  0.9897215E-01
        1   -1    0    0  501    0  0.00000000000E+00  0.00000000000E+00  0.15273414932E+03  0.15273414941E+03  0.50400001928E-02 0. -1.
       -1   -1    0    0    0  501  0.00000000000E+00  0.00000000000E+00 -0.59707150266E+03  0.59707150269E+03  0.50400001928E-02 0.  1.
    10030    2    1    2    0    0  0.00000000000E+00  0.00000000000E+00 -0.44433735334E+03  0.74980565209E+03  0.60396426412E+03 0.  0.
        5    1    3    3  502    0 -0.28456160021E+03  0.78052332190E+02 -0.30169711895E+03  0.42203164864E+03  0.46999998093E+01 0. -1.
       -5    1    3    3    0  502  0.28456160021E+03 -0.78052332190E+02 -0.14264023439E+03  0.32777400345E+03  0.46999998093E+01 0.  1.
</event>
<event>
 5   0  0.9497860E-02  0.4234229E+03  0.7818609E-02  0.1035958E+00
       -1   -1    0    0    0  501  0.00000000000E+00  0.00000000000E+00  0.54993604307E+02  0.54993604538E+02  0.50400001928E-02 0. -1.
        1   -1    0    0  501    0  0.00000000000E+00  0.00000000000E+00 -0.81503560495E+03  0.81503560497E+03  0.50400001928E-02 0.  1.
    10030    2    1    2    0    0  0.00000000000E+00  0.00000000000E+00 -0.76004200065E+03  0.87002920951E+03  0.42342293591E+03 0.  0.
        5    1    3    3  502    0 -0.82739294148E+02 -0.15569565649E+03 -0.62063526792E+03  0.64521093763E+03  0.46999998093E+01 0.  1.
       -5    1    3    3    0  502  0.82739294148E+02  0.15569565649E+03 -0.13940673272E+03  0.22481827188E+03  0.46999998093E+01 0. -1.
</event>
<event>
 5   0  0.1502642E-01  0.5947445E+03  0.7818609E-02  0.9916370E-01
        2   -1    0    0  501    0  0.00000000000E+00  0.00000000000E+00  0.24788340152E+03  0.24788340153E+03  0.25500000920E-02 0.  1.
       -2   -1    0    0    0  501  0.00000000000E+00  0.00000000000E+00 -0.35674137820E+03  0.35674137821E+03  0.25500000920E-02 0. -1.
    10030    2    1    2    0    0  0.00000000000E+00  0.00000000000E+00 -0.10885797668E+03  0.60462477974E+03  0.59474453775E+03 0.  0.
        2    1    3    3  502    0 -0.64684385979E+02  0.20968018987E+03  0.14960496545E+03  0.26557766756E+03  0.25500000920E-02 0.  1.
       -2    1    3    3    0  502  0.64684385979E+02 -0.20968018987E+03 -0.25846294213E+03  0.33904711218E+03  0.25500000920E-02 0. -1.
</event>
<event>
 5   0  0.1502642E-01  0.4517141E+03  0.7818609E-02  0.1027212E+00
        2   -1    0    0  501    0  0.00000000000E+00  0.00000000000E+00  0.12647178197E+04  0.12647178197E+04  0.25500000920E-02 0.  1.
       -2   -1    0    0    0  501  0.00000000000E+00  0.00000000000E+00 -0.40334215807E+02  0.40334215888E+02  0.25500000920E-02 0. -1.
    10030    2    1    2    0    0  0.00000000000E+00  0.00000000000E+00  0.12243836039E+04  0.13050520356E+04  0.45171407563E+03 0.  0.
        2    1    3    3  502    0  0.19649120264E+03 -0.25566183285E+01  0.29052498705E+03  0.35074220892E+03  0.25500000920E-02 0.  1.
       -2    1    3    3    0  502 -0.19649120264E+03  0.25566183285E+01  0.93385861686E+03  0.95430982668E+03  0.25500000920E-02 0. -1.
</event>
<event>
 5   0  0.9177281E-02  0.5753672E+03  0.7818609E-02  0.9957872E-01
        1   -1    0    0  501    0  0.00000000000E+00  0.00000000000E+00  0.65389363005E+03  0.65389363007E+03  0.50400001928E-02 0.  1.
       -1   -1    0    0    0  501  0.00000000000E+00  0.00000000000E+00 -0.12656776010E+03  0.12656776020E+03  0.50400001928E-02 0. -1.
    10030    2    1    2    0    0  0.00000000000E+00  0.00000000000E+00  0.52732586995E+03  0.78046139027E+03  0.57536719457E+03 0.  0.
        1    1    3    3  502    0 -0.19010167743E+03  0.21456753677E+03  0.23088330699E+03  0.36808283996E+03  0.50400001928E-02 0.  1.
       -1    1    3    3    0  502  0.19010167743E+03 -0.21456753677E+03  0.29644256296E+03  0.41237855031E+03  0.50400001928E-02 0. -1.
</event>
<event>
 5   0  0.1488510E-01  0.5827618E+03  0.7818609E-02  0.9941830E-01
        2   -1    0    0  501    0  0.00000000000E+00  0.00000000000E+00  0.16500707534E+04  0.16500707534E+04  0.25500000920E-02 0. -1.
       -2   -1    0    0    0  501  0.00000000000E+00  0.00000000000E+00 -0.51454051124E+02  0.51454051187E+02  0.25500000920E-02 0.  1.
    10030    2    1    2    0    0  0.00000000000E+00  0.00000000000E+00  0.15986167023E+04  0.17015248046E+04  0.58276178653E+03 0.  0.
        5    1    3    3  502    0  0.26764811013E+03 -0.87773809604E+02  0.10166488232E+04  0.10549581377E+04  0.46999998093E+01 0.  1.
       -5    1    3    3    0  502 -0.26764811013E+03  0.87773809604E+02  0.58196787905E+03  0.64656666691E+03  0.46999998093E+01 0. -1.
</event>
<event>
 5   0  0.9411028E-02  0.6412335E+03  0.7818609E-02  0.9823369E-01
       -1   -1    0    0    0  501  0.00000000000E+00  0.00000000000E+00  0.12411478419E+04  0.12411478419E+04  0.50400001928E-02 0.  1.
        1   -1    0    0  501    0  0.00000000000E+00  0.00000000000E+00 -0.82822607665E+02  0.82822607818E+02  0.50400001928E-02 0. -1.
    10030    2    1    2    0    0  0.00000000000E+00  0.00000000000E+00  0.11583252342E+04  0.13239704497E+04  0.64123350152E+03 0.  0.
        4    1    3    3  502    0  0.95397309353E+02 -0.11203809676E+02  0.12107365162E+04  0.12145413523E+04  0.12699999809E+01 0.  1.
       -4    1    3    3    0  502 -0.95397309353E+02  0.11203809676E+02 -0.52411281949E+02  0.10942909740E+03  0.12699999809E+01 0. -1.
</event>
<event>
 5   0  0.1502642E-01  0.6008365E+03  0.7818609E-02  0.9903672E-01
        2   -1    0    0  501    0  0.00000000000E+00  0.00000000000E+00  0.40681698222E+03  0.40681698223E+03  0.25500000920E-02 0.  1.
       -2   -1    0    0    0  501  0.00000000000E+00  0.00000000000E+00 -0.22184699926E+03  0.22184699927E+03  0.25500000920E-02 0. -1.
    10030    2    1    2    0    0  0.00000000000E+00  0.00000000000E+00  0.18496998296E+03  0.62866398150E+03  0.60083650608E+03 0.  0.
        2    1    3    3  502    0 -0.15159355874E+03 -0.88063960132E+02  0.34774126773E+03  0.38943530581E+03  0.25500000920E-02 0.  1.
       -2    1    3    3    0  502  0.15159355874E+03  0.88063960132E+02 -0.16277128476E+03  0.23922867569E+03  0.25500000920E-02 0. -1.
</event>
<event>
 5   0  0.8860626E-02  0.5211656E+03  0.7818609E-02  0.1008397E+00
        1   -1    0    0  501    0  0.00000000000E+00  0.00000000000E+00  0.10971894761E+04  0.10971894761E+04  0.50400001928E-02 0. -1.
       -1   -1    0    0    0  501  0.00000000000E+00  0.00000000000E+00 -0.61888493320E+02  0.61888493525E+02  0.50400001928E-02 0.  1.
    10030    2    1    2    0    0  0.00000000000E+00  0.00000000000E+00  0.10353009827E+04  0.11590779696E+04  0.52116563081E+03 0.  0.
        3    1    3    3  502    0  0.19841973352E+03 -0.14898925311E+02  0.89185987983E+03  0.91378685922E+03  0.10100000352E+00 0. -1.
       -3    1    3    3    0  502 -0.19841973352E+03  0.14898925311E+02  0.14344110291E+03  0.24529111038E+03  0.10100000352E+00 0.  1.
</event>
<event>
 5   0  0.9497860E-02  0.5708915E+03  0.7818609E-02  0.9967708E-01
       -1   -1    0    0    0  501  0.00000000000E+00  0.00000000000E+00  0.16356282852E+03  0.16356282859E+03  0.50400001928E-02 0.  1.
        1   -1    0    0  501    0  0.00000000000E+00  0.00000000000E+00 -0.49815282768E+03  0.49815282771E+03  0.50400001928E-02 0. -1.
    10030    2    1    2    0    0  0.00000000000E+00  0.00000000000E+00 -0.33458999917E+03  0.66171565630E+03  0.57089153282E+03 0.  0.
        5    1    3    3  502    0 -0.18500111735E+03  0.13031670485E+03 -0.36888813981E+03  0.43279141243E+03  0.46999998093E+01 0. -1.
       -5    1    3    3    0  502  0.18500111735E+03 -0.13031670485E+03  0.34298140643E+02  0.22892424387E+03  0.46999998093E+01 0.  1.
</event>
<event>
 5   0  0.6170500E-02  0.5837358E+03  0.7818609E-02  0.9939736E-01
        4   -1    0    0  501    0  0.00000000000E+00  0.00000000000E+00  0.20236128405E+03  0.20236526921E+03  0.12699999809E+01 0.  1.
       -4   -1    0    0    0  501  0.00000000000E+00  0.00000000000E+00 -0.42095514044E+03  0.42095705620E+03  0.12699999809E+01 0. -1.
    10030    2    1    2    0    0  0.00000000000E+00  0.00000000000E+00 -0.21859385640E+03  0.62332232541E+03  0.58373576839E+03 0.  0.
        1    1    3    3  502    0  0.15984083272E+03  0.21437421880E+03  0.15603137725E+02  0.26785976821E+03  0.50400001928E-02 0.  1.
       -1    1    3    3    0  502 -0.15984083272E+03 -0.21437421880E+03 -0.23419699412E+03  0.35546255720E+03  0.50400001928E-02 0. -1.
</event>
<event>
 5   0  0.8860626E-02  0.5791601E+03  0.7818609E-02  0.9949611E-01
       -1   -1    0    0    0  501  0.00000000000E+00  0.00000000000E+00  0.17325646866E+03  0.17325646873E+03  0.50400001928E-02 0.  1.
        1   -1    0    0  501    0  0.00000000000E+00  0.00000000000E+00 -0.48400282184E+03  0.48400282187E+03  0.50400001928E-02 0. -1.
    10030    2    1    2    0    0  0.00000000000E+00  0.00000000000E+00 -0.31074635318E+03  0.65725929060E+03  0.57916014975E+03 0.  0.
        3    1    3    3  502    0  0.10058455791E+03  0.19820177137E+03 -0.36602576450E+03  0.42822431732E+03  0.10100000352E+00 0. -1.
       -3    1    3    3    0  502 -0.10058455791E+03 -0.19820177137E+03  0.55279411319E+02  0.22903497327E+03  0.10100000352E+00 0.  1.
</event>
<event>
 5   0  0.1502642E-01  0.6207570E+03  0.7818609E-02  0.9863254E-01
        2   -1    0    0  501    0  0.00000000000E+00  0.00000000000E+00  0.24204128734E+04  0.24204128734E+04  0.25500000920E-02 0. -1.
       -2   -1    0    0    0  501  0.00000000000E+00  0.00000000000E+00 -0.39800978898E+02  0.39800978980E+02  0.25500000920E-02 0.  1.
    10030    2    1    2    0    0  0.00000000000E+00  0.00000000000E+00  0.23806118945E+04  0.24602138524E+04  0.62075696307E+03 0.  0.
        2    1    3    3  502    0  0.48048233236E+02  0.42116894982E+01  0.24054692940E+04  0.24059528041E+04  0.25500000920E-02 0. -1.
       -2    1    3    3    0  502 -0.48048233236E+02 -0.42116894982E+01 -0.24857399508E+02  0.54261048297E+02  0.25500000920E-02 0.  1.
</event>
<event>
 5   0  0.1502642E-01  0.6037174E+03  0.7818609E-02  0.9897724E-01
        2   -1    0    0  501    0  0.00000000000E+00  0.00000000000E+00  0.11366182545E+04  0.11366182545E+04  0.25500000920E-02 0.  1.
       -2   -1    0    0    0  501  0.00000000000E+00  0.00000000000E+00 -0.80166466421E+02  0.80166466462E+02  0.25500000920E-02 0. -1.
    10030    2    1    2    0    0  0.00000000000E+00  0.00000000000E+00  0.10564517881E+04  0.12167847209E+04  0.60371738142E+03 0.  0.
        2    1    3    3  502    0  0.12797373507E+03 -0.15591040596E+03  0.98085129550E+03  0.10013763506E+04  0.25500000920E-02 0.  1.
       -2    1    3    3    0  502 -0.12797373507E+03  0.15591040596E+03  0.75600492556E+02  0.21540837039E+03  0.25500000920E-02 0. -1.
</event>
<event>
 5   0  0.9420349E-02  0.5893180E+03  0.7818609E-02  0.9927819E-01
       -1   -1    0    0    0  501  0.00000000000E+00  0.00000000000E+00  0.77987340810E+02  0.77987340973E+02  0.50400001928E-02 0.  1.
        1   -1    0    0  501    0  0.00000000000E+00  0.00000000000E+00 -0.11133080914E+04  0.11133080914E+04  0.50400001928E-02 0. -1.
    10030    2    1    2    0    0  0.00000000000E+00  0.00000000000E+00 -0.10353207506E+04  0.11912954324E+04  0.58931803860E+03 0.  0.
        2    1    3    3  502    0  0.17315592656E+03 -0.10783417404E+03 -0.94749383658E+03  0.96920367021E+03  0.25500000920E-02 0. -1.
       -2    1    3    3    0  502 -0.17315592656E+03  0.10783417404E+03 -0.87826914023E+02  0.22209176218E+03  0.25500000920E-02 0.  1.
</event>
<event>
 5   0  0.1483942E-01  0.5957017E+03  0.7818609E-02  0.9914364E-01
        2   -1    0    0  501    0  0.00000000000E+00  0.00000000000E+00  0.27237461047E+03  0.27237461048E+03  0.25500000920E-02 0. -1.
       -2   -1    0    0    0  501  0.00000000000E+00  0.00000000000E+00 -0.32570998558E+03  0.32570998559E+03  0.25500000920E-02 0.  1.
    10030    2    1    2    0    0  0.00000000000E+00  0.00000000000E+00 -0.53335375112E+02  0.59808459608E+03  0.59570170541E+03 0.  0.
        4    1    3    3  502    0  0.15087073925E+03 -0.21635160558E+03  0.11224588352E+03  0.28665440598E+03  0.12699999809E+01 0. -1.
       -4    1    3    3    0  502 -0.15087073925E+03  0.21635160558E+03 -0.16558125863E+03  0.31143019010E+03  0.12699999809E+01 0.  1.
</event>
<event>
 5   0  0.9497860E-02  0.7106092E+03  0.7818609E-02  0.9699259E-01
        1   -1    0    0  501    0  0.00000000000E+00  0.00000000000E+00  0.35105786269E+03  0.35105786273E+03  0.50400001928E-02 0. -1.
       -1   -1    0    0    0  501  0.00000000000E+00  0.00000000000E+00 -0.35960273842E+03  0.35960273846E+03  0.50400001928E-02 0.  1.
    10030    2    1    2    0    0  0.00000000000E+00  0.00000000000E+00 -0.85448757265E+01  0.71066060119E+03  0.71060922818E+03 0.  0.
        5    1    3    3  502    0 -0.11542472624E+02  0.33504584268E+03  0.11333850214E+03  0.35391616441E+03  0.46999998093E+01 0. -1.
       -5    1    3    3    0  502  0.11542472624E+02 -0.33504584268E+03 -0.12188337787E+03  0.35674443677E+03  0.46999998093E+01 0.  1.
</event>
<event>
 5   0  0.9497860E-02  0.6031293E+03  0.7818609E-02  0.9898935E-01
       -1   -1    0    0    0  501  0.00000000000E+00  0.00000000000E+00  0.55652837635E+03  0.55652837637E+03  0.50400001928E-02 0.  1.
        1   -1    0    0  501    0  0.00000000000E+00  0.00000000000E+00 -0.16340808950E+03  0.16340808958E+03  0.50400001928E-02 0. -1.
    10030    2    1    2    0    0  0.00000000000E+00  0.00000000000E+00  0.39312028684E+03  0.71993646595E+03  0.60312930212E+03 0.  0.
        5    1    3    3  502    0  0.15861742762E+03 -0.15683281265E+03 -0.45619667036E+02  0.22772629072E+03  0.46999998093E+01 0. -1.
       -5    1    3    3    0  502 -0.15861742762E+03  0.15683281265E+03  0.43873995388E+03  0.49221017523E+03  0.46999998093E+01 0.  1.
</event>
<event>
 5   0  0.8860626E-02  0.6040569E+03  0.7818609E-02  0.9897025E-01
       -1   -1    0    0    0  501  0.00000000000E+00  0.00000000000E+00  0.29446319427E+03  0.29446319432E+03  0.50400001928E-02 0.  1.
        1   -1    0    0  501    0  0.00000000000E+00  0.00000000000E+00 -0.30978806190E+03  0.30978806194E+03  0.50400001928E-02 0. -1.
    10030    2    1    2    0    0  0.00000000000E+00  0.00000000000E+00 -0.15324867629E+02  0.60425125626E+03  0.60405689229E+03 0.  0.
        3    1    3    3  502    0 -0.62905098496E+02  0.29539905729E+03 -0.95385685860E+01  0.30217321019E+03  0.10100000352E+00 0.  1.
       -3    1    3    3    0  502  0.62905098496E+02 -0.29539905729E+03 -0.57862990428E+01  0.30207804607E+03  0.10100000352E+00 0. -1.
</event>
<event>
 5   0  0.1502642E-01  0.6127397E+03  0.7818609E-02  0.9879322E-01
        2   -1    0    0  501    0  0.00000000000E+00  0.00000000000E+00  0.39982469567E+03  0.39982469568E+03  0.25500000920E-02 0.  1.
       -2   -1    0    0    0  501  0.00000000000E+00  0.00000000000E+00 -0.23475912385E+03  0.23475912386E+03  0.25500000920E-02 0. -1.
    10030    2    1    2    0    0  0.00000000000E+00  0.00000000000E+00  0.16506557182E+03  0.63458381954E+03  0.61273973351E+03 0.  0.
        2    1    3    3  502    0 -0.82131569741E+02  0.26274734801E+03  0.22179104155E+03  0.35351524685E+03  0.25500000920E-02 0.  1.
       -2    1    3    3    0  502  0.82131569741E+02 -0.26274734801E+03 -0.56725469722E+02  0.28106857270E+03  0.25500000920E-02 0. -1.
</event>
<event>
 5   0  0.9411028E-02  0.5825972E+03  0.7818609E-02  0.9942184E-01
        1   -1    0    0  501    0  0.00000000000E+00  0.00000000000E+00  0.15024530365E+03  0.15024530374E+03  0.50400001928E-02 0.  1.
       -1   -1    0    0    0  501  0.00000000000E+00  0.00000000000E+00 -0.56477547287E+03  0.56477547289E+03  0.50400001928E-02 0. -1.
    10030    2    1    2    0    0  0.00000000000E+00  0.00000000000E+00 -0.41453016921E+03  0.71502077663E+03  0.58259715913E+03 0.  0.
        4    1    3    3  502    0  0.22858443149E+03 -0.11718811209E+03 -0.37585392000E+03  0.45524902857E+03  0.12699999809E+01 0. -1.
       -4    1    3    3    0  502 -0.22858443149E+03  0.11718811209E+03 -0.38676249213E+02  0.25977174806E+03  0.12699999809E+01 0.  1.
</event>
<event>
 5   0  0.1502642E-01  0.5980586E+03  0.7818609E-02  0.9909442E-01
       -2   -1    0    0    0  501  0.00000000000E+00  0.00000000000E+00  0.18233178462E+03  0.18233178464E+03  0.25500000920E-02 0. -1.
        2   -1    0    0  501    0  0.00000000000E+00  0.00000000000E+00 -0.49041653374E+03  0.49041653375E+03  0.25500000920E-02 0.  1.
    10030    2    1    2    0    0  0.00000000000E+00  0.00000000000E+00 -0.30808474912E+03  0.67274831839E+03  0.59805859852E+03 0.  0.
        2    1    3    3  502    0  0.54433986665E+02  0.28227651561E+03 -0.61449542867E+02  0.29397131917E+03  0.25500000920E-02 0. -1.
       -2    1    3    3    0  502 -0.54433986665E+02 -0.28227651561E+03 -0.24663520625E+03  0.37877699922E+03  0.25500000920E-02 0.  1.
</event>
<event>
 5   0  0.1502642E-01  0.6039177E+03  0.7818609E-02  0.9897311E-01
       -2   -1    0    0    0  501  0.00000000000E+00  0.00000000000E+00  0.12067903351E+03  0.12067903354E+03  0.25500000920E-02 0. -1.
        2   -1    0    0  501    0  0.00000000000E+00  0.00000000000E+00 -0.75555092931E+03  0.75555092931E+03  0.25500000920E-02 0.  1.
    10030    2    1    2    0    0  0.00000000000E+00  0.00000000000E+00 -0.63487189580E+03  0.87622996286E+03  0.60391772928E+03 0.  0.
        2    1    3    3  502    0 -0.21739675264E+03  0.12960904249E+03 -0.78501047674E+02  0.26499484230E+03  0.25500000920E-02 0. -1.
       -2    1    3    3    0  502  0.21739675264E+03 -0.12960904249E+03 -0.55637084812E+03  0.61123512056E+03  0.25500000920E-02 0.  1.
</event>
<event>
 5   0  0.8860626E-02  0.6015951E+03  0.7818609E-02  0.9902102E-01
       -1   -1    0    0    0  501  0.00000000000E+00  0.00000000000E+00  0.11971250296E+03  0.11971250307E+03  0.50400001928E-02 0. -1.
        1   -1    0    0  501    0  0.00000000000E+00  0.00000000000E+00 -0.75580386678E+03  0.75580386680E+03  0.50400001928E-02 0.  1.
    10030    2    1    2    0    0  0.00000000000E+00  0.00000000000E+00 -0.63609136382E+03  0.87551636987E+03  0.60159512198E+03 0.  0.
        3    1    3    3  502    0 -0.26358160647E+03 -0.76880991543E+02 -0.49683880311E+03  0.56765725275E+03  0.10100000352E+00 0.  1.
       -3    1    3    3    0  502  0.26358160647E+03  0.76880991543E+02 -0.13925256071E+03  0.30785911712E+03  0.10100000352E+00 0. -1.
</event>
<event>
 5   0  0.9177281E-02  0.5685056E+03  0.7818609E-02  0.9972991E-01
        1   -1    0    0  501    0  0.00000000000E+00  0.00000000000E+00  0.11071631884E+04  0.11071631885E+04  0.50400001928E-02 0.  1.
       -1   -1    0    0    0  501  0.00000000000E+00  0.00000000000E+00 -0.72978985894E+02  0.72978986068E+02  0.50400001928E-02 0. -1.
    10030    2    1    2    0    0  0.00000000000E+00  0.00000000000E+00  0.10341842026E+04  0.11801421745E+04  0.56850557366E+03 0.  0.
        1    1    3    3  502    0  0.39361057113E+02 -0.25517261638E+03  0.76391342939E+03  0.80636597436E+03  0.50400001928E-02 0.  1.
       -1    1    3    3    0  502 -0.39361057113E+02  0.25517261638E+03  0.27027077316E+03  0.37377620017E+03  0.50400001928E-02 0. -1.
</event>
<event>
 5   0  0.8860626E-02  0.6074537E+03  0.7818609E-02  0.9890061E-01
        1   -1    0    0  501    0  0.00000000000E+00  0.00000000000E+00  0.79314955003E+03  0.79314955004E+03  0.50400001928E-02 0. -1.
       -1   -1    0    0    0  501  0.00000000000E+00  0.00000000000E+00 -0.11630847392E+03  0.11630847403E+03  0.50400001928E-02 0.  1.
    10030    2    1    2    0    0  0.00000000000E+00  0.00000000000E+00  0.67684107611E+03  0.90945802407E+03  0.60745374740E+03 0.  0.
        3    1    3    3  502    0 -0.16690571902E+03  0.24912805719E+03  0.41065302110E+03  0.50848620617E+03  0.10100000352E+00 0. -1.
       -3    1    3    3    0  502  0.16690571902E+03 -0.24912805719E+03  0.26618805501E+03  0.40097181790E+03  0.10100000352E+00 0.  1.
</event>
<event>
 5   0  0.9497860E-02  0.6026650E+03  0.7818609E-02  0.9899892E-01
       -1   -1    0    0    0  501  0.00000000000E+00  0.00000000000E+00  0.30249240449E+03  0.30249240453E+03  0.50400001928E-02 0.  1.
        1   -1    0    0  501    0  0.00000000000E+00  0.00000000000E+00 -0.30017707956E+03  0.30017707961E+03  0.50400001928E-02 0. -1.
    10030    2    1    2    0    0  0.00000000000E+00  0.00000000000E+00  0.23153249257E+01  0.60266948414E+03  0.60266503663E+03 0.  0.
        5    1    3    3  502    0  0.57907560681E+02 -0.25960969978E+03  0.14268154881E+03  0.30187844602E+03  0.46999998093E+01 0.  1.
       -5    1    3    3    0  502 -0.57907560681E+02  0.25960969978E+03 -0.14036622389E+03  0.30079103811E+03  0.46999998093E+01 0. -1.
</event>
<event>
 5   0  0.9411028E-02  0.6022125E+03  0.7818609E-02  0.9900826E-01
       -1   -1    0    0    0  501  0.00000000000E+00  0.00000000000E+00  0.12181609998E+03  0.12181610009E+03  0.50400001928E-02 0. -1.
        1   -1    0    0  501    0  0.00000000000E+00  0.00000000000E+00 -0.74427746246E+03  0.74427746248E+03  0.50400001928E-02 0.  1.
    10030    2    1    2    0    0  0.00000000000E+00  0.00000000000E+00 -0.62246136248E+03  0.86609356257E+03  0.60221251343E+03 0.  0.
        4    1    3    3  502    0  0.19205766618E+03  0.14116176522E+03 -0.46625677383E+02  0.24287518974E+03  0.12699999809E+01 0.  1.
       -4    1    3    3    0  502 -0.19205766618E+03 -0.14116176522E+03 -0.57583568510E+03  0.62321837283E+03  0.12699999809E+01 0. -1.
</event>
<event>
 5   0  0.9420349E-02  0.5996782E+03  0.7818609E-02  0.9906074E-01
        1   -1    0    0  501    0  0.00000000000E+00  0.00000000000E+00  0.60137218705E+03  0.60137218707E+03  0.50400001928E-02 0. -1.
       -1   -1    0    0    0  501  0.00000000000E+00  0.00000000000E+00 -0.14949725847E+03  0.14949725856E+03  0.50400001928E-02 0.  1.
    10030    2    1    2    0    0  0.00000000000E+00  0.00000000000E+00  0.45187492858E+03  0.75086944563E+03  0.59967822481E+03 0.  0.
        2    1    3    3  502    0 -0.28566165473E+03 -0.76491239504E+02  0.28791430399E+03  0.41273252495E+03  0.25500000920E-02 0. -1.
       -2    1    3    3    0  502  0.28566165473E+03  0.76491239504E+02  0.16396062458E+03  0.33813692068E+03  0.25500000920E-02 0.  1.
</event>
<event>
 5   0  0.1532571E-01  0.6103724E+03  0.7818609E-02  0.9884117E-01
        2   -1    0    0  501    0  0.00000000000E+00  0.00000000000E+00  0.64794070581E+03  0.64794070582E+03  0.25500000920E-02 0.  1.
       -2   -1    0    0    0  501  0.00000000000E+00  0.00000000000E+00 -0.14374559716E+03  0.14374559719E+03  0.25500000920E-02 0. -1.
    10030    2    1    2    0    0  0.00000000000E+00  0.00000000000E+00  0.50419510865E+03  0.79168630300E+03  0.61037242302E+03 0.  0.
        1    1    3    3  502    0  0.23470811007E+03  0.54030508138E+02  0.89856936773E+01  0.24101438848E+03  0.50400001928E-02 0. -1.
       -1    1    3    3    0  502 -0.23470811007E+03 -0.54030508138E+02  0.49520941497E+03  0.55067191452E+03  0.50400001928E-02 0.  1.
</event>
<event>
 5   0  0.1513339E-01  0.5993117E+03  0.7818609E-02  0.9906835E-01
       -2   -1    0    0    0  501  0.00000000000E+00  0.00000000000E+00  0.59306762265E+02  0.59306762320E+02  0.25500000920E-02 0.  1.
        2   -1    0    0  501    0  0.00000000000E+00  0.00000000000E+00 -0.15140540345E+04  0.15140540345E+04  0.25500000920E-02 0. -1.
    10030    2    1    2    0    0  0.00000000000E+00  0.00000000000E+00 -0.14547472722E+04  0.15733607968E+04  0.59931174768E+03 0.  0.
        3    1    3    3  502    0  0.16819468256E+03 -0.40071141282E+02 -0.13698889048E+04  0.13807573173E+04  0.10100000352E+00 0. -1.
       -3    1    3    3    0  502 -0.16819468256E+03  0.40071141282E+02 -0.84858367473E+02  0.19260347955E+03  0.10100000352E+00 0.  1.
</event>
<event>
 5   0  0.9497860E-02  0.6196104E+03  0.7818609E-02  0.9865536E-01
        1   -1    0    0  501    0  0.00000000000E+00  0.00000000000E+00  0.97035650852E+03  0.97035650853E+03  0.50400001928E-02 0.  1.
       -1   -1    0    0    0  501  0.00000000000E+00  0.00000000000E+00 -0.98911347548E+02  0.98911347677E+02  0.50400001928E-02 0. -1.
    10030    2    1    2    0    0  0.00000000000E+00  0.00000000000E+00  0.87144516097E+03  0.10692678562E+04  0.61961042579E+03 0.  0.
        5    1    3    3  502    0  0.88426079069E+02 -0.64461811943E+02  0.93582927478E+03  0.94221707594E+03  0.46999998093E+01 0.  1.
       -5    1    3    3    0  502 -0.88426079069E+02  0.64461811943E+02 -0.64384113808E+02  0.12705078027E+03  0.46999998093E+01 0. -1.
</event>
<event>
 5   0  0.1502642E-01  0.6187089E+03  0.7818609E-02  0.9867334E-01
       -2   -1    0    0    0  501  0.00000000000E+00  0.00000000000E+00  0.26091925622E+03  0.26091925623E+03  0.25500000920E-02 0.  1.
        2   -1    0    0  501    0  0.00000000000E+00  0.00000000000E+00 -0.36678081194E+03  0.36678081195E+03  0.25500000920E-02 0. -1.
    10030    2    1    2    0    0  0.00000000000E+00  0.00000000000E+00 -0.10586155573E+03  0.62770006818E+03  0.61870890297E+03 0.  0.
        2    1    3    3  502    0  0.74535968898E+02 -0.23178774487E+02 -0.35662570069E+03  0.36506815342E+03  0.25500000920E-02 0. -1.
       -2    1    3    3    0  502 -0.74535968898E+02  0.23178774487E+02  0.25076414496E+03  0.26263191476E+03  0.25500000920E-02 0.  1.
</event>
<event>
 5   0  0.1483942E-01  0.5956022E+03  0.7818609E-02  0.9914572E-01
        2   -1    0    0  501    0  0.00000000000E+00  0.00000000000E+00  0.11553894959E+04  0.11553894959E+04  0.25500000920E-02 0. -1.
       -2   -1    0    0    0  501  0.00000000000E+00  0.00000000000E+00 -0.76758089963E+02  0.76758090005E+02  0.25500000920E-02 0.  1.
    10030    2    1    2    0    0  0.00000000000E+00  0.00000000000E+00  0.10786314059E+04  0.12321475859E+04  0.59560218567E+03 0.  0.
        4    1    3    3  502    0  0.17411004235E+03 -0.24114150741E+03  0.50860727343E+03  0.58919139923E+03  0.12699999809E+01 0.  1.
       -4    1    3    3    0  502 -0.17411004235E+03  0.24114150741E+03  0.57002413246E+03  0.64295618663E+03  0.12699999809E+01 0. -1.
</event>
<event>
 5   0  0.9411028E-02  0.5764317E+03  0.7818609E-02  0.9955546E-01
        1   -1    0    0  501    0  0.00000000000E+00  0.00000000000E+00  0.11974310051E+03  0.11974310062E+03  0.50400001928E-02 0. -1.
       -1   -1    0    0    0  501  0.00000000000E+00  0.00000000000E+00 -0.69372155729E+03  0.69372155731E+03  0.50400001928E-02 0.  1.
    10030    2    1    2    0    0  0.00000000000E+00  0.00000000000E+00 -0.57397845677E+03  0.81346465793E+03  0.57643167926E+03 0.  0.
        4    1    3    3  502    0 -0.44768902864E+00  0.25947162765E+03 -0.10993453632E+03  0.28180301835E+03  0.12699999809E+01 0. -1.
       -4    1    3    3    0  502  0.44768902864E+00 -0.25947162765E+03 -0.46404392046E+03  0.53166163957E+03  0.12699999809E+01 0.  1.
</event>
<event>
 5   0  0.1488510E-01  0.3917658E+03  0.7818609E-02  0.1046669E+00
       -2   -1    0    0    0  501  0.00000000000E+00  0.00000000000E+00  0.75499270777E+02  0.75499270820E+02  0.25500000920E-02 0.  1.
        2   -1    0    0  501    0  0.00000000000E+00  0.00000000000E+00 -0.50821818665E+03  0.50821818666E+03  0.25500000920E-02 0. -1.
    10030    2    1    2    0    0  0.00000000000E+00  0.00000000000E+00 -0.43271891587E+03  0.58371745748E+03  0.39176575911E+03 0.  0.
        5    1    3    3  502    0  0.13466356215E+02 -0.17247732885E+03 -0.79653677477E+02  0.19051658734E+03  0.46999998093E+01 0.  1.
       -5    1    3    3    0  502 -0.13466356215E+02  0.17247732885E+03 -0.35306523840E+03  0.39320087014E+03  0.46999998093E+01 0. -1.
</event>
<event>
 5   0  0.1532571E-01  0.5992640E+03  0.7818609E-02  0.9906934E-01
       -2   -1    0    0    0  501  0.00000000000E+00  0.00000000000E+00  0.99032459306E+02  0.99032459338E+02  0.25500000920E-02 0. -1.
        2   -1    0    0  501    0  0.00000000000E+00  0.00000000000E+00 -0.90656465218E+03  0.90656465218E+03  0.25500000920E-02 0.  1.
    10030    2    1    2    0    0  0.00000000000E+00  0.00000000000E+00 -0.80753219288E+03  0.10055971115E+04  0.59926397203E+03 0.  0.
        1    1    3    3  502    0 -0.27211486764E+03  0.13364735364E+02 -0.61304710674E+03  0.67085905557E+03  0.50400001928E-02 0.  1.
       -1    1    3    3    0  502  0.27211486764E+03 -0.13364735364E+02 -0.19448508614E+03  0.33473805595E+03  0.50400001928E-02 0. -1.
</event>
<event>
 5   0  0.9411028E-02  0.5962017E+03  0.7818609E-02  0.9913318E-01
       -1   -1    0    0    0  501  0.00000000000E+00  0.00000000000E+00  0.26305867635E+03  0.26305867640E+03  0.50400001928E-02 0. -1.
        1   -1    0    0  501    0  0.00000000000E+00  0.00000000000E+00 -0.33781096736E+03  0.33781096739E+03  0.50400001928E-02 0.  1.
    10030    2    1    2    0    0  0.00000000000E+00  0.00000000000E+00 -0.74752291002E+02  0.60086964380E+03  0.59620166372E+03 0.  0.
        4    1    3    3  502    0 -0.91822275566E+02 -0.18966864055E+03 -0.24987520287E+03  0.32687115720E+03  0.12699999809E+01 0.  1.
       -4    1    3    3    0  502  0.91822275566E+02  0.18966864055E+03  0.17512291187E+03  0.27399848660E+03  0.12699999809E+01 0. -1.
</event>
<event>
 5   0  0.6170500E-02  0.5875772E+03  0.7818609E-02  0.9931520E-01
       -3   -1    0    0    0  501  0.00000000000E+00  0.00000000000E+00  0.40236758036E+03  0.40236759304E+03  0.10100000352E+00 0.  1.
        3   -1    0    0  501    0  0.00000000000E+00  0.00000000000E+00 -0.21450967895E+03  0.21450970273E+03  0.10100000352E+00 0. -1.
    10030    2    1    2    0    0  0.00000000000E+00  0.00000000000E+00  0.18785790141E+03  0.61687729577E+03  0.58757723485E+03 0.  0.
        2    1    3    3  502    0  0.25634221690E+03 -0.11828336908E+02 -0.56244117011E+02  0.26270638063E+03  0.25500000920E-02 0. -1.
       -2    1    3    3    0  502 -0.25634221690E+03  0.11828336908E+02  0.24410201842E+03  0.35417091513E+03  0.25500000920E-02 0.  1.
</event>
<event>
 5   0  0.9177281E-02  0.6004198E+03  0.7818609E-02  0.9904535E-01
        1   -1    0    0  501    0  0.00000000000E+00  0.00000000000E+00  0.34652102710E+03  0.34652102713E+03  0.50400001928E-02 0.  1.
       -1   -1    0    0    0  501  0.00000000000E+00  0.00000000000E+00 -0.26008806871E+03  0.26008806875E+03  0.50400001928E-02 0. -1.
    10030    2    1    2    0    0  0.00000000000E+00  0.00000000000E+00  0.86432958390E+02  0.60660909589E+03  0.60041980224E+03 0.  0.
        1    1    3    3  502    0  0.28921669972E+03  0.28537561788E+02 -0.32827545489E+02  0.29246938232E+03  0.50400001928E-02 0. -1.
       -1    1    3    3    0  502 -0.28921669972E+03 -0.28537561788E+02  0.11926050388E+03  0.31413971356E+03  0.50400001928E-02 0.  1.
</event>
<event>
 5   0  0.1483942E-01  0.6058435E+03  0.7818609E-02  0.9893356E-01
        2   -1    0    0  501    0  0.00000000000E+00  0.00000000000E+00  0.14710975293E+03  0.14710975295E+03  0.25500000920E-02 0.  1.
       -2   -1    0    0    0  501  0.00000000000E+00  0.00000000000E+00 -0.62376275301E+03  0.62376275301E+03  0.25500000920E-02 0. -1.
    10030    2    1    2    0    0  0.00000000000E+00  0.00000000000E+00 -0.47665300008E+03  0.77087250596E+03  0.60584349296E+03 0.  0.
        4    1    3    3  502    0 -0.12847482652E+03 -0.84656784357E+01 -0.58721010087E+03  0.60116117990E+03  0.12699999809E+01 0. -1.
       -4    1    3    3    0  502  0.12847482652E+03  0.84656784357E+01  0.11055710079E+03  0.16971132606E+03  0.12699999809E+01 0.  1.
</event>
<event>
 5   0  0.1513339E-01  0.5949386E+03  0.7818609E-02  0.9915963E-01
        2   -1    0    0  501    0  0.00000000000E+00  0.00000000000E+00  0.25157850058E+03  0.25157850059E+03  0.25500000920E-02 0. -1.
       -2   -1    0    0    0  501  0.00000000000E+00  0.00000000000E+00 -0.35173115202E+03  0.35173115203E+03  0.25500000920E-02 0.  1.
    10030    2    1    2    0    0  0.00000000000E+00  0.00000000000E+00 -0.10015265144E+03  0.60330965262E+03  0.59493863831E+03 0.  0.
        3    1    3    3  502    0  0.14954188769E+02  0.25506683816E+03 -0.20455245323E+03  0.32729869540E+03  0.10100000352E+00 0.  1.
       -3    1    3    3    0  502 -0.14954188769E+02 -0.25506683816E+03  0.10439980178E+03  0.27601095722E+03  0.10100000352E+00 0. -1.
</event>
<event>
 5   0  0.1502642E-01  0.5899732E+03  0.7818609E-02  0.9926430E-01
        2   -1    0    0  501    0  0.00000000000E+00  0.00000000000E+00  0.26860424186E+03  0.26860424187E+03  0.25500000920E-02 0. -1.
       -2   -1    0    0    0  501  0.00000000000E+00  0.00000000000E+00 -0.32396020477E+03  0.32396020478E+03  0.25500000920E-02 0.  1.
    10030    2    1    2    0    0  0.00000000000E+00  0.00000000000E+00 -0.55355962916E+02  0.59256444665E+03  0.58997316956E+03 0.  0.
        2    1    3    3  502    0  0.26722868643E+03 -0.12316027209E+03 -0.48685432452E+02  0.29824468949E+03  0.25500000920E-02 0.  1.
       -2    1    3    3    0  502 -0.26722868643E+03  0.12316027209E+03 -0.66705304643E+01  0.29431975716E+03  0.25500000920E-02 0. -1.
</event>
<event>
 5   0  0.1502642E-01  0.5881999E+03  0.7818609E-02  0.9930194E-01
       -2   -1    0    0    0  501  0.00000000000E+00  0.00000000000E+00  0.17099596879E+03  0.17099596881E+03  0.25500000920E-02 0.  1.
        2   -1    0    0  501    0  0.00000000000E+00  0.00000000000E+00 -0.50582941127E+03  0.50582941127E+03  0.25500000920E-02 0. -1.
    10030    2    1    2    0    0  0.00000000000E+00  0.00000000000E+00 -0.33483344248E+03  0.67682538008E+03  0.58819993277E+03 0.  0.
        2    1    3    3  502    0 -0.46170223033E+02 -0.22762880315E+03  0.40177540528E+02  0.23571337741E+03  0.25500000920E-02 0.  1.
       -2    1    3    3    0  502  0.46170223033E+02  0.22762880315E+03 -0.37501098301E+03  0.44111200267E+03  0.25500000920E-02 0. -1.
</event>
<event>
 5   0  0.1483942E-01  0.5940698E+03  0.7818609E-02  0.9917786E-01
       -2   -1    0    0    0  501  0.00000000000E+00  0.00000000000E+00  0.55362005572E+02  0.55362005631E+02  0.25500000920E-02 0. -1.
        2   -1    0    0  501    0  0.00000000000E+00  0.00000000000E+00 -0.15936875602E+04  0.15936875602E+04  0.25500000920E-02 0.  1.
    10030    2    1    2    0    0  0.00000000000E+00  0.00000000000E+00 -0.15383255546E+04  0.16490495658E+04  0.59406982632E+03 0.  0.
        4    1    3    3  502    0 -0.23338461794E+03 -0.17876523046E+03 -0.88702175479E+03  0.93447022097E+03  0.12699999809E+01 0. -1.
       -4    1    3    3    0  502  0.23338461794E+03  0.17876523046E+03 -0.65130379982E+03  0.71457934484E+03  0.12699999809E+01 0.  1.
</event>
<event>
 5   0  0.1488510E-01  0.5997758E+03  0.7818609E-02  0.9905871E-01
        2   -1    0    0  501    0  0.00000000000E+00  0.00000000000E+00  0.21572456072E+03  0.21572456074E+03  0.25500000920E-02 0.  1.
       -2   -1    0    0    0  501  0.00000000000E+00  0.00000000000E+00 -0.41688690237E+03  0.41688690237E+03  0.25500000920E-02 0. -1.
    10030    2    1    2    0    0  0.00000000000E+00  0.00000000000E+00 -0.20116234165E+03  0.63261146311E+03  0.59977577107E+03 0.  0.
        5    1    3    3  502    0 -0.18800820228E+03 -0.23238618578E+03 -0.12554616587E+03  0.32424428018E+03  0.46999998093E+01 0. -1.
       -5    1    3    3    0  502  0.18800820228E+03  0.23238618578E+03 -0.75616175777E+02  0.30836718293E+03  0.46999998093E+01 0.  1.
</event>
<event>
 5   0  0.1488510E-01  0.5936751E+03  0.7818609E-02  0.9918616E-01
        2   -1    0    0  501    0  0.00000000000E+00  0.00000000000E+00  0.64115526044E+03  0.64115526045E+03  0.25500000920E-02 0. -1.
       -2   -1    0    0    0  501  0.00000000000E+00  0.00000000000E+00 -0.13742775659E+03  0.13742775661E+03  0.25500000920E-02 0.  1.
    10030    2    1    2    0    0  0.00000000000E+00  0.00000000000E+00  0.50372750385E+03  0.77858301706E+03  0.59367509322E+03 0.  0.
        5    1    3    3  502    0  0.16815544780E+03  0.33141084752E+01  0.57257804332E+03  0.59678718454E+03  0.46999998093E+01 0. -1.
       -5    1    3    3    0  502 -0.16815544780E+03 -0.33141084752E+01 -0.68850539464E+02  0.18179583252E+03  0.46999998093E+01 0.  1.
</event>
<event>
 5   0  0.1513339E-01  0.6410254E+03  0.7818609E-02  0.9823767E-01
       -2   -1    0    0    0  501  0.00000000000E+00  0.00000000000E+00  0.20384979028E+03  0.20384979029E+03  0.25500000920E-02 0.  1.
        2   -1    0    0  501    0  0.00000000000E+00  0.00000000000E+00 -0.50394154654E+03  0.50394154655E+03  0.25500000920E-02 0. -1.
    10030    2    1    2    0    0  0.00000000000E+00  0.00000000000E+00 -0.30009175627E+03  0.70779133684E+03  0.64102536169E+03 0.  0.
        3    1    3    3  502    0 -0.20177791469E+03 -0.23472047864E+03 -0.58192803733E+02  0.31495149239E+03  0.10100000352E+00 0.  1.
       -3    1    3    3    0  502  0.20177791469E+03  0.23472047864E+03 -0.24189895253E+03  0.39283984445E+03  0.10100000352E+00 0. -1.
</event>
<event>
 5   0  0.9411028E-02  0.6134099E+03  0.7818609E-02  0.9877969E-01
       -1   -1    0    0    0  501  0.00000000000E+00  0.00000000000E+00  0.41570258801E+03  0.41570258804E+03  0.50400001928E-02 0.  1.
        1   -1    0    0  501    0  0.00000000000E+00  0.00000000000E+00 -0.22628657233E+03  0.22628657239E+03  0.50400001928E-02 0. -1.
    10030    2    1    2    0    0  0.00000000000E+00  0.00000000000E+00  0.18941601568E+03  0.64198916043E+03  0.61340985899E+03 0.  0.
        4    1    3    3  502    0 -0.17098978042E+03 -0.24604361842E+03  0.16326836752E+03  0.34122300612E+03  0.12699999809E+01 0.  1.
       -4    1    3    3    0  502  0.17098978042E+03  0.24604361842E+03  0.26147648162E+02  0.30076615431E+03  0.12699999809E+01 0. -1.
</event>
<event>
 5   0  0.9177281E-02  0.5823068E+03  0.7818609E-02  0.9942809E-01
       -1   -1    0    0    0  501  0.00000000000E+00  0.00000000000E+00  0.93447013551E+02  0.93447013687E+02  0.50400001928E-02 0.  1.
        1   -1    0    0  501    0  0.00000000000E+00  0.00000000000E+00 -0.90714828037E+03  0.90714828038E+03  0.50400001928E-02 0. -1.
    10030    2    1    2    0    0  0.00000000000E+00  0.00000000000E+00 -0.81370126682E+03  0.10005952941E+04  0.58230678417E+03 0.  0.
        1    1    3    3  502    0 -0.35085367751E+02 -0.62819685043E+02  0.77928645441E+02  0.10606681698E+03  0.50400001928E-02 0.  1.
       -1    1    3    3    0  502  0.35085367751E+02  0.62819685043E+02 -0.89162991226E+03  0.89452847709E+03  0.50400001928E-02 0. -1.
</event>
<event>
 5   0  0.1502642E-01  0.4913471E+03  0.7818609E-02  0.1016062E+00
       -2   -1    0    0    0  501  0.00000000000E+00  0.00000000000E+00  0.94975816392E+02  0.94975816427E+02  0.25500000920E-02 0. -1.
        2   -1    0    0  501    0  0.00000000000E+00  0.00000000000E+00 -0.63548285115E+03  0.63548285115E+03  0.25500000920E-02 0.  1.
    10030    2    1    2    0    0  0.00000000000E+00  0.00000000000E+00 -0.54050703475E+03  0.73045866758E+03  0.49134713841E+03 0.  0.
        2    1    3    3  502    0 -0.14510148602E+03 -0.12028772934E+03 -0.35985826560E+02  0.19188162704E+03  0.25500000920E-02 0. -1.
       -2    1    3    3    0  502  0.14510148602E+03  0.12028772934E+03 -0.50452120819E+03  0.53857704054E+03  0.25500000920E-02 0.  1.
</event>
<event>
 5   0  0.1483942E-01  0.5959743E+03  0.7818609E-02  0.9913793E-01
        2   -1    0    0  501    0  0.00000000000E+00  0.00000000000E+00  0.10463430901E+04  0.10463430901E+04  0.25500000920E-02 0. -1.
       -2   -1    0    0    0  501  0.00000000000E+00  0.00000000000E+00 -0.84863514905E+02  0.84863514943E+02  0.25500000920E-02 0.  1.
    10030    2    1    2    0    0  0.00000000000E+00  0.00000000000E+00  0.96147957519E+03  0.11312066050E+04  0.59597433651E+03 0.  0.
        4    1    3    3  502    0  0.24440786294E+03 -0.10891378511E+03  0.72965119693E+03  0.77716786998E+03  0.12699999809E+01 0. -1.
       -4    1    3    3    0  502 -0.24440786294E+03  0.10891378511E+03  0.23182837826E+03  0.35403873506E+03  0.12699999809E+01 0.  1.
</event>
<event>
 5   0  0.9497860E-02  0.6185748E+03  0.7818609E-02  0.9867601E-01
       -1   -1    0    0    0  501  0.00000000000E+00  0.00000000000E+00  0.25869820378E+03  0.25869820382E+03  0.50400001928E-02 0. -1.
        1   -1    0    0  501    0  0.00000000000E+00  0.00000000000E+00 -0.36976946656E+03  0.36976946659E+03  0.50400001928E-02 0.  1.
    10030    2    1    2    0    0  0.00000000000E+00  0.00000000000E+00 -0.11107126278E+03  0.62846767042E+03  0.61857480335E+03 0.  0.
        5    1    3    3  502    0  0.24984048740E+03 -0.15341326656E+03 -0.15549977768E+03  0.33190084416E+03  0.46999998093E+01 0.  1.
       -5    1    3    3    0  502 -0.24984048740E+03  0.15341326656E+03  0.44428514894E+02  0.29656682625E+03  0.46999998093E+01 0. -1.
</event>
<event>
 5   0  0.9497860E-02  0.6398099E+03  0.7818609E-02  0.9826090E-01
       -1   -1    0    0    0  501  0.00000000000E+00  0.00000000000E+00  0.96881112451E+02  0.96881112582E+02  0.50400001928E-02 0.  1.
        1   -1    0    0  501    0  0.00000000000E+00  0.00000000000E+00 -0.10563377012E+04  0.10563377012E+04  0.50400001928E-02 0. -1.
    10030    2    1    2    0    0  0.00000000000E+00  0.00000000000E+00 -0.95945658876E+03  0.11532188138E+04  0.63980988332E+03 0.  0.
        5    1    3    3  502    0 -0.14208882205E+03  0.17458685133E+03 -0.88935145134E+03  0.91740824937E+03  0.46999998093E+01 0. -1.
       -5    1    3    3    0  502  0.14208882205E+03 -0.17458685133E+03 -0.70105137421E+02  0.23581056444E+03  0.46999998093E+01 0.  1.
</event>
<event>
 5   0  0.1483942E-01  0.5919785E+03  0.7818609E-02  0.9922189E-01
       -2   -1    0    0    0  501  0.00000000000E+00  0.00000000000E+00  0.45871057761E+02  0.45871057832E+02  0.25500000920E-02 0. -1.
        2   -1    0    0  501    0  0.00000000000E+00  0.00000000000E+00 -0.19099108013E+04  0.19099108013E+04  0.25500000920E-02 0.  1.
    10030    2    1    2    0    0  0.00000000000E+00  0.00000000000E+00 -0.18640397436E+04  0.19557818592E+04  0.59197847514E+03 0.  0.
        4    1    3    3  502    0 -0.28185681830E+02 -0.17810269072E+03 -0.17074858822E+04  0.17169812613E+04  0.12699999809E+01 0.  1.
       -4    1    3    3    0  502  0.28185681830E+02  0.17810269072E+03 -0.15655386143E+03  0.23880059785E+03  0.12699999809E+01 0. -1.
</event>
<event>
 5   0  0.6170500E-02  0.5717326E+03  0.7818609E-02  0.9965852E-01
        3   -1    0    0  501    0  0.00000000000E+00  0.00000000000E+00  0.17689542274E+03  0.17689545157E+03  0.10100000352E+00 0.  1.
       -3   -1    0    0    0  501  0.00000000000E+00  0.00000000000E+00 -0.46196526608E+03  0.46196527712E+03  0.10100000352E+00 0. -1.
    10030    2    1    2    0    0  0.00000000000E+00  0.00000000000E+00 -0.28506984334E+03  0.63886072869E+03  0.57173264301E+03 0.  0.
        3    1    3    3  502    0  0.20880323904E+03 -0.19033954653E+03 -0.19113408254E+03  0.34111608480E+03  0.10100000352E+00 0. -1.
       -3    1    3    3    0  502 -0.20880323904E+03  0.19033954653E+03 -0.93935760802E+02  0.29774464389E+03  0.10100000352E+00 0.  1.
</event>
<event>
 5   0  0.9497860E-02  0.5716289E+03  0.7818609E-02  0.9966081E-01
        1   -1    0    0  501    0  0.00000000000E+00  0.00000000000E+00  0.17555266838E+04  0.17555266838E+04  0.50400001928E-02 0. -1.
       -1   -1    0    0    0  501  0.00000000000E+00  0.00000000000E+00 -0.46532985516E+02  0.46532985789E+02  0.50400001928E-02 0.  1.
    10030    2    1    2    0    0  0.00000000000E+00  0.00000000000E+00  0.17089936983E+04  0.18020596696E+04  0.57162889361E+03 0.  0.
        5    1    3    3  502    0  0.21129394702E+03 -0.19099615427E+03  0.92796733150E+03  0.97070599119E+03  0.46999998093E+01 0. -1.
       -5    1    3    3    0  502 -0.21129394702E+03  0.19099615427E+03  0.78102636676E+03  0.83135367838E+03  0.46999998093E+01 0.  1.
</event>
<event>
 5   0  0.9420349E-02  0.5985656E+03  0.7818609E-02  0.9908387E-01
        1   -1    0    0  501    0  0.00000000000E+00  0.00000000000E+00  0.24959321908E+03  0.24959321913E+03  0.50400001928E-02 0.  1.
       -1   -1    0    0    0  501  0.00000000000E+00  0.00000000000E+00 -0.35886466767E+03  0.35886466770E+03  0.50400001928E-02 0. -1.
    10030    2    1    2    0    0  0.00000000000E+00  0.00000000000E+00 -0.10927144859E+03  0.60845788683E+03  0.59856557750E+03 0.  0.
        2    1    3    3  502    0  0.15947474920E+03 -0.20859891936E+03  0.91349977137E+02  0.27801173198E+03  0.25500000920E-02 0.  1.
       -2    1    3    3    0  502 -0.15947474920E+03  0.20859891936E+03 -0.20062142573E+03  0.33044615485E+03  0.25500000920E-02 0. -1.
</event>
<event>
 5   0  0.9411028E-02  0.5977667E+03  0.7818609E-02  0.9910050E-01
        1   -1    0    0  501    0  0.00000000000E+00  0.00000000000E+00  0.29266368235E+03  0.29266368240E+03  0.50400001928E-02 0. -1.
       -1   -1    0    0    0  501  0.00000000000E+00  0.00000000000E+00 -0.30523524471E+03  0.30523524476E+03  0.50400001928E-02 0.  1.
    10030    2    1    2    0    0  0.00000000000E+00  0.00000000000E+00 -0.12571562359E+02  0.59789892715E+03  0.59776674624E+03 0.  0.
        4    1    3    3  502    0 -0.11453135153E+03 -0.70925212640E+00  0.26983997387E+03  0.29314357902E+03  0.12699999809E+01 0. -1.
       -4    1    3    3    0  502  0.11453135153E+03  0.70925212640E+00 -0.28241153623E+03  0.30475534814E+03  0.12699999809E+01 0.  1.
</event>
<event>
 5   0  0.9177281E-02  0.5968511E+03  0.7818609E-02  0.9911961E-01
        1   -1    0    0  501    0  0.00000000000E+00  0.00000000000E+00  0.96304659191E+03  0.96304659192E+03  0.50400001928E-02 0. -1.
       -1   -1    0    0    0  501  0.00000000000E+00  0.00000000000E+00 -0.92475084946E+02  0.92475085083E+02  0.50400001928E-02 0.  1.
    10030    2    1    2    0    0  0.00000000000E+00  0.00000000000E+00  0.87057150696E+03  0.10555216770E+04  0.59685112205E+03 0.  0.
        1    1    3    3  502    0 -0.32212304097E+02  0.11449701502E+03 -0.48744856959E+02  0.12854283367E+03  0.50400001928E-02 0.  1.
       -1    1    3    3    0  502  0.32212304097E+02 -0.11449701502E+03  0.91931636392E+03  0.92697884333E+03  0.50400001928E-02 0. -1.
</event>
<event>
 5   0  0.9177281E-02  0.4658451E+03  0.7818609E-02  0.1023099E+00
       -1   -1    0    0    0  501  0.00000000000E+00  0.00000000000E+00  0.46365943970E+02  0.46365944244E+02  0.50400001928E-02 0. -1.
        1   -1    0    0  501    0  0.00000000000E+00  0.00000000000E+00 -0.11701026610E+04  0.11701026610E+04  0.50400001928E-02 0.  1.
    10030    2    1    2    0    0  0.00000000000E+00  0.00000000000E+00 -0.11237367170E+04  0.12164686053E+04  0.46584510126E+03 0.  0.
        1    1    3    3  502    0 -0.22438603887E+03  0.56626883020E+02 -0.63081976380E+03  0.67192951471E+03  0.50400001928E-02 0.  1.
       -1    1    3    3    0  502  0.22438603887E+03 -0.56626883020E+02 -0.49291695324E+03  0.54453909055E+03  0.50400001928E-02 0. -1.
</event>
<event>
 5   0  0.6170500E-02  0.6129958E+03  0.7818609E-02  0.9878805E-01
       -4   -1    0    0    0  501  0.00000000000E+00  0.00000000000E+00  0.60570219592E+03  0.60570352735E+03  0.12699999809E+01 0. -1.
        4   -1    0    0  501    0  0.00000000000E+00  0.00000000000E+00 -0.15509020833E+03  0.15509540812E+03  0.12699999809E+01 0.  1.
    10030    2    1    2    0    0  0.00000000000E+00  0.00000000000E+00  0.45061198759E+03  0.76079893547E+03  0.61299580492E+03 0.  0.
        2    1    3    3  502    0 -0.17977624333E+02 -0.21765975739E+03 -0.41583018830E+02  0.22232434060E+03  0.25500000920E-02 0.  1.
       -2    1    3    3    0  502  0.17977624333E+02  0.21765975739E+03  0.49219500642E+03  0.53847459487E+03  0.25500000920E-02 0. -1.
</event>
<event>
 5   0  0.9497860E-02  0.5904918E+03  0.7818609E-02  0.9925331E-01
       -1   -1    0    0    0  501  0.00000000000E+00  0.00000000000E+00  0.77937050826E+02  0.77937050989E+02  0.50400001928E-02 0.  1.
        1   -1    0    0  501    0  0.00000000000E+00  0.00000000000E+00 -0.11184686602E+04  0.11184686603E+04  0.50400001928E-02 0. -1.
    10030    2    1    2    0    0  0.00000000000E+00  0.00000000000E+00 -0.10405316094E+04  0.11964057112E+04  0.59049182526E+03 0.  0.
        5    1    3    3  502    0 -0.26996262497E+03  0.60003149002E+02 -0.31099758217E+03  0.41619921057E+03  0.46999998093E+01 0.  1.
       -5    1    3    3    0  502  0.26996262497E+03 -0.60003149002E+02 -0.72953402725E+03  0.78020650067E+03  0.46999998093E+01 0. -1.
</event>
<event>
 5   0  0.1513339E-01  0.5769333E+03  0.7818609E-02  0.9954453E-01
        2   -1    0    0  501    0  0.00000000000E+00  0.00000000000E+00  0.17953964236E+04  0.17953964236E+04  0.25500000920E-02 0. -1.
       -2   -1    0    0    0  501  0.00000000000E+00  0.00000000000E+00 -0.46347982180E+02  0.46347982250E+02  0.25500000920E-02 0.  1.
    10030    2    1    2    0    0  0.00000000000E+00  0.00000000000E+00  0.17490484415E+04  0.18417444059E+04  0.57693327696E+03 0.  0.
        3    1    3    3  502    0  0.86041189016E+02 -0.21342544572E+03  0.14298329885E+04  0.14482319884E+04  0.10100000352E+00 0. -1.
       -3    1    3    3    0  502 -0.86041189016E+02  0.21342544572E+03  0.31921545294E+03  0.39351241745E+03  0.10100000352E+00 0.  1.
</event>
<event>
 5   0  0.8860626E-02  0.4645458E+03  0.7818609E-02  0.1023471E+00
        1   -1    0    0  501    0  0.00000000000E+00  0.00000000000E+00  0.11812524031E+04  0.11812524032E+04  0.50400001928E-02 0.  1.
       -1   -1    0    0    0  501  0.00000000000E+00  0.00000000000E+00 -0.45672456756E+02  0.45672457034E+02  0.50400001928E-02 0. -1.
    10030    2    1    2    0    0  0.00000000000E+00  0.00000000000E+00  0.11355799464E+04  0.12269248602E+04  0.46454579743E+03 0.  0.
        3    1    3    3  502    0 -0.19209989751E+03  0.94285803670E+02  0.80634839124E+03  0.83426010432E+03  0.10100000352E+00 0.  1.
       -3    1    3    3    0  502  0.19209989751E+03 -0.94285803670E+02  0.32923155515E+03  0.39266475588E+03  0.10100000352E+00 0. -1.
</event>
<event>
 5   0  0.6170500E-02  0.5686450E+03  0.7818609E-02  0.9972682E-01
       -3   -1    0    0    0  501  0.00000000000E+00  0.00000000000E+00  0.93567423464E+03  0.93567424010E+03  0.10100000352E+00 0. -1.
        3   -1    0    0  501    0  0.00000000000E+00  0.00000000000E+00 -0.86396783525E+02  0.86396842561E+02  0.10100000352E+00 0.  1.
    10030    2    1    2    0    0  0.00000000000E+00  0.00000000000E+00  0.84927745112E+03  0.10220710827E+04  0.56864497626E+03 0.  0.
        1    1    3    3  502    0 -0.13898463240E+03 -0.49383730090E+02 -0.12253272833E+02  0.14800548490E+03  0.50400001928E-02 0.  1.
       -1    1    3    3    0  502  0.13898463240E+03  0.49383730090E+02  0.86153072395E+03  0.87406559776E+03  0.50400001928E-02 0. -1.
</event>
<event>
 5   0  0.6170500E-02  0.6126362E+03  0.7818609E-02  0.9879531E-01
        4   -1    0    0  501    0  0.00000000000E+00  0.00000000000E+00  0.48262932180E+03  0.48263099275E+03  0.12699999809E+01 0.  1.
       -4   -1    0    0    0  501  0.00000000000E+00  0.00000000000E+00 -0.19441172343E+03  0.19441587155E+03  0.12699999809E+01 0. -1.
    10030    2    1    2    0    0  0.00000000000E+00  0.00000000000E+00  0.28821759837E+03  0.67704686430E+03  0.61263616645E+03 0.  0.
        1    1    3    3  502    0 -0.19172774695E+03  0.20123266439E+03  0.28639557381E+03  0.39909464904E+03  0.50400001928E-02 0.  1.
       -1    1    3    3    0  502  0.19172774695E+03 -0.20123266439E+03  0.18220245640E+01  0.27795221526E+03  0.50400001928E-02 0. -1.
</event>
<event>
 5   0  0.1488510E-01  0.5948892E+03  0.7818609E-02  0.9916066E-01
       -2   -1    0    0    0  501  0.00000000000E+00  0.00000000000E+00  0.50770100229E+02  0.50770100293E+02  0.25500000920E-02 0.  1.
        2   -1    0    0  501    0  0.00000000000E+00  0.00000000000E+00 -0.17426259365E+04  0.17426259365E+04  0.25500000920E-02 0. -1.
    10030    2    1    2    0    0  0.00000000000E+00  0.00000000000E+00 -0.16918558363E+04  0.17933960368E+04  0.59488921160E+03 0.  0.
        5    1    3    3  502    0 -0.25953420444E+03 -0.14444287101E+03 -0.80026212370E+03  0.85361777329E+03  0.46999998093E+01 0.  1.
       -5    1    3    3    0  502  0.25953420444E+03  0.14444287101E+03 -0.89159371260E+03  0.93977826353E+03  0.46999998093E+01 0. -1.
</event>
<event>
 5   0  0.1513339E-01  0.5569187E+03  0.7818609E-02  0.9999051E-01
        2   -1    0    0  501    0  0.00000000000E+00  0.00000000000E+00  0.28514342180E+03  0.28514342181E+03  0.25500000920E-02 0. -1.
       -2   -1    0    0    0  501  0.00000000000E+00  0.00000000000E+00 -0.27193192936E+03  0.27193192937E+03  0.25500000920E-02 0.  1.
    10030    2    1    2    0    0  0.00000000000E+00  0.00000000000E+00  0.13211492444E+02  0.55707535119E+03  0.55691866854E+03 0.  0.
        3    1    3    3  502    0  0.35556770667E+02  0.21453514563E+03 -0.16736839367E+03  0.27441173818E+03  0.10100000352E+00 0.  1.
       -3    1    3    3    0  502 -0.35556770667E+02 -0.21453514563E+03  0.18057988611E+03  0.28266361301E+03  0.10100000352E+00 0. -1.
</event>
<event>
 5   0  0.9177281E-02  0.5921731E+03  0.7818609E-02  0.9921779E-01
        1   -1    0    0  501    0  0.00000000000E+00  0.00000000000E+00  0.67204870720E+03  0.67204870722E+03  0.50400001928E-02 0.  1.
       -1   -1    0    0    0  501  0.00000000000E+00  0.00000000000E+00 -0.13044775268E+03  0.13044775278E+03  0.50400001928E-02 0. -1.
    10030    2    1    2    0    0  0.00000000000E+00  0.00000000000E+00  0.54160095452E+03  0.80249646000E+03  0.59217309494E+03 0.  0.
        1    1    3    3  502    0  0.17370591258E+03  0.23858834318E+03  0.30312927171E+03  0.42306677601E+03  0.50400001928E-02 0.  1.
       -1    1    3    3    0  502 -0.17370591258E+03 -0.23858834318E+03  0.23847168281E+03  0.37942968399E+03  0.50400001928E-02 0. -1.
</event>
<event>
 5   0  0.1483942E-01  0.6367462E+03  0.7818609E-02  0.9831972E-01
       -2   -1    0    0    0  501  0.00000000000E+00  0.00000000000E+00  0.14597732615E+03  0.14597732617E+03  0.25500000920E-02 0. -1.
        2   -1    0    0  501    0  0.00000000000E+00  0.00000000000E+00 -0.69436423582E+03  0.69436423582E+03  0.25500000920E-02 0.  1.
    10030    2    1    2    0    0  0.00000000000E+00  0.00000000000E+00 -0.54838690967E+03  0.84034156199E+03  0.63674621170E+03 0.  0.
        4    1    3    3  502    0  0.66700057290E+02 -0.11325111750E+03  0.10849822293E+03  0.17043529721E+03  0.12699999809E+01 0. -1.
       -4    1    3    3    0  502 -0.66700057290E+02  0.11325111750E+03 -0.65688513260E+03  0.66990626478E+03  0.12699999809E+01 0.  1.
</event>
<event>
 5   0  0.1532571E-01  0.6030866E+03  0.7818609E-02  0.9899023E-01
       -2   -1    0    0    0  501  0.00000000000E+00  0.00000000000E+00  0.95412625817E+02  0.95412625851E+02  0.25500000920E-02 0.  1.
        2   -1    0    0  501    0  0.00000000000E+00  0.00000000000E+00 -0.95300119823E+03  0.95300119824E+03  0.25500000920E-02 0. -1.
    10030    2    1    2    0    0  0.00000000000E+00  0.00000000000E+00 -0.85758857242E+03  0.10484138241E+04  0.60308655017E+03 0.  0.
        1    1    3    3  502    0 -0.12800289165E+03 -0.82152139333E+02 -0.88143201504E+03  0.89445855770E+03  0.50400001928E-02 0. -1.
       -1    1    3    3    0  502  0.12800289165E+03  0.82152139333E+02  0.23843442624E+02  0.15395526639E+03  0.50400001928E-02 0.  1.
</event>
<event>
 5   0  0.1513339E-01  0.6522077E+03  0.7818609E-02  0.9802645E-01
       -2   -1    0    0    0  501  0.00000000000E+00  0.00000000000E+00  0.11364680370E+03  0.11364680373E+03  0.25500000920E-02 0. -1.
        2   -1    0    0  501    0  0.00000000000E+00  0.00000000000E+00 -0.93573870837E+03  0.93573870837E+03  0.25500000920E-02 0.  1.
    10030    2    1    2    0    0  0.00000000000E+00  0.00000000000E+00 -0.82209190467E+03  0.10493855121E+04  0.65220767650E+03 0.  0.
        3    1    3    3  502    0  0.15473022229E+03 -0.20339225116E+03 -0.85118974123E+02  0.26936053809E+03  0.10100000352E+00 0. -1.
       -3    1    3    3    0  502 -0.15473022229E+03  0.20339225116E+03 -0.73697293055E+03  0.78002497401E+03  0.10100000352E+00 0.  1.
</event>
<event>
 5   0  0.9497860E-02  0.5836117E+03  0.7818609E-02  0.9940002E-01
       -1   -1    0    0    0  501  0.00000000000E+00  0.00000000000E+00  0.62170806452E+03  0.62170806454E+03  0.50400001928E-02 0.  1.
        1   -1    0    0  501    0  0.00000000000E+00  0.00000000000E+00 -0.13696245598E+03  0.13696245607E+03  0.50400001928E-02 0. -1.
    10030    2    1    2    0    0  0.00000000000E+00  0.00000000000E+00  0.48474560854E+03  0.75867052061E+03  0.58361173210E+03 0.  0.
        5    1    3    3  502    0  0.50175049472E+02 -0.69574089552E+02  0.60489666477E+03  0.61096657402E+03  0.46999998093E+01 0.  1.
       -5    1    3    3    0  502 -0.50175049472E+02  0.69574089552E+02 -0.12015105623E+03  0.14770394659E+03  0.46999998093E+01 0. -1.
</event>
<event>
 5   0  0.6170500E-02  0.5906377E+03  0.7818609E-02  0.9925023E-01
       -4   -1    0    0    0  501  0.00000000000E+00  0.00000000000E+00  0.61537442421E+03  0.61537573471E+03  0.12699999809E+01 0. -1.
        4   -1    0    0  501    0  0.00000000000E+00  0.00000000000E+00 -0.14171951404E+03  0.14172520440E+03  0.12699999809E+01 0.  1.
    10030    2    1    2    0    0  0.00000000000E+00  0.00000000000E+00  0.47365491017E+03  0.75710093911E+03  0.59063767072E+03 0.  0.
        5    1    3    3  502    0  0.99959148803E+02  0.20731569366E+03  0.47394814405E+03  0.52689710714E+03  0.46999998093E+01 0. -1.
       -5    1    3    3    0  502 -0.99959148803E+02 -0.20731569366E+03 -0.29323388372E+00  0.23020383197E+03  0.46999998093E+01 0.  1.
</event>
<event>
 5   0  0.9177281E-02  0.5945882E+03  0.7818609E-02  0.9916698E-01
       -1   -1    0    0    0  501  0.00000000000E+00  0.00000000000E+00  0.12598173337E+03  0.12598173347E+03  0.50400001928E-02 0. -1.
        1   -1    0    0  501    0  0.00000000000E+00  0.00000000000E+00 -0.70156036399E+03  0.70156036401E+03  0.50400001928E-02 0.  1.
    10030    2    1    2    0    0  0.00000000000E+00  0.00000000000E+00 -0.57557863062E+03  0.82754209747E+03  0.59458822984E+03 0.  0.
        1    1    3    3  502    0 -0.22853025502E+03  0.16292787129E+03 -0.15133549945E+03  0.31886361053E+03  0.50400001928E-02 0. -1.
       -1    1    3    3    0  502  0.22853025502E+03 -0.16292787129E+03 -0.42424313117E+03  0.50867848694E+03  0.50400001928E-02 0.  1.
</event>
<event>
 5   0  0.1502642E-01  0.5956534E+03  0.7818609E-02  0.9914465E-01
        2   -1    0    0  501    0  0.00000000000E+00  0.00000000000E+00  0.20716975315E+03  0.20716975316E+03  0.25500000920E-02 0. -1.
       -2   -1    0    0    0  501  0.00000000000E+00  0.00000000000E+00 -0.42815489584E+03  0.42815489585E+03  0.25500000920E-02 0.  1.
    10030    2    1    2    0    0  0.00000000000E+00  0.00000000000E+00 -0.22098514270E+03  0.63532464902E+03  0.59565340287E+03 0.  0.
        2    1    3    3  502    0  0.19137122582E+03  0.20357845503E+03 -0.50529299917E+00  0.27940542004E+03  0.25500000920E-02 0.  1.
       -2    1    3    3    0  502 -0.19137122582E+03 -0.20357845503E+03 -0.22047984970E+03  0.35591922897E+03  0.25500000920E-02 0. -1.
</event>
<event>
 5   0  0.1483942E-01  0.5866152E+03  0.7818609E-02  0.9933571E-01
        2   -1    0    0  501    0  0.00000000000E+00  0.00000000000E+00  0.12450151457E+04  0.12450151457E+04  0.25500000920E-02 0. -1.
       -2   -1    0    0    0  501  0.00000000000E+00  0.00000000000E+00 -0.69099040887E+02  0.69099040934E+02  0.25500000920E-02 0.  1.
    10030    2    1    2    0    0  0.00000000000E+00  0.00000000000E+00  0.11759161049E+04  0.13141141867E+04  0.58661521457E+03 0.  0.
        4    1    3    3  502    0  0.10778437767E+03  0.52459303989E+02 -0.11712880021E+02  0.12045021836E+03  0.12699999809E+01 0.  1.
       -4    1    3    3    0  502 -0.10778437767E+03 -0.52459303989E+02  0.11876289849E+04  0.11936639683E+04  0.12699999809E+01 0. -1.
</event>
<event>
 5   0  0.9420349E-02  0.5942212E+03  0.7818609E-02  0.9917468E-01
       -1   -1    0    0    0  501  0.00000000000E+00  0.00000000000E+00  0.21966634305E+03  0.21966634311E+03  0.50400001928E-02 0. -1.
        1   -1    0    0  501    0  0.00000000000E+00  0.00000000000E+00 -0.40185811209E+03  0.40185811212E+03  0.50400001928E-02 0.  1.
    10030    2    1    2    0    0  0.00000000000E+00  0.00000000000E+00 -0.18219176904E+03  0.62152445523E+03  0.59422117746E+03 0.  0.
        2    1    3    3  502    0  0.26388455740E+03 -0.24056575110E+02 -0.23166181520E+03  0.35196729262E+03  0.25500000920E-02 0.  1.
       -2    1    3    3    0  502 -0.26388455740E+03  0.24056575110E+02  0.49470046164E+02  0.26955716261E+03  0.25500000920E-02 0. -1.
</event>
<event>
 5   0  0.6170500E-02  0.6064791E+03  0.7818609E-02  0.9892054E-01
       -3   -1    0    0    0  501  0.00000000000E+00  0.00000000000E+00  0.96374786334E+02  0.96374839257E+02  0.10100000352E+00 0.  1.
        3   -1    0    0  501    0  0.00000000000E+00  0.00000000000E+00 -0.95413129739E+03  0.95413130274E+03  0.10100000352E+00 0. -1.
    10030    2    1    2    0    0  0.00000000000E+00  0.00000000000E+00 -0.85775651106E+03  0.10505061420E+04  0.60647911927E+03 0.  0.
        4    1    3    3  502    0  0.61588108643E+02  0.29710934130E+02 -0.94059792144E+03  0.94308106621E+03  0.12699999809E+01 0. -1.
       -4    1    3    3    0  502 -0.61588108643E+02 -0.29710934130E+02  0.82841410381E+02  0.10742507578E+03  0.12699999809E+01 0.  1.
</event>
<event>
 5   0  0.8860626E-02  0.5925539E+03  0.7818609E-02  0.9920976E-01
       -1   -1    0    0    0  501  0.00000000000E+00  0.00000000000E+00  0.10035248654E+04  0.10035248655E+04  0.50400001928E-02 0.  1.
        1   -1    0    0  501    0  0.00000000000E+00  0.00000000000E+00 -0.87471703938E+02  0.87471704083E+02  0.50400001928E-02 0. -1.
    10030    2    1    2    0    0  0.00000000000E+00  0.00000000000E+00  0.91605316150E+03  0.10909965695E+04  0.59255389632E+03 0.  0.
        3    1    3    3  502    0  0.54560888146E+02  0.10206604514E+03  0.96018426524E+03  0.96713401424E+03  0.10100000352E+00 0.  1.
       -3    1    3    3    0  502 -0.54560888146E+02 -0.10206604514E+03 -0.44131103737E+02  0.12386255530E+03  0.10100000352E+00 0. -1.
</event>
<event>
 5   0  0.6170500E-02  0.5973290E+03  0.7818609E-02  0.9910963E-01
        4   -1    0    0  501    0  0.00000000000E+00  0.00000000000E+00  0.31850724832E+03  0.31850978027E+03  0.12699999809E+01 0.  1.
       -4   -1    0    0    0  501  0.00000000000E+00  0.00000000000E+00 -0.28005280820E+03  0.28005568782E+03  0.12699999809E+01 0. -1.
    10030    2    1    2    0    0  0.00000000000E+00  0.00000000000E+00  0.38454440111E+02  0.59856546810E+03  0.59732895094E+03 0.  0.
        3    1    3    3  502    0  0.11895317360E+03  0.10798967287E+02  0.29353460768E+03  0.31690542960E+03  0.10100000352E+00 0.  1.
       -3    1    3    3    0  502 -0.11895317360E+03 -0.10798967287E+02 -0.25508016756E+03  0.28166003850E+03  0.10100000352E+00 0. -1.
</event>
<event>
 5   0  0.9497860E-02  0.4430604E+03  0.7818609E-02  0.1029812E+00
       -1   -1    0    0    0  501  0.00000000000E+00  0.00000000000E+00  0.63291243223E+02  0.63291243424E+02  0.50400001928E-02 0. -1.
        1   -1    0    0  501    0  0.00000000000E+00  0.00000000000E+00 -0.77539353268E+03  0.77539353269E+03  0.50400001928E-02 0.  1.
    10030    2    1    2    0    0  0.00000000000E+00  0.00000000000E+00 -0.71210228945E+03  0.83868477612E+03  0.44306036050E+03 0.  0.
        5    1    3    3  502    0 -0.94723809473E+02 -0.12669451771E+03 -0.62619061769E+02  0.17019793710E+03  0.46999998093E+01 0. -1.
       -5    1    3    3    0  502  0.94723809473E+02  0.12669451771E+03 -0.64948322769E+03  0.66848683902E+03  0.46999998093E+01 0.  1.
</event>
<event>
 5   0  0.1502642E-01  0.6082014E+03  0.7818609E-02  0.9888535E-01
        2   -1    0    0  501    0  0.00000000000E+00  0.00000000000E+00  0.68677926460E+03  0.68677926461E+03  0.25500000920E-02 0.  1.
       -2   -1    0    0    0  501  0.00000000000E+00  0.00000000000E+00 -0.13465349989E+03  0.13465349991E+03  0.25500000920E-02 0. -1.
    10030    2    1    2    0    0  0.00000000000E+00  0.00000000000E+00  0.55212576471E+03  0.82143276452E+03  0.60820138652E+03 0.  0.
        2    1    3    3  502    0  0.14615958044E+03 -0.26644075122E+03  0.26102726725E+03  0.40061019847E+03  0.25500000920E-02 0. -1.
       -2    1    3    3    0  502 -0.14615958044E+03  0.26644075122E+03  0.29109849746E+03  0.42082256605E+03  0.25500000920E-02 0.  1.
</event>
<event>
 5   0  0.1513339E-01  0.5961034E+03  0.7818609E-02  0.9913523E-01
        2   -1    0    0  501    0  0.00000000000E+00  0.00000000000E+00  0.68430332460E+03  0.68430332461E+03  0.25500000920E-02 0. -1.
       -2   -1    0    0    0  501  0.00000000000E+00  0.00000000000E+00 -0.12981790178E+03  0.12981790180E+03  0.25500000920E-02 0.  1.
    10030    2    1    2    0    0  0.00000000000E+00  0.00000000000E+00  0.55448542283E+03  0.81412122641E+03  0.59610341985E+03 0.  0.
        3    1    3    3  502    0 -0.18494369181E+03  0.19373961964E+03  0.98672231014E+02  0.28543901053E+03  0.10100000352E+00 0.  1.
       -3    1    3    3    0  502  0.18494369181E+03 -0.19373961964E+03  0.45581319181E+03  0.52868221588E+03  0.10100000352E+00 0. -1.
</event>
<event>
 5   0  0.1502642E-01  0.4471493E+03  0.7818609E-02  0.1028576E+00
        2   -1    0    0  501    0  0.00000000000E+00  0.00000000000E+00  0.34435559629E+03  0.34435559630E+03  0.25500000920E-02 0. -1.
       -2   -1    0    0    0  501  0.00000000000E+00  0.00000000000E+00 -0.14515701883E+03  0.14515701886E+03  0.25500000920E-02 0.  1.
    10030    2    1    2    0    0  0.00000000000E+00  0.00000000000E+00  0.19919857746E+03  0.48951261516E+03  0.44714933427E+03 0.  0.
        2    1    3    3  502    0 -0.20266800551E+03 -0.13009478508E+02  0.20195646827E+03  0.28640876744E+03  0.25500000920E-02 0. -1.
       -2    1    3    3    0  502  0.20266800551E+03  0.13009478508E+02 -0.27578908085E+01  0.20310384771E+03  0.25500000920E-02 0.  1.
</event>
<event>
 5   0  0.9177281E-02  0.5965581E+03  0.7818609E-02  0.9912573E-01
        1   -1    0    0  501    0  0.00000000000E+00  0.00000000000E+00  0.73121822721E+03  0.73121822723E+03  0.50400001928E-02 0.  1.
       -1   -1    0    0    0  501  0.00000000000E+00  0.00000000000E+00 -0.12167421687E+03  0.12167421698E+03  0.50400001928E-02 0. -1.
    10030    2    1    2    0    0  0.00000000000E+00  0.00000000000E+00  0.60954401034E+03  0.85289244421E+03  0.59655814540E+03 0.  0.
        1    1    3    3  502    0  0.17208792321E+03 -0.92787350243E+02 -0.17294244933E+02  0.19627235315E+03  0.50400001928E-02 0. -1.
       -1    1    3    3    0  502 -0.17208792321E+03  0.92787350243E+02  0.62683825527E+03  0.65662009105E+03  0.50400001928E-02 0.  1.
</event>
<event>
 5   0  0.8860626E-02  0.6075525E+03  0.7818609E-02  0.9889860E-01
        1   -1    0    0  501    0  0.00000000000E+00  0.00000000000E+00  0.29310566266E+03  0.29310566270E+03  0.50400001928E-02 0.  1.
       -1   -1    0    0    0  501  0.00000000000E+00  0.00000000000E+00 -0.31483526294E+03  0.31483526298E+03  0.50400001928E-02 0. -1.
    10030    2    1    2    0    0  0.00000000000E+00  0.00000000000E+00 -0.21729600283E+02  0.60794092569E+03  0.60755246160E+03 0.  0.
        3    1    3    3  502    0 -0.18045940406E+03 -0.11300950156E+01  0.23365411352E+03  0.29523063627E+03  0.10100000352E+00 0.  1.
       -3    1    3    3    0  502  0.18045940406E+03  0.11300950156E+01 -0.25538371380E+03  0.31271028941E+03  0.10100000352E+00 0. -1.
</event>
<event>
 5   0  0.1513339E-01  0.6017873E+03  0.7818609E-02  0.9901705E-01
        2   -1    0    0  501    0  0.00000000000E+00  0.00000000000E+00  0.27430573116E+03  0.27430573117E+03  0.25500000920E-02 0.  1.
       -2   -1    0    0    0  501  0.00000000000E+00  0.00000000000E+00 -0.33005867763E+03  0.33005867764E+03  0.25500000920E-02 0. -1.
    10030    2    1    2    0    0  0.00000000000E+00  0.00000000000E+00 -0.55752946475E+02  0.60436440881E+03  0.60178729432E+03 0.  0.
        3    1    3    3  502    0 -0.21753677613E+03 -0.15739869421E+03 -0.16425336421E+03  0.31476304701E+03  0.10100000352E+00 0. -1.
       -3    1    3    3    0  502  0.21753677613E+03  0.15739869421E+03  0.10850041774E+03  0.28960136180E+03  0.10100000352E+00 0.  1.
</event>
<event>
 5   0  0.8860626E-02  0.6006582E+03  0.7818609E-02  0.9904042E-01
       -1   -1    0    0    0  501  0.00000000000E+00  0.00000000000E+00  0.10241623150E+03  0.10241623162E+03  0.50400001928E-02 0.  1.
        1   -1    0    0  501    0  0.00000000000E+00  0.00000000000E+00 -0.88069589515E+03  0.88069589517E+03  0.50400001928E-02 0. -1.
    10030    2    1    2    0    0  0.00000000000E+00  0.00000000000E+00 -0.77827966366E+03  0.98311212679E+03  0.60065815484E+03 0.  0.
        3    1    3    3  502    0  0.20316824520E+03 -0.21752366023E+03 -0.45468378417E+03  0.54344386316E+03  0.10100000352E+00 0.  1.
       -3    1    3    3    0  502 -0.20316824520E+03  0.21752366023E+03 -0.32359587948E+03  0.43966826363E+03  0.10100000352E+00 0. -1.
</event>
<event>
 5   0  0.9420349E-02  0.6052871E+03  0.7818609E-02  0.9894497E-01
        1   -1    0    0  501    0  0.00000000000E+00  0.00000000000E+00  0.19082332458E+03  0.19082332464E+03  0.50400001928E-02 0.  1.
       -1   -1    0    0    0  501  0.00000000000E+00  0.00000000000E+00 -0.47998910404E+03  0.47998910407E+03  0.50400001928E-02 0. -1.
    10030    2    1    2    0    0  0.00000000000E+00  0.00000000000E+00 -0.28916577946E+03  0.67081242871E+03  0.60528709428E+03 0.  0.
        2    1    3    3  502    0  0.69284386408E+02  0.28111779501E+03 -0.24224509273E+03  0.37750526596E+03  0.25500000920E-02 0. -1.
       -2    1    3    3    0  502 -0.69284386408E+02 -0.28111779501E+03 -0.46920686737E+02  0.29330716275E+03  0.25500000920E-02 0.  1.
</event>
<event>
 5   0  0.1488510E-01  0.5910230E+03  0.7818609E-02  0.9924207E-01
       -2   -1    0    0    0  501  0.00000000000E+00  0.00000000000E+00  0.11548497262E+03  0.11548497264E+03  0.25500000920E-02 0. -1.
        2   -1    0    0  501    0  0.00000000000E+00  0.00000000000E+00 -0.75617676157E+03  0.75617676157E+03  0.25500000920E-02 0.  1.
    10030    2    1    2    0    0  0.00000000000E+00  0.00000000000E+00 -0.64069178895E+03  0.87166173422E+03  0.59102302025E+03 0.  0.
        5    1    3    3  502    0  0.25668794053E+03  0.36228993654E+02 -0.11123250630E+03  0.28212762937E+03  0.46999998093E+01 0. -1.
       -5    1    3    3    0  502 -0.25668794053E+03 -0.36228993654E+02 -0.52945928265E+03  0.58953410485E+03  0.46999998093E+01 0.  1.
</event>
<event>
 5   0  0.9177281E-02  0.6040031E+03  0.7818609E-02  0.9897136E-01
        1   -1    0    0  501    0  0.00000000000E+00  0.00000000000E+00  0.40623073481E+03  0.40623073484E+03  0.50400001928E-02 0. -1.
       -1   -1    0    0    0  501  0.00000000000E+00  0.00000000000E+00 -0.22451511271E+03  0.22451511277E+03  0.50400001928E-02 0.  1.
    10030    2    1    2    0    0  0.00000000000E+00  0.00000000000E+00  0.18171562210E+03  0.63074584761E+03  0.60400311006E+03 0.  0.
        1    1    3    3  502    0 -0.62993125926E+02  0.39034870948E+02  0.39658832502E+03  0.40345279108E+03  0.50400001928E-02 0. -1.
       -1    1    3    3    0  502  0.62993125926E+02 -0.39034870948E+02 -0.21487270292E+03  0.22729305653E+03  0.50400001928E-02 0.  1.
</event>
<event>
 5   0  0.1513339E-01  0.6032061E+03  0.7818609E-02  0.9898777E-01
        2   -1    0    0  501    0  0.00000000000E+00  0.00000000000E+00  0.79655839438E+03  0.79655839438E+03  0.25500000920E-02 0. -1.
       -2   -1    0    0    0  501  0.00000000000E+00  0.00000000000E+00 -0.11419678734E+03  0.11419678737E+03  0.25500000920E-02 0.  1.
    10030    2    1    2    0    0  0.00000000000E+00  0.00000000000E+00  0.68236160704E+03  0.91075518175E+03  0.60320613253E+03 0.  0.
        3    1    3    3  502    0 -0.55479823770E+02 -0.17678838928E+03 -0.18127973506E+02  0.18617405580E+03  0.10100000352E+00 0.  1.
       -3    1    3    3    0  502  0.55479823770E+02  0.17678838928E+03  0.70048958054E+03  0.72458112595E+03  0.10100000352E+00 0. -1.
</event>
<event>
 5   0  0.1483942E-01  0.5785597E+03  0.7818609E-02  0.9950914E-01
       -2   -1    0    0    0  501  0.00000000000E+00  0.00000000000E+00  0.67633079500E+02  0.67633079548E+02  0.25500000920E-02 0.  1.
        2   -1    0    0  501    0  0.00000000000E+00  0.00000000000E+00 -0.12373063887E+04  0.12373063888E+04  0.25500000920E-02 0. -1.
    10030    2    1    2    0    0  0.00000000000E+00  0.00000000000E+00 -0.11696733092E+04  0.13049394683E+04  0.57855973379E+03 0.  0.
        4    1    3    3  502    0 -0.18925091553E+03  0.11706737638E+03 -0.16796287301E+03  0.27880785363E+03  0.12699999809E+01 0.  1.
       -4    1    3    3    0  502  0.18925091553E+03 -0.11706737638E+03 -0.10017104362E+04  0.10261316147E+04  0.12699999809E+01 0. -1.
</event>
<event>
 5   0  0.1513339E-01  0.5928827E+03  0.7818609E-02  0.9920283E-01
        2   -1    0    0  501    0  0.00000000000E+00  0.00000000000E+00  0.31385948000E+03  0.31385948001E+03  0.25500000920E-02 0. -1.
       -2   -1    0    0    0  501  0.00000000000E+00  0.00000000000E+00 -0.27998988633E+03  0.27998988634E+03  0.25500000920E-02 0.  1.
    10030    2    1    2    0    0  0.00000000000E+00  0.00000000000E+00  0.33869593672E+02  0.59384936635E+03  0.59288272073E+03 0.  0.
        3    1    3    3  502    0 -0.71100730471E+02 -0.25637470271E+01  0.30518096100E+03  0.31336450952E+03  0.10100000352E+00 0. -1.
       -3    1    3    3    0  502  0.71100730471E+02  0.25637470271E+01 -0.27131136732E+03  0.28048485683E+03  0.10100000352E+00 0.  1.
</event>
<event>
 5   0  0.6170500E-02  0.5966267E+03  0.7818609E-02  0.9912429E-01
       -4   -1    0    0    0  501  0.00000000000E+00  0.00000000000E+00  0.34878467723E+03  0.34878698940E+03  0.12699999809E+01 0. -1.
        4   -1    0    0  501    0  0.00000000000E+00  0.00000000000E+00 -0.25514076022E+03  0.25514392101E+03  0.12699999809E+01 0.  1.
    10030    2    1    2    0    0  0.00000000000E+00  0.00000000000E+00  0.93643917011E+02  0.60393091040E+03  0.59662665156E+03 0.  0.
        2    1    3    3  502    0 -0.22368966967E+03 -0.16779602546E+03  0.15200884893E+03  0.31827545402E+03  0.25500000920E-02 0. -1.
       -2    1    3    3    0  502  0.22368966967E+03  0.16779602546E+03 -0.58364931916E+02  0.28565545638E+03  0.25500000920E-02 0.  1.
</event>
<event>
 5   0  0.1483942E-01  0.6045494E+03  0.7818609E-02  0.9896012E-01
        2   -1    0    0  501    0  0.00000000000E+00  0.00000000000E+00  0.12797148592E+04  0.12797148592E+04  0.25500000920E-02 0. -1.
       -2   -1    0    0    0  501  0.00000000000E+00  0.00000000000E+00 -0.71398711931E+02  0.71398711977E+02  0.25500000920E-02 0.  1.
    10030    2    1    2    0    0  0.00000000000E+00  0.00000000000E+00  0.12083161473E+04  0.13511135712E+04  0.60454939457E+03 0.  0.
        4    1    3    3  502    0  0.59022776642E+02  0.48440148301E+02  0.12578004946E+04  0.12601165951E+04  0.12699999809E+01 0. -1.
       -4    1    3    3    0  502 -0.59022776642E+02 -0.48440148301E+02 -0.49484347313E+02  0.90996976098E+02  0.12699999809E+01 0.  1.
</event>
<event>
 5   0  0.8860626E-02  0.5863083E+03  0.7818609E-02  0.9934226E-01
        1   -1    0    0  501    0  0.00000000000E+00  0.00000000000E+00  0.40508086835E+03  0.40508086838E+03  0.50400001928E-02 0. -1.
       -1   -1    0    0    0  501  0.00000000000E+00  0.00000000000E+00 -0.21215358716E+03  0.21215358722E+03  0.50400001928E-02 0.  1.
    10030    2    1    2    0    0  0.00000000000E+00  0.00000000000E+00  0.19292728119E+03  0.61723445560E+03  0.58630831254E+03 0.  0.
        3    1    3    3  502    0  0.21551779582E+03  0.15296465818E+03  0.23001425281E+03  0.35036077644E+03  0.10100000352E+00 0. -1.
       -3    1    3    3    0  502 -0.21551779582E+03 -0.15296465818E+03 -0.37086971622E+02  0.26687367917E+03  0.10100000352E+00 0.  1.
</event>
<event>
 5   0  0.1488510E-01  0.6296835E+03  0.7818609E-02  0.9845667E-01
        2   -1    0    0  501    0  0.00000000000E+00  0.00000000000E+00  0.59680360263E+03  0.59680360264E+03  0.25500000920E-02 0.  1.
       -2   -1    0    0    0  501  0.00000000000E+00  0.00000000000E+00 -0.16609372418E+03  0.16609372420E+03  0.25500000920E-02 0. -1.
    10030    2    1    2    0    0  0.00000000000E+00  0.00000000000E+00  0.43070987845E+03  0.76289732683E+03  0.62968351724E+03 0.  0.
        5    1    3    3  502    0  0.60576810529E+01 -0.30641651443E+02  0.59487910783E+03  0.59571708825E+03  0.46999998093E+01 0.  1.
       -5    1    3    3    0  502 -0.60576810529E+01  0.30641651443E+02 -0.16416922937E+03  0.16718023859E+03  0.46999998093E+01 0. -1.
</event>
<event>
 5   0  0.6170500E-02  0.6050169E+03  0.7818609E-02  0.9895052E-01
        3   -1    0    0  501    0  0.00000000000E+00  0.00000000000E+00  0.41410878287E+03  0.41410879518E+03  0.10100000352E+00 0.  1.
       -3   -1    0    0    0  501  0.00000000000E+00  0.00000000000E+00 -0.22098386359E+03  0.22098388667E+03  0.10100000352E+00 0. -1.
    10030    2    1    2    0    0  0.00000000000E+00  0.00000000000E+00  0.19312491927E+03  0.63509268186E+03  0.60501692547E+03 0.  0.
        2    1    3    3  502    0 -0.74735460505E+02  0.28736273453E+03  0.35818401955E+02  0.29907472006E+03  0.25500000920E-02 0. -1.
       -2    1    3    3    0  502  0.74735460505E+02 -0.28736273453E+03  0.15730651732E+03  0.33601796180E+03  0.25500000920E-02 0.  1.
</event>
<event>
 5   0  0.6170500E-02  0.5705371E+03  0.7818609E-02  0.9968491E-01
        3   -1    0    0  501    0  0.00000000000E+00  0.00000000000E+00  0.21875612656E+03  0.21875614987E+03  0.10100000352E+00 0.  1.
       -3   -1    0    0    0  501  0.00000000000E+00  0.00000000000E+00 -0.37200392237E+03  0.37200393608E+03  0.10100000352E+00 0. -1.
    10030    2    1    2    0    0  0.00000000000E+00  0.00000000000E+00 -0.15324779581E+03  0.59076008596E+03  0.57053710855E+03 0.  0.
        2    1    3    3  502    0 -0.27403871917E+03 -0.74994610126E+02 -0.50088661723E+02  0.28849659477E+03  0.25500000920E-02 0.  1.
       -2    1    3    3    0  502  0.27403871917E+03  0.74994610126E+02 -0.10315913409E+03  0.30226349119E+03  0.25500000920E-02 0. -1.
</event>
<event>
 5   0  0.9497860E-02  0.5955796E+03  0.7818609E-02  0.9914620E-01
       -1   -1    0    0    0  501  0.00000000000E+00  0.00000000000E+00  0.24621184017E+03  0.24621184022E+03  0.50400001928E-02 0. -1.
        1   -1    0    0  501    0  0.00000000000E+00  0.00000000000E+00 -0.36017263804E+03  0.36017263808E+03  0.50400001928E-02 0.  1.
    10030    2    1    2    0    0  0.00000000000E+00  0.00000000000E+00 -0.11396079787E+03  0.60638447830E+03  0.59557961019E+03 0.  0.
        5    1    3    3  502    0  0.24301037207E+03 -0.10078073601E+03  0.84997929687E+02  0.27650955813E+03  0.46999998093E+01 0.  1.
       -5    1    3    3    0  502 -0.24301037207E+03  0.10078073601E+03 -0.19895872756E+03  0.32987492017E+03  0.46999998093E+01 0. -1.
</event>
<event>
 5   0  0.6170500E-02  0.5374274E+03  0.7818609E-02  0.1004447E+00
        4   -1    0    0  501    0  0.00000000000E+00  0.00000000000E+00  0.91469106093E+03  0.91469194260E+03  0.12699999809E+01 0. -1.
       -4   -1    0    0    0  501  0.00000000000E+00  0.00000000000E+00 -0.78935442041E+02  0.78945657956E+02  0.12699999809E+01 0.  1.
    10030    2    1    2    0    0  0.00000000000E+00  0.00000000000E+00  0.83575561889E+03  0.99363760055E+03  0.53742741531E+03 0.  0.
        1    1    3    3  502    0  0.21982478201E+03 -0.15454484760E+03  0.41807991924E+03  0.49698879625E+03  0.50400001928E-02 0. -1.
       -1    1    3    3    0  502 -0.21982478201E+03  0.15454484760E+03  0.41767569965E+03  0.49664880430E+03  0.50400001928E-02 0.  1.
</event>
<event>
 5   0  0.8860626E-02  0.5985490E+03  0.7818609E-02  0.9908421E-01
        1   -1    0    0  501    0  0.00000000000E+00  0.00000000000E+00  0.10985185250E+03  0.10985185262E+03  0.50400001928E-02 0.  1.
       -1   -1    0    0    0  501  0.00000000000E+00  0.00000000000E+00 -0.81532739575E+03  0.81532739577E+03  0.50400001928E-02 0. -1.
    10030    2    1    2    0    0  0.00000000000E+00  0.00000000000E+00 -0.70547554325E+03  0.92517924839E+03  0.59854899509E+03 0.  0.
        3    1    3    3  502    0 -0.73765715027E+02 -0.54589709495E+02  0.87567455865E+02  0.12684434013E+03  0.10100000352E+00 0.  1.
       -3    1    3    3    0  502  0.73765715027E+02  0.54589709495E+02 -0.79304299911E+03  0.79833490825E+03  0.10100000352E+00 0. -1.
</event>
<event>
 5   0  0.8860626E-02  0.6080136E+03  0.7818609E-02  0.9888918E-01
       -1   -1    0    0    0  501  0.00000000000E+00  0.00000000000E+00  0.19995497306E+03  0.19995497312E+03  0.50400001928E-02 0. -1.
        1   -1    0    0  501    0  0.00000000000E+00  0.00000000000E+00 -0.46220473045E+03  0.46220473048E+03  0.50400001928E-02 0.  1.
    10030    2    1    2    0    0  0.00000000000E+00  0.00000000000E+00 -0.26224975739E+03  0.66215970360E+03  0.60801360003E+03 0.  0.
        3    1    3    3  502    0  0.69200726967E+02  0.13008161479E+03  0.15846965188E+03  0.21638532271E+03  0.10100000352E+00 0. -1.
       -3    1    3    3    0  502 -0.69200726967E+02 -0.13008161479E+03 -0.42071940927E+03  0.44577438089E+03  0.10100000352E+00 0.  1.
</event>
<event>
 5   0  0.1488510E-01  0.6033383E+03  0.7818609E-02  0.9898504E-01
       -2   -1    0    0    0  501  0.00000000000E+00  0.00000000000E+00  0.17144899081E+03  0.17144899082E+03  0.25500000920E-02 0.  1.
        2   -1    0    0  501    0  0.00000000000E+00  0.00000000000E+00 -0.53079512954E+03  0.53079512955E+03  0.25500000920E-02 0. -1.
    10030    2    1    2    0    0  0.00000000000E+00  0.00000000000E+00 -0.35934613873E+03  0.70224412037E+03  0.60333834386E+03 0.  0.
        5    1    3    3  502    0 -0.14762506303E+03 -0.83357530759E+02  0.11070508331E+03  0.20253232492E+03  0.46999998093E+01 0.  1.
       -5    1    3    3    0  502  0.14762506303E+03  0.83357530759E+02 -0.47005122205E+03  0.49971179545E+03  0.46999998093E+01 0. -1.
</event>
<event>
 5   0  0.9177281E-02  0.6233448E+03  0.7818609E-02  0.9858123E-01
       -1   -1    0    0    0  501  0.00000000000E+00  0.00000000000E+00  0.72589768679E+02  0.72589768854E+02  0.50400001928E-02 0. -1.
        1   -1    0    0  501    0  0.00000000000E+00  0.00000000000E+00 -0.13382008010E+04  0.13382008010E+04  0.50400001928E-02 0.  1.
    10030    2    1    2    0    0  0.00000000000E+00  0.00000000000E+00 -0.12656110323E+04  0.14107905698E+04  0.62334480577E+03 0.  0.
        1    1    3    3  502    0  0.27483233926E+03  0.68283320157E+02 -0.33819685612E+03  0.44110377467E+03  0.50400001928E-02 0. -1.
       -1    1    3    3    0  502 -0.27483233926E+03 -0.68283320157E+02 -0.92741417618E+03  0.96968679517E+03  0.50400001928E-02 0.  1.
</event>
<event>
 5   0  0.8860626E-02  0.6219583E+03  0.7818609E-02  0.9860868E-01
       -1   -1    0    0    0  501  0.00000000000E+00  0.00000000000E+00  0.13989902246E+03  0.13989902255E+03  0.50400001928E-02 0. -1.
        1   -1    0    0  501    0  0.00000000000E+00  0.00000000000E+00 -0.69127024106E+03  0.69127024107E+03  0.50400001928E-02 0.  1.
    10030    2    1    2    0    0  0.00000000000E+00  0.00000000000E+00 -0.55137121860E+03  0.83116926362E+03  0.62195829771E+03 0.  0.
        3    1    3    3  502    0 -0.29847279127E+03  0.39702264782E+02 -0.17177662958E+03  0.34665472394E+03  0.10100000352E+00 0. -1.
       -3    1    3    3    0  502  0.29847279127E+03 -0.39702264782E+02 -0.37959458902E+03  0.48451453969E+03  0.10100000352E+00 0.  1.
</event>
<event>
 5   0  0.9411028E-02  0.5935456E+03  0.7818609E-02  0.9918888E-01
       -1   -1    0    0    0  501  0.00000000000E+00  0.00000000000E+00  0.36702415416E+03  0.36702415419E+03  0.50400001928E-02 0.  1.
        1   -1    0    0  501    0  0.00000000000E+00  0.00000000000E+00 -0.23996814980E+03  0.23996814985E+03  0.50400001928E-02 0. -1.
    10030    2    1    2    0    0  0.00000000000E+00  0.00000000000E+00  0.12705600436E+03  0.60699230404E+03  0.59354564182E+03 0.  0.
        4    1    3    3  502    0  0.95147649630E+02  0.11882300412E+03  0.32405523606E+03  0.35802987369E+03  0.12699999809E+01 0.  1.
       -4    1    3    3    0  502 -0.95147649630E+02 -0.11882300412E+03 -0.19699923170E+03  0.24896243035E+03  0.12699999809E+01 0. -1.
</event>
<event>
 5   0  0.9420349E-02  0.5961748E+03  0.7818609E-02  0.9913374E-01
       -1   -1    0    0    0  501  0.00000000000E+00  0.00000000000E+00  0.15098988109E+03  0.15098988117E+03  0.50400001928E-02 0. -1.
        1   -1    0    0  501    0  0.00000000000E+00  0.00000000000E+00 -0.58849032624E+03  0.58849032626E+03  0.50400001928E-02 0.  1.
    10030    2    1    2    0    0  0.00000000000E+00  0.00000000000E+00 -0.43750044515E+03  0.73948020743E+03  0.59617475431E+03 0.  0.
        2    1    3    3  502    0 -0.24864803849E+03 -0.20051311571E+01 -0.42266354521E+03  0.49038183087E+03  0.25500000920E-02 0. -1.
       -2    1    3    3    0  502  0.24864803849E+03  0.20051311571E+01 -0.14836899937E+02  0.24909837656E+03  0.25500000920E-02 0.  1.
</event>
<event>
 5   0  0.1502642E-01  0.6015621E+03  0.7818609E-02  0.9902170E-01
       -2   -1    0    0    0  501  0.00000000000E+00  0.00000000000E+00  0.37349868333E+03  0.37349868334E+03  0.25500000920E-02 0. -1.
        2   -1    0    0  501    0  0.00000000000E+00  0.00000000000E+00 -0.24222107930E+03  0.24222107932E+03  0.25500000920E-02 0.  1.
    10030    2    1    2    0    0  0.00000000000E+00  0.00000000000E+00  0.13127760403E+03  0.61571976266E+03  0.60156214708E+03 0.  0.
        2    1    3    3  502    0 -0.11845343883E+03 -0.16638830523E+03 -0.16035843343E+03  0.25967501317E+03  0.25500000920E-02 0.  1.
       -2    1    3    3    0  502  0.11845343883E+03  0.16638830523E+03  0.29163603746E+03  0.35604474949E+03  0.25500000920E-02 0. -1.
</event>
<event>
 5   0  0.1513339E-01  0.6067200E+03  0.7818609E-02  0.9891561E-01
       -2   -1    0    0    0  501  0.00000000000E+00  0.00000000000E+00  0.19983184228E+03  0.19983184229E+03  0.25500000920E-02 0. -1.
        2   -1    0    0  501    0  0.00000000000E+00  0.00000000000E+00 -0.46052369759E+03  0.46052369759E+03  0.25500000920E-02 0.  1.
    10030    2    1    2    0    0  0.00000000000E+00  0.00000000000E+00 -0.26069185531E+03  0.66035553989E+03  0.60672003068E+03 0.  0.
        3    1    3    3  502    0 -0.21073046417E+03  0.21793670685E+03 -0.11824790610E+03  0.32540177354E+03  0.10100000352E+00 0. -1.
       -3    1    3    3    0  502  0.21073046417E+03 -0.21793670685E+03 -0.14244394921E+03  0.33495376635E+03  0.10100000352E+00 0.  1.
</event>
<event>
 5   0  0.1483942E-01  0.6075215E+03  0.7818609E-02  0.9889923E-01
       -2   -1    0    0    0  501  0.00000000000E+00  0.00000000000E+00  0.32369559126E+03  0.32369559127E+03  0.25500000920E-02 0. -1.
        2   -1    0    0  501    0  0.00000000000E+00  0.00000000000E+00 -0.28505356009E+03  0.28505356010E+03  0.25500000920E-02 0.  1.
    10030    2    1    2    0    0  0.00000000000E+00  0.00000000000E+00  0.38642031170E+02  0.60874915136E+03  0.60752145864E+03 0.  0.
        4    1    3    3  502    0  0.21480006566E+02 -0.27344670144E+03 -0.11145893482E+03  0.29607295767E+03  0.12699999809E+01 0. -1.
       -4    1    3    3    0  502 -0.21480006566E+02  0.27344670144E+03  0.15010096599E+03  0.31267619369E+03  0.12699999809E+01 0.  1.
</event>
<event>
 5   0  0.8860626E-02  0.6076246E+03  0.7818609E-02  0.9889712E-01
        1   -1    0    0  501    0  0.00000000000E+00  0.00000000000E+00  0.65089558950E+03  0.65089558952E+03  0.50400001928E-02 0. -1.
       -1   -1    0    0    0  501  0.00000000000E+00  0.00000000000E+00 -0.14180757895E+03  0.14180757904E+03  0.50400001928E-02 0.  1.
    10030    2    1    2    0    0  0.00000000000E+00  0.00000000000E+00  0.50908801055E+03  0.79270316856E+03  0.60762464644E+03 0.  0.
        3    1    3    3  502    0 -0.26215890680E+03  0.14562661582E+03  0.31802174884E+03  0.43711811515E+03  0.10100000352E+00 0. -1.
       -3    1    3    3    0  502  0.26215890680E+03 -0.14562661582E+03  0.19106626171E+03  0.35558505342E+03  0.10100000352E+00 0.  1.
</event>
<event>
 5   0  0.1532571E-01  0.5998561E+03  0.7818609E-02  0.9905705E-01
       -2   -1    0    0    0  501  0.00000000000E+00  0.00000000000E+00  0.14495395614E+03  0.14495395616E+03  0.25500000920E-02 0. -1.
        2   -1    0    0  501    0  0.00000000000E+00  0.00000000000E+00 -0.62058894694E+03  0.62058894694E+03  0.25500000920E-02 0.  1.
    10030    2    1    2    0    0  0.00000000000E+00  0.00000000000E+00 -0.47563499080E+03  0.76554290311E+03  0.59985605942E+03 0.  0.
        1    1    3    3  502    0 -0.22697437661E+03 -0.21902089267E+02  0.10830051076E+02  0.22828569641E+03  0.50400001928E-02 0. -1.
       -1    1    3    3    0  502  0.22697437661E+03  0.21902089267E+02 -0.48646504188E+03  0.53725720670E+03  0.50400001928E-02 0.  1.
</event>
<event>
 5   0  0.1488510E-01  0.5423188E+03  0.7818609E-02  0.1003288E+00
       -2   -1    0    0    0  501  0.00000000000E+00  0.00000000000E+00  0.14234083642E+03  0.14234083644E+03  0.25500000920E-02 0. -1.
        2   -1    0    0  501    0  0.00000000000E+00  0.00000000000E+00 -0.51655889938E+03  0.51655889938E+03  0.25500000920E-02 0.  1.
    10030    2    1    2    0    0  0.00000000000E+00  0.00000000000E+00 -0.37421806296E+03  0.65889973582E+03  0.54231882064E+03 0.  0.
        5    1    3    3  502    0  0.72854633550E+02  0.10578972229E+03 -0.47719399553E+03  0.49420184373E+03  0.46999998093E+01 0.  1.
       -5    1    3    3    0  502 -0.72854633550E+02 -0.10578972229E+03  0.10297593257E+03  0.16469789209E+03  0.46999998093E+01 0. -1.
</event>
<event>
 5   0  0.9411028E-02  0.5824198E+03  0.7818609E-02  0.9942566E-01
        1   -1    0    0  501    0  0.00000000000E+00  0.00000000000E+00  0.41686150774E+03  0.41686150777E+03  0.50400001928E-02 0.  1.
       -1   -1    0    0    0  501  0.00000000000E+00  0.00000000000E+00 -0.20343256337E+03  0.20343256343E+03  0.50400001928E-02 0. -1.
    10030    2    1    2    0    0  0.00000000000E+00  0.00000000000E+00  0.21342894437E+03  0.62029407120E+03  0.58241979746E+03 0.  0.
        4    1    3    3  502    0 -0.89777524949E+02 -0.23011730498E+03 -0.57547466465E+02  0.25362827491E+03  0.12699999809E+01 0. -1.
       -4    1    3    3    0  502  0.89777524949E+02  0.23011730498E+03  0.27097641083E+03  0.36666579629E+03  0.12699999809E+01 0.  1.
</event>
<event>
 5   0  0.9420349E-02  0.5892933E+03  0.7818609E-02  0.9927871E-01
       -1   -1    0    0    0  501  0.00000000000E+00  0.00000000000E+00  0.50490317073E+02  0.50490317324E+02  0.50400001928E-02 0.  1.
        1   -1    0    0  501    0  0.00000000000E+00  0.00000000000E+00 -0.17194714337E+04  0.17194714337E+04  0.50400001928E-02 0. -1.
    10030    2    1    2    0    0  0.00000000000E+00  0.00000000000E+00 -0.16689811166E+04  0.17699617511E+04  0.58929333312E+03 0.  0.
        2    1    3    3  502    0  0.10968587066E+03 -0.23549790331E+03 -0.12520399896E+04  0.12787080934E+04  0.25500000920E-02 0. -1.
       -2    1    3    3    0  502 -0.10968587066E+03  0.23549790331E+03 -0.41694112710E+03  0.49125365765E+03  0.25500000920E-02 0.  1.
</event>
<event>
 5   0  0.6170500E-02  0.5861518E+03  0.7818609E-02  0.9934561E-01
       -4   -1    0    0    0  501  0.00000000000E+00  0.00000000000E+00  0.13778875475E+03  0.13779460742E+03  0.12699999809E+01 0. -1.
        4   -1    0    0  501    0  0.00000000000E+00  0.00000000000E+00 -0.62335101786E+03  0.62335231159E+03  0.12699999809E+01 0.  1.
    10030    2    1    2    0    0  0.00000000000E+00  0.00000000000E+00 -0.48556226312E+03  0.76114691902E+03  0.58615179004E+03 0.  0.
        3    1    3    3  502    0 -0.28573441277E+03 -0.17700800009E+02 -0.32424889280E+03  0.43254459614E+03  0.10100000352E+00 0.  1.
       -3    1    3    3    0  502  0.28573441277E+03  0.17700800009E+02 -0.16131337031E+03  0.32860232288E+03  0.10100000352E+00 0. -1.
</event>
<event>
 5   0  0.8860626E-02  0.5808080E+03  0.7818609E-02  0.9946043E-01
       -1   -1    0    0    0  501  0.00000000000E+00  0.00000000000E+00  0.18224316509E+03  0.18224316516E+03  0.50400001928E-02 0. -1.
        1   -1    0    0  501    0  0.00000000000E+00  0.00000000000E+00 -0.46275807722E+03  0.46275807725E+03  0.50400001928E-02 0.  1.
    10030    2    1    2    0    0  0.00000000000E+00  0.00000000000E+00 -0.28051491213E+03  0.64500124241E+03  0.58080804642E+03 0.  0.
        3    1    3    3  502    0 -0.45412091785E+02 -0.66626106050E+01 -0.45870460331E+03  0.46099519711E+03  0.10100000352E+00 0.  1.
       -3    1    3    3    0  502  0.45412091785E+02  0.66626106050E+01  0.17818969118E+03  0.18400604530E+03  0.10100000352E+00 0. -1.
</event>
<event>
 5   0  0.9420349E-02  0.5789654E+03  0.7818609E-02  0.9950033E-01
        1   -1    0    0  501    0  0.00000000000E+00  0.00000000000E+00  0.54608850017E+03  0.54608850020E+03  0.50400001928E-02 0.  1.
       -1   -1    0    0    0  501  0.00000000000E+00  0.00000000000E+00 -0.15345542878E+03  0.15345542887E+03  0.50400001928E-02 0. -1.
    10030    2    1    2    0    0  0.00000000000E+00  0.00000000000E+00  0.39263307139E+03  0.69954392906E+03  0.57896543933E+03 0.  0.
        2    1    3    3  502    0 -0.23233537914E+02 -0.18100534229E+03 -0.75200666730E+02  0.19737748479E+03  0.25500000920E-02 0. -1.
       -2    1    3    3    0  502  0.23233537914E+02  0.18100534229E+03  0.46783373812E+03  0.50216644427E+03  0.25500000920E-02 0.  1.
</event>
<event>
 5   0  0.1502642E-01  0.5604527E+03  0.7818609E-02  0.9991031E-01
        2   -1    0    0  501    0  0.00000000000E+00  0.00000000000E+00  0.12893752297E+04  0.12893752297E+04  0.25500000920E-02 0. -1.
       -2   -1    0    0    0  501  0.00000000000E+00  0.00000000000E+00 -0.60902998198E+02  0.60902998251E+02  0.25500000920E-02 0.  1.
    10030    2    1    2    0    0  0.00000000000E+00  0.00000000000E+00  0.12284722315E+04  0.13502782279E+04  0.56045273601E+03 0.  0.
        2    1    3    3  502    0  0.11202600747E+03 -0.14832835478E+03  0.11194678291E+04  0.11347948482E+04  0.25500000920E-02 0. -1.
       -2    1    3    3    0  502 -0.11202600747E+03  0.14832835478E+03  0.10900440238E+03  0.21548337970E+03  0.25500000920E-02 0.  1.
</event>
<event>
 5   0  0.1502642E-01  0.5020985E+03  0.7818609E-02  0.1013233E+00
       -2   -1    0    0    0  501  0.00000000000E+00  0.00000000000E+00  0.42511517189E+02  0.42511517266E+02  0.25500000920E-02 0. -1.
        2   -1    0    0  501    0  0.00000000000E+00  0.00000000000E+00 -0.14825567202E+04  0.14825567202E+04  0.25500000920E-02 0.  1.
    10030    2    1    2    0    0  0.00000000000E+00  0.00000000000E+00 -0.14400452030E+04  0.15250682375E+04  0.50209853836E+03 0.  0.
        2    1    3    3  502    0  0.52418413465E+02  0.60048385945E+02  0.30559780409E+01  0.79767397683E+02  0.25500000920E-02 0. -1.
       -2    1    3    3    0  502 -0.52418413465E+02 -0.60048385945E+02 -0.14431011811E+04  0.14453008398E+04  0.25500000920E-02 0.  1.
</event>
<event>
 5   0  0.1513339E-01  0.5681281E+03  0.7818609E-02  0.9973829E-01
       -2   -1    0    0    0  501  0.00000000000E+00  0.00000000000E+00  0.81625589046E+02  0.81625589086E+02  0.25500000920E-02 0.  1.
        2   -1    0    0  501    0  0.00000000000E+00  0.00000000000E+00 -0.98856728248E+03  0.98856728248E+03  0.25500000920E-02 0. -1.
    10030    2    1    2    0    0  0.00000000000E+00  0.00000000000E+00 -0.90694169343E+03  0.10701928716E+04  0.56812810797E+03 0.  0.
        3    1    3    3  502    0 -0.22347988823E+03  0.12287536326E+03 -0.21781212893E+03  0.33538597026E+03  0.10100000352E+00 0. -1.
       -3    1    3    3    0  502  0.22347988823E+03 -0.12287536326E+03 -0.68912956450E+03  0.73480690131E+03  0.10100000352E+00 0.  1.
</event>
<event>
 5   0  0.6170500E-02  0.5142399E+03  0.7818609E-02  0.1010128E+00
       -3   -1    0    0    0  501  0.00000000000E+00  0.00000000000E+00  0.52805538998E+03  0.52805539964E+03  0.10100000352E+00 0.  1.
        3   -1    0    0  501    0  0.00000000000E+00  0.00000000000E+00 -0.12519641105E+03  0.12519645179E+03  0.10100000352E+00 0. -1.
    10030    2    1    2    0    0  0.00000000000E+00  0.00000000000E+00  0.40285897893E+03  0.65325185144E+03  0.51423985114E+03 0.  0.
        2    1    3    3  502    0  0.10305819194E+03  0.11442323355E+03  0.46299617317E+03  0.48793352383E+03  0.25500000920E-02 0.  1.
       -2    1    3    3    0  502 -0.10305819194E+03 -0.11442323355E+03 -0.60137194243E+02  0.16531832760E+03  0.25500000920E-02 0. -1.
</event>
<event>
 5   0  0.9411028E-02  0.6144527E+03  0.7818609E-02  0.9875867E-01
       -1   -1    0    0    0  501  0.00000000000E+00  0.00000000000E+00  0.27290962219E+03  0.27290962223E+03  0.50400001928E-02 0.  1.
        1   -1    0    0  501    0  0.00000000000E+00  0.00000000000E+00 -0.34585818197E+03  0.34585818201E+03  0.50400001928E-02 0. -1.
    10030    2    1    2    0    0  0.00000000000E+00  0.00000000000E+00 -0.72948559782E+02  0.61876780424E+03  0.61445268588E+03 0.  0.
        4    1    3    3  502    0 -0.62460603820E+02  0.61606998503E+02  0.26002450664E+03  0.27442869064E+03  0.12699999809E+01 0.  1.
       -4    1    3    3    0  502  0.62460603820E+02 -0.61606998503E+02 -0.33297306642E+03  0.34433911360E+03  0.12699999809E+01 0. -1.
</event>
<event>
 5   0  0.9420349E-02  0.4096898E+03  0.7818609E-02  0.1040475E+00
        1   -1    0    0  501    0  0.00000000000E+00  0.00000000000E+00  0.26834383439E+04  0.26834383439E+04  0.50400001928E-02 0.  1.
       -1   -1    0    0    0  501  0.00000000000E+00  0.00000000000E+00 -0.15637191170E+02  0.15637191983E+02  0.50400001928E-02 0. -1.
    10030    2    1    2    0    0  0.00000000000E+00  0.00000000000E+00  0.26678011527E+04  0.26990755358E+04  0.40968983136E+03 0.  0.
        2    1    3    3  502    0  0.29657475682E+02 -0.12094045608E+03  0.26234171333E+03  0.29039513484E+03  0.25500000920E-02 0. -1.
       -2    1    3    3    0  502 -0.29657475682E+02  0.12094045608E+03  0.24054594394E+04  0.24086804010E+04  0.25500000920E-02 0.  1.
</event>
<event>
 5   0  0.6170500E-02  0.5878559E+03  0.7818609E-02  0.9930926E-01
       -3   -1    0    0    0  501  0.00000000000E+00  0.00000000000E+00  0.16798895208E+03  0.16798898244E+03  0.10100000352E+00 0.  1.
        3   -1    0    0  501    0  0.00000000000E+00  0.00000000000E+00 -0.51428163372E+03  0.51428164363E+03  0.10100000352E+00 0. -1.
    10030    2    1    2    0    0  0.00000000000E+00  0.00000000000E+00 -0.34629268164E+03  0.68227062608E+03  0.58785592270E+03 0.  0.
        1    1    3    3  502    0 -0.11422263646E+03  0.20488155832E+03  0.32417008438E+02  0.23679975946E+03  0.50400001928E-02 0.  1.
       -1    1    3    3    0  502  0.11422263646E+03 -0.20488155832E+03 -0.37870969007E+03  0.44547086661E+03  0.50400001928E-02 0. -1.
</event>
<event>
 5   0  0.9420349E-02  0.5920195E+03  0.7818609E-02  0.9922103E-01
       -1   -1    0    0    0  501  0.00000000000E+00  0.00000000000E+00  0.84538166103E+03  0.84538166104E+03  0.50400001928E-02 0. -1.
        1   -1    0    0  501    0  0.00000000000E+00  0.00000000000E+00 -0.10364758286E+03  0.10364758299E+03  0.50400001928E-02 0.  1.
    10030    2    1    2    0    0  0.00000000000E+00  0.00000000000E+00  0.74173407817E+03  0.94902924403E+03  0.59201947883E+03 0.  0.
        2    1    3    3  502    0 -0.11750288592E+03  0.14570343324E+03  0.32666420934E+01  0.18720867933E+03  0.25500000920E-02 0.  1.
       -2    1    3    3    0  502  0.11750288592E+03 -0.14570343324E+03  0.73846743607E+03  0.76182056470E+03  0.25500000920E-02 0. -1.
</event>
<event>
 5   0  0.1513339E-01  0.5371267E+03  0.7818609E-02  0.1004518E+00
        2   -1    0    0  501    0  0.00000000000E+00  0.00000000000E+00  0.70258262028E+03  0.70258262028E+03  0.25500000920E-02 0.  1.
       -2   -1    0    0    0  501  0.00000000000E+00  0.00000000000E+00 -0.10265878160E+03  0.10265878163E+03  0.25500000920E-02 0. -1.
    10030    2    1    2    0    0  0.00000000000E+00  0.00000000000E+00  0.59992383868E+03  0.80524140192E+03  0.53712671051E+03 0.  0.
        3    1    3    3  502    0  0.11415992976E+03 -0.11349374012E+03 -0.22316465641E+02  0.16251570216E+03  0.10100000352E+00 0. -1.
       -3    1    3    3    0  502 -0.11415992976E+03  0.11349374012E+03  0.62224030432E+03  0.64272569976E+03  0.10100000352E+00 0.  1.
</event>
<event>
 5   0  0.1502642E-01  0.7332803E+03  0.7818609E-02  0.9661952E-01
       -2   -1    0    0    0  501  0.00000000000E+00  0.00000000000E+00  0.93996328567E+03  0.93996328567E+03  0.25500000920E-02 0. -1.
        2   -1    0    0  501    0  0.00000000000E+00  0.00000000000E+00 -0.14301088623E+03  0.14301088626E+03  0.25500000920E-02 0.  1.
    10030    2    1    2    0    0  0.00000000000E+00  0.00000000000E+00  0.79695239944E+03  0.10829741719E+04  0.73328025345E+03 0.  0.
        2    1    3    3  502    0  0.60805271228E+02 -0.29246588963E+03  0.71243743607E+03  0.77252875540E+03  0.25500000920E-02 0. -1.
       -2    1    3    3    0  502 -0.60805271228E+02  0.29246588963E+03  0.84514963364E+02  0.31044541653E+03  0.25500000920E-02 0.  1.
</event>
<event>
 5   0  0.1502642E-01  0.6002621E+03  0.7818609E-02  0.9904862E-01
       -2   -1    0    0    0  501  0.00000000000E+00  0.00000000000E+00  0.81784536136E+02  0.81784536176E+02  0.25500000920E-02 0. -1.
        2   -1    0    0  501    0  0.00000000000E+00  0.00000000000E+00 -0.11014141248E+04  0.11014141248E+04  0.25500000920E-02 0.  1.
    10030    2    1    2    0    0  0.00000000000E+00  0.00000000000E+00 -0.10196295887E+04  0.11831986610E+04  0.60026208716E+03 0.  0.
        2    1    3    3  502    0  0.11836745454E+03  0.20054374545E+03 -0.13659788997E+03  0.26997709474E+03  0.25500000920E-02 0. -1.
       -2    1    3    3    0  502 -0.11836745454E+03 -0.20054374545E+03 -0.88303169874E+03  0.91322156628E+03  0.25500000920E-02 0.  1.
</event>
<event>
 5   0  0.9420349E-02  0.5868177E+03  0.7818609E-02  0.9933139E-01
       -1   -1    0    0    0  501  0.00000000000E+00  0.00000000000E+00  0.29949467911E+03  0.29949467915E+03  0.50400001928E-02 0.  1.
        1   -1    0    0  501    0  0.00000000000E+00  0.00000000000E+00 -0.28744667281E+03  0.28744667285E+03  0.50400001928E-02 0. -1.
    10030    2    1    2    0    0  0.00000000000E+00  0.00000000000E+00  0.12048006295E+02  0.58694135200E+03  0.58681768569E+03 0.  0.
        2    1    3    3  502    0 -0.89187872979E+02  0.16392279917E+03 -0.22043834956E+03  0.28882213686E+03  0.25500000920E-02 0. -1.
       -2    1    3    3    0  502  0.89187872979E+02 -0.16392279917E+03  0.23248635586E+03  0.29811921515E+03  0.25500000920E-02 0.  1.
</event>
<event>
 5   0  0.9497860E-02  0.6034674E+03  0.7818609E-02  0.9898238E-01
        1   -1    0    0  501    0  0.00000000000E+00  0.00000000000E+00  0.93091700777E+02  0.93091700913E+02  0.50400001928E-02 0. -1.
       -1   -1    0    0    0  501  0.00000000000E+00  0.00000000000E+00 -0.97799503133E+03  0.97799503134E+03  0.50400001928E-02 0.  1.
    10030    2    1    2    0    0  0.00000000000E+00  0.00000000000E+00 -0.88490333055E+03  0.10710867323E+04  0.60346738403E+03 0.  0.
        5    1    3    3  502    0 -0.81464577400E+02  0.19466125324E+02 -0.95688046657E+03  0.96055074031E+03  0.46999998093E+01 0.  1.
       -5    1    3    3    0  502  0.81464577400E+02 -0.19466125324E+02  0.71977136023E+02  0.11053599194E+03  0.46999998093E+01 0. -1.
</event>
<event>
 5   0  0.6170500E-02  0.5955816E+03  0.7818609E-02  0.9914615E-01
        3   -1    0    0  501    0  0.00000000000E+00  0.00000000000E+00  0.55058220301E+02  0.55058312939E+02  0.10100000352E+00 0.  1.
       -3   -1    0    0    0  501  0.00000000000E+00  0.00000000000E+00 -0.16106456006E+04  0.16106456038E+04  0.10100000352E+00 0. -1.
    10030    2    1    2    0    0  0.00000000000E+00  0.00000000000E+00 -0.15555873803E+04  0.16657039167E+04  0.59558159843E+03 0.  0.
        3    1    3    3  502    0 -0.36225689672E+01 -0.28510456823E+03 -0.10180817244E+04  0.10572550050E+04  0.10100000352E+00 0. -1.
       -3    1    3    3    0  502  0.36225689672E+01  0.28510456823E+03 -0.53750565589E+03  0.60844891170E+03  0.10100000352E+00 0.  1.
</event>
<event>
 5   0  0.1532571E-01  0.5934635E+03  0.7818609E-02  0.9919061E-01
       -2   -1    0    0    0  501  0.00000000000E+00  0.00000000000E+00  0.25373307100E+03  0.25373307102E+03  0.25500000920E-02 0. -1.
        2   -1    0    0  501    0  0.00000000000E+00  0.00000000000E+00 -0.34701715802E+03  0.34701715803E+03  0.25500000920E-02 0.  1.
    10030    2    1    2    0    0  0.00000000000E+00  0.00000000000E+00 -0.93284087019E+02  0.60075022905E+03  0.59346349240E+03 0.  0.
        1    1    3    3  502    0  0.11039359763E+03  0.14405529380E+03  0.19099782311E+03  0.26347455765E+03  0.50400001928E-02 0. -1.
       -1    1    3    3    0  502 -0.11039359763E+03 -0.14405529380E+03 -0.28428191013E+03  0.33727567140E+03  0.50400001928E-02 0.  1.
</event>
<event>
 5   0  0.1513339E-01  0.6481906E+03  0.7818609E-02  0.9810180E-01
       -2   -1    0    0    0  501  0.00000000000E+00  0.00000000000E+00  0.14801962440E+03  0.14801962442E+03  0.25500000920E-02 0. -1.
        2   -1    0    0  501    0  0.00000000000E+00  0.00000000000E+00 -0.70962055572E+03  0.70962055573E+03  0.25500000920E-02 0.  1.
    10030    2    1    2    0    0  0.00000000000E+00  0.00000000000E+00 -0.56160093133E+03  0.85764018015E+03  0.64819061436E+03 0.  0.
        3    1    3    3  502    0 -0.13123450401E+03 -0.29618970725E+03 -0.29313613648E+03  0.43689774826E+03  0.10100000352E+00 0.  1.
       -3    1    3    3    0  502  0.13123450401E+03  0.29618970725E+03 -0.26846479485E+03  0.42074243189E+03  0.10100000352E+00 0. -1.
</event>
<event>
 5   0  0.6170500E-02  0.5936533E+03  0.7818609E-02  0.9918662E-01
        4   -1    0    0  501    0  0.00000000000E+00  0.00000000000E+00  0.22567507794E+03  0.22567865142E+03  0.12699999809E+01 0.  1.
       -4   -1    0    0    0  501  0.00000000000E+00  0.00000000000E+00 -0.39040347579E+03  0.39040554147E+03  0.12699999809E+01 0. -1.
    10030    2    1    2    0    0  0.00000000000E+00  0.00000000000E+00 -0.16472839785E+03  0.61608419289E+03  0.59365333964E+03 0.  0.
        2    1    3    3  502    0  0.16653636187E+03  0.19373388526E+03 -0.23919981100E+03  0.34997675311E+03  0.25500000920E-02 0. -1.
       -2    1    3    3    0  502 -0.16653636187E+03 -0.19373388526E+03  0.74471413155E+02  0.26610743978E+03  0.25500000920E-02 0.  1.
</event>
<event>
 5   0  0.6170500E-02  0.5939935E+03  0.7818609E-02  0.9917947E-01
        3   -1    0    0  501    0  0.00000000000E+00  0.00000000000E+00  0.81208858231E+03  0.81208858860E+03  0.10100000352E+00 0.  1.
       -3   -1    0    0    0  501  0.00000000000E+00  0.00000000000E+00 -0.10861752867E+03  0.10861757563E+03  0.10100000352E+00 0. -1.
    10030    2    1    2    0    0  0.00000000000E+00  0.00000000000E+00  0.70347105364E+03  0.92070616423E+03  0.59399353324E+03 0.  0.
        5    1    3    3  502    0 -0.12691755792E+03  0.20325702783E+03  0.62360298751E+03  0.66807504212E+03  0.46999998093E+01 0.  1.
       -5    1    3    3    0  502  0.12691755792E+03 -0.20325702783E+03  0.79868066128E+02  0.25263112210E+03  0.46999998093E+01 0. -1.
</event>
<event>
 5   0  0.1513339E-01  0.6035543E+03  0.7818609E-02  0.9898059E-01
        2   -1    0    0  501    0  0.00000000000E+00  0.00000000000E+00  0.42023257706E+03  0.42023257707E+03  0.25500000920E-02 0.  1.
       -2   -1    0    0    0  501  0.00000000000E+00  0.00000000000E+00 -0.21671202483E+03  0.21671202484E+03  0.25500000920E-02 0. -1.
    10030    2    1    2    0    0  0.00000000000E+00  0.00000000000E+00  0.20352055223E+03  0.63694460191E+03  0.60355431464E+03 0.  0.
        3    1    3    3  502    0  0.12985214372E+03 -0.19566930546E+03  0.30177494426E+03  0.38238224790E+03  0.10100000352E+00 0.  1.
       -3    1    3    3    0  502 -0.12985214372E+03  0.19566930546E+03 -0.98254392029E+02  0.25456235401E+03  0.10100000352E+00 0. -1.
</event>
<event>
 5   0  0.1502642E-01  0.6092215E+03  0.7818609E-02  0.9886457E-01
        2   -1    0    0  501    0  0.00000000000E+00  0.00000000000E+00  0.22219008256E+04  0.22219008256E+04  0.25500000920E-02 0.  1.
       -2   -1    0    0    0  501  0.00000000000E+00  0.00000000000E+00 -0.41760504543E+02  0.41760504621E+02  0.25500000920E-02 0. -1.
    10030    2    1    2    0    0  0.00000000000E+00  0.00000000000E+00  0.21801403211E+04  0.22636613302E+04  0.60922146913E+03 0.  0.
        2    1    3    3  502    0  0.25010235072E+03  0.15074401418E+03  0.14121294965E+04  0.14420071631E+04  0.25500000920E-02 0.  1.
       -2    1    3    3    0  502 -0.25010235072E+03 -0.15074401418E+03  0.76801082460E+03  0.82165416713E+03  0.25500000920E-02 0. -1.
</event>
<event>
 5   0  0.1513339E-01  0.6000534E+03  0.7818609E-02  0.9905295E-01
        2   -1    0    0  501    0  0.00000000000E+00  0.00000000000E+00  0.71914328421E+03  0.71914328421E+03  0.25500000920E-02 0.  1.
       -2   -1    0    0    0  501  0.00000000000E+00  0.00000000000E+00 -0.12517119377E+03  0.12517119379E+03  0.25500000920E-02 0. -1.
    10030    2    1    2    0    0  0.00000000000E+00  0.00000000000E+00  0.59397209044E+03  0.84431447800E+03  0.60005340891E+03 0.  0.
        3    1    3    3  502    0  0.19920528641E+03  0.10147836013E+03  0.57852368570E+03  0.62021792043E+03  0.10100000352E+00 0.  1.
       -3    1    3    3    0  502 -0.19920528641E+03 -0.10147836013E+03  0.15448404742E+02  0.22409655757E+03  0.10100000352E+00 0. -1.
</event>
<event>
 5   0  0.8860626E-02  0.6141047E+03  0.7818609E-02  0.9876568E-01
        1   -1    0    0  501    0  0.00000000000E+00  0.00000000000E+00  0.12034234161E+04  0.12034234161E+04  0.50400001928E-02 0.  1.
       -1   -1    0    0    0  501  0.00000000000E+00  0.00000000000E+00 -0.78344126648E+02  0.78344126810E+02  0.50400001928E-02 0. -1.
    10030    2    1    2    0    0  0.00000000000E+00  0.00000000000E+00  0.11250792894E+04  0.12817675429E+04  0.61410473579E+03 0.  0.
        3    1    3    3  502    0 -0.27254235763E+03  0.14137706502E+03  0.55463706455E+03  0.63394723344E+03  0.10100000352E+00 0. -1.
       -3    1    3    3    0  502  0.27254235763E+03 -0.14137706502E+03  0.57044222486E+03  0.64782030944E+03  0.10100000352E+00 0.  1.
</event>
<event>
 5   0  0.9497860E-02  0.6264314E+03  0.7818609E-02  0.9852037E-01
       -1   -1    0    0    0  501  0.00000000000E+00  0.00000000000E+00  0.24176063851E+03  0.24176063856E+03  0.50400001928E-02 0. -1.
        1   -1    0    0  501    0  0.00000000000E+00  0.00000000000E+00 -0.40579015479E+03  0.40579015482E+03  0.50400001928E-02 0.  1.
    10030    2    1    2    0    0  0.00000000000E+00  0.00000000000E+00 -0.16402951628E+03  0.64755079338E+03  0.62643143902E+03 0.  0.
        5    1    3    3  502    0 -0.78348698581E+02 -0.29336839733E+03 -0.16127075731E+03  0.34385154105E+03  0.46999998093E+01 0.  1.
       -5    1    3    3    0  502  0.78348698581E+02  0.29336839733E+03 -0.27587589772E+01  0.30369925233E+03  0.46999998093E+01 0. -1.
</event>
<event>
 5   0  0.1532571E-01  0.6115076E+03  0.7818609E-02  0.9881815E-01
        2   -1    0    0  501    0  0.00000000000E+00  0.00000000000E+00  0.89360168408E+03  0.89360168408E+03  0.25500000920E-02 0. -1.
       -2   -1    0    0    0  501  0.00000000000E+00  0.00000000000E+00 -0.10461640467E+03  0.10461640470E+03  0.25500000920E-02 0.  1.
    10030    2    1    2    0    0  0.00000000000E+00  0.00000000000E+00  0.78898527941E+03  0.99821808878E+03  0.61150763007E+03 0.  0.
        1    1    3    3  502    0  0.12288411576E+03  0.17334788699E+03  0.35606892044E+02  0.21544801372E+03  0.50400001928E-02 0.  1.
       -1    1    3    3    0  502 -0.12288411576E+03 -0.17334788699E+03  0.75337838737E+03  0.78277007506E+03  0.50400001928E-02 0. -1.
</event>
<event>
 5   0  0.9420349E-02  0.6137747E+03  0.7818609E-02  0.9877233E-01
       -1   -1    0    0    0  501  0.00000000000E+00  0.00000000000E+00  0.65976136852E+02  0.65976137044E+02  0.50400001928E-02 0. -1.
        1   -1    0    0  501    0  0.00000000000E+00  0.00000000000E+00 -0.14274834297E+04  0.14274834297E+04  0.50400001928E-02 0.  1.
    10030    2    1    2    0    0  0.00000000000E+00  0.00000000000E+00 -0.13615072928E+04  0.14934595667E+04  0.61377468915E+03 0.  0.
        2    1    3    3  502    0 -0.20364000835E+03  0.14682505844E+03 -0.11102251693E+04  0.11382560245E+04  0.25500000920E-02 0.  1.
       -2    1    3    3    0  502  0.20364000835E+03 -0.14682505844E+03 -0.25128212349E+03  0.35520354218E+03  0.25500000920E-02 0. -1.
</event>
<event>
 5   0  0.1502642E-01  0.5962686E+03  0.7818609E-02  0.9913178E-01
        2   -1    0    0  501    0  0.00000000000E+00  0.00000000000E+00  0.61740837038E+03  0.61740837038E+03  0.25500000920E-02 0. -1.
       -2   -1    0    0    0  501  0.00000000000E+00  0.00000000000E+00 -0.14396314014E+03  0.14396314016E+03  0.25500000920E-02 0.  1.
    10030    2    1    2    0    0  0.00000000000E+00  0.00000000000E+00  0.47344523024E+03  0.76137151054E+03  0.59626855613E+03 0.  0.
        2    1    3    3  502    0 -0.79609992630E+02  0.63687970569E+02 -0.12101306979E+03  0.15823423014E+03  0.25500000920E-02 0.  1.
       -2    1    3    3    0  502  0.79609992630E+02 -0.63687970569E+02  0.59445830003E+03  0.60313728040E+03  0.25500000920E-02 0. -1.
</event>
<event>
 5   0  0.9177281E-02  0.5909544E+03  0.7818609E-02  0.9924352E-01
        1   -1    0    0  501    0  0.00000000000E+00  0.00000000000E+00  0.75399142640E+03  0.75399142642E+03  0.50400001928E-02 0. -1.
       -1   -1    0    0    0  501  0.00000000000E+00  0.00000000000E+00 -0.11579280909E+03  0.11579280920E+03  0.50400001928E-02 0.  1.
    10030    2    1    2    0    0  0.00000000000E+00  0.00000000000E+00  0.63819861731E+03  0.86978423562E+03  0.59095443259E+03 0.  0.
        1    1    3    3  502    0 -0.25785679948E+03  0.11452696010E+03  0.18994484090E+03  0.34012585353E+03  0.50400001928E-02 0. -1.
       -1    1    3    3    0  502  0.25785679948E+03 -0.11452696010E+03  0.44825377641E+03  0.52965838209E+03  0.50400001928E-02 0.  1.
</event>
<event>
 5   0  0.1483942E-01  0.5944885E+03  0.7818609E-02  0.9916907E-01
        2   -1    0    0  501    0  0.00000000000E+00  0.00000000000E+00  0.60627409562E+03  0.60627409562E+03  0.25500000920E-02 0. -1.
       -2   -1    0    0    0  501  0.00000000000E+00  0.00000000000E+00 -0.14573302100E+03  0.14573302103E+03  0.25500000920E-02 0.  1.
    10030    2    1    2    0    0  0.00000000000E+00  0.00000000000E+00  0.46054107461E+03  0.75200711665E+03  0.59448853823E+03 0.  0.
        4    1    3    3  502    0  0.13323173550E+03  0.18735175067E+03  0.46861210440E+03  0.52196771080E+03  0.12699999809E+01 0.  1.
       -4    1    3    3    0  502 -0.13323173550E+03 -0.18735175067E+03 -0.80710297929E+01  0.23003940585E+03  0.12699999809E+01 0. -1.
</event>
<event>
 5   0  0.9411028E-02  0.6165765E+03  0.7818609E-02  0.9871600E-01
        1   -1    0    0  501    0  0.00000000000E+00  0.00000000000E+00  0.37831386658E+03  0.37831386661E+03  0.50400001928E-02 0.  1.
       -1   -1    0    0    0  501  0.00000000000E+00  0.00000000000E+00 -0.25122430543E+03  0.25122430548E+03  0.50400001928E-02 0. -1.
    10030    2    1    2    0    0  0.00000000000E+00  0.00000000000E+00  0.12708956114E+03  0.62953817209E+03  0.61657647828E+03 0.  0.
        4    1    3    3  502    0  0.27530033090E+03  0.10993558518E+03 -0.22874469259E+02  0.29732298822E+03  0.12699999809E+01 0. -1.
       -4    1    3    3    0  502 -0.27530033090E+03 -0.10993558518E+03  0.14996403040E+03  0.33221518387E+03  0.12699999809E+01 0.  1.
</event>
<event>
 5   0  0.1488510E-01  0.5891826E+03  0.7818609E-02  0.9928106E-01
        2   -1    0    0  501    0  0.00000000000E+00  0.00000000000E+00  0.11952129530E+04  0.11952129530E+04  0.25500000920E-02 0. -1.
       -2   -1    0    0    0  501  0.00000000000E+00  0.00000000000E+00 -0.72609683148E+02  0.72609683193E+02  0.25500000920E-02 0.  1.
    10030    2    1    2    0    0  0.00000000000E+00  0.00000000000E+00  0.11226032699E+04  0.12678226362E+04  0.58918259935E+03 0.  0.
        5    1    3    3  502    0 -0.60635195243E+02 -0.28816452309E+03  0.54662421241E+03  0.62091508184E+03  0.46999998093E+01 0.  1.
       -5    1    3    3    0  502  0.60635195243E+02  0.28816452309E+03  0.57597905749E+03  0.64690755439E+03  0.46999998093E+01 0. -1.
</event>
<event>
 5   0  0.9420349E-02  0.6035970E+03  0.7818609E-02  0.9897971E-01
        1   -1    0    0  501    0  0.00000000000E+00  0.00000000000E+00  0.94786510082E+03  0.94786510083E+03  0.50400001928E-02 0. -1.
       -1   -1    0    0    0  501  0.00000000000E+00  0.00000000000E+00 -0.96092100304E+02  0.96092100436E+02  0.50400001928E-02 0.  1.
    10030    2    1    2    0    0  0.00000000000E+00  0.00000000000E+00  0.85177300052E+03  0.10439572013E+04  0.60359704578E+03 0.  0.
        2    1    3    3  502    0  0.10070461175E+03  0.14049405325E+03  0.85376418786E+03  0.87108741600E+03  0.25500000920E-02 0. -1.
       -2    1    3    3    0  502 -0.10070461175E+03 -0.14049405325E+03 -0.19911873459E+01  0.17286978527E+03  0.25500000920E-02 0.  1.
</event>
<event>
 5   0  0.8860626E-02  0.5942751E+03  0.7818609E-02  0.9917355E-01
       -1   -1    0    0    0  501  0.00000000000E+00  0.00000000000E+00  0.36985415110E+03  0.36985415114E+03  0.50400001928E-02 0.  1.
        1   -1    0    0  501    0  0.00000000000E+00  0.00000000000E+00 -0.23871770840E+03  0.23871770845E+03  0.50400001928E-02 0. -1.
    10030    2    1    2    0    0  0.00000000000E+00  0.00000000000E+00  0.13113644271E+03  0.60857185959E+03  0.59427513971E+03 0.  0.
        3    1    3    3  502    0  0.20466468538E+03 -0.14300907234E+03  0.23053842534E+03  0.33983408300E+03  0.10100000352E+00 0.  1.
       -3    1    3    3    0  502 -0.20466468538E+03  0.14300907234E+03 -0.99401982632E+02  0.26873777658E+03  0.10100000352E+00 0. -1.
</event>
<event>
 5   0  0.1532571E-01  0.5966630E+03  0.7818609E-02  0.9912354E-01
       -2   -1    0    0    0  501  0.00000000000E+00  0.00000000000E+00  0.21349987816E+03  0.21349987818E+03  0.25500000920E-02 0. -1.
        2   -1    0    0  501    0  0.00000000000E+00  0.00000000000E+00 -0.41686994934E+03  0.41686994935E+03  0.25500000920E-02 0.  1.
    10030    2    1    2    0    0  0.00000000000E+00  0.00000000000E+00 -0.20337007118E+03  0.63036982752E+03  0.59666299835E+03 0.  0.
        1    1    3    3  502    0 -0.20472136045E+03 -0.12190524396E+03 -0.29135396417E+03  0.37637595087E+03  0.50400001928E-02 0.  1.
       -1    1    3    3    0  502  0.20472136045E+03  0.12190524396E+03  0.87983892988E+02  0.25399387666E+03  0.50400001928E-02 0. -1.
</event>
<event>
 5   0  0.8860626E-02  0.5884611E+03  0.7818609E-02  0.9929639E-01
        1   -1    0    0  501    0  0.00000000000E+00  0.00000000000E+00  0.12392976071E+04  0.12392976071E+04  0.50400001928E-02 0.  1.
       -1   -1    0    0    0  501  0.00000000000E+00  0.00000000000E+00 -0.69855379855E+02  0.69855380037E+02  0.50400001928E-02 0. -1.
    10030    2    1    2    0    0  0.00000000000E+00  0.00000000000E+00  0.11694422272E+04  0.13091529871E+04  0.58846106149E+03 0.  0.
        3    1    3    3  502    0 -0.12946270017E+03  0.95462855822E+02  0.11328204990E+04  0.11441835695E+04  0.10100000352E+00 0.  1.
       -3    1    3    3    0  502  0.12946270017E+03 -0.95462855822E+02  0.36621728254E+02  0.16496941765E+03  0.10100000352E+00 0. -1.
</event>
<event>
 5   0  0.1532571E-01  0.6049154E+03  0.7818609E-02  0.9895260E-01
       -2   -1    0    0    0  501  0.00000000000E+00  0.00000000000E+00  0.62119638955E+02  0.62119639007E+02  0.25500000920E-02 0. -1.
        2   -1    0    0  501    0  0.00000000000E+00  0.00000000000E+00 -0.14726528866E+04  0.14726528866E+04  0.25500000920E-02 0.  1.
    10030    2    1    2    0    0  0.00000000000E+00  0.00000000000E+00 -0.14105332476E+04  0.15347725256E+04  0.60491541776E+03 0.  0.
        1    1    3    3  502    0 -0.13863962376E+03  0.12461383312E+03 -0.10095629910E+03  0.21199463917E+03  0.50400001928E-02 0. -1.
       -1    1    3    3    0  502  0.13863962376E+03 -0.12461383312E+03 -0.13095769485E+04  0.13227778864E+04  0.50400001928E-02 0.  1.
</event>
<event>
 5   0  0.9177281E-02  0.5629019E+03  0.7818609E-02  0.9985510E-01
       -1   -1    0    0    0  501  0.00000000000E+00  0.00000000000E+00  0.40690346150E+03  0.40690346154E+03  0.50400001928E-02 0. -1.
        1   -1    0    0  501    0  0.00000000000E+00  0.00000000000E+00 -0.19467674868E+03  0.19467674875E+03  0.50400001928E-02 0.  1.
    10030    2    1    2    0    0  0.00000000000E+00  0.00000000000E+00  0.21222671282E+03  0.60158021028E+03  0.56290192020E+03 0.  0.
        1    1    3    3  502    0  0.46953448188E+02  0.26224800970E+03  0.20310156281E+03  0.33500580552E+03  0.50400001928E-02 0. -1.
       -1    1    3    3    0  502 -0.46953448188E+02 -0.26224800970E+03  0.91251500105E+01  0.26657440477E+03  0.50400001928E-02 0.  1.
</event>
<event>
 5   0  0.8860626E-02  0.5935421E+03  0.7818609E-02  0.9918895E-01
        1   -1    0    0  501    0  0.00000000000E+00  0.00000000000E+00  0.52554818423E+03  0.52554818426E+03  0.50400001928E-02 0.  1.
       -1   -1    0    0    0  501  0.00000000000E+00  0.00000000000E+00 -0.16758324333E+03  0.16758324341E+03  0.50400001928E-02 0. -1.
    10030    2    1    2    0    0  0.00000000000E+00  0.00000000000E+00  0.35796494090E+03  0.69313142766E+03  0.59354214434E+03 0.  0.
        3    1    3    3  502    0  0.19044807097E+03  0.16784683826E+03 -0.53063835266E+00  0.25385689005E+03  0.10100000352E+00 0. -1.
       -3    1    3    3    0  502 -0.19044807097E+03 -0.16784683826E+03  0.35849557925E+03  0.43927453761E+03  0.10100000352E+00 0.  1.
</event>
<event>
 5   0  0.1483942E-01  0.5928021E+03  0.7818609E-02  0.9920453E-01
       -2   -1    0    0    0  501  0.00000000000E+00  0.00000000000E+00  0.88381056650E+02  0.88381056686E+02  0.25500000920E-02 0. -1.
        2   -1    0    0  501    0  0.00000000000E+00  0.00000000000E+00 -0.99403183108E+03  0.99403183109E+03  0.25500000920E-02 0.  1.
    10030    2    1    2    0    0  0.00000000000E+00  0.00000000000E+00 -0.90565077443E+03  0.10824128878E+04  0.59280210390E+03 0.  0.
        4    1    3    3  502    0  0.23074666727E+03 -0.13277608586E+03 -0.69074614319E+03  0.74027384168E+03  0.12699999809E+01 0.  1.
       -4    1    3    3    0  502 -0.23074666727E+03  0.13277608586E+03 -0.21490463124E+03  0.34213904610E+03  0.12699999809E+01 0. -1.
</event>
<event>
 5   0  0.1502642E-01  0.6045125E+03  0.7818609E-02  0.9896088E-01
       -2   -1    0    0    0  501  0.00000000000E+00  0.00000000000E+00  0.59022649320E+03  0.59022649320E+03  0.25500000920E-02 0. -1.
        2   -1    0    0  501    0  0.00000000000E+00  0.00000000000E+00 -0.15478608986E+03  0.15478608988E+03  0.25500000920E-02 0.  1.
    10030    2    1    2    0    0  0.00000000000E+00  0.00000000000E+00  0.43544040334E+03  0.74501258308E+03  0.60451253427E+03 0.  0.
        2    1    3    3  502    0  0.27486010933E+03  0.83357810030E+02  0.10170090765E+03  0.30469604332E+03  0.25500000920E-02 0.  1.
       -2    1    3    3    0  502 -0.27486010933E+03 -0.83357810030E+02  0.33373949569E+03  0.44031653976E+03  0.25500000920E-02 0. -1.
</event>
<event>
 5   0  0.9411028E-02  0.6054522E+03  0.7818609E-02  0.9894159E-01
        1   -1    0    0  501    0  0.00000000000E+00  0.00000000000E+00  0.12837845151E+03  0.12837845161E+03  0.50400001928E-02 0.  1.
       -1   -1    0    0    0  501  0.00000000000E+00  0.00000000000E+00 -0.71385095413E+03  0.71385095415E+03  0.50400001928E-02 0. -1.
    10030    2    1    2    0    0  0.00000000000E+00  0.00000000000E+00 -0.58547250262E+03  0.84222940576E+03  0.60545216211E+03 0.  0.
        4    1    3    3  502    0  0.50905695716E+02 -0.32980868468E+02 -0.70530749312E+03  0.70791200038E+03  0.12699999809E+01 0. -1.
       -4    1    3    3    0  502 -0.50905695716E+02  0.32980868468E+02  0.11983499050E+03  0.13431740538E+03  0.12699999809E+01 0.  1.
</event>
<event>
 5   0  0.9497860E-02  0.6065641E+03  0.7818609E-02  0.9891880E-01
       -1   -1    0    0    0  501  0.00000000000E+00  0.00000000000E+00  0.27095246056E+03  0.27095246060E+03  0.50400001928E-02 0.  1.
        1   -1    0    0  501    0  0.00000000000E+00  0.00000000000E+00 -0.33946913267E+03  0.33946913271E+03  0.50400001928E-02 0. -1.
    10030    2    1    2    0    0  0.00000000000E+00  0.00000000000E+00 -0.68516672118E+02  0.61042159331E+03  0.60656408336E+03 0.  0.
        5    1    3    3  502    0  0.13856552273E+03  0.26837262547E+03 -0.61516317860E+02  0.30827036438E+03  0.46999998093E+01 0.  1.
       -5    1    3    3    0  502 -0.13856552273E+03 -0.26837262547E+03 -0.70003542580E+01  0.30215122894E+03  0.46999998093E+01 0. -1.
</event>
<event>
 5   0  0.1488510E-01  0.6174590E+03  0.7818609E-02  0.9869832E-01
        2   -1    0    0  501    0  0.00000000000E+00  0.00000000000E+00  0.24455429851E+04  0.24455429851E+04  0.25500000920E-02 0.  1.
       -2   -1    0    0    0  501  0.00000000000E+00  0.00000000000E+00 -0.38974530129E+02  0.38974530213E+02  0.25500000920E-02 0. -1.
    10030    2    1    2    0    0  0.00000000000E+00  0.00000000000E+00  0.24065684550E+04  0.24845175153E+04  0.61745895041E+03 0.  0.
        5    1    3    3  502    0 -0.21779396720E+02  0.13905067581E+02 -0.34471277988E+02  0.43336497670E+02  0.46999998093E+01 0. -1.
       -5    1    3    3    0  502  0.21779396720E+02 -0.13905067581E+02  0.24410397329E+04  0.24411810176E+04  0.46999998093E+01 0.  1.
</event>
<event>
 5   0  0.9411028E-02  0.6153704E+03  0.7818609E-02  0.9874021E-01
        1   -1    0    0  501    0  0.00000000000E+00  0.00000000000E+00  0.72793720884E+03  0.72793720886E+03  0.50400001928E-02 0.  1.
       -1   -1    0    0    0  501  0.00000000000E+00  0.00000000000E+00 -0.13005266697E+03  0.13005266707E+03  0.50400001928E-02 0. -1.
    10030    2    1    2    0    0  0.00000000000E+00  0.00000000000E+00  0.59788454187E+03  0.85798987593E+03  0.61537037774E+03 0.  0.
        4    1    3    3  502    0 -0.17144460693E+03 -0.14551538344E+03  0.61445179377E+01  0.22496077006E+03  0.12699999809E+01 0. -1.
       -4    1    3    3    0  502  0.17144460693E+03  0.14551538344E+03  0.59174002393E+03  0.63302910588E+03  0.12699999809E+01 0.  1.
</event>
<event>
 5   0  0.1483942E-01  0.5666408E+03  0.7818609E-02  0.9977140E-01
       -2   -1    0    0    0  501  0.00000000000E+00  0.00000000000E+00  0.24620107976E+03  0.24620107978E+03  0.25500000920E-02 0.  1.
        2   -1    0    0  501    0  0.00000000000E+00  0.00000000000E+00 -0.32603617952E+03  0.32603617953E+03  0.25500000920E-02 0. -1.
    10030    2    1    2    0    0  0.00000000000E+00  0.00000000000E+00 -0.79835099756E+02  0.57223725931E+03  0.56664083667E+03 0.  0.
        4    1    3    3  502    0  0.10491098668E+03  0.12636349775E+03 -0.27305426425E+03  0.31864446146E+03  0.12699999809E+01 0. -1.
       -4    1    3    3    0  502 -0.10491098668E+03 -0.12636349775E+03  0.19321916450E+03  0.25359279785E+03  0.12699999809E+01 0.  1.
</event>
<event>
 5   0  0.9420349E-02  0.6028389E+03  0.7818609E-02  0.9899534E-01
        1   -1    0    0  501    0  0.00000000000E+00  0.00000000000E+00  0.16987239690E+04  0.16987239690E+04  0.50400001928E-02 0.  1.
       -1   -1    0    0    0  501  0.00000000000E+00  0.00000000000E+00 -0.53483483295E+02  0.53483483533E+02  0.50400001928E-02 0. -1.
    10030    2    1    2    0    0  0.00000000000E+00  0.00000000000E+00  0.16452404857E+04  0.17522074525E+04  0.60283886813E+03 0.  0.
        2    1    3    3  502    0  0.15394710089E+03 -0.55829037658E+02  0.87090818781E+02  0.18547614952E+03  0.25500000920E-02 0. -1.
       -2    1    3    3    0  502 -0.15394710089E+03  0.55829037658E+02  0.15581496669E+04  0.15667313030E+04  0.25500000920E-02 0.  1.
</event>
<event>
 5   0  0.9420349E-02  0.5978148E+03  0.7818609E-02  0.9909950E-01
       -1   -1    0    0    0  501  0.00000000000E+00  0.00000000000E+00  0.31486989512E+03  0.31486989516E+03  0.50400001928E-02 0.  1.
        1   -1    0    0  501    0  0.00000000000E+00  0.00000000000E+00 -0.28375412487E+03  0.28375412491E+03  0.50400001928E-02 0. -1.
    10030    2    1    2    0    0  0.00000000000E+00  0.00000000000E+00  0.31115770254E+02  0.59862402008E+03  0.59781479260E+03 0.  0.
        2    1    3    3  502    0  0.33082738467E+02  0.25229748976E+03  0.17260493912E+03  0.30747513061E+03  0.25500000920E-02 0.  1.
       -2    1    3    3    0  502 -0.33082738467E+02 -0.25229748976E+03 -0.14148916887E+03  0.29114888947E+03  0.25500000920E-02 0. -1.
</event>
<event>
 5   0  0.1502642E-01  0.5867616E+03  0.7818609E-02  0.9933259E-01
        2   -1    0    0  501    0  0.00000000000E+00  0.00000000000E+00  0.14347656138E+04  0.14347656138E+04  0.25500000920E-02 0. -1.
       -2   -1    0    0    0  501  0.00000000000E+00  0.00000000000E+00 -0.59990485835E+02  0.59990485889E+02  0.25500000920E-02 0.  1.
    10030    2    1    2    0    0  0.00000000000E+00  0.00000000000E+00  0.13747751280E+04  0.14947560997E+04  0.58676157432E+03 0.  0.
        2    1    3    3  502    0 -0.83858099160E+01  0.72761795974E+02  0.14111001337E+04  0.14129997127E+04  0.25500000920E-02 0. -1.
       -2    1    3    3    0  502  0.83858099160E+01 -0.72761795974E+02 -0.36325005752E+02  0.81756386972E+02  0.25500000920E-02 0.  1.
</event>
<event>
 5   0  0.9497860E-02  0.5927095E+03  0.7818609E-02  0.9920648E-01
        1   -1    0    0  501    0  0.00000000000E+00  0.00000000000E+00  0.10575343205E+04  0.10575343206E+04  0.50400001928E-02 0.  1.
       -1   -1    0    0    0  501  0.00000000000E+00  0.00000000000E+00 -0.83048036664E+02  0.83048036817E+02  0.50400001928E-02 0. -1.
    10030    2    1    2    0    0  0.00000000000E+00  0.00000000000E+00  0.97448628388E+03  0.11405823574E+04  0.59270953804E+03 0.  0.
        5    1    3    3  502    0  0.13602673684E+03  0.86335426778E+02  0.86747815896E+01  0.16141381876E+03  0.46999998093E+01 0. -1.
       -5    1    3    3    0  502 -0.13602673684E+03 -0.86335426778E+02  0.96581150229E+03  0.97916853862E+03  0.46999998093E+01 0.  1.
</event>
<event>
 5   0  0.9411028E-02  0.6006546E+03  0.7818609E-02  0.9904049E-01
        1   -1    0    0  501    0  0.00000000000E+00  0.00000000000E+00  0.25949865192E+03  0.25949865196E+03  0.50400001928E-02 0.  1.
       -1   -1    0    0    0  501  0.00000000000E+00  0.00000000000E+00 -0.34757983814E+03  0.34757983818E+03  0.50400001928E-02 0. -1.
    10030    2    1    2    0    0  0.00000000000E+00  0.00000000000E+00 -0.88081186226E+02  0.60707849014E+03  0.60065464106E+03 0.  0.
        4    1    3    3  502    0 -0.42713098762E+02 -0.24898951367E+03  0.12009915820E+03  0.27972416311E+03  0.12699999809E+01 0.  1.
       -4    1    3    3    0  502  0.42713098762E+02  0.24898951367E+03 -0.20818034443E+03  0.32735432704E+03  0.12699999809E+01 0. -1.
</event>
<event>
 5   0  0.8860626E-02  0.5979716E+03  0.7818609E-02  0.9909623E-01
        1   -1    0    0  501    0  0.00000000000E+00  0.00000000000E+00  0.14536382401E+03  0.14536382410E+03  0.50400001928E-02 0. -1.
       -1   -1    0    0    0  501  0.00000000000E+00  0.00000000000E+00 -0.61495702703E+03  0.61495702705E+03  0.50400001928E-02 0.  1.
    10030    2    1    2    0    0  0.00000000000E+00  0.00000000000E+00 -0.46959320302E+03  0.76032085115E+03  0.59797158827E+03 0.  0.
        3    1    3    3  502    0 -0.21516373081E+03 -0.19117088037E+02  0.28043080053E+02  0.21782405435E+03  0.10100000352E+00 0. -1.
       -3    1    3    3    0  502  0.21516373081E+03  0.19117088037E+02 -0.49763628307E+03  0.54249679681E+03  0.10100000352E+00 0.  1.
</event>
<event>
 5   0  0.1502642E-01  0.5483833E+03  0.7818609E-02  0.1001869E+00
        2   -1    0    0  501    0  0.00000000000E+00  0.00000000000E+00  0.27329852428E+03  0.27329852429E+03  0.25500000920E-02 0.  1.
       -2   -1    0    0    0  501  0.00000000000E+00  0.00000000000E+00 -0.27508767894E+03  0.27508767895E+03  0.25500000920E-02 0. -1.
    10030    2    1    2    0    0  0.00000000000E+00  0.00000000000E+00 -0.17891546631E+01  0.54838620324E+03  0.54838328460E+03 0.  0.
        2    1    3    3  502    0  0.16829040597E+03 -0.21580611055E+03  0.16050087459E+02  0.27413781827E+03  0.25500000920E-02 0. -1.
       -2    1    3    3    0  502 -0.16829040597E+03  0.21580611055E+03 -0.17839242122E+02  0.27424838497E+03  0.25500000920E-02 0.  1.
</event>
<event>
 5   0  0.1502642E-01  0.5811037E+03  0.7818609E-02  0.9945404E-01
       -2   -1    0    0    0  501  0.00000000000E+00  0.00000000000E+00  0.54230131630E+02  0.54230131690E+02  0.25500000920E-02 0.  1.
        2   -1    0    0  501    0  0.00000000000E+00  0.00000000000E+00 -0.15567059835E+04  0.15567059835E+04  0.25500000920E-02 0. -1.
    10030    2    1    2    0    0  0.00000000000E+00  0.00000000000E+00 -0.15024758519E+04  0.16109361152E+04  0.58110367559E+03 0.  0.
        2    1    3    3  502    0 -0.25405349921E+03 -0.12065940371E+03 -0.54906676409E+03  0.61690856988E+03  0.25500000920E-02 0.  1.
       -2    1    3    3    0  502  0.25405349921E+03  0.12065940371E+03 -0.95340908781E+03  0.99402754534E+03  0.25500000920E-02 0. -1.
</event>
<event>
 5   0  0.9411028E-02  0.5819897E+03  0.7818609E-02  0.9943493E-01
       -1   -1    0    0    0  501  0.00000000000E+00  0.00000000000E+00  0.19541482093E+03  0.19541482099E+03  0.50400001928E-02 0.  1.
        1   -1    0    0  501    0  0.00000000000E+00  0.00000000000E+00 -0.43332434774E+03  0.43332434777E+03  0.50400001928E-02 0. -1.
    10030    2    1    2    0    0  0.00000000000E+00  0.00000000000E+00 -0.23790952681E+03  0.62873916877E+03  0.58198969011E+03 0.  0.
        4    1    3    3  502    0  0.43701141400E+02 -0.52392986620E+02 -0.42455857393E+03  0.43000745389E+03  0.12699999809E+01 0. -1.
       -4    1    3    3    0  502 -0.43701141400E+02  0.52392986620E+02  0.18664904712E+03  0.19873171487E+03  0.12699999809E+01 0.  1.
</event>
<event>
 5   0  0.1513339E-01  0.6072573E+03  0.7818609E-02  0.9890463E-01
       -2   -1    0    0    0  501  0.00000000000E+00  0.00000000000E+00  0.39273437749E+03  0.39273437750E+03  0.25500000920E-02 0.  1.
        2   -1    0    0  501    0  0.00000000000E+00  0.00000000000E+00 -0.23473973276E+03  0.23473973278E+03  0.25500000920E-02 0. -1.
    10030    2    1    2    0    0  0.00000000000E+00  0.00000000000E+00  0.15799464473E+03  0.62747411027E+03  0.60725731885E+03 0.  0.
        3    1    3    3  502    0  0.18692965672E+03 -0.22619834100E+03 -0.15859814330E+01  0.29344660770E+03  0.10100000352E+00 0. -1.
       -3    1    3    3    0  502 -0.18692965672E+03  0.22619834100E+03  0.15958062616E+03  0.33402750258E+03  0.10100000352E+00 0.  1.
</event>
<event>
 5   0  0.1513339E-01  0.6248906E+03  0.7818609E-02  0.9855070E-01
        2   -1    0    0  501    0  0.00000000000E+00  0.00000000000E+00  0.93464829255E+03  0.93464829255E+03  0.25500000920E-02 0.  1.
       -2   -1    0    0    0  501  0.00000000000E+00  0.00000000000E+00 -0.10444792593E+03  0.10444792596E+03  0.25500000920E-02 0. -1.
    10030    2    1    2    0    0  0.00000000000E+00  0.00000000000E+00  0.83020036662E+03  0.10390962185E+04  0.62489063251E+03 0.  0.
        3    1    3    3  502    0 -0.96305613670E+02 -0.29457966940E+03  0.34921054103E+03  0.46690466373E+03  0.10100000352E+00 0. -1.
       -3    1    3    3    0  502  0.96305613670E+02  0.29457966940E+03  0.48098982559E+03  0.57219155478E+03  0.10100000352E+00 0.  1.
</event>
<event>
 5   0  0.1483942E-01  0.5901438E+03  0.7818609E-02  0.9926068E-01
        2   -1    0    0  501    0  0.00000000000E+00  0.00000000000E+00  0.20001816498E+03  0.20001816500E+03  0.25500000920E-02 0. -1.
       -2   -1    0    0    0  501  0.00000000000E+00  0.00000000000E+00 -0.43529759194E+03  0.43529759195E+03  0.25500000920E-02 0.  1.
    10030    2    1    2    0    0  0.00000000000E+00  0.00000000000E+00 -0.23527942696E+03  0.63531575695E+03  0.59014379797E+03 0.  0.
        4    1    3    3  502    0 -0.55137770727E+02 -0.23961897398E+03 -0.29324639954E+03  0.38269111591E+03  0.12699999809E+01 0.  1.
       -4    1    3    3    0  502  0.55137770727E+02  0.23961897398E+03  0.57966972582E+02  0.25262464104E+03  0.12699999809E+01 0. -1.
</event>
<event>
 5   0  0.9420349E-02  0.5911909E+03  0.7818609E-02  0.9923853E-01
       -1   -1    0    0    0  501  0.00000000000E+00  0.00000000000E+00  0.12624412370E+03  0.12624412380E+03  0.50400001928E-02 0. -1.
        1   -1    0    0  501    0  0.00000000000E+00  0.00000000000E+00 -0.69212459130E+03  0.69212459132E+03  0.50400001928E-02 0.  1.
    10030    2    1    2    0    0  0.00000000000E+00  0.00000000000E+00 -0.56588046761E+03  0.81836871512E+03  0.59119087465E+03 0.  0.
        2    1    3    3  502    0  0.47780122874E+02 -0.40828481008E+01 -0.68670416030E+03  0.68837650568E+03  0.25500000920E-02 0.  1.
       -2    1    3    3    0  502 -0.47780122874E+02  0.40828481008E+01  0.12082369270E+03  0.12999220944E+03  0.25500000920E-02 0. -1.
</event>
<event>
 5   0  0.9411028E-02  0.5914963E+03  0.7818609E-02  0.9923207E-01
       -1   -1    0    0    0  501  0.00000000000E+00  0.00000000000E+00  0.45375834548E+03  0.45375834551E+03  0.50400001928E-02 0.  1.
        1   -1    0    0  501    0  0.00000000000E+00  0.00000000000E+00 -0.19276109143E+03  0.19276109150E+03  0.50400001928E-02 0. -1.
    10030    2    1    2    0    0  0.00000000000E+00  0.00000000000E+00  0.26099725405E+03  0.64651943701E+03  0.59149625173E+03 0.  0.
        4    1    3    3  502    0 -0.86560072901E+02 -0.25656150658E+03  0.26051281453E+03  0.37574591456E+03  0.12699999809E+01 0.  1.
       -4    1    3    3    0  502  0.86560072901E+02  0.25656150658E+03  0.48443952877E+00  0.27077352245E+03  0.12699999809E+01 0. -1.
</event>
<event>
 5   0  0.1488510E-01  0.5780557E+03  0.7818609E-02  0.9952009E-01
        2   -1    0    0  501    0  0.00000000000E+00  0.00000000000E+00  0.12526182613E+03  0.12526182615E+03  0.25500000920E-02 0. -1.
       -2   -1    0    0    0  501  0.00000000000E+00  0.00000000000E+00 -0.66689999974E+03  0.66689999975E+03  0.25500000920E-02 0.  1.
    10030    2    1    2    0    0  0.00000000000E+00  0.00000000000E+00 -0.54163817362E+03  0.79216182590E+03  0.57805574756E+03 0.  0.
        5    1    3    3  502    0 -0.28067022116E+02 -0.13661462499E+03  0.76037721441E+02  0.15891865395E+03  0.46999998093E+01 0. -1.
       -5    1    3    3    0  502  0.28067022116E+02  0.13661462499E+03 -0.61767589506E+03  0.63324317195E+03  0.46999998093E+01 0.  1.
</event>
<event>
 5   0  0.9411028E-02  0.5974561E+03  0.7818609E-02  0.9910698E-01
        1   -1    0    0  501    0  0.00000000000E+00  0.00000000000E+00  0.39731011368E+03  0.39731011372E+03  0.50400001928E-02 0. -1.
       -1   -1    0    0    0  501  0.00000000000E+00  0.00000000000E+00 -0.22460657137E+03  0.22460657143E+03  0.50400001928E-02 0.  1.
    10030    2    1    2    0    0  0.00000000000E+00  0.00000000000E+00  0.17270354231E+03  0.62191668515E+03  0.59745614880E+03 0.  0.
        4    1    3    3  502    0  0.26279293089E+03  0.13763446472E+03  0.49792958996E+02  0.30080612040E+03  0.12699999809E+01 0.  1.
       -4    1    3    3    0  502 -0.26279293089E+03 -0.13763446472E+03  0.12291058331E+03  0.32111056475E+03  0.12699999809E+01 0. -1.
</event>
<event>
 5   0  0.1513339E-01  0.5917032E+03  0.7818609E-02  0.9922770E-01
       -2   -1    0    0    0  501  0.00000000000E+00  0.00000000000E+00  0.38744280507E+03  0.38744280508E+03  0.25500000920E-02 0.  1.
        2   -1    0    0  501    0  0.00000000000E+00  0.00000000000E+00 -0.22591247794E+03  0.22591247795E+03  0.25500000920E-02 0. -1.
    10030    2    1    2    0    0  0.00000000000E+00  0.00000000000E+00  0.16153032713E+03  0.61335528304E+03  0.59170318289E+03 0.  0.
        3    1    3    3  502    0 -0.45875860826E+02 -0.29464845287E+02  0.38218986090E+03  0.38605941471E+03  0.10100000352E+00 0.  1.
       -3    1    3    3    0  502  0.45875860826E+02  0.29464845287E+02 -0.22065953376E+03  0.22729586832E+03  0.10100000352E+00 0. -1.
</event>
<event>
 5   0  0.1513339E-01  0.5711961E+03  0.7818609E-02  0.9967035E-01
       -2   -1    0    0    0  501  0.00000000000E+00  0.00000000000E+00  0.26397122373E+03  0.26397122374E+03  0.25500000920E-02 0. -1.
        2   -1    0    0  501    0  0.00000000000E+00  0.00000000000E+00 -0.30899676886E+03  0.30899676887E+03  0.25500000920E-02 0.  1.
    10030    2    1    2    0    0  0.00000000000E+00  0.00000000000E+00 -0.45025545131E+02  0.57296799261E+03  0.57119613168E+03 0.  0.
        3    1    3    3  502    0 -0.16441910752E+03  0.23349678441E+03 -0.19059163351E+02  0.28621260133E+03  0.10100000352E+00 0. -1.
       -3    1    3    3    0  502  0.16441910752E+03 -0.23349678441E+03 -0.25966381780E+02  0.28675539129E+03  0.10100000352E+00 0.  1.
</event>
<event>
 5   0  0.9411028E-02  0.5818790E+03  0.7818609E-02  0.9943731E-01
        1   -1    0    0  501    0  0.00000000000E+00  0.00000000000E+00  0.94072109099E+03  0.94072109100E+03  0.50400001928E-02 0. -1.
       -1   -1    0    0    0  501  0.00000000000E+00  0.00000000000E+00 -0.89979694127E+02  0.89979694268E+02  0.50400001928E-02 0.  1.
    10030    2    1    2    0    0  0.00000000000E+00  0.00000000000E+00  0.85074139686E+03  0.10307007853E+04  0.58187901184E+03 0.  0.
        4    1    3    3  502    0 -0.11408749355E+03 -0.23191945898E+03  0.18876962485E+03  0.32005964414E+03  0.12699999809E+01 0.  1.
       -4    1    3    3    0  502  0.11408749355E+03  0.23191945898E+03  0.66197177201E+03  0.71064114113E+03  0.12699999809E+01 0. -1.
</event>
<event>
 5   0  0.8860626E-02  0.6050179E+03  0.7818609E-02  0.9895050E-01
        1   -1    0    0  501    0  0.00000000000E+00  0.00000000000E+00  0.21150482140E+03  0.21150482146E+03  0.50400001928E-02 0.  1.
       -1   -1    0    0    0  501  0.00000000000E+00  0.00000000000E+00 -0.43266943851E+03  0.43266943854E+03  0.50400001928E-02 0. -1.
    10030    2    1    2    0    0  0.00000000000E+00  0.00000000000E+00 -0.22116461711E+03  0.64417426000E+03  0.60501792485E+03 0.  0.
        3    1    3    3  502    0  0.17256190285E+03 -0.55553053975E+02  0.14726428347E+03  0.23356055212E+03  0.10100000352E+00 0.  1.
       -3    1    3    3    0  502 -0.17256190285E+03  0.55553053975E+02 -0.36842890058E+03  0.41061370788E+03  0.10100000352E+00 0. -1.
</event>
<event>
 5   0  0.9420349E-02  0.6149668E+03  0.7818609E-02  0.9874832E-01
       -1   -1    0    0    0  501  0.00000000000E+00  0.00000000000E+00  0.11352836285E+03  0.11352836296E+03  0.50400001928E-02 0. -1.
        1   -1    0    0  501    0  0.00000000000E+00  0.00000000000E+00 -0.83279662401E+03  0.83279662403E+03  0.50400001928E-02 0.  1.
    10030    2    1    2    0    0  0.00000000000E+00  0.00000000000E+00 -0.71926826116E+03  0.94632498699E+03  0.61496678731E+03 0.  0.
        2    1    3    3  502    0 -0.20534747294E+02 -0.30619603828E+03 -0.33010044786E+03  0.45071498243E+03  0.25500000920E-02 0.  1.
       -2    1    3    3    0  502  0.20534747294E+02  0.30619603828E+03 -0.38916781330E+03  0.49561000456E+03  0.25500000920E-02 0. -1.
</event>
<event>
 5   0  0.1488510E-01  0.5970033E+03  0.7818609E-02  0.9911643E-01
        2   -1    0    0  501    0  0.00000000000E+00  0.00000000000E+00  0.41633190086E+03  0.41633190087E+03  0.25500000920E-02 0. -1.
       -2   -1    0    0    0  501  0.00000000000E+00  0.00000000000E+00 -0.21401974003E+03  0.21401974005E+03  0.25500000920E-02 0.  1.
    10030    2    1    2    0    0  0.00000000000E+00  0.00000000000E+00  0.20231216083E+03  0.63035164091E+03  0.59700333398E+03 0.  0.
        5    1    3    3  502    0 -0.27985444357E+03 -0.84150627296E+02  0.37093006862E+02  0.29461469553E+03  0.46999998093E+01 0.  1.
       -5    1    3    3    0  502  0.27985444357E+03  0.84150627296E+02  0.16521915396E+03  0.33573694539E+03  0.46999998093E+01 0. -1.
</event>
<event>
 5   0  0.9411028E-02  0.5818213E+03  0.7818609E-02  0.9943856E-01
       -1   -1    0    0    0  501  0.00000000000E+00  0.00000000000E+00  0.38714811820E+03  0.38714811823E+03  0.50400001928E-02 0.  1.
        1   -1    0    0  501    0  0.00000000000E+00  0.00000000000E+00 -0.21859592139E+03  0.21859592144E+03  0.50400001928E-02 0. -1.
    10030    2    1    2    0    0  0.00000000000E+00  0.00000000000E+00  0.16855219681E+03  0.60574403967E+03  0.58182127716E+03 0.  0.
        4    1    3    3  502    0 -0.56113471799E+02 -0.11748042940E+03  0.35512067503E+03  0.37823627503E+03  0.12699999809E+01 0.  1.
       -4    1    3    3    0  502  0.56113471799E+02  0.11748042940E+03 -0.18656847822E+03  0.22750776465E+03  0.12699999809E+01 0. -1.
</event>
<event>
 5   0  0.9497860E-02  0.5780576E+03  0.7818609E-02  0.9952005E-01
       -1   -1    0    0    0  501  0.00000000000E+00  0.00000000000E+00  0.17880800688E+03  0.17880800695E+03  0.50400001928E-02 0.  1.
        1   -1    0    0  501    0  0.00000000000E+00  0.00000000000E+00 -0.46719186729E+03  0.46719186731E+03  0.50400001928E-02 0. -1.
    10030    2    1    2    0    0  0.00000000000E+00  0.00000000000E+00 -0.28838386040E+03  0.64599987427E+03  0.57805759801E+03 0.  0.
        5    1    3    3  502    0  0.49099141536E+02 -0.47254957815E+02  0.16965811495E+03  0.18289265350E+03  0.46999998093E+01 0.  1.
       -5    1    3    3    0  502 -0.49099141536E+02  0.47254957815E+02 -0.45804197536E+03  0.46310722076E+03  0.46999998093E+01 0. -1.
</event>
<event>
 5   0  0.9420349E-02  0.5651179E+03  0.7818609E-02  0.9980541E-01
       -1   -1    0    0    0  501  0.00000000000E+00  0.00000000000E+00  0.17127813580E+03  0.17127813587E+03  0.50400001928E-02 0. -1.
        1   -1    0    0  501    0  0.00000000000E+00  0.00000000000E+00 -0.46613980182E+03  0.46613980185E+03  0.50400001928E-02 0.  1.
    10030    2    1    2    0    0  0.00000000000E+00  0.00000000000E+00 -0.29486166602E+03  0.63741793772E+03  0.56511788614E+03 0.  0.
        2    1    3    3  502    0 -0.23320705114E+03 -0.15709224307E+03 -0.11600900744E+03  0.30417362040E+03  0.25500000920E-02 0. -1.
       -2    1    3    3    0  502  0.23320705114E+03  0.15709224307E+03 -0.17885265858E+03  0.33324431731E+03  0.25500000920E-02 0.  1.
</event>
<event>
 5   0  0.9497860E-02  0.5762592E+03  0.7818609E-02  0.9955923E-01
        1   -1    0    0  501    0  0.00000000000E+00  0.00000000000E+00  0.83093892340E+03  0.83093892341E+03  0.50400001928E-02 0. -1.
       -1   -1    0    0    0  501  0.00000000000E+00  0.00000000000E+00 -0.99909484303E+02  0.99909484430E+02  0.50400001928E-02 0.  1.
    10030    2    1    2    0    0  0.00000000000E+00  0.00000000000E+00  0.73102943909E+03  0.93084840784E+03  0.57625924510E+03 0.  0.
        5    1    3    3  502    0  0.19921652692E+03 -0.16020083178E+03  0.58008649906E+03  0.63393530229E+03  0.46999998093E+01 0. -1.
       -5    1    3    3    0  502 -0.19921652692E+03  0.16020083178E+03  0.15094294003E+03  0.29691310555E+03  0.46999998093E+01 0.  1.
</event>
<event>
 5   0  0.1502642E-01  0.5629315E+03  0.7818609E-02  0.9985443E-01
       -2   -1    0    0    0  501  0.00000000000E+00  0.00000000000E+00  0.68753015162E+02  0.68753015209E+02  0.25500000920E-02 0.  1.
        2   -1    0    0  501    0  0.00000000000E+00  0.00000000000E+00 -0.11522834198E+04  0.11522834198E+04  0.25500000920E-02 0. -1.
    10030    2    1    2    0    0  0.00000000000E+00  0.00000000000E+00 -0.10835304047E+04  0.12210364351E+04  0.56293146818E+03 0.  0.
        2    1    3    3  502    0 -0.11256255708E+03 -0.25575428439E+03 -0.61507764224E+03  0.67557463632E+03  0.25500000920E-02 0.  1.
       -2    1    3    3    0  502  0.11256255708E+03  0.25575428439E+03 -0.46845276244E+03  0.54546179874E+03  0.25500000920E-02 0. -1.
</event>
<event>
 5   0  0.1483942E-01  0.5739242E+03  0.7818609E-02  0.9961032E-01
       -2   -1    0    0    0  501  0.00000000000E+00  0.00000000000E+00  0.21767434933E+03  0.21767434934E+03  0.25500000920E-02 0. -1.
        2   -1    0    0  501    0  0.00000000000E+00  0.00000000000E+00 -0.37830473715E+03  0.37830473715E+03  0.25500000920E-02 0.  1.
    10030    2    1    2    0    0  0.00000000000E+00  0.00000000000E+00 -0.16063038782E+03  0.59597908650E+03  0.57392416751E+03 0.  0.
        4    1    3    3  502    0 -0.20827815238E+03  0.15738204524E+03 -0.20404394616E+03  0.33133735345E+03  0.12699999809E+01 0.  1.
       -4    1    3    3    0  502  0.20827815238E+03 -0.15738204524E+03  0.43413558339E+02  0.26464173305E+03  0.12699999809E+01 0. -1.
</event>
<event>
 5   0  0.1513339E-01  0.5981699E+03  0.7818609E-02  0.9909210E-01
        2   -1    0    0  501    0  0.00000000000E+00  0.00000000000E+00  0.17361799677E+04  0.17361799677E+04  0.25500000920E-02 0. -1.
       -2   -1    0    0    0  501  0.00000000000E+00  0.00000000000E+00 -0.51522191016E+02  0.51522191079E+02  0.25500000920E-02 0.  1.
    10030    2    1    2    0    0  0.00000000000E+00  0.00000000000E+00  0.16846577766E+04  0.17877021587E+04  0.59816986213E+03 0.  0.
        3    1    3    3  502    0  0.29279965262E+03 -0.60002912175E+02  0.80961752934E+03  0.86302522562E+03  0.10100000352E+00 0. -1.
       -3    1    3    3    0  502 -0.29279965262E+03  0.60002912175E+02  0.87504024731E+03  0.92467693313E+03  0.10100000352E+00 0.  1.
</event>
<event>
 5   0  0.9411028E-02  0.6476761E+03  0.7818609E-02  0.9811150E-01
       -1   -1    0    0    0  501  0.00000000000E+00  0.00000000000E+00  0.11203309740E+04  0.11203309740E+04  0.50400001928E-02 0. -1.
        1   -1    0    0  501    0  0.00000000000E+00  0.00000000000E+00 -0.93607223396E+02  0.93607223532E+02  0.50400001928E-02 0.  1.
    10030    2    1    2    0    0  0.00000000000E+00  0.00000000000E+00  0.10267237506E+04  0.12139381976E+04  0.64767606673E+03 0.  0.
        4    1    3    3  502    0 -0.10232921740E+03 -0.19011895543E+03  0.60987730104E+02  0.22436042893E+03  0.12699999809E+01 0.  1.
       -4    1    3    3    0  502  0.10232921740E+03  0.19011895543E+03  0.96573602052E+03  0.98957776864E+03  0.12699999809E+01 0. -1.
</event>
<event>
 5   0  0.8860626E-02  0.5968044E+03  0.7818609E-02  0.9912058E-01
        1   -1    0    0  501    0  0.00000000000E+00  0.00000000000E+00  0.29205981669E+03  0.29205981674E+03  0.50400001928E-02 0. -1.
       -1   -1    0    0    0  501  0.00000000000E+00  0.00000000000E+00 -0.30488230589E+03  0.30488230593E+03  0.50400001928E-02 0.  1.
    10030    2    1    2    0    0  0.00000000000E+00  0.00000000000E+00 -0.12822489196E+02  0.59694212266E+03  0.59680439139E+03 0.  0.
        3    1    3    3  502    0  0.94060438102E+02  0.15151010298E+03  0.23289526661E+03  0.29333068836E+03  0.10100000352E+00 0. -1.
       -3    1    3    3    0  502 -0.94060438102E+02 -0.15151010298E+03 -0.24571775581E+03  0.30361143431E+03  0.10100000352E+00 0.  1.
</event>
<event>
 5   0  0.9497860E-02  0.5934853E+03  0.7818609E-02  0.9919015E-01
       -1   -1    0    0    0  501  0.00000000000E+00  0.00000000000E+00  0.18818297313E+03  0.18818297320E+03  0.50400001928E-02 0. -1.
        1   -1    0    0  501    0  0.00000000000E+00  0.00000000000E+00 -0.46792857189E+03  0.46792857192E+03  0.50400001928E-02 0.  1.
    10030    2    1    2    0    0  0.00000000000E+00  0.00000000000E+00 -0.27974559876E+03  0.65611154512E+03  0.59348526486E+03 0.  0.
        5    1    3    3  502    0 -0.48669288232E+01  0.64716398969E+02 -0.45994449328E+03  0.46452440860E+03  0.46999998093E+01 0.  1.
       -5    1    3    3    0  502  0.48669288232E+01 -0.64716398969E+02  0.18019889452E+03  0.19158713651E+03  0.46999998093E+01 0. -1.
</event>
<event>
 5   0  0.9497860E-02  0.6112742E+03  0.7818609E-02  0.9882288E-01
       -1   -1    0    0    0  501  0.00000000000E+00  0.00000000000E+00  0.33592774079E+03  0.33592774083E+03  0.50400001928E-02 0. -1.
        1   -1    0    0  501    0  0.00000000000E+00  0.00000000000E+00 -0.27807777921E+03  0.27807777926E+03  0.50400001928E-02 0.  1.
    10030    2    1    2    0    0  0.00000000000E+00  0.00000000000E+00  0.57849961579E+02  0.61400552009E+03  0.61127421068E+03 0.  0.
        5    1    3    3  502    0 -0.24615737400E+03 -0.29548490718E+02  0.20840010703E+03  0.32391242749E+03  0.46999998093E+01 0. -1.
       -5    1    3    3    0  502  0.24615737400E+03  0.29548490718E+02 -0.15055014545E+03  0.29009309259E+03  0.46999998093E+01 0.  1.
</event>
<event>
 5   0  0.1502642E-01  0.6738532E+03  0.7818609E-02  0.9763022E-01
        2   -1    0    0  501    0  0.00000000000E+00  0.00000000000E+00  0.15848661702E+04  0.15848661702E+04  0.25500000920E-02 0. -1.
       -2   -1    0    0    0  501  0.00000000000E+00  0.00000000000E+00 -0.71627205928E+02  0.71627205973E+02  0.25500000920E-02 0.  1.
    10030    2    1    2    0    0  0.00000000000E+00  0.00000000000E+00  0.15132389642E+04  0.16564933761E+04  0.67385320531E+03 0.  0.
        2    1    3    3  502    0 -0.20087517442E+03 -0.26480398028E+03  0.62091319758E+03  0.70427635386E+03  0.25500000920E-02 0.  1.
       -2    1    3    3    0  502  0.20087517442E+03  0.26480398028E+03  0.89232576665E+03  0.95221702227E+03  0.25500000920E-02 0. -1.
</event>
<event>
 5   0  0.1502642E-01  0.5877137E+03  0.7818609E-02  0.9931229E-01
       -2   -1    0    0    0  501  0.00000000000E+00  0.00000000000E+00  0.86989108615E+02  0.86989108653E+02  0.25500000920E-02 0. -1.
        2   -1    0    0  501    0  0.00000000000E+00  0.00000000000E+00 -0.99267439275E+03  0.99267439276E+03  0.25500000920E-02 0.  1.
    10030    2    1    2    0    0  0.00000000000E+00  0.00000000000E+00 -0.90568528414E+03  0.10796635014E+04  0.58771374186E+03 0.  0.
        2    1    3    3  502    0  0.12908098290E+03 -0.14824680770E+03 -0.85411590991E+03  0.87644338306E+03  0.25500000920E-02 0.  1.
       -2    1    3    3    0  502 -0.12908098290E+03  0.14824680770E+03 -0.51569374232E+02  0.20322011835E+03  0.25500000920E-02 0. -1.
</event>
<event>
 5   0  0.9177281E-02  0.6081152E+03  0.7818609E-02  0.9888711E-01
        1   -1    0    0  501    0  0.00000000000E+00  0.00000000000E+00  0.73337173453E+03  0.73337173455E+03  0.50400001928E-02 0.  1.
       -1   -1    0    0    0  501  0.00000000000E+00  0.00000000000E+00 -0.12606298843E+03  0.12606298853E+03  0.50400001928E-02 0. -1.
    10030    2    1    2    0    0  0.00000000000E+00  0.00000000000E+00  0.60730874610E+03  0.85943472308E+03  0.60811522769E+03 0.  0.
        1    1    3    3  502    0 -0.11320947431E+03  0.12856992549E+03  0.65867771931E+03  0.68059014741E+03  0.50400001928E-02 0.  1.
       -1    1    3    3    0  502  0.11320947431E+03 -0.12856992549E+03 -0.51368973207E+02  0.17884457567E+03  0.50400001928E-02 0. -1.
</event>
<event>
 5   0  0.9411028E-02  0.4402124E+03  0.7818609E-02  0.1030682E+00
        1   -1    0    0  501    0  0.00000000000E+00  0.00000000000E+00  0.80886756042E+02  0.80886756199E+02  0.50400001928E-02 0.  1.
       -1   -1    0    0    0  501  0.00000000000E+00  0.00000000000E+00 -0.59894528328E+03  0.59894528330E+03  0.50400001928E-02 0. -1.
    10030    2    1    2    0    0  0.00000000000E+00  0.00000000000E+00 -0.51805852724E+03  0.67983203950E+03  0.44021240815E+03 0.  0.
        4    1    3    3  502    0  0.23452521811E+02 -0.83326390082E+02 -0.57154792331E+03  0.57806742652E+03  0.12699999809E+01 0. -1.
       -4    1    3    3    0  502 -0.23452521811E+02  0.83326390082E+02  0.53489396071E+02  0.10176461298E+03  0.12699999809E+01 0.  1.
</event>
<event>
 5   0  0.1532571E-01  0.5996518E+03  0.7818609E-02  0.9906129E-01
        2   -1    0    0  501    0  0.00000000000E+00  0.00000000000E+00  0.15641205189E+04  0.15641205189E+04  0.25500000920E-02 0.  1.
       -2   -1    0    0    0  501  0.00000000000E+00  0.00000000000E+00 -0.57473563230E+02  0.57473563287E+02  0.25500000920E-02 0. -1.
    10030    2    1    2    0    0  0.00000000000E+00  0.00000000000E+00  0.15066469557E+04  0.16215940822E+04  0.59965183095E+03 0.  0.
        1    1    3    3  502    0 -0.48126958332E+02  0.25005358240E+03  0.11813485680E+04  0.12084814593E+04  0.50400001928E-02 0.  1.
       -1    1    3    3    0  502  0.48126958332E+02 -0.25005358240E+03  0.32529838764E+03  0.41311262291E+03  0.50400001928E-02 0. -1.
</event>
<event>
 5   0  0.1488510E-01  0.5786275E+03  0.7818609E-02  0.9950767E-01
       -2   -1    0    0    0  501  0.00000000000E+00  0.00000000000E+00  0.60708199181E+02  0.60708199235E+02  0.25500000920E-02 0. -1.
        2   -1    0    0  501    0  0.00000000000E+00  0.00000000000E+00 -0.13787665398E+04  0.13787665398E+04  0.25500000920E-02 0.  1.
    10030    2    1    2    0    0  0.00000000000E+00  0.00000000000E+00 -0.13180583406E+04  0.14394747390E+04  0.57862745791E+03 0.  0.
        5    1    3    3  502    0  0.30190383956E+02 -0.25268783487E+03 -0.31686095447E+03  0.40643025926E+03  0.46999998093E+01 0. -1.
       -5    1    3    3    0  502 -0.30190383956E+02  0.25268783487E+03 -0.10011973861E+04  0.10330444798E+04  0.46999998093E+01 0.  1.
</event>
<event>
 5   0  0.9420349E-02  0.5915131E+03  0.7818609E-02  0.9923172E-01
        1   -1    0    0  501    0  0.00000000000E+00  0.00000000000E+00  0.96200969206E+03  0.96200969207E+03  0.50400001928E-02 0. -1.
       -1   -1    0    0    0  501  0.00000000000E+00  0.00000000000E+00 -0.90926243929E+02  0.90926244068E+02  0.50400001928E-02 0.  1.
    10030    2    1    2    0    0  0.00000000000E+00  0.00000000000E+00  0.87108344813E+03  0.10529359361E+04  0.59151307002E+03 0.  0.
        2    1    3    3  502    0 -0.11839570575E+03  0.84873882594E+02 -0.22635182399E+02  0.14742276139E+03  0.25500000920E-02 0.  1.
       -2    1    3    3    0  502  0.11839570575E+03 -0.84873882594E+02  0.89371863053E+03  0.90551317475E+03  0.25500000920E-02 0. -1.
</event>
<event>
 5   0  0.9420349E-02  0.6052168E+03  0.7818609E-02  0.9894642E-01
       -1   -1    0    0    0  501  0.00000000000E+00  0.00000000000E+00  0.12124156617E+03  0.12124156628E+03  0.50400001928E-02 0. -1.
        1   -1    0    0  501    0  0.00000000000E+00  0.00000000000E+00 -0.75528432597E+03  0.75528432599E+03  0.50400001928E-02 0.  1.
    10030    2    1    2    0    0  0.00000000000E+00  0.00000000000E+00 -0.63404275980E+03  0.87652589227E+03  0.60521683599E+03 0.  0.
        2    1    3    3  502    0  0.10651182663E+03 -0.21621935986E+03 -0.58200699867E+03  0.62994263811E+03  0.25500000920E-02 0.  1.
       -2    1    3    3    0  502 -0.10651182663E+03  0.21621935986E+03 -0.52035761126E+02  0.24658325416E+03  0.25500000920E-02 0. -1.
</event>
<event>
 5   0  0.8860626E-02  0.5887751E+03  0.7818609E-02  0.9928972E-01
       -1   -1    0    0    0  501  0.00000000000E+00  0.00000000000E+00  0.51316194408E+03  0.51316194411E+03  0.50400001928E-02 0.  1.
        1   -1    0    0  501    0  0.00000000000E+00  0.00000000000E+00 -0.16888244333E+03  0.16888244340E+03  0.50400001928E-02 0. -1.
    10030    2    1    2    0    0  0.00000000000E+00  0.00000000000E+00  0.34427950076E+03  0.68204438751E+03  0.58877514544E+03 0.  0.
        3    1    3    3  502    0  0.10471608127E+03 -0.12824681317E+03 -0.10983629978E+03  0.19868750770E+03  0.10100000352E+00 0. -1.
       -3    1    3    3    0  502 -0.10471608127E+03  0.12824681317E+03  0.45411580053E+03  0.48335687981E+03  0.10100000352E+00 0.  1.
</event>
<event>
 5   0  0.1513339E-01  0.5941166E+03  0.7818609E-02  0.9917688E-01
       -2   -1    0    0    0  501  0.00000000000E+00  0.00000000000E+00  0.11556545742E+03  0.11556545745E+03  0.25500000920E-02 0. -1.
        2   -1    0    0  501    0  0.00000000000E+00  0.00000000000E+00 -0.76358149935E+03  0.76358149936E+03  0.25500000920E-02 0.  1.
    10030    2    1    2    0    0  0.00000000000E+00  0.00000000000E+00 -0.64801604193E+03  0.87914695680E+03  0.59411663926E+03 0.  0.
        3    1    3    3  502    0 -0.25949145619E+03 -0.29252927352E+02 -0.11446676876E+03  0.28512137933E+03  0.10100000352E+00 0.  1.
       -3    1    3    3    0  502  0.25949145619E+03  0.29252927352E+02 -0.53354927317E+03  0.59402557748E+03  0.10100000352E+00 0. -1.
</event>
<event>
 5   0  0.8860626E-02  0.4836458E+03  0.7818609E-02  0.1018138E+00
        1   -1    0    0  501    0  0.00000000000E+00  0.00000000000E+00  0.61048194252E+03  0.61048194254E+03  0.50400001928E-02 0. -1.
       -1   -1    0    0    0  501  0.00000000000E+00  0.00000000000E+00 -0.95790395556E+02  0.95790395689E+02  0.50400001928E-02 0.  1.
    10030    2    1    2    0    0  0.00000000000E+00  0.00000000000E+00  0.51469154696E+03  0.70627233823E+03  0.48364576627E+03 0.  0.
        3    1    3    3  502    0  0.14756201024E+03  0.14134145087E+02 -0.21661091916E+02  0.14981166185E+03  0.10100000352E+00 0.  1.
       -3    1    3    3    0  502 -0.14756201024E+03 -0.14134145087E+02  0.53635263888E+03  0.55646067638E+03  0.10100000352E+00 0. -1.
</event>
<event>
 5   0  0.9420349E-02  0.6011896E+03  0.7818609E-02  0.9902941E-01
       -1   -1    0    0    0  501  0.00000000000E+00  0.00000000000E+00  0.19593596017E+03  0.19593596023E+03  0.50400001928E-02 0. -1.
        1   -1    0    0  501    0  0.00000000000E+00  0.00000000000E+00 -0.46115690419E+03  0.46115690422E+03  0.50400001928E-02 0.  1.
    10030    2    1    2    0    0  0.00000000000E+00  0.00000000000E+00 -0.26522094402E+03  0.65709286445E+03  0.60118955693E+03 0.  0.
        2    1    3    3  502    0  0.10274910131E+02 -0.44802373662E+02  0.19207203189E+03  0.19749554908E+03  0.25500000920E-02 0. -1.
       -2    1    3    3    0  502 -0.10274910131E+02  0.44802373662E+02 -0.45729297592E+03  0.45959731537E+03  0.25500000920E-02 0.  1.
</event>
<event>
 5   0  0.1532571E-01  0.5800122E+03  0.7818609E-02  0.9947765E-01
        2   -1    0    0  501    0  0.00000000000E+00  0.00000000000E+00  0.17415408207E+04  0.17415408207E+04  0.25500000920E-02 0. -1.
       -2   -1    0    0    0  501  0.00000000000E+00  0.00000000000E+00 -0.48292597160E+02  0.48292597227E+02  0.25500000920E-02 0.  1.
    10030    2    1    2    0    0  0.00000000000E+00  0.00000000000E+00  0.16932482235E+04  0.17898334179E+04  0.58001217005E+03 0.  0.
        1    1    3    3  502    0  0.27306379522E+03 -0.95504853940E+02  0.78349473418E+03  0.83519399657E+03  0.50400001928E-02 0. -1.
       -1    1    3    3    0  502 -0.27306379522E+03  0.95504853940E+02  0.90975348933E+03  0.95463942133E+03  0.50400001928E-02 0.  1.
</event>
<event>
 5   0  0.1488510E-01  0.6120858E+03  0.7818609E-02  0.9880644E-01
       -2   -1    0    0    0  501  0.00000000000E+00  0.00000000000E+00  0.35327650238E+03  0.35327650239E+03  0.25500000920E-02 0.  1.
        2   -1    0    0  501    0  0.00000000000E+00  0.00000000000E+00 -0.26512452714E+03  0.26512452715E+03  0.25500000920E-02 0. -1.
    10030    2    1    2    0    0  0.00000000000E+00  0.00000000000E+00  0.88151975242E+02  0.61840102954E+03  0.61208582944E+03 0.  0.
        5    1    3    3  502    0  0.21221702784E+03 -0.57990761532E+02  0.25897026098E+03  0.33983331413E+03  0.46999998093E+01 0.  1.
       -5    1    3    3    0  502 -0.21221702784E+03  0.57990761532E+02 -0.17081828573E+03  0.27856771541E+03  0.46999998093E+01 0. -1.
</event>
<event>
 5   0  0.1488510E-01  0.6002076E+03  0.7818609E-02  0.9904976E-01
        2   -1    0    0  501    0  0.00000000000E+00  0.00000000000E+00  0.54354820806E+03  0.54354820806E+03  0.25500000920E-02 0.  1.
       -2   -1    0    0    0  501  0.00000000000E+00  0.00000000000E+00 -0.16569327011E+03  0.16569327013E+03  0.25500000920E-02 0. -1.
    10030    2    1    2    0    0  0.00000000000E+00  0.00000000000E+00  0.37785493794E+03  0.70924147819E+03  0.60020756432E+03 0.  0.
        5    1    3    3  502    0 -0.10908336961E+03  0.13680937818E+03  0.47698175603E+03  0.50808431689E+03  0.46999998093E+01 0.  1.
       -5    1    3    3    0  502  0.10908336961E+03 -0.13680937818E+03 -0.99126818086E+02  0.20115716131E+03  0.46999998093E+01 0. -1.
</event>
<event>
 5   0  0.1488510E-01  0.5978568E+03  0.7818609E-02  0.9909862E-01
       -2   -1    0    0    0  501  0.00000000000E+00  0.00000000000E+00  0.10879846725E+03  0.10879846728E+03  0.25500000920E-02 0. -1.
        2   -1    0    0  501    0  0.00000000000E+00  0.00000000000E+00 -0.82131857425E+03  0.82131857425E+03  0.25500000920E-02 0.  1.
    10030    2    1    2    0    0  0.00000000000E+00  0.00000000000E+00 -0.71252010700E+03  0.93011704153E+03  0.59785684580E+03 0.  0.
        5    1    3    3  502    0 -0.13362770567E+03 -0.21391859283E+03 -0.60575624545E+03  0.65618613745E+03  0.46999998093E+01 0.  1.
       -5    1    3    3    0  502  0.13362770567E+03  0.21391859283E+03 -0.10676386155E+03  0.27393090408E+03  0.46999998093E+01 0. -1.
</event>
<event>
 5   0  0.1502642E-01  0.6153469E+03  0.7818609E-02  0.9874068E-01
       -2   -1    0    0    0  501  0.00000000000E+00  0.00000000000E+00  0.11025744035E+03  0.11025744038E+03  0.25500000920E-02 0. -1.
        2   -1    0    0  501    0  0.00000000000E+00  0.00000000000E+00 -0.85856304733E+03  0.85856304734E+03  0.25500000920E-02 0.  1.
    10030    2    1    2    0    0  0.00000000000E+00  0.00000000000E+00 -0.74830560698E+03  0.96882048772E+03  0.61534693953E+03 0.  0.
        2    1    3    3  502    0  0.20483160437E+03 -0.91002879059E+02 -0.42304802432E+02  0.22809473133E+03  0.25500000920E-02 0. -1.
       -2    1    3    3    0  502 -0.20483160437E+03  0.91002879059E+02 -0.70600080455E+03  0.74072575639E+03  0.25500000920E-02 0.  1.
</event>
<event>
 5   0  0.1483942E-01  0.5833724E+03  0.7818609E-02  0.9940516E-01
       -2   -1    0    0    0  501  0.00000000000E+00  0.00000000000E+00  0.21406548029E+03  0.21406548030E+03  0.25500000920E-02 0. -1.
        2   -1    0    0  501    0  0.00000000000E+00  0.00000000000E+00 -0.39745245487E+03  0.39745245488E+03  0.25500000920E-02 0.  1.
    10030    2    1    2    0    0  0.00000000000E+00  0.00000000000E+00 -0.18338697459E+03  0.61151793518E+03  0.58337243902E+03 0.  0.
        4    1    3    3  502    0  0.23545793569E+03  0.11290256705E+01 -0.27215485635E+03  0.35987719144E+03  0.12699999809E+01 0.  1.
       -4    1    3    3    0  502 -0.23545793569E+03 -0.11290256705E+01  0.88767881764E+02  0.25164074375E+03  0.12699999809E+01 0. -1.
</event>
<event>
 5   0  0.1513339E-01  0.5906489E+03  0.7818609E-02  0.9924999E-01
        2   -1    0    0  501    0  0.00000000000E+00  0.00000000000E+00  0.67568253282E+03  0.67568253282E+03  0.25500000920E-02 0. -1.
       -2   -1    0    0    0  501  0.00000000000E+00  0.00000000000E+00 -0.12907916322E+03  0.12907916324E+03  0.25500000920E-02 0.  1.
    10030    2    1    2    0    0  0.00000000000E+00  0.00000000000E+00  0.54660336960E+03  0.80476169607E+03  0.59064891754E+03 0.  0.
        3    1    3    3  502    0  0.24780047204E+03  0.11954059183E+03  0.41955050544E+03  0.50171472358E+03  0.10100000352E+00 0. -1.
       -3    1    3    3    0  502 -0.24780047204E+03 -0.11954059183E+03  0.12705286416E+03  0.30304697248E+03  0.10100000352E+00 0.  1.
</event>
<event>
 5   0  0.1488510E-01  0.6059072E+03  0.7818609E-02  0.9893226E-01
        2   -1    0    0  501    0  0.00000000000E+00  0.00000000000E+00  0.16209460538E+04  0.16209460538E+04  0.25500000920E-02 0.  1.
       -2   -1    0    0    0  501  0.00000000000E+00  0.00000000000E+00 -0.56621792521E+02  0.56621792579E+02  0.25500000920E-02 0. -1.
    10030    2    1    2    0    0  0.00000000000E+00  0.00000000000E+00  0.15643242613E+04  0.16775678464E+04  0.60590715855E+03 0.  0.
        5    1    3    3  502    0 -0.82083156420E+02  0.15136327610E+03  0.14721728013E+04  0.14822156836E+04  0.46999998093E+01 0.  1.
       -5    1    3    3    0  502  0.82083156420E+02 -0.15136327610E+03  0.92151459988E+02  0.19535216276E+03  0.46999998093E+01 0. -1.
</event>
<event>
 5   0  0.1483942E-01  0.6109304E+03  0.7818609E-02  0.9882985E-01
        2   -1    0    0  501    0  0.00000000000E+00  0.00000000000E+00  0.24991394702E+04  0.24991394702E+04  0.25500000920E-02 0.  1.
       -2   -1    0    0    0  501  0.00000000000E+00  0.00000000000E+00 -0.37336444565E+02  0.37336444652E+02  0.25500000920E-02 0. -1.
    10030    2    1    2    0    0  0.00000000000E+00  0.00000000000E+00  0.24618030256E+04  0.25364759148E+04  0.61093038032E+03 0.  0.
        4    1    3    3  502    0  0.47790850969E+02  0.24814651230E+03  0.19433564963E+04  0.19597185363E+04  0.12699999809E+01 0.  1.
       -4    1    3    3    0  502 -0.47790850969E+02 -0.24814651230E+03  0.51844652931E+03  0.57675737850E+03  0.12699999809E+01 0. -1.
</event>
<event>
 5   0  0.9497860E-02  0.5983026E+03  0.7818609E-02  0.9908934E-01
       -1   -1    0    0    0  501  0.00000000000E+00  0.00000000000E+00  0.81189157008E+02  0.81189157164E+02  0.50400001928E-02 0.  1.
        1   -1    0    0  501    0  0.00000000000E+00  0.00000000000E+00 -0.11022591841E+04  0.11022591841E+04  0.50400001928E-02 0. -1.
    10030    2    1    2    0    0  0.00000000000E+00  0.00000000000E+00 -0.10210700271E+04  0.11834483412E+04  0.59830257916E+03 0.  0.
        5    1    3    3  502    0 -0.69705174612E+02 -0.24441971735E+03 -0.19860096490E+03  0.32258989887E+03  0.46999998093E+01 0. -1.
       -5    1    3    3    0  502  0.69705174612E+02  0.24441971735E+03 -0.82246906217E+03  0.86085844238E+03  0.46999998093E+01 0.  1.
</event>
<event>
 5   0  0.1532571E-01  0.5959492E+03  0.7818609E-02  0.9913846E-01
       -2   -1    0    0    0  501  0.00000000000E+00  0.00000000000E+00  0.14505578020E+03  0.14505578022E+03  0.25500000920E-02 0.  1.
        2   -1    0    0  501    0  0.00000000000E+00  0.00000000000E+00 -0.61210148913E+03  0.61210148914E+03  0.25500000920E-02 0. -1.
    10030    2    1    2    0    0  0.00000000000E+00  0.00000000000E+00 -0.46704570893E+03  0.75715726936E+03  0.59594918937E+03 0.  0.
        1    1    3    3  502    0  0.15406363685E+03 -0.23274830339E+03 -0.36605489643E+03  0.46032984279E+03  0.50400001928E-02 0. -1.
       -1    1    3    3    0  502 -0.15406363685E+03  0.23274830339E+03 -0.10099081250E+03  0.29682742658E+03  0.50400001928E-02 0.  1.
</event>
<event>
 5   0  0.6170500E-02  0.6029267E+03  0.7818609E-02  0.9899353E-01
       -4   -1    0    0    0  501  0.00000000000E+00  0.00000000000E+00  0.41823977480E+03  0.41824170300E+03  0.12699999809E+01 0. -1.
        4   -1    0    0  501    0  0.00000000000E+00  0.00000000000E+00 -0.21728770080E+03  0.21729141221E+03  0.12699999809E+01 0.  1.
    10030    2    1    2    0    0  0.00000000000E+00  0.00000000000E+00  0.20095207400E+03  0.63553311521E+03  0.60292669910E+03 0.  0.
        5    1    3    3  502    0  0.24486344915E+03  0.73848329388E+02 -0.67670003290E+02  0.26459970489E+03  0.46999998093E+01 0.  1.
       -5    1    3    3    0  502 -0.24486344915E+03 -0.73848329388E+02  0.26862207729E+03  0.37093341032E+03  0.46999998093E+01 0. -1.
</event>
<event>
 5   0  0.1513339E-01  0.5341647E+03  0.7818609E-02  0.1005227E+00
       -2   -1    0    0    0  501  0.00000000000E+00  0.00000000000E+00  0.46342714808E+03  0.46342714808E+03  0.25500000920E-02 0.  1.
        2   -1    0    0  501    0  0.00000000000E+00  0.00000000000E+00 -0.15392488138E+03  0.15392488140E+03  0.25500000920E-02 0. -1.
    10030    2    1    2    0    0  0.00000000000E+00  0.00000000000E+00  0.30950226670E+03  0.61735202949E+03  0.53416465179E+03 0.  0.
        3    1    3    3  502    0  0.13296716626E+03 -0.13965834516E+03 -0.58819671462E+02  0.20160477333E+03  0.10100000352E+00 0. -1.
       -3    1    3    3    0  502 -0.13296716626E+03  0.13965834516E+03  0.36832193816E+03  0.41574725616E+03  0.10100000352E+00 0.  1.
</event>
<event>
 5   0  0.9411028E-02  0.4590789E+03  0.7818609E-02  0.1025049E+00
       -1   -1    0    0    0  501  0.00000000000E+00  0.00000000000E+00  0.49339248542E+02  0.49339248800E+02  0.50400001928E-02 0. -1.
        1   -1    0    0  501    0  0.00000000000E+00  0.00000000000E+00 -0.10678792673E+04  0.10678792673E+04  0.50400001928E-02 0.  1.
    10030    2    1    2    0    0  0.00000000000E+00  0.00000000000E+00 -0.10185400187E+04  0.11172185161E+04  0.45907890708E+03 0.  0.
        4    1    3    3  502    0  0.42415321726E+02 -0.46317371169E+02  0.28014344060E+02  0.68780627812E+02  0.12699999809E+01 0. -1.
       -4    1    3    3    0  502 -0.42415321726E+02  0.46317371169E+02 -0.10465543628E+04  0.10484378883E+04  0.12699999809E+01 0.  1.
</event>
<event>
 5   0  0.9177281E-02  0.6769727E+03  0.7818609E-02  0.9757443E-01
       -1   -1    0    0    0  501  0.00000000000E+00  0.00000000000E+00  0.19252402449E+03  0.19252402456E+03  0.50400001928E-02 0. -1.
        1   -1    0    0  501    0  0.00000000000E+00  0.00000000000E+00 -0.59511015859E+03  0.59511015861E+03  0.50400001928E-02 0.  1.
    10030    2    1    2    0    0  0.00000000000E+00  0.00000000000E+00 -0.40258613409E+03  0.78763418317E+03  0.67697268123E+03 0.  0.
        1    1    3    3  502    0 -0.21039702449E+03  0.22721199441E+03 -0.36031286590E+03  0.47509742125E+03  0.50400001928E-02 0.  1.
       -1    1    3    3    0  502  0.21039702449E+03 -0.22721199441E+03 -0.42273268198E+02  0.31253676192E+03  0.50400001928E-02 0. -1.
</event>
<event>
 5   0  0.9497860E-02  0.6241855E+03  0.7818609E-02  0.9856462E-01
       -1   -1    0    0    0  501  0.00000000000E+00  0.00000000000E+00  0.13182802978E+03  0.13182802987E+03  0.50400001928E-02 0. -1.
        1   -1    0    0  501    0  0.00000000000E+00  0.00000000000E+00 -0.73885563048E+03  0.73885563050E+03  0.50400001928E-02 0.  1.
    10030    2    1    2    0    0  0.00000000000E+00  0.00000000000E+00 -0.60702760070E+03  0.87068366037E+03  0.62418549200E+03 0.  0.
        5    1    3    3  502    0  0.13624947126E+03  0.37770100563E+02 -0.69156333269E+03  0.70588414916E+03  0.46999998093E+01 0.  1.
       -5    1    3    3    0  502 -0.13624947126E+03 -0.37770100563E+02  0.84535731988E+02  0.16479951121E+03  0.46999998093E+01 0. -1.
</event>
<event>
 5   0  0.1483942E-01  0.6156918E+03  0.7818609E-02  0.9873375E-01
        2   -1    0    0  501    0  0.00000000000E+00  0.00000000000E+00  0.22958264897E+04  0.22958264898E+04  0.25500000920E-02 0. -1.
       -2   -1    0    0    0  501  0.00000000000E+00  0.00000000000E+00 -0.41278853039E+02  0.41278853118E+02  0.25500000920E-02 0.  1.
    10030    2    1    2    0    0  0.00000000000E+00  0.00000000000E+00  0.22545476367E+04  0.23371053429E+04  0.61569175524E+03 0.  0.
        4    1    3    3  502    0 -0.23704050278E+03 -0.10396963272E+03  0.49471682642E+03  0.55834060906E+03  0.12699999809E+01 0.  1.
       -4    1    3    3    0  502  0.23704050278E+03  0.10396963272E+03  0.17598308103E+04  0.17787647338E+04  0.12699999809E+01 0. -1.
</event>
<event>
 5   0  0.9420349E-02  0.6199399E+03  0.7818609E-02  0.9864879E-01
       -1   -1    0    0    0  501  0.00000000000E+00  0.00000000000E+00  0.16836482373E+03  0.16836482380E+03  0.50400001928E-02 0.  1.
        1   -1    0    0  501    0  0.00000000000E+00  0.00000000000E+00 -0.57067364004E+03  0.57067364006E+03  0.50400001928E-02 0. -1.
    10030    2    1    2    0    0  0.00000000000E+00  0.00000000000E+00 -0.40230881631E+03  0.73903846386E+03  0.61993989014E+03 0.  0.
        2    1    3    3  502    0 -0.38252167621E+02 -0.69971186620E+01 -0.56775424657E+03  0.56908441597E+03  0.25500000920E-02 0. -1.
       -2    1    3    3    0  502  0.38252167621E+02  0.69971186620E+01  0.16544543025E+03  0.16995404789E+03  0.25500000920E-02 0.  1.
</event>
<event>
 5   0  0.1502642E-01  0.6013464E+03  0.7818609E-02  0.9902617E-01
        2   -1    0    0  501    0  0.00000000000E+00  0.00000000000E+00  0.85156827414E+03  0.85156827415E+03  0.25500000920E-02 0. -1.
       -2   -1    0    0    0  501  0.00000000000E+00  0.00000000000E+00 -0.10616222795E+03  0.10616222798E+03  0.25500000920E-02 0.  1.
    10030    2    1    2    0    0  0.00000000000E+00  0.00000000000E+00  0.74540604620E+03  0.95773050213E+03  0.60134644008E+03 0.  0.
        2    1    3    3  502    0  0.22801102041E+03  0.17228041892E+03  0.52155187251E+03  0.59471499384E+03  0.25500000920E-02 0. -1.
       -2    1    3    3    0  502 -0.22801102041E+03 -0.17228041892E+03  0.22385417369E+03  0.36301550829E+03  0.25500000920E-02 0.  1.
</event>
<event>
 5   0  0.6170500E-02  0.5927753E+03  0.7818609E-02  0.9920509E-01
       -3   -1    0    0    0  501  0.00000000000E+00  0.00000000000E+00  0.84251132189E+02  0.84251192728E+02  0.10100000352E+00 0. -1.
        3   -1    0    0  501    0  0.00000000000E+00  0.00000000000E+00 -0.10426638894E+04  0.10426638942E+04  0.10100000352E+00 0.  1.
    10030    2    1    2    0    0  0.00000000000E+00  0.00000000000E+00 -0.95841275717E+03  0.11269150870E+04  0.59277533700E+03 0.  0.
        4    1    3    3  502    0  0.15672569479E+03  0.17479170223E+03 -0.13527869576E+03  0.27095575469E+03  0.12699999809E+01 0. -1.
       -4    1    3    3    0  502 -0.15672569479E+03 -0.17479170223E+03 -0.82313406140E+03  0.85595933228E+03  0.12699999809E+01 0.  1.
</event>
<event>
 5   0  0.6170500E-02  0.6060161E+03  0.7818609E-02  0.9893003E-01
        3   -1    0    0  501    0  0.00000000000E+00  0.00000000000E+00  0.88163086858E+03  0.88163087437E+03  0.10100000352E+00 0. -1.
       -3   -1    0    0    0  501  0.00000000000E+00  0.00000000000E+00 -0.10414090860E+03  0.10414095757E+03  0.10100000352E+00 0.  1.
    10030    2    1    2    0    0  0.00000000000E+00  0.00000000000E+00  0.77748995998E+03  0.98577183194E+03  0.60601606148E+03 0.  0.
        3    1    3    3  502    0  0.19850014411E+03 -0.99380075413E+02  0.53265274267E+02  0.22828908481E+03  0.10100000352E+00 0.  1.
       -3    1    3    3    0  502 -0.19850014411E+03  0.99380075413E+02  0.72422468572E+03  0.75748274713E+03  0.10100000352E+00 0. -1.
</event>
<event>
 5   0  0.1532571E-01  0.6012686E+03  0.7818609E-02  0.9902778E-01
        2   -1    0    0  501    0  0.00000000000E+00  0.00000000000E+00  0.57929549794E+03  0.57929549795E+03  0.25500000920E-02 0.  1.
       -2   -1    0    0    0  501  0.00000000000E+00  0.00000000000E+00 -0.15601879513E+03  0.15601879515E+03  0.25500000920E-02 0. -1.
    10030    2    1    2    0    0  0.00000000000E+00  0.00000000000E+00  0.42327670281E+03  0.73531429310E+03  0.60126861094E+03 0.  0.
        1    1    3    3  502    0  0.17660633347E+03 -0.23913960320E+03  0.26637680343E+03  0.39916681759E+03  0.50400001928E-02 0. -1.
       -1    1    3    3    0  502 -0.17660633347E+03  0.23913960320E+03  0.15689989938E+03  0.33614747551E+03  0.50400001928E-02 0.  1.
</event>
<event>
 5   0  0.1488510E-01  0.6393799E+03  0.7818609E-02  0.9826914E-01
        2   -1    0    0  501    0  0.00000000000E+00  0.00000000000E+00  0.60066442861E+03  0.60066442861E+03  0.25500000920E-02 0. -1.
       -2   -1    0    0    0  501  0.00000000000E+00  0.00000000000E+00 -0.17014769893E+03  0.17014769895E+03  0.25500000920E-02 0.  1.
    10030    2    1    2    0    0  0.00000000000E+00  0.00000000000E+00  0.43051672968E+03  0.77081212756E+03  0.63937991950E+03 0.  0.
        5    1    3    3  502    0 -0.28282532544E+03  0.97415623288E+02  0.35111622582E+03  0.46128587926E+03  0.46999998093E+01 0. -1.
       -5    1    3    3    0  502  0.28282532544E+03 -0.97415623288E+02  0.79400503858E+02  0.30952624830E+03  0.46999998093E+01 0.  1.
</event>
<event>
 5   0  0.6170500E-02  0.5824741E+03  0.7818609E-02  0.9942449E-01
       -4   -1    0    0    0  501  0.00000000000E+00  0.00000000000E+00  0.50192295507E+02  0.50208360143E+02  0.12699999809E+01 0.  1.
        4   -1    0    0  501    0  0.00000000000E+00  0.00000000000E+00 -0.16895947351E+04  0.16895952124E+04  0.12699999809E+01 0. -1.
    10030    2    1    2    0    0  0.00000000000E+00  0.00000000000E+00 -0.16394024396E+04  0.17398035725E+04  0.58247412998E+03 0.  0.
        3    1    3    3  502    0  0.41379921430E+02 -0.24966655562E+03 -0.38919775928E+03  0.46424195515E+03  0.10100000352E+00 0.  1.
       -3    1    3    3    0  502 -0.41379921430E+02  0.24966655562E+03 -0.12502046803E+04  0.12755616174E+04  0.10100000352E+00 0. -1.
</event>
<event>
 5   0  0.9411028E-02  0.5920632E+03  0.7818609E-02  0.9922011E-01
        1   -1    0    0  501    0  0.00000000000E+00  0.00000000000E+00  0.48092632533E+03  0.48092632536E+03  0.50400001928E-02 0. -1.
       -1   -1    0    0    0  501  0.00000000000E+00  0.00000000000E+00 -0.18222066239E+03  0.18222066246E+03  0.50400001928E-02 0.  1.
    10030    2    1    2    0    0  0.00000000000E+00  0.00000000000E+00  0.29870566294E+03  0.66314698782E+03  0.59206321824E+03 0.  0.
        4    1    3    3  502    0 -0.74796287601E+02 -0.23512349484E+03  0.33256264306E+03  0.41409789534E+03  0.12699999809E+01 0. -1.
       -4    1    3    3    0  502  0.74796287601E+02  0.23512349484E+03 -0.33856980125E+02  0.24904909248E+03  0.12699999809E+01 0.  1.
</event>
<event>
 5   0  0.1483942E-01  0.6145140E+03  0.7818609E-02  0.9875743E-01
       -2   -1    0    0    0  501  0.00000000000E+00  0.00000000000E+00  0.23827265916E+03  0.23827265917E+03  0.25500000920E-02 0.  1.
        2   -1    0    0  501    0  0.00000000000E+00  0.00000000000E+00 -0.39621354534E+03  0.39621354534E+03  0.25500000920E-02 0. -1.
    10030    2    1    2    0    0  0.00000000000E+00  0.00000000000E+00 -0.15794088618E+03  0.63448620452E+03  0.61451397071E+03 0.  0.
        4    1    3    3  502    0 -0.87811786063E+02  0.17140612401E+03 -0.32615527476E+03  0.37877413490E+03  0.12699999809E+01 0. -1.
       -4    1    3    3    0  502  0.87811786063E+02 -0.17140612401E+03  0.16821438858E+03  0.25571206961E+03  0.12699999809E+01 0.  1.
</event>
<event>
 5   0  0.1513339E-01  0.6151733E+03  0.7818609E-02  0.9874417E-01
       -2   -1    0    0    0  501  0.00000000000E+00  0.00000000000E+00  0.97122001131E+02  0.97122001165E+02  0.25500000920E-02 0. -1.
        2   -1    0    0  501    0  0.00000000000E+00  0.00000000000E+00 -0.97413102552E+03  0.97413102552E+03  0.25500000920E-02 0.  1.
    10030    2    1    2    0    0  0.00000000000E+00  0.00000000000E+00 -0.87700902439E+03  0.10712530267E+04  0.61517332381E+03 0.  0.
        3    1    3    3  502    0 -0.22583159292E+03  0.20820477426E+03 -0.41040351530E+03  0.51262090472E+03  0.10100000352E+00 0. -1.
       -3    1    3    3    0  502  0.22583159292E+03 -0.20820477426E+03 -0.46660550909E+03  0.55863212197E+03  0.10100000352E+00 0.  1.
</event>
<event>
 5   0  0.9177281E-02  0.5842124E+03  0.7818609E-02  0.9938713E-01
       -1   -1    0    0    0  501  0.00000000000E+00  0.00000000000E+00  0.32269763233E+03  0.32269763237E+03  0.50400001928E-02 0. -1.
        1   -1    0    0  501    0  0.00000000000E+00  0.00000000000E+00 -0.26441477966E+03  0.26441477971E+03  0.50400001928E-02 0.  1.
    10030    2    1    2    0    0  0.00000000000E+00  0.00000000000E+00  0.58282852666E+02  0.58711241208E+03  0.58421237021E+03 0.  0.
        1    1    3    3  502    0 -0.39360510894E+02 -0.87645664828E+02 -0.24808115639E+03  0.26603622415E+03  0.50400001928E-02 0.  1.
       -1    1    3    3    0  502  0.39360510894E+02  0.87645664828E+02  0.30636400906E+03  0.32107618792E+03  0.50400001928E-02 0. -1.
</event>
<event>
 5   0  0.9177281E-02  0.5915479E+03  0.7818609E-02  0.9923098E-01
       -1   -1    0    0    0  501  0.00000000000E+00  0.00000000000E+00  0.40991472695E+02  0.40991473005E+02  0.50400001928E-02 0.  1.
        1   -1    0    0  501    0  0.00000000000E+00  0.00000000000E+00 -0.21341565594E+04  0.21341565594E+04  0.50400001928E-02 0. -1.
    10030    2    1    2    0    0  0.00000000000E+00  0.00000000000E+00 -0.20931650867E+04  0.21751480324E+04  0.59154787017E+03 0.  0.
        1    1    3    3  502    0  0.15565552649E+03  0.45783578016E+02 -0.13724823126E+03  0.21251319007E+03  0.50400001928E-02 0.  1.
       -1    1    3    3    0  502 -0.15565552649E+03 -0.45783578016E+02 -0.19559168554E+04  0.19626348423E+04  0.50400001928E-02 0. -1.
</event>
<event>
 5   0  0.9420349E-02  0.5911600E+03  0.7818609E-02  0.9923918E-01
       -1   -1    0    0    0  501  0.00000000000E+00  0.00000000000E+00  0.10452886963E+04  0.10452886963E+04  0.50400001928E-02 0. -1.
        1   -1    0    0  501    0  0.00000000000E+00  0.00000000000E+00 -0.83582199059E+02  0.83582199211E+02  0.50400001928E-02 0.  1.
    10030    2    1    2    0    0  0.00000000000E+00  0.00000000000E+00  0.96170649726E+03  0.11288708955E+04  0.59115997152E+03 0.  0.
        2    1    3    3  502    0  0.13361090370E+03 -0.24175522213E+03  0.27993731461E+03  0.39327135814E+03  0.25500000920E-02 0.  1.
       -2    1    3    3    0  502 -0.13361090370E+03  0.24175522213E+03  0.68176918265E+03  0.73559953740E+03  0.25500000920E-02 0. -1.
</event>
<event>
 5   0  0.9420349E-02  0.6868789E+03  0.7818609E-02  0.9739938E-01
       -1   -1    0    0    0  501  0.00000000000E+00  0.00000000000E+00  0.32365967260E+03  0.32365967264E+03  0.50400001928E-02 0. -1.
        1   -1    0    0  501    0  0.00000000000E+00  0.00000000000E+00 -0.36442807097E+03  0.36442807101E+03  0.50400001928E-02 0.  1.
    10030    2    1    2    0    0  0.00000000000E+00  0.00000000000E+00 -0.40768398370E+02  0.68808774365E+03  0.68687894178E+03 0.  0.
        2    1    3    3  502    0  0.27507586894E+02  0.27150686356E+03 -0.22926500220E+03  0.35641981642E+03  0.25500000920E-02 0.  1.
       -2    1    3    3    0  502 -0.27507586894E+02 -0.27150686356E+03  0.18849660382E+03  0.33166792724E+03  0.25500000920E-02 0. -1.
</event>
<event>
 5   0  0.1488510E-01  0.6019361E+03  0.7818609E-02  0.9901397E-01
        2   -1    0    0  501    0  0.00000000000E+00  0.00000000000E+00  0.42724474826E+03  0.42724474826E+03  0.25500000920E-02 0. -1.
       -2   -1    0    0    0  501  0.00000000000E+00  0.00000000000E+00 -0.21201378640E+03  0.21201378642E+03  0.25500000920E-02 0.  1.
    10030    2    1    2    0    0  0.00000000000E+00  0.00000000000E+00  0.21523096185E+03  0.63925853468E+03  0.60193613218E+03 0.  0.
        5    1    3    3  502    0  0.25430727476E+03  0.12005759222E+03  0.22137226992E+03  0.35792986371E+03  0.46999998093E+01 0. -1.
       -5    1    3    3    0  502 -0.25430727476E+03 -0.12005759222E+03 -0.61413080684E+01  0.28132867097E+03  0.46999998093E+01 0.  1.
</event>
<event>
 5   0  0.9497860E-02  0.5730862E+03  0.7818609E-02  0.9962872E-01
        1   -1    0    0  501    0  0.00000000000E+00  0.00000000000E+00  0.69463981867E+03  0.69463981869E+03  0.50400001928E-02 0. -1.
       -1   -1    0    0    0  501  0.00000000000E+00  0.00000000000E+00 -0.11820076068E+03  0.11820076079E+03  0.50400001928E-02 0.  1.
    10030    2    1    2    0    0  0.00000000000E+00  0.00000000000E+00  0.57643905799E+03  0.81284057947E+03  0.57308622394E+03 0.  0.
        5    1    3    3  502    0  0.14417671546E+01 -0.13750287498E+03 -0.68281342909E+02  0.15360192417E+03  0.46999998093E+01 0.  1.
       -5    1    3    3    0  502 -0.14417671546E+01  0.13750287498E+03  0.64472040090E+03  0.65923865531E+03  0.46999998093E+01 0. -1.
</event>
<event>
 5   0  0.9177281E-02  0.6005608E+03  0.7818609E-02  0.9904243E-01
        1   -1    0    0  501    0  0.00000000000E+00  0.00000000000E+00  0.61954601297E+03  0.61954601299E+03  0.50400001928E-02 0.  1.
       -1   -1    0    0    0  501  0.00000000000E+00  0.00000000000E+00 -0.14553933744E+03  0.14553933752E+03  0.50400001928E-02 0. -1.
    10030    2    1    2    0    0  0.00000000000E+00  0.00000000000E+00  0.47400667553E+03  0.76508535051E+03  0.60056079220E+03 0.  0.
        1    1    3    3  502    0 -0.50255014626E+02  0.26876626459E+03  0.39513477587E+03  0.48051260400E+03  0.50400001928E-02 0.  1.
       -1    1    3    3    0  502  0.50255014626E+02 -0.26876626459E+03  0.78871899661E+02  0.28457274651E+03  0.50400001928E-02 0. -1.
</event>
<event>
 5   0  0.8860626E-02  0.6042070E+03  0.7818609E-02  0.9896716E-01
       -1   -1    0    0    0  501  0.00000000000E+00  0.00000000000E+00  0.28165584923E+03  0.28165584928E+03  0.50400001928E-02 0. -1.
        1   -1    0    0  501    0  0.00000000000E+00  0.00000000000E+00 -0.32403557134E+03  0.32403557138E+03  0.50400001928E-02 0.  1.
    10030    2    1    2    0    0  0.00000000000E+00  0.00000000000E+00 -0.42379722109E+02  0.60569142066E+03  0.60420696472E+03 0.  0.
        3    1    3    3  502    0 -0.20959752565E+03  0.12019751367E+03  0.16060601316E+03  0.29012560506E+03  0.10100000352E+00 0. -1.
       -3    1    3    3    0  502  0.20959752565E+03 -0.12019751367E+03 -0.20298573526E+03  0.31556581559E+03  0.10100000352E+00 0.  1.
</event>
<event>
 5   0  0.9411028E-02  0.5947512E+03  0.7818609E-02  0.9916356E-01
       -1   -1    0    0    0  501  0.00000000000E+00  0.00000000000E+00  0.23642113495E+03  0.23642113500E+03  0.50400001928E-02 0.  1.
        1   -1    0    0  501    0  0.00000000000E+00  0.00000000000E+00 -0.37404541952E+03  0.37404541955E+03  0.50400001928E-02 0. -1.
    10030    2    1    2    0    0  0.00000000000E+00  0.00000000000E+00 -0.13762428457E+03  0.61046655455E+03  0.59475118371E+03 0.  0.
        4    1    3    3  502    0 -0.24264568127E+03 -0.15471718337E+02 -0.24455049019E+03  0.34485193324E+03  0.12699999809E+01 0. -1.
       -4    1    3    3    0  502  0.24264568127E+03  0.15471718337E+02  0.10692620562E+03  0.26561462131E+03  0.12699999809E+01 0.  1.
</event>
<event>
 5   0  0.1502642E-01  0.5799980E+03  0.7818609E-02  0.9947795E-01
        2   -1    0    0  501    0  0.00000000000E+00  0.00000000000E+00  0.11495236631E+04  0.11495236631E+04  0.25500000920E-02 0. -1.
       -2   -1    0    0    0  501  0.00000000000E+00  0.00000000000E+00 -0.73160229466E+02  0.73160229510E+02  0.25500000920E-02 0.  1.
    10030    2    1    2    0    0  0.00000000000E+00  0.00000000000E+00  0.10763634337E+04  0.12226838927E+04  0.57999798276E+03 0.  0.
        2    1    3    3  502    0  0.20811404349E+03 -0.27601052217E+02  0.95993606889E+03  0.98262430743E+03  0.25500000920E-02 0. -1.
       -2    1    3    3    0  502 -0.20811404349E+03  0.27601052217E+02  0.11642736478E+03  0.24005958523E+03  0.25500000920E-02 0.  1.
</event>
<event>
 5   0  0.1532571E-01  0.5792306E+03  0.7818609E-02  0.9949458E-01
       -2   -1    0    0    0  501  0.00000000000E+00  0.00000000000E+00  0.96460467763E+02  0.96460467797E+02  0.25500000920E-02 0.  1.
        2   -1    0    0  501    0  0.00000000000E+00  0.00000000000E+00 -0.86954805451E+03  0.86954805452E+03  0.25500000920E-02 0. -1.
    10030    2    1    2    0    0  0.00000000000E+00  0.00000000000E+00 -0.77308758675E+03  0.96600852231E+03  0.57923056583E+03 0.  0.
        1    1    3    3  502    0 -0.37679427394E+02 -0.20695549846E+03 -0.54555010813E+02  0.21731674308E+03  0.50400001928E-02 0. -1.
       -1    1    3    3    0  502  0.37679427394E+02  0.20695549846E+03 -0.71853257594E+03  0.74869177924E+03  0.50400001928E-02 0.  1.
</event>
<event>
 5   0  0.9497860E-02  0.5872794E+03  0.7818609E-02  0.9932154E-01
        1   -1    0    0  501    0  0.00000000000E+00  0.00000000000E+00  0.10923782518E+04  0.10923782518E+04  0.50400001928E-02 0.  1.
       -1   -1    0    0    0  501  0.00000000000E+00  0.00000000000E+00 -0.78932618210E+02  0.78932618370E+02  0.50400001928E-02 0. -1.
    10030    2    1    2    0    0  0.00000000000E+00  0.00000000000E+00  0.10134456335E+04  0.11713108701E+04  0.58727940739E+03 0.  0.
        5    1    3    3  502    0  0.21671445089E+03 -0.16954838325E+03  0.71100146326E+03  0.76240211060E+03  0.46999998093E+01 0.  1.
       -5    1    3    3    0  502 -0.21671445089E+03  0.16954838325E+03  0.30244417029E+03  0.40890875954E+03  0.46999998093E+01 0. -1.
</event>
<event>
 5   0  0.9420349E-02  0.6043035E+03  0.7818609E-02  0.9896518E-01
        1   -1    0    0  501    0  0.00000000000E+00  0.00000000000E+00  0.99656140583E+03  0.99656140584E+03  0.50400001928E-02 0. -1.
       -1   -1    0    0    0  501  0.00000000000E+00  0.00000000000E+00 -0.91610705696E+02  0.91610705835E+02  0.50400001928E-02 0.  1.
    10030    2    1    2    0    0  0.00000000000E+00  0.00000000000E+00  0.90495070013E+03  0.10881721117E+04  0.60430354538E+03 0.  0.
        2    1    3    3  502    0  0.27611275900E+03 -0.46455069678E+02  0.24795967150E+03  0.37400578589E+03  0.25500000920E-02 0. -1.
       -2    1    3    3    0  502 -0.27611275900E+03  0.46455069678E+02  0.65699102863E+03  0.71416632578E+03  0.25500000920E-02 0.  1.
</event>
<event>
 5   0  0.8860626E-02  0.6028004E+03  0.7818609E-02  0.9899613E-01
       -1   -1    0    0    0  501  0.00000000000E+00  0.00000000000E+00  0.12758848039E+03  0.12758848049E+03  0.50400001928E-02 0. -1.
        1   -1    0    0  501    0  0.00000000000E+00  0.00000000000E+00 -0.71199285562E+03  0.71199285564E+03  0.50400001928E-02 0.  1.
    10030    2    1    2    0    0  0.00000000000E+00  0.00000000000E+00 -0.58440437523E+03  0.83958133613E+03  0.60280041987E+03 0.  0.
        3    1    3    3  502    0 -0.16062927301E+03  0.25052076872E+03 -0.35870255202E+03  0.46607933867E+03  0.10100000352E+00 0.  1.
       -3    1    3    3    0  502  0.16062927301E+03 -0.25052076872E+03 -0.22570182321E+03  0.37350199746E+03  0.10100000352E+00 0. -1.
</event>
<event>
 5   0  0.1502642E-01  0.6216475E+03  0.7818609E-02  0.9861485E-01
        2   -1    0    0  501    0  0.00000000000E+00  0.00000000000E+00  0.69371768229E+03  0.69371768230E+03  0.25500000920E-02 0.  1.
       -2   -1    0    0    0  501  0.00000000000E+00  0.00000000000E+00 -0.13926615459E+03  0.13926615461E+03  0.25500000920E-02 0. -1.
    10030    2    1    2    0    0  0.00000000000E+00  0.00000000000E+00  0.55445152771E+03  0.83298383691E+03  0.62164746921E+03 0.  0.
        2    1    3    3  502    0  0.16230827040E+03 -0.23368510024E+03  0.10955005034E+03  0.30488344372E+03  0.25500000920E-02 0. -1.
       -2    1    3    3    0  502 -0.16230827040E+03  0.23368510024E+03  0.44490147737E+03  0.52810039319E+03  0.25500000920E-02 0.  1.
</event>
<event>
 5   0  0.1532571E-01  0.6455894E+03  0.7818609E-02  0.9815091E-01
        2   -1    0    0  501    0  0.00000000000E+00  0.00000000000E+00  0.85099178903E+03  0.85099178903E+03  0.25500000920E-02 0. -1.
       -2   -1    0    0    0  501  0.00000000000E+00  0.00000000000E+00 -0.12244116941E+03  0.12244116943E+03  0.25500000920E-02 0.  1.
    10030    2    1    2    0    0  0.00000000000E+00  0.00000000000E+00  0.72855061962E+03  0.97343295847E+03  0.64558943553E+03 0.  0.
        1    1    3    3  502    0 -0.76184555418E+02 -0.30444004225E+03  0.47819914312E+03  0.57198098422E+03  0.50400001928E-02 0.  1.
       -1    1    3    3    0  502  0.76184555418E+02  0.30444004225E+03  0.25035147651E+03  0.40145197424E+03  0.50400001928E-02 0. -1.
</event>
<event>
 5   0  0.9411028E-02  0.6222901E+03  0.7818609E-02  0.9860211E-01
       -1   -1    0    0    0  501  0.00000000000E+00  0.00000000000E+00  0.22826409805E+03  0.22826409811E+03  0.50400001928E-02 0. -1.
        1   -1    0    0  501    0  0.00000000000E+00  0.00000000000E+00 -0.42411944366E+03  0.42411944369E+03  0.50400001928E-02 0.  1.
    10030    2    1    2    0    0  0.00000000000E+00  0.00000000000E+00 -0.19585534561E+03  0.65238354179E+03  0.62229010052E+03 0.  0.
        4    1    3    3  502    0 -0.19208061664E+03 -0.21381776644E+03 -0.22283925760E+03  0.36369210627E+03  0.12699999809E+01 0.  1.
       -4    1    3    3    0  502  0.19208061664E+03  0.21381776644E+03  0.26983911996E+02  0.28869143552E+03  0.12699999809E+01 0. -1.
</event>
<event>
 5   0  0.1502642E-01  0.5531501E+03  0.7818609E-02  0.1000767E+00
        2   -1    0    0  501    0  0.00000000000E+00  0.00000000000E+00  0.10532570028E+04  0.10532570028E+04  0.25500000920E-02 0. -1.
       -2   -1    0    0    0  501  0.00000000000E+00  0.00000000000E+00 -0.72625916988E+02  0.72625917033E+02  0.25500000920E-02 0.  1.
    10030    2    1    2    0    0  0.00000000000E+00  0.00000000000E+00  0.98063108579E+03  0.11258829198E+04  0.55315009058E+03 0.  0.
        2    1    3    3  502    0  0.46881161482E+02 -0.26519051072E+03  0.61856050735E+03  0.67464135030E+03  0.25500000920E-02 0. -1.
       -2    1    3    3    0  502 -0.46881161482E+02  0.26519051072E+03  0.36207057843E+03  0.45124156951E+03  0.25500000920E-02 0.  1.
</event>
<event>
 5   0  0.9420349E-02  0.5476937E+03  0.7818609E-02  0.1002029E+00
        1   -1    0    0  501    0  0.00000000000E+00  0.00000000000E+00  0.79772895541E+03  0.79772895542E+03  0.50400001928E-02 0. -1.
       -1   -1    0    0    0  501  0.00000000000E+00  0.00000000000E+00 -0.94006973500E+02  0.94006973635E+02  0.50400001928E-02 0.  1.
    10030    2    1    2    0    0  0.00000000000E+00  0.00000000000E+00  0.70372198191E+03  0.89173592906E+03  0.54769365466E+03 0.  0.
        2    1    3    3  502    0  0.15526467677E+03  0.22455375740E+03  0.38680307024E+03  0.47344284235E+03  0.25500000920E-02 0.  1.
       -2    1    3    3    0  502 -0.15526467677E+03 -0.22455375740E+03  0.31691891166E+03  0.41829308671E+03  0.25500000920E-02 0. -1.
</event>
<event>
 5   0  0.9497860E-02  0.6116811E+03  0.7818609E-02  0.9881464E-01
       -1   -1    0    0    0  501  0.00000000000E+00  0.00000000000E+00  0.16697130325E+03  0.16697130333E+03  0.50400001928E-02 0.  1.
        1   -1    0    0  501    0  0.00000000000E+00  0.00000000000E+00 -0.56020666974E+03  0.56020666976E+03  0.50400001928E-02 0. -1.
    10030    2    1    2    0    0  0.00000000000E+00  0.00000000000E+00 -0.39323536649E+03  0.72717797309E+03  0.61168108609E+03 0.  0.
        5    1    3    3  502    0  0.35023885497E+02 -0.24979742233E+02 -0.55654852651E+03  0.55822845900E+03  0.46999998093E+01 0. -1.
       -5    1    3    3    0  502 -0.35023885497E+02  0.24979742233E+02  0.16331316002E+03  0.16894951409E+03  0.46999998093E+01 0.  1.
</event>
<event>
 5   0  0.9177281E-02  0.5948704E+03  0.7818609E-02  0.9916106E-01
        1   -1    0    0  501    0  0.00000000000E+00  0.00000000000E+00  0.17535535387E+04  0.17535535387E+04  0.50400001928E-02 0.  1.
       -1   -1    0    0    0  501  0.00000000000E+00  0.00000000000E+00 -0.50450525463E+02  0.50450525715E+02  0.50400001928E-02 0. -1.
    10030    2    1    2    0    0  0.00000000000E+00  0.00000000000E+00  0.17031030132E+04  0.18040040644E+04  0.59487039828E+03 0.  0.
        1    1    3    3  502    0  0.24023753629E+03 -0.10532889131E+03  0.42634410238E+03  0.50057720968E+03  0.50400001928E-02 0.  1.
       -1    1    3    3    0  502 -0.24023753629E+03  0.10532889131E+03  0.12767589108E+04  0.13034268547E+04  0.50400001928E-02 0. -1.
</event>
<event>
 5   0  0.1488510E-01  0.5858810E+03  0.7818609E-02  0.9935139E-01
       -2   -1    0    0    0  501  0.00000000000E+00  0.00000000000E+00  0.65564387792E+02  0.65564387841E+02  0.25500000920E-02 0.  1.
        2   -1    0    0  501    0  0.00000000000E+00  0.00000000000E+00 -0.13088527280E+04  0.13088527280E+04  0.25500000920E-02 0. -1.
    10030    2    1    2    0    0  0.00000000000E+00  0.00000000000E+00 -0.12432883402E+04  0.13744171159E+04  0.58588097036E+03 0.  0.
        5    1    3    3  502    0  0.65991575060E+02 -0.15466887580E+03 -0.11842426438E+04  0.11961312965E+04  0.46999998093E+01 0. -1.
       -5    1    3    3    0  502 -0.65991575060E+02  0.15466887580E+03 -0.59045696453E+02  0.17828581937E+03  0.46999998093E+01 0.  1.
</event>
<event>
 5   0  0.1502642E-01  0.5872188E+03  0.7818609E-02  0.9932283E-01
       -2   -1    0    0    0  501  0.00000000000E+00  0.00000000000E+00  0.43284475668E+03  0.43284475669E+03  0.25500000920E-02 0.  1.
        2   -1    0    0  501    0  0.00000000000E+00  0.00000000000E+00 -0.19916261092E+03  0.19916261093E+03  0.25500000920E-02 0. -1.
    10030    2    1    2    0    0  0.00000000000E+00  0.00000000000E+00  0.23368214576E+03  0.63200736762E+03  0.58721884121E+03 0.  0.
        2    1    3    3  502    0 -0.16172173600E+03  0.67293168639E+02 -0.13676714364E+03  0.22223308040E+03  0.25500000920E-02 0. -1.
       -2    1    3    3    0  502  0.16172173600E+03 -0.67293168639E+02  0.37044928940E+03  0.40977428722E+03  0.25500000920E-02 0.  1.
</event>
<event>
 5   0  0.9497860E-02  0.6046530E+03  0.7818609E-02  0.9895799E-01
       -1   -1    0    0    0  501  0.00000000000E+00  0.00000000000E+00  0.77095307838E+02  0.77095308003E+02  0.50400001928E-02 0.  1.
        1   -1    0    0  501    0  0.00000000000E+00  0.00000000000E+00 -0.11855625225E+04  0.11855625225E+04  0.50400001928E-02 0. -1.
    10030    2    1    2    0    0  0.00000000000E+00  0.00000000000E+00 -0.11084672147E+04  0.12626578305E+04  0.60465298393E+03 0.  0.
        5    1    3    3  502    0 -0.14123190711E+03  0.15721182996E+02  0.29208164568E+01  0.14221191353E+03  0.46999998093E+01 0.  1.
       -5    1    3    3    0  502  0.14123190711E+03 -0.15721182996E+02 -0.11113880311E+04  0.11204459170E+04  0.46999998093E+01 0. -1.
</event>
<event>
 5   0  0.6170500E-02  0.5914111E+03  0.7818609E-02  0.9923387E-01
       -3   -1    0    0    0  501  0.00000000000E+00  0.00000000000E+00  0.44975287515E+03  0.44975288649E+03  0.10100000352E+00 0. -1.
        3   -1    0    0  501    0  0.00000000000E+00  0.00000000000E+00 -0.19442181949E+03  0.19442184573E+03  0.10100000352E+00 0.  1.
    10030    2    1    2    0    0  0.00000000000E+00  0.00000000000E+00  0.25533105566E+03  0.64417473222E+03  0.59141114096E+03 0.  0.
        3    1    3    3  502    0  0.19466970793E+03 -0.29729357918E+02 -0.11260891236E+03  0.22684996639E+03  0.10100000352E+00 0.  1.
       -3    1    3    3    0  502 -0.19466970793E+03  0.29729357918E+02  0.36793996802E+03  0.41732476583E+03  0.10100000352E+00 0. -1.
</event>
<event>
 5   0  0.9497860E-02  0.6045899E+03  0.7818609E-02  0.9895929E-01
        1   -1    0    0  501    0  0.00000000000E+00  0.00000000000E+00  0.33221973114E+03  0.33221973118E+03  0.50400001928E-02 0. -1.
       -1   -1    0    0    0  501  0.00000000000E+00  0.00000000000E+00 -0.27506569156E+03  0.27506569160E+03  0.50400001928E-02 0.  1.
    10030    2    1    2    0    0  0.00000000000E+00  0.00000000000E+00  0.57154039581E+02  0.60728542278E+03  0.60458994408E+03 0.  0.
        5    1    3    3  502    0  0.31983141693E+02 -0.27534895049E+03  0.14961401955E+03  0.31503398346E+03  0.46999998093E+01 0. -1.
       -5    1    3    3    0  502 -0.31983141693E+02  0.27534895049E+03 -0.92459979970E+02  0.29225143932E+03  0.46999998093E+01 0.  1.
</event>
<event>
 5   0  0.6170500E-02  0.6068151E+03  0.7818609E-02  0.9891367E-01
        4   -1    0    0  501    0  0.00000000000E+00  0.00000000000E+00  0.57172108221E+03  0.57172249277E+03  0.12699999809E+01 0.  1.
       -4   -1    0    0    0  501  0.00000000000E+00  0.00000000000E+00 -0.16101169906E+03  0.16101670762E+03  0.12699999809E+01 0. -1.
    10030    2    1    2    0    0  0.00000000000E+00  0.00000000000E+00  0.41070938315E+03  0.73273920040E+03  0.60681507759E+03 0.  0.
        5    1    3    3  502    0 -0.26144447666E+03 -0.12780436778E+03  0.30885564560E+03  0.42438316486E+03  0.46999998093E+01 0.  1.
       -5    1    3    3    0  502  0.26144447666E+03  0.12780436778E+03  0.10185373755E+03  0.30835603554E+03  0.46999998093E+01 0. -1.
</event>
<event>
 5   0  0.9177281E-02  0.5964340E+03  0.7818609E-02  0.9912832E-01
        1   -1    0    0  501    0  0.00000000000E+00  0.00000000000E+00  0.20391517293E+03  0.20391517299E+03  0.50400001928E-02 0. -1.
       -1   -1    0    0    0  501  0.00000000000E+00  0.00000000000E+00 -0.43612935948E+03  0.43612935951E+03  0.50400001928E-02 0.  1.
    10030    2    1    2    0    0  0.00000000000E+00  0.00000000000E+00 -0.23221418655E+03  0.64004453250E+03  0.59643404929E+03 0.  0.
        1    1    3    3  502    0  0.15013270531E+03 -0.11323270182E+03  0.13227276131E+03  0.22990771491E+03  0.50400001928E-02 0. -1.
       -1    1    3    3    0  502 -0.15013270531E+03  0.11323270182E+03 -0.36448694786E+03  0.41013681760E+03  0.50400001928E-02 0.  1.
</event>
<event>
 5   0  0.1502642E-01  0.6013555E+03  0.7818609E-02  0.9902598E-01
       -2   -1    0    0    0  501  0.00000000000E+00  0.00000000000E+00  0.11907835682E+03  0.11907835685E+03  0.25500000920E-02 0.  1.
        2   -1    0    0  501    0  0.00000000000E+00  0.00000000000E+00 -0.75922370935E+03  0.75922370935E+03  0.25500000920E-02 0. -1.
    10030    2    1    2    0    0  0.00000000000E+00  0.00000000000E+00 -0.64014535253E+03  0.87830206620E+03  0.60135550811E+03 0.  0.
        2    1    3    3  502    0 -0.71261898703E+01  0.64278426324E+02  0.10879986214E+03  0.12656977791E+03  0.25500000920E-02 0.  1.
       -2    1    3    3    0  502  0.71261898703E+01 -0.64278426324E+02 -0.74894521467E+03  0.75173228829E+03  0.25500000920E-02 0. -1.
</event>
<event>
 5   0  0.9177281E-02  0.6171599E+03  0.7818609E-02  0.9870431E-01
        1   -1    0    0  501    0  0.00000000000E+00  0.00000000000E+00  0.25651178517E+03  0.25651178522E+03  0.50400001928E-02 0.  1.
       -1   -1    0    0    0  501  0.00000000000E+00  0.00000000000E+00 -0.37121714988E+03  0.37121714992E+03  0.50400001928E-02 0. -1.
    10030    2    1    2    0    0  0.00000000000E+00  0.00000000000E+00 -0.11470536471E+03  0.62772893513E+03  0.61715986204E+03 0.  0.
        1    1    3    3  502    0 -0.10718288514E+03  0.18052320440E+03 -0.28737772155E+03  0.35589711022E+03  0.50400001928E-02 0. -1.
       -1    1    3    3    0  502  0.10718288514E+03 -0.18052320440E+03  0.17267235683E+03  0.27183182491E+03  0.50400001928E-02 0.  1.
</event>
<event>
 5   0  0.6170500E-02  0.6000699E+03  0.7818609E-02  0.9905261E-01
        3   -1    0    0  501    0  0.00000000000E+00  0.00000000000E+00  0.10731399737E+04  0.10731399784E+04  0.10100000352E+00 0. -1.
       -3   -1    0    0    0  501  0.00000000000E+00  0.00000000000E+00 -0.83885548285E+02  0.83885609088E+02  0.10100000352E+00 0.  1.
    10030    2    1    2    0    0  0.00000000000E+00  0.00000000000E+00  0.98925442539E+03  0.11570255875E+04  0.60006990594E+03 0.  0.
        4    1    3    3  502    0  0.27103809860E+03  0.55173048328E+02  0.71877133371E+03  0.77015554223E+03  0.12699999809E+01 0. -1.
       -4    1    3    3    0  502 -0.27103809860E+03 -0.55173048328E+02  0.27048309167E+03  0.38687004528E+03  0.12699999809E+01 0.  1.
</event>
<event>
 5   0  0.6170500E-02  0.6386734E+03  0.7818609E-02  0.9828268E-01
       -3   -1    0    0    0  501  0.00000000000E+00  0.00000000000E+00  0.28412259500E+03  0.28412261295E+03  0.10100000352E+00 0. -1.
        3   -1    0    0  501    0  0.00000000000E+00  0.00000000000E+00 -0.35891519508E+03  0.35891520929E+03  0.10100000352E+00 0.  1.
    10030    2    1    2    0    0  0.00000000000E+00  0.00000000000E+00 -0.74792600088E+02  0.64303782224E+03  0.63867339682E+03 0.  0.
        3    1    3    3  502    0  0.78378387463E+02  0.13379059667E+03  0.24367589873E+03  0.28882702297E+03  0.10100000352E+00 0. -1.
       -3    1    3    3    0  502 -0.78378387463E+02 -0.13379059667E+03 -0.31846849881E+03  0.35421079927E+03  0.10100000352E+00 0.  1.
</event>
<event>
 5   0  0.1488510E-01  0.6250141E+03  0.7818609E-02  0.9854827E-01
        2   -1    0    0  501    0  0.00000000000E+00  0.00000000000E+00  0.52314579198E+03  0.52314579199E+03  0.25500000920E-02 0.  1.
       -2   -1    0    0    0  501  0.00000000000E+00  0.00000000000E+00 -0.18667959969E+03  0.18667959971E+03  0.25500000920E-02 0. -1.
    10030    2    1    2    0    0  0.00000000000E+00  0.00000000000E+00  0.33646619229E+03  0.70982539170E+03  0.62501407036E+03 0.  0.
        5    1    3    3  502    0  0.75466618160E+02  0.17583325786E+03  0.44878888330E+03  0.48789967903E+03  0.46999998093E+01 0.  1.
       -5    1    3    3    0  502 -0.75466618160E+02 -0.17583325786E+03 -0.11232269102E+03  0.22192571266E+03  0.46999998093E+01 0. -1.
</event>
<event>
 5   0  0.8860626E-02  0.6221423E+03  0.7818609E-02  0.9860504E-01
       -1   -1    0    0    0  501  0.00000000000E+00  0.00000000000E+00  0.15617106034E+03  0.15617106042E+03  0.50400001928E-02 0.  1.
        1   -1    0    0  501    0  0.00000000000E+00  0.00000000000E+00 -0.61961074514E+03  0.61961074516E+03  0.50400001928E-02 0. -1.
    10030    2    1    2    0    0  0.00000000000E+00  0.00000000000E+00 -0.46343968480E+03  0.77578180558E+03  0.62214232167E+03 0.  0.
        3    1    3    3  502    0  0.27589813182E+03 -0.13362724980E+03 -0.16586427968E+03  0.34854983935E+03  0.10100000352E+00 0.  1.
       -3    1    3    3    0  502 -0.27589813182E+03  0.13362724980E+03 -0.29757540512E+03  0.42723196623E+03  0.10100000352E+00 0. -1.
</event>
<event>
 5   0  0.9497860E-02  0.6196434E+03  0.7818609E-02  0.9865470E-01
       -1   -1    0    0    0  501  0.00000000000E+00  0.00000000000E+00  0.79056899397E+03  0.79056899398E+03  0.50400001928E-02 0. -1.
        1   -1    0    0  501    0  0.00000000000E+00  0.00000000000E+00 -0.12141821247E+03  0.12141821258E+03  0.50400001928E-02 0.  1.
    10030    2    1    2    0    0  0.00000000000E+00  0.00000000000E+00  0.66915078149E+03  0.91198720656E+03  0.61964336239E+03 0.  0.
        5    1    3    3  502    0  0.28655894901E+03  0.67443237775E+02  0.47653111585E+03  0.56015052972E+03  0.46999998093E+01 0. -1.
       -5    1    3    3    0  502 -0.28655894901E+03 -0.67443237775E+02  0.19261966564E+03  0.35183667684E+03  0.46999998093E+01 0.  1.
</event>
<event>
 5   0  0.8860626E-02  0.5999730E+03  0.7818609E-02  0.9905462E-01
        1   -1    0    0  501    0  0.00000000000E+00  0.00000000000E+00  0.13104587339E+04  0.13104587339E+04  0.50400001928E-02 0.  1.
       -1   -1    0    0    0  501  0.00000000000E+00  0.00000000000E+00 -0.68672061834E+02  0.68672062019E+02  0.50400001928E-02 0. -1.
    10030    2    1    2    0    0  0.00000000000E+00  0.00000000000E+00  0.12417866720E+04  0.13791307959E+04  0.59997301052E+03 0.  0.
        3    1    3    3  502    0 -0.28290593419E+03 -0.73955591930E+02  0.77486367371E+03  0.82820222181E+03  0.10100000352E+00 0.  1.
       -3    1    3    3    0  502  0.28290593419E+03  0.73955591930E+02  0.46692299834E+03  0.55092857410E+03  0.10100000352E+00 0. -1.
</event>
<event>
 5   0  0.1502642E-01  0.6061044E+03  0.7818609E-02  0.9892822E-01
       -2   -1    0    0    0  501  0.00000000000E+00  0.00000000000E+00  0.10334907431E+03  0.10334907434E+03  0.25500000920E-02 0. -1.
        2   -1    0    0  501    0  0.00000000000E+00  0.00000000000E+00 -0.88864492834E+03  0.88864492834E+03  0.25500000920E-02 0.  1.
    10030    2    1    2    0    0  0.00000000000E+00  0.00000000000E+00 -0.78529585403E+03  0.99199400268E+03  0.60610438291E+03 0.  0.
        2    1    3    3  502    0  0.15511621193E+03  0.25759897488E+03 -0.45437367170E+03  0.54486117921E+03  0.25500000920E-02 0.  1.
       -2    1    3    3    0  502 -0.15511621193E+03 -0.25759897488E+03 -0.33092218233E+03  0.44713282347E+03  0.25500000920E-02 0. -1.
</event>
<event>
 5   0  0.9497860E-02  0.6127829E+03  0.7818609E-02  0.9879235E-01
       -1   -1    0    0    0  501  0.00000000000E+00  0.00000000000E+00  0.56716877982E+03  0.56716877985E+03  0.50400001928E-02 0.  1.
        1   -1    0    0  501    0  0.00000000000E+00  0.00000000000E+00 -0.16551636052E+03  0.16551636060E+03  0.50400001928E-02 0. -1.
    10030    2    1    2    0    0  0.00000000000E+00  0.00000000000E+00  0.40165241930E+03  0.73268514045E+03  0.61278287272E+03 0.  0.
        5    1    3    3  502    0 -0.70946610410E+02  0.16877843263E+03  0.49451811313E+03  0.52734223713E+03  0.46999998093E+01 0.  1.
       -5    1    3    3    0  502  0.70946610410E+02 -0.16877843263E+03 -0.92865693834E+02  0.20534290331E+03  0.46999998093E+01 0. -1.
</event>
<event>
 5   0  0.9177281E-02  0.6463559E+03  0.7818609E-02  0.9813641E-01
        1   -1    0    0  501    0  0.00000000000E+00  0.00000000000E+00  0.44673078738E+03  0.44673078741E+03  0.50400001928E-02 0. -1.
       -1   -1    0    0    0  501  0.00000000000E+00  0.00000000000E+00 -0.23379623734E+03  0.23379623740E+03  0.50400001928E-02 0.  1.
    10030    2    1    2    0    0  0.00000000000E+00  0.00000000000E+00  0.21293455004E+03  0.68052702481E+03  0.64635586861E+03 0.  0.
        1    1    3    3  502    0  0.21790896284E+03 -0.19800161962E+03  0.24675971216E+03  0.38416053028E+03  0.50400001928E-02 0. -1.
       -1    1    3    3    0  502 -0.21790896284E+03  0.19800161962E+03 -0.33825162121E+02  0.29636649452E+03  0.50400001928E-02 0.  1.
</event>
<event>
 5   0  0.1502642E-01  0.6053672E+03  0.7818609E-02  0.9894333E-01
       -2   -1    0    0    0  501  0.00000000000E+00  0.00000000000E+00  0.80556491026E+02  0.80556491066E+02  0.25500000920E-02 0.  1.
        2   -1    0    0  501    0  0.00000000000E+00  0.00000000000E+00 -0.11373057455E+04  0.11373057456E+04  0.25500000920E-02 0. -1.
    10030    2    1    2    0    0  0.00000000000E+00  0.00000000000E+00 -0.10567492545E+04  0.12178622366E+04  0.60536719472E+03 0.  0.
        2    1    3    3  502    0 -0.71243171300E+02  0.14702219139E+03 -0.15761849337E+02  0.16413272105E+03  0.25500000920E-02 0.  1.
       -2    1    3    3    0  502  0.71243171300E+02 -0.14702219139E+03 -0.10409874052E+04  0.10537295156E+04  0.25500000920E-02 0. -1.
</event>
<event>
 5   0  0.6170500E-02  0.5617904E+03  0.7818609E-02  0.9988012E-01
        4   -1    0    0  501    0  0.00000000000E+00  0.00000000000E+00  0.28632613824E+03  0.28632895477E+03  0.12699999809E+01 0. -1.
       -4   -1    0    0    0  501  0.00000000000E+00  0.00000000000E+00 -0.27556163357E+03  0.27556456013E+03  0.12699999809E+01 0.  1.
    10030    2    1    2    0    0  0.00000000000E+00  0.00000000000E+00  0.10764504672E+02  0.56189351490E+03  0.56179039465E+03 0.  0.
        4    1    3    3  502    0 -0.49742753948E+02  0.12252421744E+02 -0.27084960690E+03  0.27565483102E+03  0.12699999809E+01 0.  1.
       -4    1    3    3    0  502  0.49742753948E+02 -0.12252421744E+02  0.28161411157E+03  0.28623868387E+03  0.12699999809E+01 0. -1.
</event>
<event>
 5   0  0.9420349E-02  0.5258319E+03  0.7818609E-02  0.1007248E+00
        1   -1    0    0  501    0  0.00000000000E+00  0.00000000000E+00  0.24761943538E+03  0.24761943543E+03  0.50400001928E-02 0.  1.
       -1   -1    0    0    0  501  0.00000000000E+00  0.00000000000E+00 -0.27915734990E+03  0.27915734994E+03  0.50400001928E-02 0. -1.
    10030    2    1    2    0    0  0.00000000000E+00  0.00000000000E+00 -0.31537914513E+02  0.52677678538E+03  0.52583185674E+03 0.  0.
        2    1    3    3  502    0 -0.20446076148E+02 -0.12711560251E+03  0.21387728642E+03  0.24963956434E+03  0.25500000920E-02 0.  1.
       -2    1    3    3    0  502  0.20446076148E+02  0.12711560251E+03 -0.24541520093E+03  0.27713722104E+03  0.25500000920E-02 0. -1.
</event>
<event>
 5   0  0.9420349E-02  0.6059000E+03  0.7818609E-02  0.9893241E-01
        1   -1    0    0  501    0  0.00000000000E+00  0.00000000000E+00  0.95787511683E+02  0.95787511815E+02  0.50400001928E-02 0. -1.
       -1   -1    0    0    0  501  0.00000000000E+00  0.00000000000E+00 -0.95814882017E+03  0.95814882018E+03  0.50400001928E-02 0.  1.
    10030    2    1    2    0    0  0.00000000000E+00  0.00000000000E+00 -0.86236130848E+03  0.10539363320E+04  0.60589996330E+03 0.  0.
        2    1    3    3  502    0 -0.13660971909E+03  0.22502711066E+03 -0.17038244513E+03  0.31357549888E+03  0.25500000920E-02 0. -1.
       -2    1    3    3    0  502  0.13660971909E+03 -0.22502711066E+03 -0.69197886335E+03  0.74036083312E+03  0.25500000920E-02 0.  1.
</event>
<event>
 5   0  0.9411028E-02  0.6057907E+03  0.7818609E-02  0.9893464E-01
        1   -1    0    0  501    0  0.00000000000E+00  0.00000000000E+00  0.17213480454E+04  0.17213480454E+04  0.50400001928E-02 0. -1.
       -1   -1    0    0    0  501  0.00000000000E+00  0.00000000000E+00 -0.53298692292E+02  0.53298692530E+02  0.50400001928E-02 0.  1.
    10030    2    1    2    0    0  0.00000000000E+00  0.00000000000E+00  0.16680493531E+04  0.17746467379E+04  0.60579072299E+03 0.  0.
        4    1    3    3  502    0  0.13002093087E+03 -0.12933868815E+03  0.15402038664E+04  0.15510846211E+04  0.12699999809E+01 0. -1.
       -4    1    3    3    0  502 -0.13002093087E+03  0.12933868815E+03  0.12784548663E+03  0.22356211680E+03  0.12699999809E+01 0.  1.
</event>
<event>
 5   0  0.9497860E-02  0.5914365E+03  0.7818609E-02  0.9923334E-01
        1   -1    0    0  501    0  0.00000000000E+00  0.00000000000E+00  0.44824632385E+03  0.44824632388E+03  0.50400001928E-02 0. -1.
       -1   -1    0    0    0  501  0.00000000000E+00  0.00000000000E+00 -0.19509199283E+03  0.19509199289E+03  0.50400001928E-02 0.  1.
    10030    2    1    2    0    0  0.00000000000E+00  0.00000000000E+00  0.25315433102E+03  0.64333831677E+03  0.59143645010E+03 0.  0.
        5    1    3    3  502    0  0.71195528522E+02 -0.13141551677E+02  0.43841542305E+03  0.44437785366E+03  0.46999998093E+01 0. -1.
       -5    1    3    3    0  502 -0.71195528522E+02  0.13141551677E+02 -0.18526109202E+03  0.19896046310E+03  0.46999998093E+01 0.  1.
</event>
<event>
 5   0  0.8860626E-02  0.6536468E+03  0.7818609E-02  0.9799960E-01
        1   -1    0    0  501    0  0.00000000000E+00  0.00000000000E+00  0.47077177310E+03  0.47077177312E+03  0.50400001928E-02 0. -1.
       -1   -1    0    0    0  501  0.00000000000E+00  0.00000000000E+00 -0.22689027649E+03  0.22689027654E+03  0.50400001928E-02 0.  1.
    10030    2    1    2    0    0  0.00000000000E+00  0.00000000000E+00  0.24388149661E+03  0.69766204967E+03  0.65364680918E+03 0.  0.
        3    1    3    3  502    0 -0.15387531817E+02  0.27626431368E+03 -0.63710963000E+02  0.28393281628E+03  0.10100000352E+00 0.  1.
       -3    1    3    3    0  502  0.15387531817E+02 -0.27626431368E+03  0.30759245961E+03  0.41372923339E+03  0.10100000352E+00 0. -1.
</event>
<event>
 5   0  0.1488510E-01  0.6066522E+03  0.7818609E-02  0.9891700E-01
        2   -1    0    0  501    0  0.00000000000E+00  0.00000000000E+00  0.12266810153E+04  0.12266810153E+04  0.25500000920E-02 0. -1.
       -2   -1    0    0    0  501  0.00000000000E+00  0.00000000000E+00 -0.75004594547E+02  0.75004594590E+02  0.25500000920E-02 0.  1.
    10030    2    1    2    0    0  0.00000000000E+00  0.00000000000E+00  0.11516764208E+04  0.13016856099E+04  0.60665216467E+03 0.  0.
        5    1    3    3  502    0 -0.21681909025E+03 -0.17995101747E+03  0.33506445267E+03  0.43781635880E+03  0.46999998093E+01 0.  1.
       -5    1    3    3    0  502  0.21681909025E+03  0.17995101747E+03  0.81661196812E+03  0.86386925114E+03  0.46999998093E+01 0. -1.
</event>
<event>
 5   0  0.9497860E-02  0.4267030E+03  0.7818609E-02  0.1034907E+00
        1   -1    0    0  501    0  0.00000000000E+00  0.00000000000E+00  0.31842851322E+03  0.31842851326E+03  0.50400001928E-02 0. -1.
       -1   -1    0    0    0  501  0.00000000000E+00  0.00000000000E+00 -0.14294844746E+03  0.14294844755E+03  0.50400001928E-02 0.  1.
    10030    2    1    2    0    0  0.00000000000E+00  0.00000000000E+00  0.17548006577E+03  0.46137696081E+03  0.42670299564E+03 0.  0.
        5    1    3    3  502    0  0.17282478989E+03 -0.12300927482E+03  0.63632975586E+02  0.22151960471E+03  0.46999998093E+01 0. -1.
       -5    1    3    3    0  502 -0.17282478989E+03  0.12300927482E+03  0.11184709018E+03  0.23985735609E+03  0.46999998093E+01 0.  1.
</event>
<event>
 5   0  0.1483942E-01  0.5933169E+03  0.7818609E-02  0.9919369E-01
        2   -1    0    0  501    0  0.00000000000E+00  0.00000000000E+00  0.11242028203E+04  0.11242028203E+04  0.25500000920E-02 0.  1.
       -2   -1    0    0    0  501  0.00000000000E+00  0.00000000000E+00 -0.78283248389E+02  0.78283248430E+02  0.25500000920E-02 0. -1.
    10030    2    1    2    0    0  0.00000000000E+00  0.00000000000E+00  0.10459195719E+04  0.12024860688E+04  0.59331694279E+03 0.  0.
        4    1    3    3  502    0  0.28782146752E+02  0.48071602761E+02 -0.67456724118E+02  0.87700133935E+02  0.12699999809E+01 0. -1.
       -4    1    3    3    0  502 -0.28782146752E+02 -0.48071602761E+02  0.11133762961E+04  0.11147859348E+04  0.12699999809E+01 0.  1.
</event>
<event>
 5   0  0.8860626E-02  0.6464687E+03  0.7818609E-02  0.9813428E-01
        1   -1    0    0  501    0  0.00000000000E+00  0.00000000000E+00  0.46385768933E+03  0.46385768935E+03  0.50400001928E-02 0.  1.
       -1   -1    0    0    0  501  0.00000000000E+00  0.00000000000E+00 -0.22524245093E+03  0.22524245098E+03  0.50400001928E-02 0. -1.
    10030    2    1    2    0    0  0.00000000000E+00  0.00000000000E+00  0.23861523840E+03  0.68910014034E+03  0.64646869330E+03 0.  0.
        3    1    3    3  502    0  0.34683769495E+02 -0.25559823727E+03 -0.88338405230E+02  0.27264832074E+03  0.10100000352E+00 0. -1.
       -3    1    3    3    0  502 -0.34683769495E+02  0.25559823727E+03  0.32695364363E+03  0.41645181960E+03  0.10100000352E+00 0.  1.
</event>
<event>
 5   0  0.9420349E-02  0.6217639E+03  0.7818609E-02  0.9861254E-01
       -1   -1    0    0    0  501  0.00000000000E+00  0.00000000000E+00  0.87158750266E+02  0.87158750412E+02  0.50400001928E-02 0.  1.
        1   -1    0    0  501    0  0.00000000000E+00  0.00000000000E+00 -0.11088682845E+04  0.11088682845E+04  0.50400001928E-02 0. -1.
    10030    2    1    2    0    0  0.00000000000E+00  0.00000000000E+00 -0.10217095342E+04  0.11960270349E+04  0.62176385865E+03 0.  0.
        2    1    3    3  502    0  0.13656358192E+03  0.56723711765E+01  0.26260570298E+02  0.13918119579E+03  0.25500000920E-02 0.  1.
       -2    1    3    3    0  502 -0.13656358192E+03 -0.56723711765E+01 -0.10479701045E+04  0.10568458391E+04  0.25500000920E-02 0. -1.
</event>
<event>
 5   0  0.9497860E-02  0.6067587E+03  0.7818609E-02  0.9891482E-01
        1   -1    0    0  501    0  0.00000000000E+00  0.00000000000E+00  0.32286298138E+03  0.32286298142E+03  0.50400001928E-02 0. -1.
       -1   -1    0    0    0  501  0.00000000000E+00  0.00000000000E+00 -0.28507147688E+03  0.28507147692E+03  0.50400001928E-02 0.  1.
    10030    2    1    2    0    0  0.00000000000E+00  0.00000000000E+00  0.37791504502E+02  0.60793445834E+03  0.60675868995E+03 0.  0.
        5    1    3    3  502    0 -0.18655086605E+02  0.61713007529E+02 -0.27809123183E+03  0.28550539535E+03  0.46999998093E+01 0.  1.
       -5    1    3    3    0  502  0.18655086605E+02 -0.61713007529E+02  0.31588273633E+03  0.32242906300E+03  0.46999998093E+01 0. -1.
</event>
<event>
 5   0  0.1532571E-01  0.6022711E+03  0.7818609E-02  0.9900705E-01
       -2   -1    0    0    0  501  0.00000000000E+00  0.00000000000E+00  0.37739461010E+03  0.37739461011E+03  0.25500000920E-02 0.  1.
        2   -1    0    0  501    0  0.00000000000E+00  0.00000000000E+00 -0.24028597507E+03  0.24028597508E+03  0.25500000920E-02 0. -1.
    10030    2    1    2    0    0  0.00000000000E+00  0.00000000000E+00  0.13710863504E+03  0.61768058519E+03  0.60227114120E+03 0.  0.
        1    1    3    3  502    0  0.25459334594E+03  0.79430798608E+02  0.21197360546E+03  0.34067555386E+03  0.50400001928E-02 0.  1.
       -1    1    3    3    0  502 -0.25459334594E+03 -0.79430798608E+02 -0.74864970421E+02  0.27700503133E+03  0.50400001928E-02 0. -1.
</event>
<event>
 5   0  0.1513339E-01  0.5911333E+03  0.7818609E-02  0.9923974E-01
        2   -1    0    0  501    0  0.00000000000E+00  0.00000000000E+00  0.13086850730E+04  0.13086850730E+04  0.25500000920E-02 0.  1.
       -2   -1    0    0    0  501  0.00000000000E+00  0.00000000000E+00 -0.66753753222E+02  0.66753753271E+02  0.25500000920E-02 0. -1.
    10030    2    1    2    0    0  0.00000000000E+00  0.00000000000E+00  0.12419313197E+04  0.13754388262E+04  0.59113328595E+03 0.  0.
        3    1    3    3  502    0 -0.12915775420E+03 -0.10036325900E+03  0.48155745427E+02  0.17050951659E+03  0.10100000352E+00 0. -1.
       -3    1    3    3    0  502  0.12915775420E+03  0.10036325900E+03  0.11937755743E+04  0.12049293096E+04  0.10100000352E+00 0.  1.
</event>
<event>
 5   0  0.6170500E-02  0.5821644E+03  0.7818609E-02  0.9943116E-01
       -3   -1    0    0    0  501  0.00000000000E+00  0.00000000000E+00  0.71087091169E+03  0.71087091886E+03  0.10100000352E+00 0.  1.
        3   -1    0    0  501    0  0.00000000000E+00  0.00000000000E+00 -0.11919016368E+03  0.11919020647E+03  0.10100000352E+00 0. -1.
    10030    2    1    2    0    0  0.00000000000E+00  0.00000000000E+00  0.59168074801E+03  0.83006112533E+03  0.58216437903E+03 0.  0.
        5    1    3    3  502    0  0.10279543251E+03 -0.18984310800E+03  0.57414714188E+03  0.61341204515E+03  0.46999998093E+01 0.  1.
       -5    1    3    3    0  502 -0.10279543251E+03  0.18984310800E+03  0.17533606126E+02  0.21664908018E+03  0.46999998093E+01 0. -1.
</event>
<event>
 5   0  0.1532571E-01  0.5956586E+03  0.7818609E-02  0.9914454E-01
        2   -1    0    0  501    0  0.00000000000E+00  0.00000000000E+00  0.11938484255E+04  0.11938484255E+04  0.25500000920E-02 0.  1.
       -2   -1    0    0    0  501  0.00000000000E+00  0.00000000000E+00 -0.74299449649E+02  0.74299449693E+02  0.25500000920E-02 0. -1.
    10030    2    1    2    0    0  0.00000000000E+00  0.00000000000E+00  0.11195489759E+04  0.12681478752E+04  0.59565856331E+03 0.  0.
        1    1    3    3  502    0 -0.27092017844E+03  0.62041671977E+02  0.78763918598E+03  0.83523792985E+03  0.50400001928E-02 0.  1.
       -1    1    3    3    0  502  0.27092017844E+03 -0.62041671977E+02  0.33190978992E+03  0.43290994539E+03  0.50400001928E-02 0. -1.
</event>
<event>
 5   0  0.1513339E-01  0.6103220E+03  0.7818609E-02  0.9884220E-01
        2   -1    0    0  501    0  0.00000000000E+00  0.00000000000E+00  0.34048378131E+03  0.34048378132E+03  0.25500000920E-02 0. -1.
       -2   -1    0    0    0  501  0.00000000000E+00  0.00000000000E+00 -0.27350268287E+03  0.27350268288E+03  0.25500000920E-02 0.  1.
    10030    2    1    2    0    0  0.00000000000E+00  0.00000000000E+00  0.66981098439E+02  0.61398646419E+03  0.61032197295E+03 0.  0.
        3    1    3    3  502    0  0.29518431185E+03  0.15317210641E+02  0.10980657744E+03  0.31531871107E+03  0.10100000352E+00 0. -1.
       -3    1    3    3    0  502 -0.29518431185E+03 -0.15317210641E+02 -0.42825478997E+02  0.29866775312E+03  0.10100000352E+00 0.  1.
</event>
<event>
 5   0  0.1502642E-01  0.5601079E+03  0.7818609E-02  0.9991810E-01
        2   -1    0    0  501    0  0.00000000000E+00  0.00000000000E+00  0.41521161902E+03  0.41521161902E+03  0.25500000920E-02 0.  1.
       -2   -1    0    0    0  501  0.00000000000E+00  0.00000000000E+00 -0.18889217486E+03  0.18889217487E+03  0.25500000920E-02 0. -1.
    10030    2    1    2    0    0  0.00000000000E+00  0.00000000000E+00  0.22631944416E+03  0.60410379390E+03  0.56010793870E+03 0.  0.
        2    1    3    3  502    0  0.14178102416E+03 -0.21875979224E+03  0.22353338079E+03  0.34340191882E+03  0.25500000920E-02 0.  1.
       -2    1    3    3    0  502 -0.14178102416E+03  0.21875979224E+03  0.27860633727E+01  0.26070187508E+03  0.25500000920E-02 0. -1.
</event>
<event>
 5   0  0.1532571E-01  0.5912797E+03  0.7818609E-02  0.9923665E-01
        2   -1    0    0  501    0  0.00000000000E+00  0.00000000000E+00  0.58111288690E+03  0.58111288690E+03  0.25500000920E-02 0. -1.
       -2   -1    0    0    0  501  0.00000000000E+00  0.00000000000E+00 -0.15040611922E+03  0.15040611924E+03  0.25500000920E-02 0.  1.
    10030    2    1    2    0    0  0.00000000000E+00  0.00000000000E+00  0.43070676768E+03  0.73151900614E+03  0.59127974481E+03 0.  0.
        1    1    3    3  502    0  0.11468860994E+03  0.27194493522E+03  0.19408940465E+03  0.35323960999E+03  0.50400001928E-02 0. -1.
       -1    1    3    3    0  502 -0.11468860994E+03 -0.27194493522E+03  0.23661736303E+03  0.37827939615E+03  0.50400001928E-02 0.  1.
</event>
<event>
 5   0  0.9497860E-02  0.5330241E+03  0.7818609E-02  0.1005501E+00
        1   -1    0    0  501    0  0.00000000000E+00  0.00000000000E+00  0.11328400862E+04  0.11328400862E+04  0.50400001928E-02 0.  1.
       -1   -1    0    0    0  501  0.00000000000E+00  0.00000000000E+00 -0.62699654194E+02  0.62699654397E+02  0.50400001928E-02 0. -1.
    10030    2    1    2    0    0  0.00000000000E+00  0.00000000000E+00  0.10701404320E+04  0.11955397406E+04  0.53302413375E+03 0.  0.
        5    1    3    3  502    0  0.12310932408E+03  0.22308974955E+03  0.70998553516E+03  0.75433844670E+03  0.46999998093E+01 0.  1.
       -5    1    3    3    0  502 -0.12310932408E+03 -0.22308974955E+03  0.36015489684E+03  0.44120129391E+03  0.46999998093E+01 0. -1.
</event>
<event>
 5   0  0.8860626E-02  0.5883512E+03  0.7818609E-02  0.9929873E-01
       -1   -1    0    0    0  501  0.00000000000E+00  0.00000000000E+00  0.49073806227E+03  0.49073806229E+03  0.50400001928E-02 0.  1.
        1   -1    0    0  501    0  0.00000000000E+00  0.00000000000E+00 -0.17634516326E+03  0.17634516333E+03  0.50400001928E-02 0. -1.
    10030    2    1    2    0    0  0.00000000000E+00  0.00000000000E+00  0.31439289900E+03  0.66708322563E+03  0.58835120036E+03 0.  0.
        3    1    3    3  502    0  0.13358528202E+03  0.10845543595E+03 -0.11333659283E+03  0.20604077905E+03  0.10100000352E+00 0. -1.
       -3    1    3    3    0  502 -0.13358528202E+03 -0.10845543595E+03  0.42772949183E+03  0.46104244657E+03  0.10100000352E+00 0.  1.
</event>
<event>
 5   0  0.1502642E-01  0.5991962E+03  0.7818609E-02  0.9907075E-01
       -2   -1    0    0    0  501  0.00000000000E+00  0.00000000000E+00  0.30951923902E+03  0.30951923903E+03  0.25500000920E-02 0.  1.
        2   -1    0    0  501    0  0.00000000000E+00  0.00000000000E+00 -0.28999494928E+03  0.28999494929E+03  0.25500000920E-02 0. -1.
    10030    2    1    2    0    0  0.00000000000E+00  0.00000000000E+00  0.19524289745E+02  0.59951418832E+03  0.59919618166E+03 0.  0.
        2    1    3    3  502    0 -0.20579084307E+03 -0.12677994701E+03 -0.16735154799E+03  0.29398905877E+03  0.25500000920E-02 0. -1.
       -2    1    3    3    0  502  0.20579084307E+03  0.12677994701E+03  0.18687583774E+03  0.30552512956E+03  0.25500000920E-02 0.  1.
</event>
<event>
 5   0  0.8860626E-02  0.5878569E+03  0.7818609E-02  0.9930924E-01
        1   -1    0    0  501    0  0.00000000000E+00  0.00000000000E+00  0.11783769528E+03  0.11783769539E+03  0.50400001928E-02 0.  1.
       -1   -1    0    0    0  501  0.00000000000E+00  0.00000000000E+00 -0.73316039008E+03  0.73316039010E+03  0.50400001928E-02 0. -1.
    10030    2    1    2    0    0  0.00000000000E+00  0.00000000000E+00 -0.61532269480E+03  0.85099808549E+03  0.58785688970E+03 0.  0.
        3    1    3    3  502    0 -0.13453889354E+03  0.11559573842E+03 -0.64694665905E+03  0.67082268780E+03  0.10100000352E+00 0. -1.
       -3    1    3    3    0  502  0.13453889354E+03 -0.11559573842E+03  0.31623964241E+02  0.18017539769E+03  0.10100000352E+00 0.  1.
</event>
<event>
 5   0  0.8860626E-02  0.6257426E+03  0.7818609E-02  0.9853392E-01
        1   -1    0    0  501    0  0.00000000000E+00  0.00000000000E+00  0.10272994812E+04  0.10272994812E+04  0.50400001928E-02 0.  1.
       -1   -1    0    0    0  501  0.00000000000E+00  0.00000000000E+00 -0.95287171715E+02  0.95287171848E+02  0.50400001928E-02 0. -1.
    10030    2    1    2    0    0  0.00000000000E+00  0.00000000000E+00  0.93201230950E+03  0.11225866531E+04  0.62574263767E+03 0.  0.
        3    1    3    3  502    0 -0.11898541356E+03 -0.71083185848E+02  0.96921824700E+03  0.97907832601E+03  0.10100000352E+00 0.  1.
       -3    1    3    3    0  502  0.11898541356E+03  0.71083185848E+02 -0.37205937498E+02  0.14350832706E+03  0.10100000352E+00 0. -1.
</event>
<event>
 5   0  0.1488510E-01  0.6220352E+03  0.7818609E-02  0.9860716E-01
       -2   -1    0    0    0  501  0.00000000000E+00  0.00000000000E+00  0.41274707576E+03  0.41274707577E+03  0.25500000920E-02 0.  1.
        2   -1    0    0  501    0  0.00000000000E+00  0.00000000000E+00 -0.23436132680E+03  0.23436132681E+03  0.25500000920E-02 0. -1.
    10030    2    1    2    0    0  0.00000000000E+00  0.00000000000E+00  0.17838574896E+03  0.64710840258E+03  0.62203521544E+03 0.  0.
        5    1    3    3  502    0  0.31234309567E+02  0.18731296226E+02 -0.23209808768E+03  0.23498522476E+03  0.46999998093E+01 0. -1.
       -5    1    3    3    0  502 -0.31234309567E+02 -0.18731296226E+02  0.41048383664E+03  0.41212317782E+03  0.46999998093E+01 0.  1.
</event>
<event>
 5   0  0.1513339E-01  0.6058450E+03  0.7818609E-02  0.9893353E-01
        2   -1    0    0  501    0  0.00000000000E+00  0.00000000000E+00  0.11722423442E+04  0.11722423442E+04  0.25500000920E-02 0. -1.
       -2   -1    0    0    0  501  0.00000000000E+00  0.00000000000E+00 -0.78279076256E+02  0.78279076297E+02  0.25500000920E-02 0.  1.
    10030    2    1    2    0    0  0.00000000000E+00  0.00000000000E+00  0.10939632680E+04  0.12505214205E+04  0.60584502269E+03 0.  0.
        3    1    3    3  502    0  0.15426064148E+03  0.18541702458E+03  0.92525882009E+03  0.95617974925E+03  0.10100000352E+00 0. -1.
       -3    1    3    3    0  502 -0.15426064148E+03 -0.18541702458E+03  0.16870444787E+03  0.29434167127E+03  0.10100000352E+00 0.  1.
</event>
<event>
 5   0  0.6170500E-02  0.5875967E+03  0.7818609E-02  0.9931478E-01
       -3   -1    0    0    0  501  0.00000000000E+00  0.00000000000E+00  0.48163441092E+03  0.48163442151E+03  0.10100000352E+00 0. -1.
        3   -1    0    0  501    0  0.00000000000E+00  0.00000000000E+00 -0.17921779269E+03  0.17921782115E+03  0.10100000352E+00 0.  1.
    10030    2    1    2    0    0  0.00000000000E+00  0.00000000000E+00  0.30241661824E+03  0.66085224266E+03  0.58759669472E+03 0.  0.
        5    1    3    3  502    0 -0.14794732830E+02 -0.21757864653E+03  0.37255985708E+03  0.43172015085E+03  0.46999998093E+01 0. -1.
       -5    1    3    3    0  502  0.14794732830E+02  0.21757864653E+03 -0.70143238844E+02  0.22913209181E+03  0.46999998093E+01 0.  1.
</event>
<event>
 5   0  0.9497860E-02  0.5760933E+03  0.7818609E-02  0.9956285E-01
        1   -1    0    0  501    0  0.00000000000E+00  0.00000000000E+00  0.39738228761E+03  0.39738228765E+03  0.50400001928E-02 0. -1.
       -1   -1    0    0    0  501  0.00000000000E+00  0.00000000000E+00 -0.20879361769E+03  0.20879361775E+03  0.50400001928E-02 0.  1.
    10030    2    1    2    0    0  0.00000000000E+00  0.00000000000E+00  0.18858866992E+03  0.60617590540E+03  0.57609334475E+03 0.  0.
        5    1    3    3  502    0 -0.11288290194E+03  0.17903116645E+03  0.29982486704E+03  0.36703099188E+03  0.46999998093E+01 0. -1.
       -5    1    3    3    0  502  0.11288290194E+03 -0.17903116645E+03 -0.11123619711E+03  0.23914491351E+03  0.46999998093E+01 0.  1.
</event>
<event>
 5   0  0.1502642E-01  0.6005740E+03  0.7818609E-02  0.9904216E-01
        2   -1    0    0  501    0  0.00000000000E+00  0.00000000000E+00  0.37724843794E+03  0.37724843795E+03  0.25500000920E-02 0.  1.
       -2   -1    0    0    0  501  0.00000000000E+00  0.00000000000E+00 -0.23902624325E+03  0.23902624326E+03  0.25500000920E-02 0. -1.
    10030    2    1    2    0    0  0.00000000000E+00  0.00000000000E+00  0.13822219469E+03  0.61627468121E+03  0.60057398178E+03 0.  0.
        2    1    3    3  502    0 -0.29584262403E+03 -0.29946585875E+02  0.11206986155E+03  0.31777241868E+03  0.25500000920E-02 0.  1.
       -2    1    3    3    0  502  0.29584262403E+03  0.29946585875E+02  0.26152333145E+02  0.29850226253E+03  0.25500000920E-02 0. -1.
</event>
<event>
 5   0  0.9177281E-02  0.6167367E+03  0.7818609E-02  0.9871278E-01
        1   -1    0    0  501    0  0.00000000000E+00  0.00000000000E+00  0.71349310393E+03  0.71349310395E+03  0.50400001928E-02 0.  1.
       -1   -1    0    0    0  501  0.00000000000E+00  0.00000000000E+00 -0.13327536485E+03  0.13327536495E+03  0.50400001928E-02 0. -1.
    10030    2    1    2    0    0  0.00000000000E+00  0.00000000000E+00  0.58021773908E+03  0.84676846890E+03  0.61673674707E+03 0.  0.
        1    1    3    3  502    0  0.22785605096E+01  0.35345070696E+02  0.71069113483E+03  0.71157315506E+03  0.50400001928E-02 0.  1.
       -1    1    3    3    0  502 -0.22785605096E+01 -0.35345070696E+02 -0.13047339575E+03  0.13519531384E+03  0.50400001928E-02 0. -1.
</event>
<event>
 5   0  0.9497860E-02  0.6113103E+03  0.7818609E-02  0.9882215E-01
        1   -1    0    0  501    0  0.00000000000E+00  0.00000000000E+00  0.95098371185E+03  0.95098371186E+03  0.50400001928E-02 0. -1.
       -1   -1    0    0    0  501  0.00000000000E+00  0.00000000000E+00 -0.98240438368E+02  0.98240438498E+02  0.50400001928E-02 0.  1.
    10030    2    1    2    0    0  0.00000000000E+00  0.00000000000E+00  0.85274327348E+03  0.10492241504E+04  0.61131025448E+03 0.  0.
        5    1    3    3  502    0  0.22122410220E+03  0.92603337153E+02  0.75151740911E+03  0.78887007019E+03  0.46999998093E+01 0. -1.
       -5    1    3    3    0  502 -0.22122410220E+03 -0.92603337153E+02  0.10122586438E+03  0.26035408018E+03  0.46999998093E+01 0.  1.
</event>
<event>
 5   0  0.1532571E-01  0.5282408E+03  0.7818609E-02  0.1006660E+00
        2   -1    0    0  501    0  0.00000000000E+00  0.00000000000E+00  0.12728812469E+03  0.12728812472E+03  0.25500000920E-02 0.  1.
       -2   -1    0    0    0  501  0.00000000000E+00  0.00000000000E+00 -0.54804469098E+03  0.54804469098E+03  0.25500000920E-02 0. -1.
    10030    2    1    2    0    0  0.00000000000E+00  0.00000000000E+00 -0.42075656629E+03  0.67533281570E+03  0.52824078211E+03 0.  0.
        1    1    3    3  502    0 -0.18925738934E+03 -0.15073001566E+03 -0.74948263404E+02  0.25328864810E+03  0.50400001928E-02 0.  1.
       -1    1    3    3    0  502  0.18925738934E+03  0.15073001566E+03 -0.34580830288E+03  0.42204416760E+03  0.50400001928E-02 0. -1.
</event>
<event>
 5   0  0.6170500E-02  0.5838649E+03  0.7818609E-02  0.9939458E-01
        4   -1    0    0  501    0  0.00000000000E+00  0.00000000000E+00  0.76814558738E+02  0.76825056681E+02  0.12699999809E+01 0. -1.
       -4   -1    0    0    0  501  0.00000000000E+00  0.00000000000E+00 -0.11093977840E+04  0.11093985109E+04  0.12699999809E+01 0.  1.
    10030    2    1    2    0    0  0.00000000000E+00  0.00000000000E+00 -0.10325832252E+04  0.11862235676E+04  0.58386491181E+03 0.  0.
        3    1    3    3  502    0 -0.24406467148E+03  0.87616491479E+02 -0.78872044139E+03  0.83025547774E+03  0.10100000352E+00 0.  1.
       -3    1    3    3    0  502  0.24406467148E+03 -0.87616491479E+02 -0.24386278384E+03  0.35596808984E+03  0.10100000352E+00 0. -1.
</event>
<event>
 5   0  0.8860626E-02  0.6057541E+03  0.7818609E-02  0.9893540E-01
        1   -1    0    0  501    0  0.00000000000E+00  0.00000000000E+00  0.37928005858E+03  0.37928005861E+03  0.50400001928E-02 0.  1.
       -1   -1    0    0    0  501  0.00000000000E+00  0.00000000000E+00 -0.24186479303E+03  0.24186479308E+03  0.50400001928E-02 0. -1.
    10030    2    1    2    0    0  0.00000000000E+00  0.00000000000E+00  0.13741526555E+03  0.62114485169E+03  0.60575405205E+03 0.  0.
        3    1    3    3  502    0 -0.88479141607E+02  0.10627475709E+03 -0.20760425241E+03  0.24944421884E+03  0.10100000352E+00 0. -1.
       -3    1    3    3    0  502  0.88479141607E+02 -0.10627475709E+03  0.34501951796E+03  0.37170063286E+03  0.10100000352E+00 0.  1.
</event>
<event>
 5   0  0.9497860E-02  0.6517216E+03  0.7818609E-02  0.9803554E-01
       -1   -1    0    0    0  501  0.00000000000E+00  0.00000000000E+00  0.18714899068E+03  0.18714899074E+03  0.50400001928E-02 0. -1.
        1   -1    0    0  501    0  0.00000000000E+00  0.00000000000E+00 -0.56738353924E+03  0.56738353927E+03  0.50400001928E-02 0.  1.
    10030    2    1    2    0    0  0.00000000000E+00  0.00000000000E+00 -0.38023454857E+03  0.75453253001E+03  0.65172158697E+03 0.  0.
        5    1    3    3  502    0 -0.10661166683E+03  0.26326290152E+03 -0.52760789827E+01  0.28411851371E+03  0.46999998093E+01 0.  1.
       -5    1    3    3    0  502  0.10661166683E+03 -0.26326290152E+03 -0.37495846959E+03  0.47041401630E+03  0.46999998093E+01 0. -1.
</event>
<event>
 5   0  0.9420349E-02  0.5874206E+03  0.7818609E-02  0.9931854E-01
       -1   -1    0    0    0  501  0.00000000000E+00  0.00000000000E+00  0.32892221481E+03  0.32892221485E+03  0.50400001928E-02 0. -1.
        1   -1    0    0  501    0  0.00000000000E+00  0.00000000000E+00 -0.26226788204E+03  0.26226788209E+03  0.50400001928E-02 0.  1.
    10030    2    1    2    0    0  0.00000000000E+00  0.00000000000E+00  0.66654332763E+02  0.59119009694E+03  0.58742057390E+03 0.  0.
        2    1    3    3  502    0 -0.28323325434E+03 -0.10481963072E+02  0.11085907640E+03  0.30433646304E+03  0.25500000920E-02 0. -1.
       -2    1    3    3    0  502  0.28323325434E+03  0.10481963072E+02 -0.44204743636E+02  0.28685363389E+03  0.25500000920E-02 0.  1.
</event>
<event>
 5   0  0.6170500E-02  0.5302551E+03  0.7818609E-02  0.1006170E+00
       -3   -1    0    0    0  501  0.00000000000E+00  0.00000000000E+00  0.16319830107E+03  0.16319833232E+03  0.10100000352E+00 0. -1.
        3   -1    0    0  501    0  0.00000000000E+00  0.00000000000E+00 -0.43071896704E+03  0.43071897888E+03  0.10100000352E+00 0.  1.
    10030    2    1    2    0    0  0.00000000000E+00  0.00000000000E+00 -0.26752066597E+03  0.59391731121E+03  0.53025509505E+03 0.  0.
        5    1    3    3  502    0 -0.49874662405E+02 -0.15299258649E+03 -0.36970857280E+03  0.40323781107E+03  0.46999998093E+01 0.  1.
       -5    1    3    3    0  502  0.49874662405E+02  0.15299258649E+03  0.10218790683E+03  0.19067950014E+03  0.46999998093E+01 0. -1.
</event>
<event>
 5   0  0.6170500E-02  0.5728871E+03  0.7818609E-02  0.9963310E-01
        3   -1    0    0  501    0  0.00000000000E+00  0.00000000000E+00  0.26521459695E+03  0.26521461618E+03  0.10100000352E+00 0. -1.
       -3   -1    0    0    0  501  0.00000000000E+00  0.00000000000E+00 -0.30937170095E+03  0.30937171744E+03  0.10100000352E+00 0.  1.
    10030    2    1    2    0    0  0.00000000000E+00  0.00000000000E+00 -0.44157104005E+02  0.57458633362E+03  0.57288707870E+03 0.  0.
        4    1    3    3  502    0  0.20975345402E+03 -0.99705634389E+02  0.14608080563E+03  0.27437007795E+03  0.12699999809E+01 0. -1.
       -4    1    3    3    0  502 -0.20975345402E+03  0.99705634389E+02 -0.19023790963E+03  0.30021625566E+03  0.12699999809E+01 0.  1.
</event>
<event>
 5   0  0.1483942E-01  0.7190508E+03  0.7818609E-02  0.9685196E-01
       -2   -1    0    0    0  501  0.00000000000E+00  0.00000000000E+00  0.83593443713E+02  0.83593443752E+02  0.25500000920E-02 0.  1.
        2   -1    0    0  501    0  0.00000000000E+00  0.00000000000E+00 -0.15462758070E+04  0.15462758070E+04  0.25500000920E-02 0. -1.
    10030    2    1    2    0    0  0.00000000000E+00  0.00000000000E+00 -0.14626823633E+04  0.16298692507E+04  0.71905081787E+03 0.  0.
        4    1    3    3  502    0  0.21275142707E+03  0.28943791620E+03 -0.76491810503E+03  0.84506733303E+03  0.12699999809E+01 0. -1.
       -4    1    3    3    0  502 -0.21275142707E+03 -0.28943791620E+03 -0.69776425825E+03  0.78480191771E+03  0.12699999809E+01 0.  1.
</event>
<event>
 5   0  0.9411028E-02  0.5885042E+03  0.7818609E-02  0.9929547E-01
       -1   -1    0    0    0  501  0.00000000000E+00  0.00000000000E+00  0.15105284850E+03  0.15105284858E+03  0.50400001928E-02 0. -1.
        1   -1    0    0  501    0  0.00000000000E+00  0.00000000000E+00 -0.57320536474E+03  0.57320536476E+03  0.50400001928E-02 0.  1.
    10030    2    1    2    0    0  0.00000000000E+00  0.00000000000E+00 -0.42215251624E+03  0.72425821334E+03  0.58850421632E+03 0.  0.
        4    1    3    3  502    0  0.14897298849E+02  0.22310081216E+02  0.14954135343E+03  0.15193386233E+03  0.12699999809E+01 0. -1.
       -4    1    3    3    0  502 -0.14897298849E+02 -0.22310081216E+02 -0.57169386967E+03  0.57232435101E+03  0.12699999809E+01 0.  1.
</event>
<event>
 5   0  0.8860626E-02  0.6010980E+03  0.7818609E-02  0.9903131E-01
       -1   -1    0    0    0  501  0.00000000000E+00  0.00000000000E+00  0.66254952545E+02  0.66254952737E+02  0.50400001928E-02 0.  1.
        1   -1    0    0  501    0  0.00000000000E+00  0.00000000000E+00 -0.13633650494E+04  0.13633650494E+04  0.50400001928E-02 0. -1.
    10030    2    1    2    0    0  0.00000000000E+00  0.00000000000E+00 -0.12971100969E+04  0.14296200022E+04  0.60109795140E+03 0.  0.
        3    1    3    3  502    0  0.46939553695E+02 -0.18349265144E+03 -0.93544248840E+02  0.21124254194E+03  0.10100000352E+00 0.  1.
       -3    1    3    3    0  502 -0.46939553695E+02  0.18349265144E+03 -0.12035658481E+04  0.12183774602E+04  0.10100000352E+00 0. -1.
</event>
<event>
 5   0  0.1488510E-01  0.6000618E+03  0.7818609E-02  0.9905278E-01
       -2   -1    0    0    0  501  0.00000000000E+00  0.00000000000E+00  0.30400273359E+03  0.30400273360E+03  0.25500000920E-02 0.  1.
        2   -1    0    0  501    0  0.00000000000E+00  0.00000000000E+00 -0.29611095385E+03  0.29611095386E+03  0.25500000920E-02 0. -1.
    10030    2    1    2    0    0  0.00000000000E+00  0.00000000000E+00  0.78917797410E+01  0.60011368746E+03  0.60006179489E+03 0.  0.
        5    1    3    3  502    0 -0.85924529927E+02 -0.15783102557E+03 -0.23628893797E+03  0.29689764175E+03  0.46999998093E+01 0. -1.
       -5    1    3    3    0  502  0.85924529927E+02  0.15783102557E+03  0.24418071771E+03  0.30321604571E+03  0.46999998093E+01 0.  1.
</event>
<event>
 5   0  0.1532571E-01  0.5883132E+03  0.7818609E-02  0.9929953E-01
       -2   -1    0    0    0  501  0.00000000000E+00  0.00000000000E+00  0.43858906641E+02  0.43858906715E+02  0.25500000920E-02 0.  1.
        2   -1    0    0  501    0  0.00000000000E+00  0.00000000000E+00 -0.19728743095E+04  0.19728743095E+04  0.25500000920E-02 0. -1.
    10030    2    1    2    0    0  0.00000000000E+00  0.00000000000E+00 -0.19290154029E+04  0.20167332163E+04  0.58831321669E+03 0.  0.
        1    1    3    3  502    0 -0.43713428084E+02  0.50479039687E+02  0.17533515803E+02  0.69039274652E+02  0.50400001928E-02 0.  1.
       -1    1    3    3    0  502  0.43713428084E+02 -0.50479039687E+02 -0.19465489187E+04  0.19476939416E+04  0.50400001928E-02 0. -1.
</event>
<event>
 5   0  0.1513339E-01  0.6169898E+03  0.7818609E-02  0.9870771E-01
        2   -1    0    0  501    0  0.00000000000E+00  0.00000000000E+00  0.51700953126E+03  0.51700953127E+03  0.25500000920E-02 0. -1.
       -2   -1    0    0    0  501  0.00000000000E+00  0.00000000000E+00 -0.18407613125E+03  0.18407613127E+03  0.25500000920E-02 0.  1.
    10030    2    1    2    0    0  0.00000000000E+00  0.00000000000E+00  0.33293340001E+03  0.70108566254E+03  0.61698983571E+03 0.  0.
        3    1    3    3  502    0  0.75942442022E+02 -0.26396946775E+02 -0.17196205070E+03  0.18982889764E+03  0.10100000352E+00 0.  1.
       -3    1    3    3    0  502 -0.75942442022E+02  0.26396946775E+02  0.50489545071E+03  0.51125676489E+03  0.10100000352E+00 0. -1.
</event>
<event>
 5   0  0.1513339E-01  0.6029582E+03  0.7818609E-02  0.9899288E-01
        2   -1    0    0  501    0  0.00000000000E+00  0.00000000000E+00  0.20220954848E+03  0.20220954850E+03  0.25500000920E-02 0.  1.
       -2   -1    0    0    0  501  0.00000000000E+00  0.00000000000E+00 -0.44948245226E+03  0.44948245227E+03  0.25500000920E-02 0. -1.
    10030    2    1    2    0    0  0.00000000000E+00  0.00000000000E+00 -0.24727290378E+03  0.65169200076E+03  0.60295818671E+03 0.  0.
        3    1    3    3  502    0 -0.95876852674E+02  0.48087017810E+02 -0.42816229118E+03  0.44139289749E+03  0.10100000352E+00 0. -1.
       -3    1    3    3    0  502  0.95876852674E+02 -0.48087017810E+02  0.18088938741E+03  0.21029910327E+03  0.10100000352E+00 0.  1.
</event>
<event>
 5   0  0.9411028E-02  0.6032597E+03  0.7818609E-02  0.9898666E-01
        1   -1    0    0  501    0  0.00000000000E+00  0.00000000000E+00  0.70914538963E+03  0.70914538964E+03  0.50400001928E-02 0.  1.
       -1   -1    0    0    0  501  0.00000000000E+00  0.00000000000E+00 -0.12829607205E+03  0.12829607214E+03  0.50400001928E-02 0. -1.
    10030    2    1    2    0    0  0.00000000000E+00  0.00000000000E+00  0.58084931758E+03  0.83744146179E+03  0.60325970542E+03 0.  0.
        4    1    3    3  502    0  0.67485646096E+02  0.16096192859E+03  0.63192008437E+03  0.65558192532E+03  0.12699999809E+01 0.  1.
       -4    1    3    3    0  502 -0.67485646096E+02 -0.16096192859E+03 -0.51070766785E+02  0.18185953647E+03  0.12699999809E+01 0. -1.
</event>
<event>
 5   0  0.1532571E-01  0.5743893E+03  0.7818609E-02  0.9960012E-01
        2   -1    0    0  501    0  0.00000000000E+00  0.00000000000E+00  0.10840511457E+04  0.10840511457E+04  0.25500000920E-02 0.  1.
       -2   -1    0    0    0  501  0.00000000000E+00  0.00000000000E+00 -0.76085680000E+02  0.76085680043E+02  0.25500000920E-02 0. -1.
    10030    2    1    2    0    0  0.00000000000E+00  0.00000000000E+00  0.10079654657E+04  0.11601368258E+04  0.57438930562E+03 0.  0.
        1    1    3    3  502    0 -0.71424588501E+02 -0.49156290343E+02 -0.49018651819E+02  0.99602414500E+02  0.50400001928E-02 0. -1.
       -1    1    3    3    0  502  0.71424588501E+02  0.49156290343E+02  0.10569841175E+04  0.10605344113E+04  0.50400001928E-02 0.  1.
</event>
<event>
 5   0  0.9420349E-02  0.6145016E+03  0.7818609E-02  0.9875768E-01
        1   -1    0    0  501    0  0.00000000000E+00  0.00000000000E+00  0.13816162427E+04  0.13816162427E+04  0.50400001928E-02 0.  1.
       -1   -1    0    0    0  501  0.00000000000E+00  0.00000000000E+00 -0.68327980151E+02  0.68327980337E+02  0.50400001928E-02 0. -1.
    10030    2    1    2    0    0  0.00000000000E+00  0.00000000000E+00  0.13132882625E+04  0.14499442230E+04  0.61450157802E+03 0.  0.
        2    1    3    3  502    0 -0.15333629792E+03 -0.24071759169E+03  0.92511504297E+03  0.96813987726E+03  0.25500000920E-02 0.  1.
       -2    1    3    3    0  502  0.15333629792E+03  0.24071759169E+03  0.38817321955E+03  0.48180434575E+03  0.25500000920E-02 0. -1.
</event>
<event>
 5   0  0.9177281E-02  0.6049277E+03  0.7818609E-02  0.9895235E-01
       -1   -1    0    0    0  501  0.00000000000E+00  0.00000000000E+00  0.63295500482E+02  0.63295500683E+02  0.50400001928E-02 0.  1.
        1   -1    0    0  501    0  0.00000000000E+00  0.00000000000E+00 -0.14453535373E+04  0.14453535373E+04  0.50400001928E-02 0. -1.
    10030    2    1    2    0    0  0.00000000000E+00  0.00000000000E+00 -0.13820580368E+04  0.15086490380E+04  0.60492768386E+03 0.  0.
        1    1    3    3  502    0  0.15926482717E+02  0.71943981504E+02  0.40568587262E+02  0.84115394692E+02  0.50400001928E-02 0.  1.
       -1    1    3    3    0  502 -0.15926482717E+02 -0.71943981504E+02 -0.14226266241E+04  0.14245336433E+04  0.50400001928E-02 0. -1.
</event>
<event>
 5   0  0.9497860E-02  0.6433613E+03  0.7818609E-02  0.9819317E-01
        1   -1    0    0  501    0  0.00000000000E+00  0.00000000000E+00  0.84919950502E+02  0.84919950652E+02  0.50400001928E-02 0. -1.
       -1   -1    0    0    0  501  0.00000000000E+00  0.00000000000E+00 -0.12185408774E+04  0.12185408774E+04  0.50400001928E-02 0.  1.
    10030    2    1    2    0    0  0.00000000000E+00  0.00000000000E+00 -0.11336209269E+04  0.13034608281E+04  0.64336127051E+03 0.  0.
        5    1    3    3  502    0  0.22914214981E+02  0.16602965931E+03 -0.11230081363E+04  0.11354559759E+04  0.46999998093E+01 0.  1.
       -5    1    3    3    0  502 -0.22914214981E+02 -0.16602965931E+03 -0.10612790569E+02  0.16800485213E+03  0.46999998093E+01 0. -1.
</event>
<event>
 5   0  0.1502642E-01  0.5917501E+03  0.7818609E-02  0.9922671E-01
        2   -1    0    0  501    0  0.00000000000E+00  0.00000000000E+00  0.24796897017E+03  0.24796897018E+03  0.25500000920E-02 0. -1.
       -2   -1    0    0    0  501  0.00000000000E+00  0.00000000000E+00 -0.35303623119E+03  0.35303623120E+03  0.25500000920E-02 0.  1.
    10030    2    1    2    0    0  0.00000000000E+00  0.00000000000E+00 -0.10506726102E+03  0.60100520138E+03  0.59175005091E+03 0.  0.
        2    1    3    3  502    0  0.12716812959E+03 -0.13684503883E+03  0.18049713665E+03  0.25976434355E+03  0.25500000920E-02 0. -1.
       -2    1    3    3    0  502 -0.12716812959E+03  0.13684503883E+03 -0.28556439766E+03  0.34124085783E+03  0.25500000920E-02 0.  1.
</event>
<event>
 5   0  0.1483942E-01  0.6010991E+03  0.7818609E-02  0.9903128E-01
        2   -1    0    0  501    0  0.00000000000E+00  0.00000000000E+00  0.15721896815E+03  0.15721896817E+03  0.25500000920E-02 0. -1.
       -2   -1    0    0    0  501  0.00000000000E+00  0.00000000000E+00 -0.57454922920E+03  0.57454922921E+03  0.25500000920E-02 0.  1.
    10030    2    1    2    0    0  0.00000000000E+00  0.00000000000E+00 -0.41733026106E+03  0.73176819738E+03  0.60109911654E+03 0.  0.
        4    1    3    3  502    0  0.28741715247E+03 -0.87772211666E+02 -0.21351077585E+03  0.36864758914E+03  0.12699999809E+01 0.  1.
       -4    1    3    3    0  502 -0.28741715247E+03  0.87772211666E+02 -0.20381948521E+03  0.36312060824E+03  0.12699999809E+01 0. -1.
</event>
<event>
 5   0  0.1513339E-01  0.6036367E+03  0.7818609E-02  0.9897890E-01
       -2   -1    0    0    0  501  0.00000000000E+00  0.00000000000E+00  0.13511413088E+03  0.13511413091E+03  0.25500000920E-02 0. -1.
        2   -1    0    0  501    0  0.00000000000E+00  0.00000000000E+00 -0.67420283450E+03  0.67420283450E+03  0.25500000920E-02 0.  1.
    10030    2    1    2    0    0  0.00000000000E+00  0.00000000000E+00 -0.53908870362E+03  0.80931696541E+03  0.60363674519E+03 0.  0.
        3    1    3    3  502    0  0.69812065195E+02  0.25693434969E+03 -0.78964929135E+02  0.27771289983E+03  0.10100000352E+00 0. -1.
       -3    1    3    3    0  502 -0.69812065195E+02 -0.25693434969E+03 -0.46012377448E+03  0.53160406558E+03  0.10100000352E+00 0.  1.
</event>
<event>
 5   0  0.9497860E-02  0.6632612E+03  0.7818609E-02  0.9782209E-01
        1   -1    0    0  501    0  0.00000000000E+00  0.00000000000E+00  0.56730640536E+03  0.56730640538E+03  0.50400001928E-02 0.  1.
       -1   -1    0    0    0  501  0.00000000000E+00  0.00000000000E+00 -0.19386147160E+03  0.19386147166E+03  0.50400001928E-02 0. -1.
    10030    2    1    2    0    0  0.00000000000E+00  0.00000000000E+00  0.37344493376E+03  0.76116787705E+03  0.66326119930E+03 0.  0.
        5    1    3    3  502    0 -0.77387410347E+02  0.41944502316E+01 -0.18328361154E+03  0.19905119179E+03  0.46999998093E+01 0. -1.
       -5    1    3    3    0  502  0.77387410347E+02 -0.41944502316E+01  0.55672854531E+03  0.56211668526E+03  0.46999998093E+01 0.  1.
</event>
<event>
 5   0  0.1488510E-01  0.6035585E+03  0.7818609E-02  0.9898051E-01
       -2   -1    0    0    0  501  0.00000000000E+00  0.00000000000E+00  0.84594938225E+02  0.84594938264E+02  0.25500000920E-02 0.  1.
        2   -1    0    0  501    0  0.00000000000E+00  0.00000000000E+00 -0.10765504616E+04  0.10765504616E+04  0.25500000920E-02 0. -1.
    10030    2    1    2    0    0  0.00000000000E+00  0.00000000000E+00 -0.99195552333E+03  0.11611453998E+04  0.60355851354E+03 0.  0.
        5    1    3    3  502    0 -0.15271284515E+03 -0.17197720810E+03 -0.12020815568E+03  0.25955628267E+03  0.46999998093E+01 0.  1.
       -5    1    3    3    0  502  0.15271284515E+03  0.17197720810E+03 -0.87174736765E+03  0.90158911716E+03  0.46999998093E+01 0. -1.
</event>
<event>
 5   0  0.1483942E-01  0.5778993E+03  0.7818609E-02  0.9952349E-01
       -2   -1    0    0    0  501  0.00000000000E+00  0.00000000000E+00  0.64099217069E+03  0.64099217070E+03  0.25500000920E-02 0.  1.
        2   -1    0    0  501    0  0.00000000000E+00  0.00000000000E+00 -0.13025418367E+03  0.13025418370E+03  0.25500000920E-02 0. -1.
    10030    2    1    2    0    0  0.00000000000E+00  0.00000000000E+00  0.51073798702E+03  0.77124635439E+03  0.57789934053E+03 0.  0.
        4    1    3    3  502    0  0.76143240445E+02 -0.16061300212E+03 -0.48654916619E+02  0.18429119167E+03  0.12699999809E+01 0. -1.
       -4    1    3    3    0  502 -0.76143240445E+02  0.16061300212E+03  0.55939290364E+03  0.58695516273E+03  0.12699999809E+01 0.  1.
</event>
<event>
 5   0  0.1532571E-01  0.6109298E+03  0.7818609E-02  0.9882986E-01
        2   -1    0    0  501    0  0.00000000000E+00  0.00000000000E+00  0.59667421974E+03  0.59667421975E+03  0.25500000920E-02 0. -1.
       -2   -1    0    0    0  501  0.00000000000E+00  0.00000000000E+00 -0.15638147283E+03  0.15638147285E+03  0.25500000920E-02 0.  1.
    10030    2    1    2    0    0  0.00000000000E+00  0.00000000000E+00  0.44029274691E+03  0.75305569260E+03  0.61092976124E+03 0.  0.
        1    1    3    3  502    0 -0.25266039921E+03 -0.72332221890E+02  0.41205664947E+03  0.48873296395E+03  0.50400001928E-02 0. -1.
       -1    1    3    3    0  502  0.25266039921E+03  0.72332221890E+02  0.28236097438E+02  0.26432272864E+03  0.50400001928E-02 0.  1.
</event>
<event>
 5   0  0.9411028E-02  0.6012642E+03  0.7818609E-02  0.9902787E-01
       -1   -1    0    0    0  501  0.00000000000E+00  0.00000000000E+00  0.29846817091E+03  0.29846817095E+03  0.50400001928E-02 0. -1.
        1   -1    0    0  501    0  0.00000000000E+00  0.00000000000E+00 -0.30281174960E+03  0.30281174964E+03  0.50400001928E-02 0.  1.
    10030    2    1    2    0    0  0.00000000000E+00  0.00000000000E+00 -0.43435786961E+01  0.60127992059E+03  0.60126423162E+03 0.  0.
        4    1    3    3  502    0  0.11939591418E+03 -0.22378369557E+03  0.15921249915E+03  0.29947413830E+03  0.12699999809E+01 0. -1.
       -4    1    3    3    0  502 -0.11939591418E+03  0.22378369557E+03 -0.16355607784E+03  0.30180578229E+03  0.12699999809E+01 0.  1.
</event>
<event>
 5   0  0.8860626E-02  0.5945557E+03  0.7818609E-02  0.9916766E-01
       -1   -1    0    0    0  501  0.00000000000E+00  0.00000000000E+00  0.26636255435E+03  0.26636255440E+03  0.50400001928E-02 0.  1.
        1   -1    0    0  501    0  0.00000000000E+00  0.00000000000E+00 -0.33178131693E+03  0.33178131697E+03  0.50400001928E-02 0. -1.
    10030    2    1    2    0    0  0.00000000000E+00  0.00000000000E+00 -0.65418762578E+02  0.59814387137E+03  0.59455569660E+03 0.  0.
        3    1    3    3  502    0 -0.20031507228E+03  0.21801583196E+03 -0.57694659050E+01  0.29612552761E+03  0.10100000352E+00 0.  1.
       -3    1    3    3    0  502  0.20031507228E+03 -0.21801583196E+03 -0.59649296673E+02  0.30201834375E+03  0.10100000352E+00 0. -1.
</event>
<event>
 5   0  0.1488510E-01  0.5773526E+03  0.7818609E-02  0.9953539E-01
        2   -1    0    0  501    0  0.00000000000E+00  0.00000000000E+00  0.17904053248E+03  0.17904053250E+03  0.25500000920E-02 0.  1.
       -2   -1    0    0    0  501  0.00000000000E+00  0.00000000000E+00 -0.46544766050E+03  0.46544766051E+03  0.25500000920E-02 0. -1.
    10030    2    1    2    0    0  0.00000000000E+00  0.00000000000E+00 -0.28640712802E+03  0.64448819300E+03  0.57735256814E+03 0.  0.
        5    1    3    3  502    0 -0.47276562567E+02  0.18689944812E+03 -0.38299750855E+03  0.42880725114E+03  0.46999998093E+01 0.  1.
       -5    1    3    3    0  502  0.47276562567E+02 -0.18689944812E+03  0.96590380531E+02  0.21568094187E+03  0.46999998093E+01 0. -1.
</event>
<event>
 5   0  0.1488510E-01  0.5898819E+03  0.7818609E-02  0.9926623E-01
       -2   -1    0    0    0  501  0.00000000000E+00  0.00000000000E+00  0.27559417999E+03  0.27559418000E+03  0.25500000920E-02 0.  1.
        2   -1    0    0  501    0  0.00000000000E+00  0.00000000000E+00 -0.31564582206E+03  0.31564582207E+03  0.25500000920E-02 0. -1.
    10030    2    1    2    0    0  0.00000000000E+00  0.00000000000E+00 -0.40051642070E+02  0.59124000208E+03  0.58988185768E+03 0.  0.
        5    1    3    3  502    0  0.10590491566E+03 -0.73654908995E+02 -0.28582909445E+03  0.31362598428E+03  0.46999998093E+01 0. -1.
       -5    1    3    3    0  502 -0.10590491566E+03  0.73654908995E+02  0.24577745238E+03  0.27761401780E+03  0.46999998093E+01 0.  1.
</event>
<event>
 5   0  0.1488510E-01  0.6325194E+03  0.7818609E-02  0.9840145E-01
        2   -1    0    0  501    0  0.00000000000E+00  0.00000000000E+00  0.12252696348E+04  0.12252696349E+04  0.25500000920E-02 0. -1.
       -2   -1    0    0    0  501  0.00000000000E+00  0.00000000000E+00 -0.81631164061E+02  0.81631164100E+02  0.25500000920E-02 0.  1.
    10030    2    1    2    0    0  0.00000000000E+00  0.00000000000E+00  0.11436384708E+04  0.13069007990E+04  0.63251936447E+03 0.  0.
        5    1    3    3  502    0  0.10500577427E+03  0.29827992850E+03  0.57385233967E+03  0.65522952171E+03  0.46999998093E+01 0.  1.
       -5    1    3    3    0  502 -0.10500577427E+03 -0.29827992850E+03  0.56978613112E+03  0.65167127724E+03  0.46999998093E+01 0. -1.
</event>
<event>
 5   0  0.1483942E-01  0.6096098E+03  0.7818609E-02  0.9885667E-01
        2   -1    0    0  501    0  0.00000000000E+00  0.00000000000E+00  0.10767001083E+04  0.10767001083E+04  0.25500000920E-02 0.  1.
       -2   -1    0    0    0  501  0.00000000000E+00  0.00000000000E+00 -0.86287749078E+02  0.86287749116E+02  0.25500000920E-02 0. -1.
    10030    2    1    2    0    0  0.00000000000E+00  0.00000000000E+00  0.99041235918E+03  0.11629878574E+04  0.60960980569E+03 0.  0.
        4    1    3    3  502    0 -0.13821131392E+03 -0.57253385695E+02 -0.11425109228E+02  0.15004153922E+03  0.12699999809E+01 0. -1.
       -4    1    3    3    0  502  0.13821131392E+03  0.57253385695E+02  0.10018374684E+04  0.10129463182E+04  0.12699999809E+01 0.  1.
</event>
<event>
 5   0  0.1483942E-01  0.5787882E+03  0.7818609E-02  0.9950418E-01
        2   -1    0    0  501    0  0.00000000000E+00  0.00000000000E+00  0.25349468140E+04  0.25349468140E+04  0.25500000920E-02 0.  1.
       -2   -1    0    0    0  501  0.00000000000E+00  0.00000000000E+00 -0.33037747497E+02  0.33037747596E+02  0.25500000920E-02 0. -1.
    10030    2    1    2    0    0  0.00000000000E+00  0.00000000000E+00  0.25019090665E+04  0.25679845616E+04  0.57878815775E+03 0.  0.
        4    1    3    3  502    0  0.16881796099E+03  0.21870582363E+03  0.16330266085E+04  0.16562334553E+04  0.12699999809E+01 0.  1.
       -4    1    3    3    0  502 -0.16881796099E+03 -0.21870582363E+03  0.86888245799E+03  0.91175110636E+03  0.12699999809E+01 0. -1.
</event>
<event>
 5   0  0.8860626E-02  0.6853636E+03  0.7818609E-02  0.9742595E-01
        1   -1    0    0  501    0  0.00000000000E+00  0.00000000000E+00  0.36309905514E+03  0.36309905517E+03  0.50400001928E-02 0. -1.
       -1   -1    0    0    0  501  0.00000000000E+00  0.00000000000E+00 -0.32341264604E+03  0.32341264608E+03  0.50400001928E-02 0.  1.
    10030    2    1    2    0    0  0.00000000000E+00  0.00000000000E+00  0.39686409102E+02  0.68651170125E+03  0.68536362968E+03 0.  0.
        3    1    3    3  502    0  0.24844867253E+02  0.36804553366E+02 -0.32051853605E+03  0.32357995107E+03  0.10100000352E+00 0.  1.
       -3    1    3    3    0  502 -0.24844867253E+02 -0.36804553366E+02  0.36020494516E+03  0.36293175019E+03  0.10100000352E+00 0. -1.
</event>
<event>
 5   0  0.1532571E-01  0.4488945E+03  0.7818609E-02  0.1028052E+00
       -2   -1    0    0    0  501  0.00000000000E+00  0.00000000000E+00  0.27821380798E+03  0.27821380800E+03  0.25500000920E-02 0.  1.
        2   -1    0    0  501    0  0.00000000000E+00  0.00000000000E+00 -0.18107138506E+03  0.18107138507E+03  0.25500000920E-02 0. -1.
    10030    2    1    2    0    0  0.00000000000E+00  0.00000000000E+00  0.97142422929E+02  0.45928519307E+03  0.44889446225E+03 0.  0.
        1    1    3    3  502    0 -0.33434162734E+02 -0.31427892323E+02 -0.17622105288E+03  0.18209726840E+03  0.50400001928E-02 0. -1.
       -1    1    3    3    0  502  0.33434162734E+02  0.31427892323E+02  0.27336347581E+03  0.27718792467E+03  0.50400001928E-02 0.  1.
</event>
<event>
 5   0  0.1502642E-01  0.6285754E+03  0.7818609E-02  0.9847833E-01
        2   -1    0    0  501    0  0.00000000000E+00  0.00000000000E+00  0.18960155920E+04  0.18960155920E+04  0.25500000920E-02 0.  1.
       -2   -1    0    0    0  501  0.00000000000E+00  0.00000000000E+00 -0.52097012809E+02  0.52097012871E+02  0.25500000920E-02 0. -1.
    10030    2    1    2    0    0  0.00000000000E+00  0.00000000000E+00  0.18439185792E+04  0.19481126049E+04  0.62857536905E+03 0.  0.
        2    1    3    3  502    0 -0.29058713136E+03 -0.81490449450E+02  0.65008638307E+03  0.71672440988E+03  0.25500000920E-02 0. -1.
       -2    1    3    3    0  502  0.29058713136E+03  0.81490449450E+02  0.11938321961E+04  0.12313881950E+04  0.25500000920E-02 0.  1.
</event>
<event>
 5   0  0.9177281E-02  0.5946677E+03  0.7818609E-02  0.9916531E-01
       -1   -1    0    0    0  501  0.00000000000E+00  0.00000000000E+00  0.15667860995E+03  0.15667861003E+03  0.50400001928E-02 0. -1.
        1   -1    0    0  501    0  0.00000000000E+00  0.00000000000E+00 -0.56425964676E+03  0.56425964678E+03  0.50400001928E-02 0.  1.
    10030    2    1    2    0    0  0.00000000000E+00  0.00000000000E+00 -0.40758103681E+03  0.72093825681E+03  0.59466769591E+03 0.  0.
        1    1    3    3  502    0 -0.21557466649E+03 -0.55836927950E+02 -0.44264639299E+03  0.49550583105E+03  0.50400001928E-02 0.  1.
       -1    1    3    3    0  502  0.21557466649E+03  0.55836927950E+02  0.35065356179E+02  0.22543242576E+03  0.50400001928E-02 0. -1.
</event>
<event>
 5   0  0.1488510E-01  0.6320707E+03  0.7818609E-02  0.9841016E-01
        2   -1    0    0  501    0  0.00000000000E+00  0.00000000000E+00  0.14389825000E+04  0.14389825000E+04  0.25500000920E-02 0.  1.
       -2   -1    0    0    0  501  0.00000000000E+00  0.00000000000E+00 -0.69409006612E+02  0.69409006659E+02  0.25500000920E-02 0. -1.
    10030    2    1    2    0    0  0.00000000000E+00  0.00000000000E+00  0.13695734934E+04  0.15083915066E+04  0.63207071090E+03 0.  0.
        5    1    3    3  502    0  0.10322399604E+03 -0.19010282853E+03  0.12345049597E+04  0.12533231284E+04  0.46999998093E+01 0.  1.
       -5    1    3    3    0  502 -0.10322399604E+03  0.19010282853E+03  0.13506853368E+03  0.25506837820E+03  0.46999998093E+01 0. -1.
</event>
<event>
 5   0  0.1502642E-01  0.6230524E+03  0.7818609E-02  0.9858701E-01
       -2   -1    0    0    0  501  0.00000000000E+00  0.00000000000E+00  0.32684276200E+02  0.32684276300E+02  0.25500000920E-02 0.  1.
        2   -1    0    0  501    0  0.00000000000E+00  0.00000000000E+00 -0.29692737600E+04  0.29692737600E+04  0.25500000920E-02 0. -1.
    10030    2    1    2    0    0  0.00000000000E+00  0.00000000000E+00 -0.29365894838E+04  0.30019580363E+04  0.62305236966E+03 0.  0.
        2    1    3    3  502    0 -0.23101409589E+03  0.18631251334E+03 -0.19245887671E+04  0.19473371017E+04  0.25500000920E-02 0. -1.
       -2    1    3    3    0  502  0.23101409589E+03 -0.18631251334E+03 -0.10120007166E+04  0.10546209345E+04  0.25500000920E-02 0.  1.
</event>
<event>
 5   0  0.9177281E-02  0.5789820E+03  0.7818609E-02  0.9949997E-01
        1   -1    0    0  501    0  0.00000000000E+00  0.00000000000E+00  0.58353739460E+03  0.58353739462E+03  0.50400001928E-02 0.  1.
       -1   -1    0    0    0  501  0.00000000000E+00  0.00000000000E+00 -0.14361554104E+03  0.14361554113E+03  0.50400001928E-02 0. -1.
    10030    2    1    2    0    0  0.00000000000E+00  0.00000000000E+00  0.43992185356E+03  0.72715293576E+03  0.57898199863E+03 0.  0.
        1    1    3    3  502    0 -0.91460304000E+02  0.16249837035E+03  0.49806722753E+03  0.53182861030E+03  0.50400001928E-02 0.  1.
       -1    1    3    3    0  502  0.91460304000E+02 -0.16249837035E+03 -0.58145373969E+02  0.19532432545E+03  0.50400001928E-02 0. -1.
</event>
<event>
 5   0  0.1488510E-01  0.5925325E+03  0.7818609E-02  0.9921021E-01
        2   -1    0    0  501    0  0.00000000000E+00  0.00000000000E+00  0.16804198915E+03  0.16804198917E+03  0.25500000920E-02 0.  1.
       -2   -1    0    0    0  501  0.00000000000E+00  0.00000000000E+00 -0.52233185904E+03  0.52233185904E+03  0.25500000920E-02 0. -1.
    10030    2    1    2    0    0  0.00000000000E+00  0.00000000000E+00 -0.35428986989E+03  0.69037384821E+03  0.59253247876E+03 0.  0.
        5    1    3    3  502    0  0.48282879147E+02  0.16063705935E+02  0.16286836230E+03  0.17069701961E+03  0.46999998093E+01 0.  1.
       -5    1    3    3    0  502 -0.48282879147E+02 -0.16063705935E+02 -0.51715823219E+03  0.51967682860E+03  0.46999998093E+01 0. -1.
</event>
<event>
 5   0  0.1488510E-01  0.5903721E+03  0.7818609E-02  0.9925585E-01
       -2   -1    0    0    0  501  0.00000000000E+00  0.00000000000E+00  0.76334645944E+02  0.76334645987E+02  0.25500000920E-02 0.  1.
        2   -1    0    0  501    0  0.00000000000E+00  0.00000000000E+00 -0.11414843259E+04  0.11414843259E+04  0.25500000920E-02 0. -1.
    10030    2    1    2    0    0  0.00000000000E+00  0.00000000000E+00 -0.10651496800E+04  0.12178189719E+04  0.59037209249E+03 0.  0.
        5    1    3    3  502    0 -0.72176274093E+02 -0.36970971272E+02 -0.11179754119E+04  0.11209225571E+04  0.46999998093E+01 0. -1.
       -5    1    3    3    0  502  0.72176274093E+02  0.36970971272E+02  0.52825731942E+02  0.96896414857E+02  0.46999998093E+01 0.  1.
</event>
<event>
 5   0  0.1513339E-01  0.6015114E+03  0.7818609E-02  0.9902275E-01
       -2   -1    0    0    0  501  0.00000000000E+00  0.00000000000E+00  0.13908646212E+03  0.13908646214E+03  0.25500000920E-02 0. -1.
        2   -1    0    0  501    0  0.00000000000E+00  0.00000000000E+00 -0.65034350927E+03  0.65034350928E+03  0.25500000920E-02 0.  1.
    10030    2    1    2    0    0  0.00000000000E+00  0.00000000000E+00 -0.51125704716E+03  0.78942997142E+03  0.60151135609E+03 0.  0.
        3    1    3    3  502    0  0.25369565192E+03 -0.13941819164E+03 -0.14856402259E+03  0.32537700437E+03  0.10100000352E+00 0. -1.
       -3    1    3    3    0  502 -0.25369565192E+03  0.13941819164E+03 -0.36269302456E+03  0.46405296705E+03  0.10100000352E+00 0.  1.
</event>
<event>
 5   0  0.6170500E-02  0.6235427E+03  0.7818609E-02  0.9857731E-01
        4   -1    0    0  501    0  0.00000000000E+00  0.00000000000E+00  0.23863722520E+03  0.23864060457E+03  0.12699999809E+01 0. -1.
       -4   -1    0    0    0  501  0.00000000000E+00  0.00000000000E+00 -0.40731137481E+03  0.40731335474E+03  0.12699999809E+01 0.  1.
    10030    2    1    2    0    0  0.00000000000E+00  0.00000000000E+00 -0.16867414962E+03  0.64595395931E+03  0.62354274016E+03 0.  0.
        4    1    3    3  502    0 -0.11117944699E+03 -0.20942649980E+03 -0.29404670727E+03  0.37773721978E+03  0.12699999809E+01 0.  1.
       -4    1    3    3    0  502  0.11117944699E+03  0.20942649980E+03  0.12537255765E+03  0.26821673953E+03  0.12699999809E+01 0. -1.
</event>
<event>
 5   0  0.9497860E-02  0.5991197E+03  0.7818609E-02  0.9907234E-01
        1   -1    0    0  501    0  0.00000000000E+00  0.00000000000E+00  0.25548725307E+03  0.25548725312E+03  0.50400001928E-02 0. -1.
       -1   -1    0    0    0  501  0.00000000000E+00  0.00000000000E+00 -0.35123517882E+03  0.35123517885E+03  0.50400001928E-02 0.  1.
    10030    2    1    2    0    0  0.00000000000E+00  0.00000000000E+00 -0.95747925748E+02  0.60672243197E+03  0.59911972441E+03 0.  0.
        5    1    3    3  502    0  0.29374296085E+03 -0.56003187955E+02 -0.65200636534E+02  0.30609556859E+03  0.46999998093E+01 0. -1.
       -5    1    3    3    0  502 -0.29374296085E+03  0.56003187955E+02 -0.30547289214E+02  0.30062686338E+03  0.46999998093E+01 0.  1.
</event>
<event>
 5   0  0.1502642E-01  0.5951458E+03  0.7818609E-02  0.9915528E-01
       -2   -1    0    0    0  501  0.00000000000E+00  0.00000000000E+00  0.66186819164E+02  0.66186819213E+02  0.25500000920E-02 0.  1.
        2   -1    0    0  501    0  0.00000000000E+00  0.00000000000E+00 -0.13378740425E+04  0.13378740425E+04  0.25500000920E-02 0. -1.
    10030    2    1    2    0    0  0.00000000000E+00  0.00000000000E+00 -0.12716872233E+04  0.14040608617E+04  0.59514578836E+03 0.  0.
        2    1    3    3  502    0  0.13405811037E+03 -0.23757915552E+03 -0.35536605715E+03  0.44799605654E+03  0.25500000920E-02 0.  1.
       -2    1    3    3    0  502 -0.13405811037E+03  0.23757915552E+03 -0.91632116618E+03  0.95606480517E+03  0.25500000920E-02 0. -1.
</event>
<event>
 5   0  0.1532571E-01  0.5893599E+03  0.7818609E-02  0.9927730E-01
       -2   -1    0    0    0  501  0.00000000000E+00  0.00000000000E+00  0.52548560660E+02  0.52548560722E+02  0.25500000920E-02 0.  1.
        2   -1    0    0  501    0  0.00000000000E+00  0.00000000000E+00 -0.16524955605E+04  0.16524955605E+04  0.25500000920E-02 0. -1.
    10030    2    1    2    0    0  0.00000000000E+00  0.00000000000E+00 -0.15999469999E+04  0.17050441213E+04  0.58935986717E+03 0.  0.
        1    1    3    3  502    0 -0.12601303900E+03 -0.96723741063E+01 -0.15701071934E+04  0.15751855255E+04  0.50400001928E-02 0. -1.
       -1    1    3    3    0  502  0.12601303900E+03  0.96723741063E+01 -0.29839806426E+02  0.12985859575E+03  0.50400001928E-02 0.  1.
</event>
<event>
 5   0  0.9420349E-02  0.3781987E+03  0.7818609E-02  0.1051602E+00
        1   -1    0    0  501    0  0.00000000000E+00  0.00000000000E+00  0.25946207779E+03  0.25946207784E+03  0.50400001928E-02 0.  1.
       -1   -1    0    0    0  501  0.00000000000E+00  0.00000000000E+00 -0.13781808577E+03  0.13781808586E+03  0.50400001928E-02 0. -1.
    10030    2    1    2    0    0  0.00000000000E+00  0.00000000000E+00  0.12164399203E+03  0.39728016370E+03  0.37819871453E+03 0.  0.
        2    1    3    3  502    0  0.40790665962E+02  0.12054845311E+03  0.20774570539E+03  0.24362694041E+03  0.25500000920E-02 0.  1.
       -2    1    3    3    0  502 -0.40790665962E+02 -0.12054845311E+03 -0.86101713362E+02  0.15365322329E+03  0.25500000920E-02 0. -1.
</event>
<event>
 5   0  0.9177281E-02  0.5949531E+03  0.7818609E-02  0.9915933E-01
        1   -1    0    0  501    0  0.00000000000E+00  0.00000000000E+00  0.16440891335E+04  0.16440891335E+04  0.50400001928E-02 0. -1.
       -1   -1    0    0    0  501  0.00000000000E+00  0.00000000000E+00 -0.53824506356E+02  0.53824506592E+02  0.50400001928E-02 0.  1.
    10030    2    1    2    0    0  0.00000000000E+00  0.00000000000E+00  0.15902646272E+04  0.16979136401E+04  0.59495306109E+03 0.  0.
        1    1    3    3  502    0  0.13830385256E+02  0.28595590681E+03  0.10257523306E+04  0.10649553531E+04  0.50400001928E-02 0. -1.
       -1    1    3    3    0  502 -0.13830385256E+02 -0.28595590681E+03  0.56451229653E+03  0.63295828706E+03  0.50400001928E-02 0.  1.
</event>
<event>
 5   0  0.1502642E-01  0.6031361E+03  0.7818609E-02  0.9898921E-01
        2   -1    0    0  501    0  0.00000000000E+00  0.00000000000E+00  0.89369597441E+03  0.89369597441E+03  0.25500000920E-02 0.  1.
       -2   -1    0    0    0  501  0.00000000000E+00  0.00000000000E+00 -0.10176087145E+03  0.10176087148E+03  0.25500000920E-02 0. -1.
    10030    2    1    2    0    0  0.00000000000E+00  0.00000000000E+00  0.79193510296E+03  0.99545684589E+03  0.60313607480E+03 0.  0.
        2    1    3    3  502    0  0.15801519903E+03 -0.75239761747E+02  0.80130267725E+03  0.82019254169E+03  0.25500000920E-02 0.  1.
       -2    1    3    3    0  502 -0.15801519903E+03  0.75239761747E+02 -0.93675742899E+01  0.17526430420E+03  0.25500000920E-02 0. -1.
</event>
<event>
 5   0  0.9177281E-02  0.6075149E+03  0.7818609E-02  0.9889936E-01
       -1   -1    0    0    0  501  0.00000000000E+00  0.00000000000E+00  0.10009216718E+03  0.10009216731E+03  0.50400001928E-02 0. -1.
        1   -1    0    0  501    0  0.00000000000E+00  0.00000000000E+00 -0.92183630449E+03  0.92183630450E+03  0.50400001928E-02 0.  1.
    10030    2    1    2    0    0  0.00000000000E+00  0.00000000000E+00 -0.82174413731E+03  0.10219284718E+04  0.60751491694E+03 0.  0.
        1    1    3    3  502    0  0.49406850117E+01  0.25330973922E+03 -0.12900170499E+03  0.28430911746E+03  0.50400001928E-02 0. -1.
       -1    1    3    3    0  502 -0.49406850117E+01 -0.25330973922E+03 -0.69274243232E+03  0.73761935436E+03  0.50400001928E-02 0.  1.
</event>
<event>
 5   0  0.9411028E-02  0.5793638E+03  0.7818609E-02  0.9949169E-01
        1   -1    0    0  501    0  0.00000000000E+00  0.00000000000E+00  0.34200112598E+03  0.34200112602E+03  0.50400001928E-02 0.  1.
       -1   -1    0    0    0  501  0.00000000000E+00  0.00000000000E+00 -0.24536649247E+03  0.24536649252E+03  0.50400001928E-02 0. -1.
    10030    2    1    2    0    0  0.00000000000E+00  0.00000000000E+00  0.96634633510E+02  0.58736761854E+03  0.57936384674E+03 0.  0.
        4    1    3    3  502    0 -0.13079846158E+02  0.23989823588E+03 -0.11575712410E+03  0.26669002725E+03  0.12699999809E+01 0. -1.
       -4    1    3    3    0  502  0.13079846158E+02 -0.23989823588E+03  0.21239175761E+03  0.32067759129E+03  0.12699999809E+01 0.  1.
</event>
<event>
 5   0  0.9420349E-02  0.6105194E+03  0.7818609E-02  0.9883819E-01
       -1   -1    0    0    0  501  0.00000000000E+00  0.00000000000E+00  0.26023171763E+03  0.26023171767E+03  0.50400001928E-02 0. -1.
        1   -1    0    0  501    0  0.00000000000E+00  0.00000000000E+00 -0.35807890581E+03  0.35807890585E+03  0.50400001928E-02 0.  1.
    10030    2    1    2    0    0  0.00000000000E+00  0.00000000000E+00 -0.97847188188E+02  0.61831062352E+03  0.61051941404E+03 0.  0.
        2    1    3    3  502    0 -0.21064113247E+03  0.21150541616E+03 -0.11360775889E+03  0.31939153188E+03  0.25500000920E-02 0.  1.
       -2    1    3    3    0  502  0.21064113247E+03 -0.21150541616E+03  0.15760570703E+02  0.29891909164E+03  0.25500000920E-02 0. -1.
</event>
<event>
 5   0  0.1483942E-01  0.6056143E+03  0.7818609E-02  0.9893826E-01
        2   -1    0    0  501    0  0.00000000000E+00  0.00000000000E+00  0.88289808990E+03  0.88289808990E+03  0.25500000920E-02 0.  1.
       -2   -1    0    0    0  501  0.00000000000E+00  0.00000000000E+00 -0.10385361186E+03  0.10385361189E+03  0.25500000920E-02 0. -1.
    10030    2    1    2    0    0  0.00000000000E+00  0.00000000000E+00  0.77904447804E+03  0.98675170179E+03  0.60561425199E+03 0.  0.
        4    1    3    3  502    0 -0.28929328753E+03 -0.38710710047E+02  0.25814630376E+03  0.38965401619E+03  0.12699999809E+01 0. -1.
       -4    1    3    3    0  502  0.28929328753E+03  0.38710710047E+02  0.52089817428E+03  0.59709768560E+03  0.12699999809E+01 0.  1.
</event>
<event>
 5   0  0.1488510E-01  0.5935545E+03  0.7818609E-02  0.9918869E-01
       -2   -1    0    0    0  501  0.00000000000E+00  0.00000000000E+00  0.99750122755E+02  0.99750122787E+02  0.25500000920E-02 0. -1.
        2   -1    0    0  501    0  0.00000000000E+00  0.00000000000E+00 -0.88297376913E+03  0.88297376914E+03  0.25500000920E-02 0.  1.
    10030    2    1    2    0    0  0.00000000000E+00  0.00000000000E+00 -0.78322364638E+03  0.98272389193E+03  0.59355451941E+03 0.  0.
        5    1    3    3  502    0  0.22077881674E+03  0.18407064034E+03 -0.51360777820E+03  0.58859181644E+03  0.46999998093E+01 0.  1.
       -5    1    3    3    0  502 -0.22077881674E+03 -0.18407064034E+03 -0.26961586818E+03  0.39413207548E+03  0.46999998093E+01 0. -1.
</event>
<event>
 5   0  0.1483942E-01  0.6609843E+03  0.7818609E-02  0.9786383E-01
        2   -1    0    0  501    0  0.00000000000E+00  0.00000000000E+00  0.80682168961E+03  0.80682168962E+03  0.25500000920E-02 0. -1.
       -2   -1    0    0    0  501  0.00000000000E+00  0.00000000000E+00 -0.13537695689E+03  0.13537695691E+03  0.25500000920E-02 0.  1.
    10030    2    1    2    0    0  0.00000000000E+00  0.00000000000E+00  0.67144473273E+03  0.94219864653E+03  0.66098431178E+03 0.  0.
        4    1    3    3  502    0  0.15365038025E+03  0.10533386757E+03  0.72484557384E+03  0.74840255333E+03  0.12699999809E+01 0. -1.
       -4    1    3    3    0  502 -0.15365038025E+03 -0.10533386757E+03 -0.53400841115E+02  0.19379609320E+03  0.12699999809E+01 0.  1.
</event>
<event>
 5   0  0.1532571E-01  0.6108299E+03  0.7818609E-02  0.9883189E-01
       -2   -1    0    0    0  501  0.00000000000E+00  0.00000000000E+00  0.15019449794E+03  0.15019449796E+03  0.25500000920E-02 0.  1.
        2   -1    0    0  501    0  0.00000000000E+00  0.00000000000E+00 -0.62105005737E+03  0.62105005738E+03  0.25500000920E-02 0. -1.
    10030    2    1    2    0    0  0.00000000000E+00  0.00000000000E+00 -0.47085555943E+03  0.77124455534E+03  0.61082993238E+03 0.  0.
        1    1    3    3  502    0  0.12707886247E+02  0.20548274050E+03 -0.52026951265E+03  0.55952212899E+03  0.50400001928E-02 0. -1.
       -1    1    3    3    0  502 -0.12707886247E+02 -0.20548274050E+03  0.49413953218E+02  0.21172242634E+03  0.50400001928E-02 0.  1.
</event>
<event>
 5   0  0.1488510E-01  0.6053084E+03  0.7818609E-02  0.9894454E-01
       -2   -1    0    0    0  501  0.00000000000E+00  0.00000000000E+00  0.52563571650E+03  0.52563571650E+03  0.25500000920E-02 0. -1.
        2   -1    0    0  501    0  0.00000000000E+00  0.00000000000E+00 -0.17426436705E+03  0.17426436706E+03  0.25500000920E-02 0.  1.
    10030    2    1    2    0    0  0.00000000000E+00  0.00000000000E+00  0.35137134945E+03  0.69990008357E+03  0.60530843523E+03 0.  0.
        5    1    3    3  502    0 -0.16450039439E+03  0.14810642225E+03 -0.62914234195E+02  0.23016555548E+03  0.46999998093E+01 0.  1.
       -5    1    3    3    0  502  0.16450039439E+03 -0.14810642225E+03  0.41428558365E+03  0.46973452809E+03  0.46999998093E+01 0. -1.
</event>
<event>
 5   0  0.1513339E-01  0.4230959E+03  0.7818609E-02  0.1036063E+00
       -2   -1    0    0    0  501  0.00000000000E+00  0.00000000000E+00  0.58569205132E+02  0.58569205188E+02  0.25500000920E-02 0. -1.
        2   -1    0    0  501    0  0.00000000000E+00  0.00000000000E+00 -0.76409683696E+03  0.76409683696E+03  0.25500000920E-02 0.  1.
    10030    2    1    2    0    0  0.00000000000E+00  0.00000000000E+00 -0.70552763182E+03  0.82266604215E+03  0.42309594377E+03 0.  0.
        3    1    3    3  502    0  0.17805779719E+03  0.10808153739E+03 -0.42463644300E+03  0.47297179280E+03  0.10100000352E+00 0. -1.
       -3    1    3    3    0  502 -0.17805779719E+03 -0.10808153739E+03 -0.28089118883E+03  0.34969424935E+03  0.10100000352E+00 0.  1.
</event>
<event>
 5   0  0.1483942E-01  0.6002944E+03  0.7818609E-02  0.9904795E-01
       -2   -1    0    0    0  501  0.00000000000E+00  0.00000000000E+00  0.87071940121E+02  0.87071940158E+02  0.25500000920E-02 0.  1.
        2   -1    0    0  501    0  0.00000000000E+00  0.00000000000E+00 -0.10346426977E+04  0.10346426977E+04  0.25500000920E-02 0. -1.
    10030    2    1    2    0    0  0.00000000000E+00  0.00000000000E+00 -0.94757075753E+03  0.11217146378E+04  0.60029441789E+03 0.  0.
        4    1    3    3  502    0  0.12152297877E+02  0.93809921957E+02 -0.10060556991E+04  0.10104937716E+04  0.12699999809E+01 0. -1.
       -4    1    3    3    0  502 -0.12152297877E+02 -0.93809921957E+02  0.58484941555E+02  0.11122086625E+03  0.12699999809E+01 0.  1.
</event>
<event>
 5   0  0.9177281E-02  0.5929348E+03  0.7818609E-02  0.9920174E-01
        1   -1    0    0  501    0  0.00000000000E+00  0.00000000000E+00  0.54990831630E+03  0.54990831632E+03  0.50400001928E-02 0.  1.
       -1   -1    0    0    0  501  0.00000000000E+00  0.00000000000E+00 -0.15983193663E+03  0.15983193671E+03  0.50400001928E-02 0. -1.
    10030    2    1    2    0    0  0.00000000000E+00  0.00000000000E+00  0.39007637967E+03  0.70974025303E+03  0.59293477279E+03 0.  0.
        1    1    3    3  502    0  0.11196185098E+03 -0.23368435266E+03  0.22616489867E+02  0.26010639821E+03  0.50400001928E-02 0. -1.
       -1    1    3    3    0  502 -0.11196185098E+03  0.23368435266E+03  0.36745988981E+03  0.44963385481E+03  0.50400001928E-02 0.  1.
</event>
<event>
 5   0  0.9420349E-02  0.6208460E+03  0.7818609E-02  0.9863077E-01
        1   -1    0    0  501    0  0.00000000000E+00  0.00000000000E+00  0.87295917974E+02  0.87295918119E+02  0.50400001928E-02 0. -1.
       -1   -1    0    0    0  501  0.00000000000E+00  0.00000000000E+00 -0.11038597439E+04  0.11038597439E+04  0.50400001928E-02 0.  1.
    10030    2    1    2    0    0  0.00000000000E+00  0.00000000000E+00 -0.10165638259E+04  0.11911556620E+04  0.62084603486E+03 0.  0.
        2    1    3    3  502    0 -0.15268195062E+01  0.20473520340E+03 -0.60611816785E+02  0.21352430079E+03  0.25500000920E-02 0. -1.
       -2    1    3    3    0  502  0.15268195062E+01 -0.20473520340E+03 -0.95595200914E+03  0.97763136124E+03  0.25500000920E-02 0.  1.
</event>
<event>
 5   0  0.8860626E-02  0.6049217E+03  0.7818609E-02  0.9895247E-01
        1   -1    0    0  501    0  0.00000000000E+00  0.00000000000E+00  0.35324411756E+03  0.35324411760E+03  0.50400001928E-02 0.  1.
       -1   -1    0    0    0  501  0.00000000000E+00  0.00000000000E+00 -0.25897828722E+03  0.25897828727E+03  0.50400001928E-02 0. -1.
    10030    2    1    2    0    0  0.00000000000E+00  0.00000000000E+00  0.94265830343E+02  0.61222240487E+03  0.60492166952E+03 0.  0.
        3    1    3    3  502    0 -0.44239613426E+01  0.23237479866E+03  0.24302754353E+03  0.33627372124E+03  0.10100000352E+00 0.  1.
       -3    1    3    3    0  502  0.44239613426E+01 -0.23237479866E+03 -0.14876171318E+03  0.27594868363E+03  0.10100000352E+00 0. -1.
</event>
<event>
 5   0  0.1483942E-01  0.5925315E+03  0.7818609E-02  0.9921023E-01
       -2   -1    0    0    0  501  0.00000000000E+00  0.00000000000E+00  0.68668974516E+02  0.68668974563E+02  0.25500000920E-02 0. -1.
        2   -1    0    0  501    0  0.00000000000E+00  0.00000000000E+00 -0.12782105050E+04  0.12782105050E+04  0.25500000920E-02 0.  1.
    10030    2    1    2    0    0  0.00000000000E+00  0.00000000000E+00 -0.12095415305E+04  0.13468794795E+04  0.59253153376E+03 0.  0.
        4    1    3    3  502    0 -0.80641262239E+02 -0.41681289092E+02 -0.12458131052E+04  0.12491165875E+04  0.12699999809E+01 0.  1.
       -4    1    3    3    0  502  0.80641262239E+02  0.41681289092E+02  0.36271574746E+02  0.97762892093E+02  0.12699999809E+01 0. -1.
</event>
<event>
 5   0  0.9411028E-02  0.5574679E+03  0.7818609E-02  0.9997800E-01
        1   -1    0    0  501    0  0.00000000000E+00  0.00000000000E+00  0.77065766293E+03  0.77065766295E+03  0.50400001928E-02 0. -1.
       -1   -1    0    0    0  501  0.00000000000E+00  0.00000000000E+00 -0.10081340646E+03  0.10081340659E+03  0.50400001928E-02 0.  1.
    10030    2    1    2    0    0  0.00000000000E+00  0.00000000000E+00  0.66984425647E+03  0.87147106954E+03  0.55746793371E+03 0.  0.
        4    1    3    3  502    0 -0.85342930209E+02 -0.10759152392E+03  0.71409620062E+03  0.72718247256E+03  0.12699999809E+01 0. -1.
       -4    1    3    3    0  502  0.85342930209E+02  0.10759152392E+03 -0.44251944155E+02  0.14428859698E+03  0.12699999809E+01 0.  1.
</event>
<event>
 5   0  0.9497860E-02  0.5563654E+03  0.7818609E-02  0.1000031E+00
       -1   -1    0    0    0  501  0.00000000000E+00  0.00000000000E+00  0.45061730847E+02  0.45061731129E+02  0.50400001928E-02 0.  1.
        1   -1    0    0  501    0  0.00000000000E+00  0.00000000000E+00 -0.17173244786E+04  0.17173244786E+04  0.50400001928E-02 0. -1.
    10030    2    1    2    0    0  0.00000000000E+00  0.00000000000E+00 -0.16722627478E+04  0.17623862098E+04  0.55636539680E+03 0.  0.
        5    1    3    3  502    0  0.10340737944E+03 -0.16168502540E+03 -0.19842515645E+03  0.27609738548E+03  0.46999998093E+01 0.  1.
       -5    1    3    3    0  502 -0.10340737944E+03  0.16168502540E+03 -0.14738375913E+04  0.14862888243E+04  0.46999998093E+01 0. -1.
</event>
<event>
 5   0  0.9411028E-02  0.6528294E+03  0.7818609E-02  0.9801484E-01
        1   -1    0    0  501    0  0.00000000000E+00  0.00000000000E+00  0.12353782542E+04  0.12353782542E+04  0.50400001928E-02 0. -1.
       -1   -1    0    0    0  501  0.00000000000E+00  0.00000000000E+00 -0.86246109447E+02  0.86246109594E+02  0.50400001928E-02 0.  1.
    10030    2    1    2    0    0  0.00000000000E+00  0.00000000000E+00  0.11491321447E+04  0.13216243638E+04  0.65282943629E+03 0.  0.
        4    1    3    3  502    0 -0.27092038024E+03  0.48879154266E+01  0.94301264771E+03  0.98117083670E+03  0.12699999809E+01 0. -1.
       -4    1    3    3    0  502  0.27092038024E+03 -0.48879154266E+01  0.20611949701E+03  0.34045352707E+03  0.12699999809E+01 0.  1.
</event>
<event>
 5   0  0.9420349E-02  0.5966022E+03  0.7818609E-02  0.9912481E-01
        1   -1    0    0  501    0  0.00000000000E+00  0.00000000000E+00  0.34639599343E+03  0.34639599347E+03  0.50400001928E-02 0.  1.
       -1   -1    0    0    0  501  0.00000000000E+00  0.00000000000E+00 -0.25688390505E+03  0.25688390510E+03  0.50400001928E-02 0. -1.
    10030    2    1    2    0    0  0.00000000000E+00  0.00000000000E+00  0.89512088376E+02  0.60327989857E+03  0.59660223101E+03 0.  0.
        2    1    3    3  502    0 -0.45158958843E+02  0.98255933862E+00 -0.25340571226E+03  0.25739998446E+03  0.25500000920E-02 0. -1.
       -2    1    3    3    0  502  0.45158958843E+02 -0.98255933862E+00  0.34291780064E+03  0.34587991411E+03  0.25500000920E-02 0.  1.
</event>
<event>
 5   0  0.1488510E-01  0.5859053E+03  0.7818609E-02  0.9935087E-01
        2   -1    0    0  501    0  0.00000000000E+00  0.00000000000E+00  0.19422712579E+04  0.19422712579E+04  0.25500000920E-02 0. -1.
       -2   -1    0    0    0  501  0.00000000000E+00  0.00000000000E+00 -0.44186023568E+02  0.44186023642E+02  0.25500000920E-02 0.  1.
    10030    2    1    2    0    0  0.00000000000E+00  0.00000000000E+00  0.18980852344E+04  0.19864572816E+04  0.58590526078E+03 0.  0.
        5    1    3    3  502    0  0.16862240440E+03  0.52429852592E+02  0.17413884080E+04  0.17503251362E+04  0.46999998093E+01 0. -1.
       -5    1    3    3    0  502 -0.16862240440E+03 -0.52429852592E+02  0.15669682633E+03  0.23613214539E+03  0.46999998093E+01 0.  1.
</event>
<event>
 5   0  0.1483942E-01  0.6363292E+03  0.7818609E-02  0.9832775E-01
        2   -1    0    0  501    0  0.00000000000E+00  0.00000000000E+00  0.78957445624E+03  0.78957445624E+03  0.25500000920E-02 0.  1.
       -2   -1    0    0    0  501  0.00000000000E+00  0.00000000000E+00 -0.12820665444E+03  0.12820665446E+03  0.25500000920E-02 0. -1.
    10030    2    1    2    0    0  0.00000000000E+00  0.00000000000E+00  0.66136780180E+03  0.91778111070E+03  0.63632915846E+03 0.  0.
        4    1    3    3  502    0  0.26032445829E+03  0.17409268171E+03  0.41163311708E+03  0.51722386003E+03  0.12699999809E+01 0. -1.
       -4    1    3    3    0  502 -0.26032445829E+03 -0.17409268171E+03  0.24973468472E+03  0.40055725067E+03  0.12699999809E+01 0.  1.
</event>
<event>
 5   0  0.8860626E-02  0.5865335E+03  0.7818609E-02  0.9933745E-01
        1   -1    0    0  501    0  0.00000000000E+00  0.00000000000E+00  0.32215211926E+03  0.32215211930E+03  0.50400001928E-02 0.  1.
       -1   -1    0    0    0  501  0.00000000000E+00  0.00000000000E+00 -0.26697132075E+03  0.26697132079E+03  0.50400001928E-02 0. -1.
    10030    2    1    2    0    0  0.00000000000E+00  0.00000000000E+00  0.55180798510E+02  0.58912344009E+03  0.58653346634E+03 0.  0.
        3    1    3    3  502    0  0.13660128065E+03 -0.19978761984E+03 -0.13876208409E+03  0.27898015897E+03  0.10100000352E+00 0. -1.
       -3    1    3    3    0  502 -0.13660128065E+03  0.19978761984E+03  0.19394288260E+03  0.31014328113E+03  0.10100000352E+00 0.  1.
</event>
<event>
 5   0  0.6170500E-02  0.6137325E+03  0.7818609E-02  0.9877318E-01
        4   -1    0    0  501    0  0.00000000000E+00  0.00000000000E+00  0.10946573736E+04  0.10946581103E+04  0.12699999809E+01 0. -1.
       -4   -1    0    0    0  501  0.00000000000E+00  0.00000000000E+00 -0.86018624754E+02  0.86027999539E+02  0.12699999809E+01 0.  1.
    10030    2    1    2    0    0  0.00000000000E+00  0.00000000000E+00  0.10086387488E+04  0.11806861099E+04  0.61373248596E+03 0.  0.
        1    1    3    3  502    0  0.26463045615E+03  0.15175305081E+03  0.44026518500E+03  0.53562272161E+03  0.50400001928E-02 0.  1.
       -1    1    3    3    0  502 -0.26463045615E+03 -0.15175305081E+03  0.56837356384E+03  0.64506338825E+03  0.50400001928E-02 0. -1.
</event>
<event>
 5   0  0.1483942E-01  0.6215687E+03  0.7818609E-02  0.9861641E-01
       -2   -1    0    0    0  501  0.00000000000E+00  0.00000000000E+00  0.61256756983E+03  0.61256756983E+03  0.25500000920E-02 0.  1.
        2   -1    0    0  501    0  0.00000000000E+00  0.00000000000E+00 -0.15767551111E+03  0.15767551113E+03  0.25500000920E-02 0. -1.
    10030    2    1    2    0    0  0.00000000000E+00  0.00000000000E+00  0.45489205872E+03  0.77024308096E+03  0.62156867575E+03 0.  0.
        4    1    3    3  502    0  0.10589053663E+03 -0.28154920904E+03  0.32425009748E+03  0.44229232582E+03  0.12699999809E+01 0.  1.
       -4    1    3    3    0  502 -0.10589053663E+03  0.28154920904E+03  0.13064196124E+03  0.32795075514E+03  0.12699999809E+01 0. -1.
</event>
<event>
 5   0  0.9411028E-02  0.5070836E+03  0.7818609E-02  0.1011946E+00
       -1   -1    0    0    0  501  0.00000000000E+00  0.00000000000E+00  0.12969423562E+03  0.12969423572E+03  0.50400001928E-02 0.  1.
        1   -1    0    0  501    0  0.00000000000E+00  0.00000000000E+00 -0.49565383196E+03  0.49565383199E+03  0.50400001928E-02 0. -1.
    10030    2    1    2    0    0  0.00000000000E+00  0.00000000000E+00 -0.36595959634E+03  0.62534806771E+03  0.50708360222E+03 0.  0.
        4    1    3    3  502    0  0.22310273462E+03  0.10252374670E+03 -0.26093563481E+03  0.35829452584E+03  0.12699999809E+01 0.  1.
       -4    1    3    3    0  502 -0.22310273462E+03 -0.10252374670E+03 -0.10502396152E+03  0.26705354187E+03  0.12699999809E+01 0. -1.
</event>
<event>
 5   0  0.1483942E-01  0.5812555E+03  0.7818609E-02  0.9945076E-01
       -2   -1    0    0    0  501  0.00000000000E+00  0.00000000000E+00  0.20868220965E+03  0.20868220967E+03  0.25500000920E-02 0. -1.
        2   -1    0    0  501    0  0.00000000000E+00  0.00000000000E+00 -0.40475179594E+03  0.40475179595E+03  0.25500000920E-02 0.  1.
    10030    2    1    2    0    0  0.00000000000E+00  0.00000000000E+00 -0.19606958629E+03  0.61343400562E+03  0.58125553467E+03 0.  0.
        4    1    3    3  502    0 -0.12982436442E+03 -0.25752230539E+03 -0.13595121478E+03  0.31883608495E+03  0.12699999809E+01 0.  1.
       -4    1    3    3    0  502  0.12982436442E+03  0.25752230539E+03 -0.60118371510E+02  0.29459792067E+03  0.12699999809E+01 0. -1.
</event>
<event>
 5   0  0.9411028E-02  0.5929989E+03  0.7818609E-02  0.9920039E-01
       -1   -1    0    0    0  501  0.00000000000E+00  0.00000000000E+00  0.50086708943E+03  0.50086708945E+03  0.50400001928E-02 0. -1.
        1   -1    0    0  501    0  0.00000000000E+00  0.00000000000E+00 -0.17551945418E+03  0.17551945426E+03  0.50400001928E-02 0.  1.
    10030    2    1    2    0    0  0.00000000000E+00  0.00000000000E+00  0.32534763524E+03  0.67638654371E+03  0.59299888090E+03 0.  0.
        4    1    3    3  502    0  0.12814371402E+03 -0.82724612988E+02  0.45268340699E+03  0.47769033160E+03  0.12699999809E+01 0. -1.
       -4    1    3    3    0  502 -0.12814371402E+03  0.82724612988E+02 -0.12733577175E+03  0.19869621211E+03  0.12699999809E+01 0.  1.
</event>
<event>
 5   0  0.9177281E-02  0.5973171E+03  0.7818609E-02  0.9910988E-01
        1   -1    0    0  501    0  0.00000000000E+00  0.00000000000E+00  0.85530980644E+03  0.85530980646E+03  0.50400001928E-02 0. -1.
       -1   -1    0    0    0  501  0.00000000000E+00  0.00000000000E+00 -0.10428609683E+03  0.10428609696E+03  0.50400001928E-02 0.  1.
    10030    2    1    2    0    0  0.00000000000E+00  0.00000000000E+00  0.75102370961E+03  0.95959590342E+03  0.59731707280E+03 0.  0.
        1    1    3    3  502    0  0.54351686736E+02 -0.26597390948E+03  0.57552523164E+03  0.63633758230E+03  0.50400001928E-02 0. -1.
       -1    1    3    3    0  502 -0.54351686736E+02  0.26597390948E+03  0.17549847797E+03  0.32325832111E+03  0.50400001928E-02 0.  1.
</event>
<event>
 5   0  0.1513339E-01  0.5917722E+03  0.7818609E-02  0.9922625E-01
       -2   -1    0    0    0  501  0.00000000000E+00  0.00000000000E+00  0.64792200483E+02  0.64792200533E+02  0.25500000920E-02 0.  1.
        2   -1    0    0  501    0  0.00000000000E+00  0.00000000000E+00 -0.13512208398E+04  0.13512208398E+04  0.25500000920E-02 0. -1.
    10030    2    1    2    0    0  0.00000000000E+00  0.00000000000E+00 -0.12864286394E+04  0.14160130404E+04  0.59177215747E+03 0.  0.
        3    1    3    3  502    0 -0.15888297073E+03  0.57052680216E+02 -0.61751735983E+02  0.17975565028E+03  0.10100000352E+00 0.  1.
       -3    1    3    3    0  502  0.15888297073E+03 -0.57052680216E+02 -0.12246769034E+04  0.12362573901E+04  0.10100000352E+00 0. -1.
</event>
<event>
 5   0  0.9497860E-02  0.6289398E+03  0.7818609E-02  0.9847120E-01
       -1   -1    0    0    0  501  0.00000000000E+00  0.00000000000E+00  0.86791422841E+02  0.86791422988E+02  0.50400001928E-02 0. -1.
        1   -1    0    0  501    0  0.00000000000E+00  0.00000000000E+00 -0.11394135591E+04  0.11394135591E+04  0.50400001928E-02 0.  1.
    10030    2    1    2    0    0  0.00000000000E+00  0.00000000000E+00 -0.10526221363E+04  0.12262049821E+04  0.62893981937E+03 0.  0.
        5    1    3    3  502    0 -0.22504492358E+03  0.78687235789E+02 -0.92602174143E+03  0.95622970792E+03  0.46999998093E+01 0.  1.
       -5    1    3    3    0  502  0.22504492358E+03 -0.78687235789E+02 -0.12660039484E+03  0.26997527419E+03  0.46999998093E+01 0. -1.
</event>
<event>
 5   0  0.1513339E-01  0.5806491E+03  0.7818609E-02  0.9946387E-01
        2   -1    0    0  501    0  0.00000000000E+00  0.00000000000E+00  0.48441290636E+03  0.48441290637E+03  0.25500000920E-02 0.  1.
       -2   -1    0    0    0  501  0.00000000000E+00  0.00000000000E+00 -0.17400105303E+03  0.17400105304E+03  0.25500000920E-02 0. -1.
    10030    2    1    2    0    0  0.00000000000E+00  0.00000000000E+00  0.31041185334E+03  0.65841395942E+03  0.58064913955E+03 0.  0.
        3    1    3    3  502    0 -0.16972478569E+03 -0.33135852610E+02 -0.10922987284E+03  0.20453768095E+03  0.10100000352E+00 0. -1.
       -3    1    3    3    0  502  0.16972478569E+03  0.33135852610E+02  0.41964172618E+03  0.45387627847E+03  0.10100000352E+00 0.  1.
</event>
<event>
 5   0  0.1483942E-01  0.6111354E+03  0.7818609E-02  0.9882569E-01
       -2   -1    0    0    0  501  0.00000000000E+00  0.00000000000E+00  0.11013935350E+04  0.11013935350E+04  0.25500000920E-02 0.  1.
        2   -1    0    0  501    0  0.00000000000E+00  0.00000000000E+00 -0.84775880865E+02  0.84775880903E+02  0.25500000920E-02 0. -1.
    10030    2    1    2    0    0  0.00000000000E+00  0.00000000000E+00  0.10166176542E+04  0.11861694159E+04  0.61113536024E+03 0.  0.
        4    1    3    3  502    0  0.63389128954E+02  0.95584626868E+02 -0.41406901851E+02  0.12194567226E+03  0.12699999809E+01 0. -1.
       -4    1    3    3    0  502 -0.63389128954E+02 -0.95584626868E+02  0.10580245560E+04  0.10642237437E+04  0.12699999809E+01 0.  1.
</event>
<event>
 5   0  0.1532571E-01  0.6691993E+03  0.7818609E-02  0.9771405E-01
        2   -1    0    0  501    0  0.00000000000E+00  0.00000000000E+00  0.21568707211E+04  0.21568707211E+04  0.25500000920E-02 0. -1.
       -2   -1    0    0    0  501  0.00000000000E+00  0.00000000000E+00 -0.51907112694E+02  0.51907112756E+02  0.25500000920E-02 0.  1.
    10030    2    1    2    0    0  0.00000000000E+00  0.00000000000E+00  0.21049636084E+04  0.22087778339E+04  0.66919931757E+03 0.  0.
        1    1    3    3  502    0  0.13110423236E+03  0.13620258684E+03  0.19637029769E+04  0.19727820067E+04  0.50400001928E-02 0. -1.
       -1    1    3    3    0  502 -0.13110423236E+03 -0.13620258684E+03  0.14126063151E+03  0.23599582718E+03  0.50400001928E-02 0.  1.
</event>
<event>
 5   0  0.1532571E-01  0.5979310E+03  0.7818609E-02  0.9909708E-01
        2   -1    0    0  501    0  0.00000000000E+00  0.00000000000E+00  0.12215780913E+04  0.12215780914E+04  0.25500000920E-02 0. -1.
       -2   -1    0    0    0  501  0.00000000000E+00  0.00000000000E+00 -0.73167951933E+02  0.73167951978E+02  0.25500000920E-02 0.  1.
    10030    2    1    2    0    0  0.00000000000E+00  0.00000000000E+00  0.11484101394E+04  0.12947460433E+04  0.59793098967E+03 0.  0.
        1    1    3    3  502    0  0.39892696265E+02 -0.27558633950E+03  0.33857553505E+03  0.43837501148E+03  0.50400001928E-02 0.  1.
       -1    1    3    3    0  502 -0.39892696265E+02  0.27558633950E+03  0.80983460437E+03  0.85637103185E+03  0.50400001928E-02 0. -1.
</event>
<event>
 5   0  0.6170500E-02  0.5661671E+03  0.7818609E-02  0.9978196E-01
        4   -1    0    0  501    0  0.00000000000E+00  0.00000000000E+00  0.20504054215E+03  0.20504447524E+03  0.12699999809E+01 0.  1.
       -4   -1    0    0    0  501  0.00000000000E+00  0.00000000000E+00 -0.39082268669E+03  0.39082475015E+03  0.12699999809E+01 0. -1.
    10030    2    1    2    0    0  0.00000000000E+00  0.00000000000E+00 -0.18578214454E+03  0.59586922539E+03  0.56616705003E+03 0.  0.
        1    1    3    3  502    0 -0.19208192506E+03 -0.88514900286E+02  0.10514502555E+03  0.23619024098E+03  0.50400001928E-02 0.  1.
       -1    1    3    3    0  502  0.19208192506E+03  0.88514900286E+02 -0.29092717009E+03  0.35967898442E+03  0.50400001928E-02 0. -1.
</event>
<event>
 5   0  0.9411028E-02  0.5943790E+03  0.7818609E-02  0.9917137E-01
        1   -1    0    0  501    0  0.00000000000E+00  0.00000000000E+00  0.45447024931E+03  0.45447024934E+03  0.50400001928E-02 0. -1.
       -1   -1    0    0    0  501  0.00000000000E+00  0.00000000000E+00 -0.19433966502E+03  0.19433966509E+03  0.50400001928E-02 0.  1.
    10030    2    1    2    0    0  0.00000000000E+00  0.00000000000E+00  0.26013058429E+03  0.64880991443E+03  0.59437899036E+03 0.  0.
        4    1    3    3  502    0 -0.32196803357E+02  0.17431097161E+03 -0.13031401981E+03  0.22000978530E+03  0.12699999809E+01 0.  1.
       -4    1    3    3    0  502  0.32196803357E+02 -0.17431097161E+03  0.39044460410E+03  0.42880012913E+03  0.12699999809E+01 0. -1.
</event>
<event>
 5   0  0.1488510E-01  0.5993628E+03  0.7818609E-02  0.9906729E-01
        2   -1    0    0  501    0  0.00000000000E+00  0.00000000000E+00  0.13413793625E+04  0.13413793625E+04  0.25500000920E-02 0.  1.
       -2   -1    0    0    0  501  0.00000000000E+00  0.00000000000E+00 -0.66952677190E+02  0.66952677238E+02  0.25500000920E-02 0. -1.
    10030    2    1    2    0    0  0.00000000000E+00  0.00000000000E+00  0.12744266853E+04  0.14083320397E+04  0.59936279324E+03 0.  0.
        5    1    3    3  502    0 -0.50181306982E+02  0.66213742141E+02 -0.39261651827E+02  0.92010817414E+02  0.46999998093E+01 0. -1.
       -5    1    3    3    0  502  0.50181306982E+02 -0.66213742141E+02  0.13136883371E+04  0.13163212223E+04  0.46999998093E+01 0.  1.
</event>
<event>
 5   0  0.9177281E-02  0.6050731E+03  0.7818609E-02  0.9894937E-01
       -1   -1    0    0    0  501  0.00000000000E+00  0.00000000000E+00  0.91529316709E+02  0.91529316848E+02  0.50400001928E-02 0. -1.
        1   -1    0    0  501    0  0.00000000000E+00  0.00000000000E+00 -0.99998951727E+03  0.99998951728E+03  0.50400001928E-02 0.  1.
    10030    2    1    2    0    0  0.00000000000E+00  0.00000000000E+00 -0.90846020056E+03  0.10915188341E+04  0.60507307762E+03 0.  0.
        1    1    3    3  502    0 -0.24031614916E+02 -0.29804961399E+03 -0.37122378147E+03  0.47667408873E+03  0.50400001928E-02 0. -1.
       -1    1    3    3    0  502  0.24031614916E+02  0.29804961399E+03 -0.53723641910E+03  0.61484474540E+03  0.50400001928E-02 0.  1.
</event>
<event>
 5   0  0.6170500E-02  0.4960595E+03  0.7818609E-02  0.1014813E+00
       -3   -1    0    0    0  501  0.00000000000E+00  0.00000000000E+00  0.60015921887E+02  0.60016006873E+02  0.10100000352E+00 0. -1.
        3   -1    0    0  501    0  0.00000000000E+00  0.00000000000E+00 -0.10250398333E+04  0.10250398383E+04  0.10100000352E+00 0.  1.
    10030    2    1    2    0    0  0.00000000000E+00  0.00000000000E+00 -0.96502391139E+03  0.10850558451E+04  0.49605951003E+03 0.  0.
        1    1    3    3  502    0  0.58669631040E+02  0.14063498880E+03 -0.91057606580E+03  0.92323837513E+03  0.50400001928E-02 0.  1.
       -1    1    3    3    0  502 -0.58669631040E+02 -0.14063498880E+03 -0.54447845595E+02  0.16181747000E+03  0.50400001928E-02 0. -1.
</event>
<event>
 5   0  0.9411028E-02  0.5848569E+03  0.7818609E-02  0.9937331E-01
        1   -1    0    0  501    0  0.00000000000E+00  0.00000000000E+00  0.86621521511E+03  0.86621521513E+03  0.50400001928E-02 0.  1.
       -1   -1    0    0    0  501  0.00000000000E+00  0.00000000000E+00 -0.98721885869E+02  0.98721885997E+02  0.50400001928E-02 0. -1.
    10030    2    1    2    0    0  0.00000000000E+00  0.00000000000E+00  0.76749332924E+03  0.96493710112E+03  0.58485690446E+03 0.  0.
        4    1    3    3  502    0  0.19984763098E+03 -0.20041256374E+03  0.50508231474E+03  0.57897670841E+03  0.12699999809E+01 0.  1.
       -4    1    3    3    0  502 -0.19984763098E+03  0.20041256374E+03  0.26241101450E+03  0.38596039272E+03  0.12699999809E+01 0. -1.
</event>
<event>
 5   0  0.8860626E-02  0.6078718E+03  0.7818609E-02  0.9889208E-01
        1   -1    0    0  501    0  0.00000000000E+00  0.00000000000E+00  0.28448055183E+03  0.28448055188E+03  0.50400001928E-02 0.  1.
       -1   -1    0    0    0  501  0.00000000000E+00  0.00000000000E+00 -0.32472178162E+03  0.32472178166E+03  0.50400001928E-02 0. -1.
    10030    2    1    2    0    0  0.00000000000E+00  0.00000000000E+00 -0.40241229789E+02  0.60920233354E+03  0.60787180113E+03 0.  0.
        3    1    3    3  502    0  0.14496510766E+03  0.11217053920E+03 -0.26309697191E+03  0.32065111746E+03  0.10100000352E+00 0. -1.
       -3    1    3    3    0  502 -0.14496510766E+03 -0.11217053920E+03  0.22285574212E+03  0.28855121608E+03  0.10100000352E+00 0.  1.
</event>
<event>
 5   0  0.1483942E-01  0.5044584E+03  0.7818609E-02  0.1012622E+00
        2   -1    0    0  501    0  0.00000000000E+00  0.00000000000E+00  0.69399172817E+03  0.69399172818E+03  0.25500000920E-02 0.  1.
       -2   -1    0    0    0  501  0.00000000000E+00  0.00000000000E+00 -0.91671947344E+02  0.91671947379E+02  0.25500000920E-02 0. -1.
    10030    2    1    2    0    0  0.00000000000E+00  0.00000000000E+00  0.60231978083E+03  0.78566367556E+03  0.50445841524E+03 0.  0.
        4    1    3    3  502    0  0.68978385662E+02 -0.50723797966E+02  0.67066079365E+03  0.67610534268E+03  0.12699999809E+01 0.  1.
       -4    1    3    3    0  502 -0.68978385662E+02  0.50723797966E+02 -0.68341012819E+02  0.10955833287E+03  0.12699999809E+01 0. -1.
</event>
<event>
 5   0  0.9177281E-02  0.5840768E+03  0.7818609E-02  0.9939004E-01
       -1   -1    0    0    0  501  0.00000000000E+00  0.00000000000E+00  0.65186799857E+02  0.65186800052E+02  0.50400001928E-02 0.  1.
        1   -1    0    0  501    0  0.00000000000E+00  0.00000000000E+00 -0.13083388470E+04  0.13083388471E+04  0.50400001928E-02 0. -1.
    10030    2    1    2    0    0  0.00000000000E+00  0.00000000000E+00 -0.12431520472E+04  0.13735256471E+04  0.58407678505E+03 0.  0.
        1    1    3    3  502    0 -0.13947234254E+03 -0.20608615230E+03 -0.98101521408E+03  0.10120844267E+04  0.50400001928E-02 0. -1.
       -1    1    3    3    0  502  0.13947234254E+03  0.20608615230E+03 -0.26213683310E+03  0.36144122039E+03  0.50400001928E-02 0.  1.
</event>
<event>
 5   0  0.1502642E-01  0.5667285E+03  0.7818609E-02  0.9976944E-01
        2   -1    0    0  501    0  0.00000000000E+00  0.00000000000E+00  0.27097077159E+03  0.27097077160E+03  0.25500000920E-02 0.  1.
       -2   -1    0    0    0  501  0.00000000000E+00  0.00000000000E+00 -0.29632459041E+03  0.29632459042E+03  0.25500000920E-02 0. -1.
    10030    2    1    2    0    0  0.00000000000E+00  0.00000000000E+00 -0.25353818826E+02  0.56729536202E+03  0.56672851670E+03 0.  0.
        2    1    3    3  502    0 -0.17683768579E+03 -0.36350941686E+02 -0.23130402782E+03  0.29341866227E+03  0.25500000920E-02 0. -1.
       -2    1    3    3    0  502  0.17683768579E+03  0.36350941686E+02  0.20595020899E+03  0.27387669975E+03  0.25500000920E-02 0.  1.
</event>
<event>
 5   0  0.1488510E-01  0.6009641E+03  0.7818609E-02  0.9903408E-01
        2   -1    0    0  501    0  0.00000000000E+00  0.00000000000E+00  0.16585075869E+04  0.16585075869E+04  0.25500000920E-02 0. -1.
       -2   -1    0    0    0  501  0.00000000000E+00  0.00000000000E+00 -0.54440189086E+02  0.54440189146E+02  0.25500000920E-02 0.  1.
    10030    2    1    2    0    0  0.00000000000E+00  0.00000000000E+00  0.16040673978E+04  0.17129477760E+04  0.60096411434E+03 0.  0.
        5    1    3    3  502    0  0.24785013193E+03 -0.98253290312E+01  0.31881062193E+03  0.40396599813E+03  0.46999998093E+01 0.  1.
       -5    1    3    3    0  502 -0.24785013193E+03  0.98253290312E+01  0.12852567758E+04  0.13089817779E+04  0.46999998093E+01 0. -1.
</event>
<event>
 5   0  0.8860626E-02  0.5903066E+03  0.7818609E-02  0.9925723E-01
        1   -1    0    0  501    0  0.00000000000E+00  0.00000000000E+00  0.64393630142E+03  0.64393630144E+03  0.50400001928E-02 0.  1.
       -1   -1    0    0    0  501  0.00000000000E+00  0.00000000000E+00 -0.13528587354E+03  0.13528587363E+03  0.50400001928E-02 0. -1.
    10030    2    1    2    0    0  0.00000000000E+00  0.00000000000E+00  0.50865042788E+03  0.77922217507E+03  0.59030664941E+03 0.  0.
        3    1    3    3  502    0 -0.17144053949E+03  0.17619003799E+03  0.38708645246E+02  0.24886373276E+03  0.10100000352E+00 0. -1.
       -3    1    3    3    0  502  0.17144053949E+03 -0.17619003799E+03  0.46994178264E+03  0.53035844231E+03  0.10100000352E+00 0.  1.
</event>
<event>
 5   0  0.9497860E-02  0.5881586E+03  0.7818609E-02  0.9930282E-01
       -1   -1    0    0    0  501  0.00000000000E+00  0.00000000000E+00  0.58705854099E+03  0.58705854101E+03  0.50400001928E-02 0.  1.
        1   -1    0    0  501    0  0.00000000000E+00  0.00000000000E+00 -0.14731518969E+03  0.14731518977E+03  0.50400001928E-02 0. -1.
    10030    2    1    2    0    0  0.00000000000E+00  0.00000000000E+00  0.43974335130E+03  0.73437373078E+03  0.58815861929E+03 0.  0.
        5    1    3    3  502    0  0.17715444292E+03  0.18587680131E+03  0.39875996097E+03  0.47430525865E+03  0.46999998093E+01 0.  1.
       -5    1    3    3    0  502 -0.17715444292E+03 -0.18587680131E+03  0.40983390326E+02  0.26006847213E+03  0.46999998093E+01 0. -1.
</event>
<event>
 5   0  0.8860626E-02  0.6178607E+03  0.7818609E-02  0.9869028E-01
        1   -1    0    0  501    0  0.00000000000E+00  0.00000000000E+00  0.68288644729E+03  0.68288644731E+03  0.50400001928E-02 0. -1.
       -1   -1    0    0    0  501  0.00000000000E+00  0.00000000000E+00 -0.13975671365E+03  0.13975671374E+03  0.50400001928E-02 0.  1.
    10030    2    1    2    0    0  0.00000000000E+00  0.00000000000E+00  0.54312973364E+03  0.82264316105E+03  0.61786071477E+03 0.  0.
        3    1    3    3  502    0  0.26504119825E+03 -0.15766580204E+03  0.29584722813E+03  0.42735340703E+03  0.10100000352E+00 0. -1.
       -3    1    3    3    0  502 -0.26504119825E+03  0.15766580204E+03  0.24728250551E+03  0.39528975402E+03  0.10100000352E+00 0.  1.
</event>
<event>
 5   0  0.1502642E-01  0.6815022E+03  0.7818609E-02  0.9749399E-01
        2   -1    0    0  501    0  0.00000000000E+00  0.00000000000E+00  0.12043058074E+04  0.12043058074E+04  0.25500000920E-02 0.  1.
       -2   -1    0    0    0  501  0.00000000000E+00  0.00000000000E+00 -0.96413482414E+02  0.96413482448E+02  0.25500000920E-02 0. -1.
    10030    2    1    2    0    0  0.00000000000E+00  0.00000000000E+00  0.11078923250E+04  0.13007192898E+04  0.68150221366E+03 0.  0.
        2    1    3    3  502    0  0.13172911313E+02 -0.33312694909E+03  0.41947098505E+03  0.53581992975E+03  0.25500000920E-02 0.  1.
       -2    1    3    3    0  502 -0.13172911313E+02  0.33312694909E+03  0.68842133991E+03  0.76489936008E+03  0.25500000920E-02 0. -1.
</event>
<event>
 5   0  0.9411028E-02  0.6183084E+03  0.7818609E-02  0.9868134E-01
        1   -1    0    0  501    0  0.00000000000E+00  0.00000000000E+00  0.10278084665E+04  0.10278084665E+04  0.50400001928E-02 0.  1.
       -1   -1    0    0    0  501  0.00000000000E+00  0.00000000000E+00 -0.92990384318E+02  0.92990384455E+02  0.50400001928E-02 0. -1.
    10030    2    1    2    0    0  0.00000000000E+00  0.00000000000E+00  0.93481808213E+03  0.11207988509E+04  0.61830835150E+03 0.  0.
        4    1    3    3  502    0 -0.10355923422E+03 -0.21584335900E+02 -0.59157636401E+02  0.12120906481E+03  0.12699999809E+01 0. -1.
       -4    1    3    3    0  502  0.10355923422E+03  0.21584335900E+02  0.99397571853E+03  0.99958978610E+03  0.12699999809E+01 0.  1.
</event>
<event>
 5   0  0.1513339E-01  0.6075400E+03  0.7818609E-02  0.9889885E-01
       -2   -1    0    0    0  501  0.00000000000E+00  0.00000000000E+00  0.47975646279E+02  0.47975646347E+02  0.25500000920E-02 0. -1.
        2   -1    0    0  501    0  0.00000000000E+00  0.00000000000E+00 -0.19233971139E+04  0.19233971139E+04  0.25500000920E-02 0.  1.
    10030    2    1    2    0    0  0.00000000000E+00  0.00000000000E+00 -0.18754214676E+04  0.19713727602E+04  0.60754002225E+03 0.  0.
        3    1    3    3  502    0  0.10772832505E+03 -0.28398091446E+03 -0.92127449575E+03  0.97005013196E+03  0.10100000352E+00 0. -1.
       -3    1    3    3    0  502 -0.10772832505E+03  0.28398091446E+03 -0.95414697187E+03  0.10013226283E+04  0.10100000352E+00 0.  1.
</event>
<event>
 5   0  0.1488510E-01  0.5982262E+03  0.7818609E-02  0.9909093E-01
       -2   -1    0    0    0  501  0.00000000000E+00  0.00000000000E+00  0.43076103450E+03  0.43076103451E+03  0.25500000920E-02 0.  1.
        2   -1    0    0  501    0  0.00000000000E+00  0.00000000000E+00 -0.20769902121E+03  0.20769902122E+03  0.25500000920E-02 0. -1.
    10030    2    1    2    0    0  0.00000000000E+00  0.00000000000E+00  0.22306201329E+03  0.63846005573E+03  0.59822619551E+03 0.  0.
        5    1    3    3  502    0 -0.49858405906E+02 -0.14937679984E+03  0.38288948019E+03  0.41403590787E+03  0.46999998093E+01 0.  1.
       -5    1    3    3    0  502  0.49858405906E+02  0.14937679984E+03 -0.15982746690E+03  0.22442414786E+03  0.46999998093E+01 0. -1.
</event>
<event>
 5   0  0.1483942E-01  0.5945798E+03  0.7818609E-02  0.9916715E-01
       -2   -1    0    0    0  501  0.00000000000E+00  0.00000000000E+00  0.16756353988E+03  0.16756353990E+03  0.25500000920E-02 0. -1.
        2   -1    0    0  501    0  0.00000000000E+00  0.00000000000E+00 -0.52744945607E+03  0.52744945608E+03  0.25500000920E-02 0.  1.
    10030    2    1    2    0    0  0.00000000000E+00  0.00000000000E+00 -0.35988591619E+03  0.69501299598E+03  0.59457984486E+03 0.  0.
        4    1    3    3  502    0 -0.26956268642E+03  0.12461930379E+03 -0.16401513987E+03  0.33925888609E+03  0.12699999809E+01 0. -1.
       -4    1    3    3    0  502  0.26956268642E+03 -0.12461930379E+03 -0.19587077632E+03  0.35575410989E+03  0.12699999809E+01 0.  1.
</event>
<event>
 5   0  0.9411028E-02  0.6115375E+03  0.7818609E-02  0.9881754E-01
       -1   -1    0    0    0  501  0.00000000000E+00  0.00000000000E+00  0.47476864789E+03  0.47476864791E+03  0.50400001928E-02 0. -1.
        1   -1    0    0  501    0  0.00000000000E+00  0.00000000000E+00 -0.19692649591E+03  0.19692649598E+03  0.50400001928E-02 0.  1.
    10030    2    1    2    0    0  0.00000000000E+00  0.00000000000E+00  0.27784215197E+03  0.67169514389E+03  0.61153749265E+03 0.  0.
        4    1    3    3  502    0 -0.18824261320E+02  0.28456418684E+03  0.26004997357E+03  0.38595172094E+03  0.12699999809E+01 0. -1.
       -4    1    3    3    0  502  0.18824261320E+02 -0.28456418684E+03  0.17792178402E+02  0.28574342295E+03  0.12699999809E+01 0.  1.
</event>
<event>
 5   0  0.1532571E-01  0.5934104E+03  0.7818609E-02  0.9919173E-01
       -2   -1    0    0    0  501  0.00000000000E+00  0.00000000000E+00  0.64032576359E+02  0.64032576410E+02  0.25500000920E-02 0.  1.
        2   -1    0    0  501    0  0.00000000000E+00  0.00000000000E+00 -0.13748308610E+04  0.13748308610E+04  0.25500000920E-02 0. -1.
    10030    2    1    2    0    0  0.00000000000E+00  0.00000000000E+00 -0.13107982847E+04  0.14388634374E+04  0.59341035423E+03 0.  0.
        1    1    3    3  502    0  0.10295850639E+03  0.25137773653E+03 -0.36602397779E+03  0.45581221221E+03  0.50400001928E-02 0.  1.
       -1    1    3    3    0  502 -0.10295850639E+03 -0.25137773653E+03 -0.94477430687E+03  0.98305122522E+03  0.50400001928E-02 0. -1.
</event>
<event>
 5   0  0.9411028E-02  0.6024230E+03  0.7818609E-02  0.9900392E-01
       -1   -1    0    0    0  501  0.00000000000E+00  0.00000000000E+00  0.40368127988E+03  0.40368127991E+03  0.50400001928E-02 0.  1.
        1   -1    0    0  501    0  0.00000000000E+00  0.00000000000E+00 -0.22475250281E+03  0.22475250287E+03  0.50400001928E-02 0. -1.
    10030    2    1    2    0    0  0.00000000000E+00  0.00000000000E+00  0.17892877707E+03  0.62843378279E+03  0.60242303416E+03 0.  0.
        4    1    3    3  502    0 -0.23532211465E+03  0.10496455232E+03  0.25218898246E+03  0.36054812531E+03  0.12699999809E+01 0.  1.
       -4    1    3    3    0  502  0.23532211465E+03 -0.10496455232E+03 -0.73260205389E+02  0.26788565748E+03  0.12699999809E+01 0. -1.
</event>
<event>
 5   0  0.1483942E-01  0.5959796E+03  0.7818609E-02  0.9913782E-01
        2   -1    0    0  501    0  0.00000000000E+00  0.00000000000E+00  0.17588129204E+03  0.17588129206E+03  0.25500000920E-02 0. -1.
       -2   -1    0    0    0  501  0.00000000000E+00  0.00000000000E+00 -0.50487422212E+03  0.50487422213E+03  0.25500000920E-02 0.  1.
    10030    2    1    2    0    0  0.00000000000E+00  0.00000000000E+00 -0.32899293008E+03  0.68075551419E+03  0.59597963225E+03 0.  0.
        4    1    3    3  502    0 -0.91293697704E+02  0.19631889464E+03  0.69373180522E+02  0.22735412622E+03  0.12699999809E+01 0. -1.
       -4    1    3    3    0  502  0.91293697704E+02 -0.19631889464E+03 -0.39836611060E+03  0.45340138797E+03  0.12699999809E+01 0.  1.
</event>
<event>
 5   0  0.9177281E-02  0.5971877E+03  0.7818609E-02  0.9911258E-01
        1   -1    0    0  501    0  0.00000000000E+00  0.00000000000E+00  0.16133732744E+03  0.16133732752E+03  0.50400001928E-02 0.  1.
       -1   -1    0    0    0  501  0.00000000000E+00  0.00000000000E+00 -0.55262040419E+03  0.55262040421E+03  0.50400001928E-02 0. -1.
    10030    2    1    2    0    0  0.00000000000E+00  0.00000000000E+00 -0.39128307674E+03  0.71395773173E+03  0.59718773979E+03 0.  0.
        1    1    3    3  502    0  0.27106831471E+03  0.29517077791E+02 -0.34112868659E+03  0.43671280031E+03  0.50400001928E-02 0. -1.
       -1    1    3    3    0  502 -0.27106831471E+03 -0.29517077791E+02 -0.50154390154E+02  0.27724493142E+03  0.50400001928E-02 0.  1.
</event>
<event>
 5   0  0.1488510E-01  0.5988933E+03  0.7818609E-02  0.9907705E-01
       -2   -1    0    0    0  501  0.00000000000E+00  0.00000000000E+00  0.55804626787E+03  0.55804626788E+03  0.25500000920E-02 0. -1.
        2   -1    0    0  501    0  0.00000000000E+00  0.00000000000E+00 -0.16068253176E+03  0.16068253178E+03  0.25500000920E-02 0.  1.
    10030    2    1    2    0    0  0.00000000000E+00  0.00000000000E+00  0.39736373612E+03  0.71872879965E+03  0.59889326985E+03 0.  0.
        5    1    3    3  502    0 -0.50750419576E+02  0.14182416782E+03  0.50921788527E+03  0.53105051016E+03  0.46999998093E+01 0. -1.
       -5    1    3    3    0  502  0.50750419576E+02 -0.14182416782E+03 -0.11185414916E+03  0.18767828949E+03  0.46999998093E+01 0.  1.
</event>
<event>
 5   0  0.1488510E-01  0.5981321E+03  0.7818609E-02  0.9909289E-01
       -2   -1    0    0    0  501  0.00000000000E+00  0.00000000000E+00  0.16390835760E+03  0.16390835762E+03  0.25500000920E-02 0. -1.
        2   -1    0    0  501    0  0.00000000000E+00  0.00000000000E+00 -0.54567382388E+03  0.54567382389E+03  0.25500000920E-02 0.  1.
    10030    2    1    2    0    0  0.00000000000E+00  0.00000000000E+00 -0.38176546628E+03  0.70958218151E+03  0.59813209332E+03 0.  0.
        5    1    3    3  502    0  0.17503170996E+03  0.20033479448E+03 -0.28879009484E+02  0.26763074666E+03  0.46999998093E+01 0. -1.
       -5    1    3    3    0  502 -0.17503170996E+03 -0.20033479448E+03 -0.35288645680E+03  0.44195143484E+03  0.46999998093E+01 0.  1.
</event>
<event>
 5   0  0.1502642E-01  0.6042370E+03  0.7818609E-02  0.9896654E-01
       -2   -1    0    0    0  501  0.00000000000E+00  0.00000000000E+00  0.75588952460E+02  0.75588952503E+02  0.25500000920E-02 0. -1.
        2   -1    0    0  501    0  0.00000000000E+00  0.00000000000E+00 -0.12075253691E+04  0.12075253691E+04  0.25500000920E-02 0.  1.
    10030    2    1    2    0    0  0.00000000000E+00  0.00000000000E+00 -0.11319364167E+04  0.12831143216E+04  0.60423696594E+03 0.  0.
        2    1    3    3  502    0  0.40552187105E+01  0.20295767402E+03 -0.10411231108E+04  0.10607288033E+04  0.25500000920E-02 0.  1.
       -2    1    3    3    0  502 -0.40552187105E+01 -0.20295767402E+03 -0.90813305853E+02  0.22238551835E+03  0.25500000920E-02 0. -1.
</event>
<event>
 5   0  0.1502642E-01  0.6319679E+03  0.7818609E-02  0.9841216E-01
        2   -1    0    0  501    0  0.00000000000E+00  0.00000000000E+00  0.99562664194E+03  0.99562664194E+03  0.25500000920E-02 0. -1.
       -2   -1    0    0    0  501  0.00000000000E+00  0.00000000000E+00 -0.10028442187E+03  0.10028442190E+03  0.25500000920E-02 0.  1.
    10030    2    1    2    0    0  0.00000000000E+00  0.00000000000E+00  0.89534222007E+03  0.10959110638E+04  0.63196785426E+03 0.  0.
        2    1    3    3  502    0  0.89259121002E+02 -0.12915977445E+03  0.92320213874E+03  0.93645695416E+03  0.25500000920E-02 0. -1.
       -2    1    3    3    0  502 -0.89259121002E+02  0.12915977445E+03 -0.27859918675E+02  0.15945410968E+03  0.25500000920E-02 0.  1.
</event>
<event>
 5   0  0.1532571E-01  0.5999345E+03  0.7818609E-02  0.9905542E-01
        2   -1    0    0  501    0  0.00000000000E+00  0.00000000000E+00  0.29508901138E+03  0.29508901139E+03  0.25500000920E-02 0. -1.
       -2   -1    0    0    0  501  0.00000000000E+00  0.00000000000E+00 -0.30492608444E+03  0.30492608446E+03  0.25500000920E-02 0.  1.
    10030    2    1    2    0    0  0.00000000000E+00  0.00000000000E+00 -0.98370730660E+01  0.60001509584E+03  0.59993445245E+03 0.  0.
        1    1    3    3  502    0 -0.19766808495E+03 -0.98352223458E+02 -0.20800864308E+03  0.30333715118E+03  0.50400001928E-02 0.  1.
       -1    1    3    3    0  502  0.19766808495E+03  0.98352223458E+02  0.19817157001E+03  0.29667794467E+03  0.50400001928E-02 0. -1.
</event>
<event>
 5   0  0.8860626E-02  0.6090253E+03  0.7818609E-02  0.9886856E-01
        1   -1    0    0  501    0  0.00000000000E+00  0.00000000000E+00  0.33388341601E+03  0.33388341604E+03  0.50400001928E-02 0. -1.
       -1   -1    0    0    0  501  0.00000000000E+00  0.00000000000E+00 -0.27772551704E+03  0.27772551709E+03  0.50400001928E-02 0.  1.
    10030    2    1    2    0    0  0.00000000000E+00  0.00000000000E+00  0.56157898960E+02  0.61160893313E+03  0.60902526834E+03 0.  0.
        3    1    3    3  502    0  0.90048404014E+02  0.14799431894E+03  0.27957478754E+03  0.32889680073E+03  0.10100000352E+00 0. -1.
       -3    1    3    3    0  502 -0.90048404014E+02 -0.14799431894E+03 -0.22341688858E+03  0.28271213240E+03  0.10100000352E+00 0.  1.
</event>
<event>
 5   0  0.8860626E-02  0.5897616E+03  0.7818609E-02  0.9926878E-01
        1   -1    0    0  501    0  0.00000000000E+00  0.00000000000E+00  0.16320295348E+03  0.16320295356E+03  0.50400001928E-02 0. -1.
       -1   -1    0    0    0  501  0.00000000000E+00  0.00000000000E+00 -0.53280100444E+03  0.53280100447E+03  0.50400001928E-02 0.  1.
    10030    2    1    2    0    0  0.00000000000E+00  0.00000000000E+00 -0.36959805096E+03  0.69600395803E+03  0.58976163856E+03 0.  0.
        3    1    3    3  502    0 -0.12886578733E+03  0.19808955117E+03 -0.39294930564E+03  0.45853574390E+03  0.10100000352E+00 0.  1.
       -3    1    3    3    0  502  0.12886578733E+03 -0.19808955117E+03  0.23351254681E+02  0.23746821413E+03  0.10100000352E+00 0. -1.
</event>
<event>
 5   0  0.9497860E-02  0.6078151E+03  0.7818609E-02  0.9889324E-01
        1   -1    0    0  501    0  0.00000000000E+00  0.00000000000E+00  0.38841651531E+03  0.38841651534E+03  0.50400001928E-02 0. -1.
       -1   -1    0    0    0  501  0.00000000000E+00  0.00000000000E+00 -0.23778546200E+03  0.23778546205E+03  0.50400001928E-02 0.  1.
    10030    2    1    2    0    0  0.00000000000E+00  0.00000000000E+00  0.15063105331E+03  0.62620197739E+03  0.60781510533E+03 0.  0.
        5    1    3    3  502    0 -0.12465017860E+03  0.13582462747E+03 -0.17355287290E+03  0.25323642341E+03  0.46999998093E+01 0.  1.
       -5    1    3    3    0  502  0.12465017860E+03 -0.13582462747E+03  0.32418392621E+03  0.37296555399E+03  0.46999998093E+01 0. -1.
</event>
<event>
 5   0  0.1513339E-01  0.5988252E+03  0.7818609E-02  0.9907846E-01
       -2   -1    0    0    0  501  0.00000000000E+00  0.00000000000E+00  0.62695909987E+02  0.62695910039E+02  0.25500000920E-02 0. -1.
        2   -1    0    0  501    0  0.00000000000E+00  0.00000000000E+00 -0.14298845287E+04  0.14298845287E+04  0.25500000920E-02 0.  1.
    10030    2    1    2    0    0  0.00000000000E+00  0.00000000000E+00 -0.13671886187E+04  0.14925804387E+04  0.59882522239E+03 0.  0.
        3    1    3    3  502    0  0.29396445595E+03 -0.46941033287E+02 -0.60362616914E+03  0.67304020997E+03  0.10100000352E+00 0.  1.
       -3    1    3    3    0  502 -0.29396445595E+03  0.46941033287E+02 -0.76356244956E+03  0.81954022876E+03  0.10100000352E+00 0. -1.
</event>
<event>
 5   0  0.6170500E-02  0.5125994E+03  0.7818609E-02  0.1010542E+00
       -3   -1    0    0    0  501  0.00000000000E+00  0.00000000000E+00  0.95984053389E+02  0.95984106528E+02  0.10100000352E+00 0. -1.
        3   -1    0    0  501    0  0.00000000000E+00  0.00000000000E+00 -0.68437951738E+03  0.68437952483E+03  0.10100000352E+00 0.  1.
    10030    2    1    2    0    0  0.00000000000E+00  0.00000000000E+00 -0.58839546399E+03  0.78036363136E+03  0.51259942948E+03 0.  0.
        5    1    3    3  502    0  0.23865545594E+03  0.16548465050E+02 -0.15436223115E+03  0.28474561761E+03  0.46999998093E+01 0. -1.
       -5    1    3    3    0  502 -0.23865545594E+03 -0.16548465050E+02 -0.43403323284E+03  0.49561801375E+03  0.46999998093E+01 0.  1.
</event>
<event>
 5   0  0.9411028E-02  0.6205746E+03  0.7818609E-02  0.9863616E-01
       -1   -1    0    0    0  501  0.00000000000E+00  0.00000000000E+00  0.45759312185E+02  0.45759312462E+02  0.50400001928E-02 0.  1.
        1   -1    0    0  501    0  0.00000000000E+00  0.00000000000E+00 -0.21040133109E+04  0.21040133109E+04  0.50400001928E-02 0. -1.
    10030    2    1    2    0    0  0.00000000000E+00  0.00000000000E+00 -0.20582539987E+04  0.21497726233E+04  0.62057457968E+03 0.  0.
        4    1    3    3  502    0  0.45705799576E+02  0.28916941310E+03 -0.67299771863E+03  0.73391791896E+03  0.12699999809E+01 0.  1.
       -4    1    3    3    0  502 -0.45705799576E+02 -0.28916941310E+03 -0.13852562800E+04  0.14158547044E+04  0.12699999809E+01 0. -1.
</event>
<event>
 5   0  0.1502642E-01  0.6086314E+03  0.7818609E-02  0.9887659E-01
       -2   -1    0    0    0  501  0.00000000000E+00  0.00000000000E+00  0.57290074297E+02  0.57290074353E+02  0.25500000920E-02 0.  1.
        2   -1    0    0  501    0  0.00000000000E+00  0.00000000000E+00 -0.16164762491E+04  0.16164762491E+04  0.25500000920E-02 0. -1.
    10030    2    1    2    0    0  0.00000000000E+00  0.00000000000E+00 -0.15591861748E+04  0.16737663235E+04  0.60863139735E+03 0.  0.
        2    1    3    3  502    0  0.15698878657E+03 -0.20247732200E+03 -0.12311834938E+04  0.12575592790E+04  0.25500000920E-02 0. -1.
       -2    1    3    3    0  502 -0.15698878657E+03  0.20247732200E+03 -0.32800268108E+03  0.41620704443E+03  0.25500000920E-02 0.  1.
</event>
<event>
 5   0  0.9411028E-02  0.4286120E+03  0.7818609E-02  0.1034299E+00
       -1   -1    0    0    0  501  0.00000000000E+00  0.00000000000E+00  0.88865427526E+02  0.88865427669E+02  0.50400001928E-02 0.  1.
        1   -1    0    0  501    0  0.00000000000E+00  0.00000000000E+00 -0.51681584453E+03  0.51681584455E+03  0.50400001928E-02 0. -1.
    10030    2    1    2    0    0  0.00000000000E+00  0.00000000000E+00 -0.42795041700E+03  0.60568127222E+03  0.42861199716E+03 0.  0.
        4    1    3    3  502    0  0.24968058336E+02  0.12009789722E+03  0.34342788306E+02  0.12738896680E+03  0.12699999809E+01 0.  1.
       -4    1    3    3    0  502 -0.24968058336E+02 -0.12009789722E+03 -0.46229320531E+03  0.47829230542E+03  0.12699999809E+01 0. -1.
</event>
<event>
 5   0  0.9411028E-02  0.6063480E+03  0.7818609E-02  0.9892323E-01
        1   -1    0    0  501    0  0.00000000000E+00  0.00000000000E+00  0.21702334125E+03  0.21702334131E+03  0.50400001928E-02 0. -1.
       -1   -1    0    0    0  501  0.00000000000E+00  0.00000000000E+00 -0.42352347566E+03  0.42352347569E+03  0.50400001928E-02 0.  1.
    10030    2    1    2    0    0  0.00000000000E+00  0.00000000000E+00 -0.20650013441E+03  0.64054681700E+03  0.60634801827E+03 0.  0.
        4    1    3    3  502    0 -0.14373322715E+03  0.29950269913E+02 -0.38345860285E+03  0.41060732124E+03  0.12699999809E+01 0.  1.
       -4    1    3    3    0  502  0.14373322715E+03 -0.29950269913E+02  0.17695846844E+03  0.22993949576E+03  0.12699999809E+01 0. -1.
</event>
<event>
 5   0  0.9420349E-02  0.5732471E+03  0.7818609E-02  0.9962519E-01
       -1   -1    0    0    0  501  0.00000000000E+00  0.00000000000E+00  0.10678299028E+04  0.10678299028E+04  0.50400001928E-02 0.  1.
        1   -1    0    0  501    0  0.00000000000E+00  0.00000000000E+00 -0.76934584164E+02  0.76934584330E+02  0.50400001928E-02 0. -1.
    10030    2    1    2    0    0  0.00000000000E+00  0.00000000000E+00  0.99089531861E+03  0.11447644871E+04  0.57324706586E+03 0.  0.
        2    1    3    3  502    0  0.24534492230E+03 -0.14347963058E+03  0.56943079797E+03  0.63642121977E+03  0.25500000920E-02 0.  1.
       -2    1    3    3    0  502 -0.24534492230E+03  0.14347963058E+03  0.42146452064E+03  0.50834326734E+03  0.25500000920E-02 0. -1.
</event>
<event>
 5   0  0.8860626E-02  0.6017822E+03  0.7818609E-02  0.9901715E-01
       -1   -1    0    0    0  501  0.00000000000E+00  0.00000000000E+00  0.16038753430E+03  0.16038753438E+03  0.50400001928E-02 0. -1.
        1   -1    0    0  501    0  0.00000000000E+00  0.00000000000E+00 -0.56447934965E+03  0.56447934968E+03  0.50400001928E-02 0.  1.
    10030    2    1    2    0    0  0.00000000000E+00  0.00000000000E+00 -0.40409181535E+03  0.72486688406E+03  0.60178219014E+03 0.  0.
        3    1    3    3  502    0  0.13355755936E+03  0.12575468300E+03  0.85238718166E+02  0.20228077327E+03  0.10100000352E+00 0. -1.
       -3    1    3    3    0  502 -0.13355755936E+03 -0.12575468300E+03 -0.48933053352E+03  0.52258611079E+03  0.10100000352E+00 0.  1.
</event>
<event>
 5   0  0.1483942E-01  0.6061876E+03  0.7818609E-02  0.9892651E-01
        2   -1    0    0  501    0  0.00000000000E+00  0.00000000000E+00  0.17292499823E+04  0.17292499823E+04  0.25500000920E-02 0. -1.
       -2   -1    0    0    0  501  0.00000000000E+00  0.00000000000E+00 -0.53124684938E+02  0.53124684999E+02  0.25500000920E-02 0.  1.
    10030    2    1    2    0    0  0.00000000000E+00  0.00000000000E+00  0.16761252974E+04  0.17823746673E+04  0.60618762952E+03 0.  0.
        4    1    3    3  502    0 -0.25897502743E+03  0.14683660888E+03  0.10053033715E+04  0.10484586478E+04  0.12699999809E+01 0. -1.
       -4    1    3    3    0  502  0.25897502743E+03 -0.14683660888E+03  0.67082192593E+03  0.73391601955E+03  0.12699999809E+01 0.  1.
</event>
<event>
 5   0  0.1483942E-01  0.6113402E+03  0.7818609E-02  0.9882154E-01
        2   -1    0    0  501    0  0.00000000000E+00  0.00000000000E+00  0.74529224532E+03  0.74529224532E+03  0.25500000920E-02 0. -1.
       -2   -1    0    0    0  501  0.00000000000E+00  0.00000000000E+00 -0.12536585449E+03  0.12536585452E+03  0.25500000920E-02 0.  1.
    10030    2    1    2    0    0  0.00000000000E+00  0.00000000000E+00  0.61992639082E+03  0.87065809984E+03  0.61134016453E+03 0.  0.
        4    1    3    3  502    0 -0.15719847754E+03  0.21575498720E+03  0.52202256132E+03  0.58631965963E+03  0.12699999809E+01 0. -1.
       -4    1    3    3    0  502  0.15719847754E+03 -0.21575498720E+03  0.97903829503E+02  0.28433844020E+03  0.12699999809E+01 0.  1.
</event>
<event>
 5   0  0.9420349E-02  0.7304956E+03  0.7818609E-02  0.9666457E-01
       -1   -1    0    0    0  501  0.00000000000E+00  0.00000000000E+00  0.14487659980E+03  0.14487659989E+03  0.50400001928E-02 0.  1.
        1   -1    0    0  501    0  0.00000000000E+00  0.00000000000E+00 -0.92082468316E+03  0.92082468317E+03  0.50400001928E-02 0. -1.
    10030    2    1    2    0    0  0.00000000000E+00  0.00000000000E+00 -0.77594808336E+03  0.10657012831E+04  0.73049558291E+03 0.  0.
        2    1    3    3  502    0  0.46572846377E+02 -0.35785237401E+03 -0.30572408707E+03  0.47296360222E+03  0.25500000920E-02 0. -1.
       -2    1    3    3    0  502 -0.46572846377E+02  0.35785237401E+03 -0.47022399628E+03  0.59273768084E+03  0.25500000920E-02 0.  1.
</event>
<event>
 5   0  0.1483942E-01  0.6131337E+03  0.7818609E-02  0.9878526E-01
        2   -1    0    0  501    0  0.00000000000E+00  0.00000000000E+00  0.52574763148E+03  0.52574763149E+03  0.25500000920E-02 0. -1.
       -2   -1    0    0    0  501  0.00000000000E+00  0.00000000000E+00 -0.17876109559E+03  0.17876109561E+03  0.25500000920E-02 0.  1.
    10030    2    1    2    0    0  0.00000000000E+00  0.00000000000E+00  0.34698653589E+03  0.70450872709E+03  0.61313366444E+03 0.  0.
        4    1    3    3  502    0 -0.14943719786E+03  0.23284008837E+03  0.32521577083E+03  0.42698113934E+03  0.12699999809E+01 0. -1.
       -4    1    3    3    0  502  0.14943719786E+03 -0.23284008837E+03  0.21770765056E+02  0.27752758775E+03  0.12699999809E+01 0.  1.
</event>
<event>
 5   0  0.1532571E-01  0.5848259E+03  0.7818609E-02  0.9937397E-01
        2   -1    0    0  501    0  0.00000000000E+00  0.00000000000E+00  0.40101757114E+03  0.40101757115E+03  0.25500000920E-02 0.  1.
       -2   -1    0    0    0  501  0.00000000000E+00  0.00000000000E+00 -0.21322088603E+03  0.21322088605E+03  0.25500000920E-02 0. -1.
    10030    2    1    2    0    0  0.00000000000E+00  0.00000000000E+00  0.18779668511E+03  0.61423845720E+03  0.58482586072E+03 0.  0.
        1    1    3    3  502    0  0.48090196980E+02 -0.16807012616E+03  0.34009087165E+03  0.38238989966E+03  0.50400001928E-02 0.  1.
       -1    1    3    3    0  502 -0.48090196980E+02  0.16807012616E+03 -0.15229418654E+03  0.23184855754E+03  0.50400001928E-02 0. -1.
</event>
<event>
 5   0  0.6170500E-02  0.5931313E+03  0.7818609E-02  0.9919760E-01
        3   -1    0    0  501    0  0.00000000000E+00  0.00000000000E+00  0.37252080483E+03  0.37252081852E+03  0.10100000352E+00 0. -1.
       -3   -1    0    0    0  501  0.00000000000E+00  0.00000000000E+00 -0.23609733242E+03  0.23609735402E+03  0.10100000352E+00 0.  1.
    10030    2    1    2    0    0  0.00000000000E+00  0.00000000000E+00  0.13642347241E+03  0.60861817254E+03  0.59313128068E+03 0.  0.
        4    1    3    3  502    0 -0.10168844458E+02  0.76739696292E+02 -0.22554483462E+03  0.23846272603E+03  0.12699999809E+01 0.  1.
       -4    1    3    3    0  502  0.10168844458E+02 -0.76739696292E+02  0.36196830703E+03  0.37015544650E+03  0.12699999809E+01 0. -1.
</event>
<event>
 5   0  0.1483942E-01  0.6022806E+03  0.7818609E-02  0.9900686E-01
        2   -1    0    0  501    0  0.00000000000E+00  0.00000000000E+00  0.11197525192E+04  0.11197525192E+04  0.25500000920E-02 0.  1.
       -2   -1    0    0    0  501  0.00000000000E+00  0.00000000000E+00 -0.80987083491E+02  0.80987083531E+02  0.25500000920E-02 0. -1.
    10030    2    1    2    0    0  0.00000000000E+00  0.00000000000E+00  0.10387654357E+04  0.12007396027E+04  0.60228063488E+03 0.  0.
        4    1    3    3  502    0  0.27316754228E+03  0.98774210100E+02  0.36105305555E+03  0.46339807138E+03  0.12699999809E+01 0. -1.
       -4    1    3    3    0  502 -0.27316754228E+03 -0.98774210100E+02  0.67771238016E+03  0.73734153136E+03  0.12699999809E+01 0.  1.
</event>
<event>
 5   0  0.8860626E-02  0.6109327E+03  0.7818609E-02  0.9882980E-01
       -1   -1    0    0    0  501  0.00000000000E+00  0.00000000000E+00  0.20915097996E+03  0.20915098002E+03  0.50400001928E-02 0. -1.
        1   -1    0    0  501    0  0.00000000000E+00  0.00000000000E+00 -0.44613556623E+03  0.44613556625E+03  0.50400001928E-02 0.  1.
    10030    2    1    2    0    0  0.00000000000E+00  0.00000000000E+00 -0.23698458626E+03  0.65528654628E+03  0.61093269974E+03 0.  0.
        3    1    3    3  502    0 -0.94534685694E+02 -0.26562486956E+03 -0.24456869279E+03  0.37323884286E+03  0.10100000352E+00 0.  1.
       -3    1    3    3    0  502  0.94534685694E+02  0.26562486956E+03  0.75841065243E+01  0.28204770342E+03  0.10100000352E+00 0. -1.
</event>
<event>
 5   0  0.1488510E-01  0.6290272E+03  0.7818609E-02  0.9846949E-01
       -2   -1    0    0    0  501  0.00000000000E+00  0.00000000000E+00  0.27382338973E+03  0.27382338974E+03  0.25500000920E-02 0.  1.
        2   -1    0    0  501    0  0.00000000000E+00  0.00000000000E+00 -0.36125034079E+03  0.36125034080E+03  0.25500000920E-02 0. -1.
    10030    2    1    2    0    0  0.00000000000E+00  0.00000000000E+00 -0.87426951061E+02  0.63507373053E+03  0.62902716272E+03 0.  0.
        5    1    3    3  502    0  0.20216349912E+03  0.77980129543E+02  0.18639342473E+03  0.28585937061E+03  0.46999998093E+01 0.  1.
       -5    1    3    3    0  502 -0.20216349912E+03 -0.77980129543E+02 -0.27382037580E+03  0.34921435993E+03  0.46999998093E+01 0. -1.
</event>
<event>
 5   0  0.8860626E-02  0.5992139E+03  0.7818609E-02  0.9907038E-01
        1   -1    0    0  501    0  0.00000000000E+00  0.00000000000E+00  0.47563265072E+03  0.47563265074E+03  0.50400001928E-02 0.  1.
       -1   -1    0    0    0  501  0.00000000000E+00  0.00000000000E+00 -0.18872615315E+03  0.18872615322E+03  0.50400001928E-02 0. -1.
    10030    2    1    2    0    0  0.00000000000E+00  0.00000000000E+00  0.28690649757E+03  0.66435880396E+03  0.59921388673E+03 0.  0.
        3    1    3    3  502    0  0.11013263714E+03  0.10261699856E+03 -0.14375560634E+03  0.20814689695E+03  0.10100000352E+00 0. -1.
       -3    1    3    3    0  502 -0.11013263714E+03 -0.10261699856E+03  0.43066210390E+03  0.45621190701E+03  0.10100000352E+00 0.  1.
</event>
<event>
 5   0  0.8860626E-02  0.5926057E+03  0.7818609E-02  0.9920867E-01
        1   -1    0    0  501    0  0.00000000000E+00  0.00000000000E+00  0.43536548869E+03  0.43536548872E+03  0.50400001928E-02 0.  1.
       -1   -1    0    0    0  501  0.00000000000E+00  0.00000000000E+00 -0.20165901396E+03  0.20165901402E+03  0.50400001928E-02 0. -1.
    10030    2    1    2    0    0  0.00000000000E+00  0.00000000000E+00  0.23370647473E+03  0.63702450274E+03  0.59260568742E+03 0.  0.
        3    1    3    3  502    0 -0.10728282955E+02 -0.28588562257E+03  0.33937471415E+02  0.28809277571E+03  0.10100000352E+00 0. -1.
       -3    1    3    3    0  502  0.10728282955E+02  0.28588562257E+03  0.19976900331E+03  0.34893172704E+03  0.10100000352E+00 0.  1.
</event>
<event>
 5   0  0.1513339E-01  0.5646508E+03  0.7818609E-02  0.9981586E-01
       -2   -1    0    0    0  501  0.00000000000E+00  0.00000000000E+00  0.54818406505E+02  0.54818406564E+02  0.25500000920E-02 0. -1.
        2   -1    0    0  501    0  0.00000000000E+00  0.00000000000E+00 -0.14540304689E+04  0.14540304689E+04  0.25500000920E-02 0.  1.
    10030    2    1    2    0    0  0.00000000000E+00  0.00000000000E+00 -0.13992120624E+04  0.15088488754E+04  0.56465080664E+03 0.  0.
        3    1    3    3  502    0  0.21700518039E+02 -0.53143817359E+02  0.39059510189E+02  0.69432221223E+02  0.10100000352E+00 0. -1.
       -3    1    3    3    0  502 -0.21700518039E+02  0.53143817359E+02 -0.14382715726E+04  0.14394166542E+04  0.10100000352E+00 0.  1.
</event>
<event>
 5   0  0.6170500E-02  0.6006750E+03  0.7818609E-02  0.9904007E-01
       -3   -1    0    0    0  501  0.00000000000E+00  0.00000000000E+00  0.11366967726E+04  0.11366967771E+04  0.10100000352E+00 0.  1.
        3   -1    0    0  501    0  0.00000000000E+00  0.00000000000E+00 -0.79355006616E+02  0.79355070890E+02  0.10100000352E+00 0. -1.
    10030    2    1    2    0    0  0.00000000000E+00  0.00000000000E+00  0.10573417660E+04  0.12160518480E+04  0.60067502602E+03 0.  0.
        1    1    3    3  502    0  0.11369178560E+02  0.25064138805E+03  0.19446525227E+03  0.31743833731E+03  0.50400001928E-02 0.  1.
       -1    1    3    3    0  502 -0.11369178560E+02 -0.25064138805E+03  0.86287651376E+03  0.89861351072E+03  0.50400001928E-02 0. -1.
</event>
<event>
 5   0  0.9177281E-02  0.5645586E+03  0.7818609E-02  0.9981793E-01
       -1   -1    0    0    0  501  0.00000000000E+00  0.00000000000E+00  0.50091576018E+02  0.50091576272E+02  0.50400001928E-02 0.  1.
        1   -1    0    0  501    0  0.00000000000E+00  0.00000000000E+00 -0.15907184326E+04  0.15907184326E+04  0.50400001928E-02 0. -1.
    10030    2    1    2    0    0  0.00000000000E+00  0.00000000000E+00 -0.15406268566E+04  0.16408100089E+04  0.56455856562E+03 0.  0.
        1    1    3    3  502    0 -0.58896707522E+02  0.99169283192E+02 -0.21519849230E+02  0.11733061332E+03  0.50400001928E-02 0.  1.
       -1    1    3    3    0  502  0.58896707522E+02 -0.99169283192E+02 -0.15191070073E+04  0.15234793956E+04  0.50400001928E-02 0. -1.
</event>
<event>
 5   0  0.9411028E-02  0.5948623E+03  0.7818609E-02  0.9916123E-01
        1   -1    0    0  501    0  0.00000000000E+00  0.00000000000E+00  0.11126281866E+04  0.11126281866E+04  0.50400001928E-02 0.  1.
       -1   -1    0    0    0  501  0.00000000000E+00  0.00000000000E+00 -0.79510199589E+02  0.79510199749E+02  0.50400001928E-02 0. -1.
    10030    2    1    2    0    0  0.00000000000E+00  0.00000000000E+00  0.10331179870E+04  0.11921383864E+04  0.59486230100E+03 0.  0.
        4    1    3    3  502    0 -0.12970943703E+03 -0.23207093662E+03  0.24931792508E+03  0.36447564849E+03  0.12699999809E+01 0.  1.
       -4    1    3    3    0  502  0.12970943703E+03  0.23207093662E+03  0.78380006194E+03  0.82766273788E+03  0.12699999809E+01 0. -1.
</event>
<event>
 5   0  0.9497860E-02  0.5873200E+03  0.7818609E-02  0.9932068E-01
        1   -1    0    0  501    0  0.00000000000E+00  0.00000000000E+00  0.94954181183E+03  0.94954181185E+03  0.50400001928E-02 0. -1.
       -1   -1    0    0    0  501  0.00000000000E+00  0.00000000000E+00 -0.90818737173E+02  0.90818737313E+02  0.50400001928E-02 0.  1.
    10030    2    1    2    0    0  0.00000000000E+00  0.00000000000E+00  0.85872307466E+03  0.10403605492E+04  0.58731997522E+03 0.  0.
        5    1    3    3  502    0  0.64792459046E+02  0.25513783384E+03  0.65978067121E+03  0.71037032674E+03  0.46999998093E+01 0. -1.
       -5    1    3    3    0  502 -0.64792459046E+02 -0.25513783384E+03  0.19894240345E+03  0.32999022242E+03  0.46999998093E+01 0.  1.
</event>
<event>
 5   0  0.6170500E-02  0.5492994E+03  0.7818609E-02  0.1001656E+00
       -3   -1    0    0    0  501  0.00000000000E+00  0.00000000000E+00  0.90767237248E+03  0.90767237810E+03  0.10100000352E+00 0.  1.
        3   -1    0    0  501    0  0.00000000000E+00  0.00000000000E+00 -0.83105351597E+02  0.83105412971E+02  0.10100000352E+00 0. -1.
    10030    2    1    2    0    0  0.00000000000E+00  0.00000000000E+00  0.82456702088E+03  0.99077779107E+03  0.54929942595E+03 0.  0.
        1    1    3    3  502    0  0.39761261873E+02  0.75475320469E+02 -0.58602647647E+02  0.10349759554E+03  0.50400001928E-02 0. -1.
       -1    1    3    3    0  502 -0.39761261873E+02 -0.75475320469E+02  0.88316966853E+03  0.88728019553E+03  0.50400001928E-02 0.  1.
</event>
<event>
 5   0  0.9411028E-02  0.6043552E+03  0.7818609E-02  0.9896411E-01
        1   -1    0    0  501    0  0.00000000000E+00  0.00000000000E+00  0.13255292391E+04  0.13255292391E+04  0.50400001928E-02 0. -1.
       -1   -1    0    0    0  501  0.00000000000E+00  0.00000000000E+00 -0.68886664340E+02  0.68886664524E+02  0.50400001928E-02 0.  1.
    10030    2    1    2    0    0  0.00000000000E+00  0.00000000000E+00  0.12566425748E+04  0.13944159037E+04  0.60435515354E+03 0.  0.
        4    1    3    3  502    0  0.18785323507E+03 -0.86171093750E+02  0.11969642267E+03  0.23883706125E+03  0.12699999809E+01 0.  1.
       -4    1    3    3    0  502 -0.18785323507E+03  0.86171093750E+02  0.11369461521E+04  0.11555788424E+04  0.12699999809E+01 0. -1.
</event>
<event>
 5   0  0.9177281E-02  0.6053764E+03  0.7818609E-02  0.9894314E-01
        1   -1    0    0  501    0  0.00000000000E+00  0.00000000000E+00  0.14807899174E+04  0.14807899174E+04  0.50400001928E-02 0. -1.
       -1   -1    0    0    0  501  0.00000000000E+00  0.00000000000E+00 -0.61872484188E+02  0.61872484394E+02  0.50400001928E-02 0.  1.
    10030    2    1    2    0    0  0.00000000000E+00  0.00000000000E+00  0.14189174332E+04  0.15426624018E+04  0.60537641485E+03 0.  0.
        1    1    3    3  502    0 -0.89345825251E+02 -0.20696184473E+03  0.19470653011E+03  0.29786996249E+03  0.50400001928E-02 0.  1.
       -1    1    3    3    0  502  0.89345825251E+02  0.20696184473E+03  0.12242109031E+04  0.12447924393E+04  0.50400001928E-02 0. -1.
</event>
<event>
 5   0  0.1483942E-01  0.6078965E+03  0.7818609E-02  0.9889157E-01
        2   -1    0    0  501    0  0.00000000000E+00  0.00000000000E+00  0.73669543278E+03  0.73669543278E+03  0.25500000920E-02 0. -1.
       -2   -1    0    0    0  501  0.00000000000E+00  0.00000000000E+00 -0.12540397520E+03  0.12540397523E+03  0.25500000920E-02 0.  1.
    10030    2    1    2    0    0  0.00000000000E+00  0.00000000000E+00  0.61129145757E+03  0.86209940801E+03  0.60789649052E+03 0.  0.
        4    1    3    3  502    0  0.35952792170E+02  0.32700076723E+02  0.73114584849E+03  0.73276037212E+03  0.12699999809E+01 0. -1.
       -4    1    3    3    0  502 -0.35952792170E+02 -0.32700076723E+02 -0.11985439092E+03  0.12933903589E+03  0.12699999809E+01 0.  1.
</event>
<event>
 5   0  0.9411028E-02  0.6035762E+03  0.7818609E-02  0.9898014E-01
       -1   -1    0    0    0  501  0.00000000000E+00  0.00000000000E+00  0.32021719022E+03  0.32021719026E+03  0.50400001928E-02 0.  1.
        1   -1    0    0  501    0  0.00000000000E+00  0.00000000000E+00 -0.28441962169E+03  0.28441962174E+03  0.50400001928E-02 0. -1.
    10030    2    1    2    0    0  0.00000000000E+00  0.00000000000E+00  0.35797568528E+02  0.60463681200E+03  0.60357618285E+03 0.  0.
        4    1    3    3  502    0  0.23857456179E+03  0.13559674241E+03 -0.10790111134E+03  0.29487041359E+03  0.12699999809E+01 0. -1.
       -4    1    3    3    0  502 -0.23857456179E+03 -0.13559674241E+03  0.14369867986E+03  0.30976639840E+03  0.12699999809E+01 0.  1.
</event>
<event>
 5   0  0.9411028E-02  0.5754059E+03  0.7818609E-02  0.9957787E-01
        1   -1    0    0  501    0  0.00000000000E+00  0.00000000000E+00  0.12138031040E+03  0.12138031051E+03  0.50400001928E-02 0.  1.
       -1   -1    0    0    0  501  0.00000000000E+00  0.00000000000E+00 -0.68193096779E+03  0.68193096780E+03  0.50400001928E-02 0. -1.
    10030    2    1    2    0    0  0.00000000000E+00  0.00000000000E+00 -0.56055065738E+03  0.80331127831E+03  0.57540591791E+03 0.  0.
        4    1    3    3  502    0 -0.23589294246E+03 -0.43315485858E+02 -0.50211406207E+03  0.55645472039E+03  0.12699999809E+01 0. -1.
       -4    1    3    3    0  502  0.23589294246E+03  0.43315485858E+02 -0.58436595310E+02  0.24685655792E+03  0.12699999809E+01 0.  1.
</event>
<event>
 5   0  0.8860626E-02  0.5519389E+03  0.7818609E-02  0.1001046E+00
       -1   -1    0    0    0  501  0.00000000000E+00  0.00000000000E+00  0.78353176686E+02  0.78353176848E+02  0.50400001928E-02 0. -1.
        1   -1    0    0  501    0  0.00000000000E+00  0.00000000000E+00 -0.97199791210E+03  0.97199791211E+03  0.50400001928E-02 0.  1.
    10030    2    1    2    0    0  0.00000000000E+00  0.00000000000E+00 -0.89364473541E+03  0.10503510890E+04  0.55193885254E+03 0.  0.
        3    1    3    3  502    0 -0.18365907240E+03  0.14641673048E+03 -0.72253454767E+03  0.75975304975E+03  0.10100000352E+00 0.  1.
       -3    1    3    3    0  502  0.18365907240E+03 -0.14641673048E+03 -0.17111018775E+03  0.29059803920E+03  0.10100000352E+00 0. -1.
</event>
<event>
 5   0  0.8860626E-02  0.6032940E+03  0.7818609E-02  0.9898596E-01
        1   -1    0    0  501    0  0.00000000000E+00  0.00000000000E+00  0.13729013076E+04  0.13729013076E+04  0.50400001928E-02 0. -1.
       -1   -1    0    0    0  501  0.00000000000E+00  0.00000000000E+00 -0.66276368314E+02  0.66276368506E+02  0.50400001928E-02 0.  1.
    10030    2    1    2    0    0  0.00000000000E+00  0.00000000000E+00  0.13066249393E+04  0.14391776761E+04  0.60329400086E+03 0.  0.
        3    1    3    3  502    0 -0.80635648228E+02 -0.27683207092E+03  0.44191603459E+03  0.52766267167E+03  0.10100000352E+00 0.  1.
       -3    1    3    3    0  502  0.80635648228E+02  0.27683207092E+03  0.86470890473E+03  0.91151500447E+03  0.10100000352E+00 0. -1.
</event>
<event>
 5   0  0.6170500E-02  0.5652356E+03  0.7818609E-02  0.9980277E-01
        3   -1    0    0  501    0  0.00000000000E+00  0.00000000000E+00  0.72560818276E+03  0.72560818979E+03  0.10100000352E+00 0. -1.
       -3   -1    0    0    0  501  0.00000000000E+00  0.00000000000E+00 -0.11007704055E+03  0.11007708688E+03  0.10100000352E+00 0.  1.
    10030    2    1    2    0    0  0.00000000000E+00  0.00000000000E+00  0.61553114221E+03  0.83568527667E+03  0.56523560982E+03 0.  0.
        4    1    3    3  502    0 -0.30005925674E+01 -0.46398083751E+02  0.71991061707E+03  0.72141159902E+03  0.12699999809E+01 0. -1.
       -4    1    3    3    0  502  0.30005925674E+01  0.46398083751E+02 -0.10437947486E+03  0.11427367765E+03  0.12699999809E+01 0.  1.
</event>
<event>
 5   0  0.1483942E-01  0.6026696E+03  0.7818609E-02  0.9899883E-01
       -2   -1    0    0    0  501  0.00000000000E+00  0.00000000000E+00  0.73232550604E+02  0.73232550648E+02  0.25500000920E-02 0.  1.
        2   -1    0    0  501    0  0.00000000000E+00  0.00000000000E+00 -0.12399220382E+04  0.12399220382E+04  0.25500000920E-02 0. -1.
    10030    2    1    2    0    0  0.00000000000E+00  0.00000000000E+00 -0.11666894876E+04  0.13131545888E+04  0.60266957261E+03 0.  0.
        4    1    3    3  502    0 -0.29718192904E+03  0.42259823015E+02 -0.52577695750E+03  0.60543043657E+03  0.12699999809E+01 0.  1.
       -4    1    3    3    0  502  0.29718192904E+03 -0.42259823015E+02 -0.64091253008E+03  0.70772415226E+03  0.12699999809E+01 0. -1.
</event>
<event>
 5   0  0.9420349E-02  0.5974572E+03  0.7818609E-02  0.9910696E-01
        1   -1    0    0  501    0  0.00000000000E+00  0.00000000000E+00  0.45317909246E+03  0.45317909249E+03  0.50400001928E-02 0. -1.
       -1   -1    0    0    0  501  0.00000000000E+00  0.00000000000E+00 -0.19691726288E+03  0.19691726294E+03  0.50400001928E-02 0.  1.
    10030    2    1    2    0    0  0.00000000000E+00  0.00000000000E+00  0.25626182959E+03  0.65009635543E+03  0.59745723365E+03 0.  0.
        2    1    3    3  502    0 -0.24509218338E+03  0.21399011405E+02  0.31250196355E+03  0.39772549990E+03  0.25500000920E-02 0. -1.
       -2    1    3    3    0  502  0.24509218338E+03 -0.21399011405E+02 -0.56240133965E+02  0.25237085553E+03  0.25500000920E-02 0.  1.
</event>
<event>
 5   0  0.9411028E-02  0.6111981E+03  0.7818609E-02  0.9882442E-01
       -1   -1    0    0    0  501  0.00000000000E+00  0.00000000000E+00  0.20996714856E+03  0.20996714862E+03  0.50400001928E-02 0.  1.
        1   -1    0    0  501    0  0.00000000000E+00  0.00000000000E+00 -0.44478763411E+03  0.44478763414E+03  0.50400001928E-02 0. -1.
    10030    2    1    2    0    0  0.00000000000E+00  0.00000000000E+00 -0.23482048556E+03  0.65475478276E+03  0.61119813899E+03 0.  0.
        4    1    3    3  502    0 -0.30439357695E+03 -0.12335240351E+02 -0.14324461143E+03  0.33664259898E+03  0.12699999809E+01 0. -1.
       -4    1    3    3    0  502  0.30439357695E+03  0.12335240351E+02 -0.91575874127E+02  0.31811218378E+03  0.12699999809E+01 0.  1.
</event>
<event>
 5   0  0.1483942E-01  0.6601312E+03  0.7818609E-02  0.9787952E-01
       -2   -1    0    0    0  501  0.00000000000E+00  0.00000000000E+00  0.16708713259E+03  0.16708713261E+03  0.25500000920E-02 0. -1.
        2   -1    0    0  501    0  0.00000000000E+00  0.00000000000E+00 -0.65201496431E+03  0.65201496432E+03  0.25500000920E-02 0.  1.
    10030    2    1    2    0    0  0.00000000000E+00  0.00000000000E+00 -0.48492783172E+03  0.81910209693E+03  0.66013123181E+03 0.  0.
        4    1    3    3  502    0  0.66067946500E+02  0.10293317107E+03 -0.62285375938E+03  0.63475084068E+03  0.12699999809E+01 0.  1.
       -4    1    3    3    0  502 -0.66067946500E+02 -0.10293317107E+03  0.13792592766E+03  0.18435125625E+03  0.12699999809E+01 0. -1.
</event>
<event>
 5   0  0.1488510E-01  0.6148242E+03  0.7818609E-02  0.9875119E-01
       -2   -1    0    0    0  501  0.00000000000E+00  0.00000000000E+00  0.77261313392E+02  0.77261313434E+02  0.25500000920E-02 0.  1.
        2   -1    0    0  501    0  0.00000000000E+00  0.00000000000E+00 -0.12231502533E+04  0.12231502533E+04  0.25500000920E-02 0. -1.
    10030    2    1    2    0    0  0.00000000000E+00  0.00000000000E+00 -0.11458889399E+04  0.13004115667E+04  0.61482418649E+03 0.  0.
        5    1    3    3  502    0  0.12535028718E+02 -0.21906385078E+03 -0.11766317083E+03  0.24902371259E+03  0.46999998093E+01 0.  1.
       -5    1    3    3    0  502 -0.12535028718E+02  0.21906385078E+03 -0.10282257691E+04  0.10513878541E+04  0.46999998093E+01 0. -1.
</event>
<event>
 5   0  0.9420349E-02  0.6027524E+03  0.7818609E-02  0.9899712E-01
       -1   -1    0    0    0  501  0.00000000000E+00  0.00000000000E+00  0.35277711325E+02  0.35277711685E+02  0.50400001928E-02 0. -1.
        1   -1    0    0  501    0  0.00000000000E+00  0.00000000000E+00 -0.25746458197E+04  0.25746458197E+04  0.50400001928E-02 0.  1.
    10030    2    1    2    0    0  0.00000000000E+00  0.00000000000E+00 -0.25393681084E+04  0.26099235314E+04  0.60275239516E+03 0.  0.
        2    1    3    3  502    0  0.12496965692E+03  0.20759548837E+03 -0.20456419192E+04  0.20599427573E+04  0.25500000920E-02 0.  1.
       -2    1    3    3    0  502 -0.12496965692E+03 -0.20759548837E+03 -0.49372618925E+03  0.54998077412E+03  0.25500000920E-02 0. -1.
</event>
<event>
 5   0  0.1483942E-01  0.6021490E+03  0.7818609E-02  0.9900958E-01
       -2   -1    0    0    0  501  0.00000000000E+00  0.00000000000E+00  0.11279320914E+03  0.11279320916E+03  0.25500000920E-02 0.  1.
        2   -1    0    0  501    0  0.00000000000E+00  0.00000000000E+00 -0.80364637227E+03  0.80364637228E+03  0.25500000920E-02 0. -1.
    10030    2    1    2    0    0  0.00000000000E+00  0.00000000000E+00 -0.69085316314E+03  0.91643958144E+03  0.60214899603E+03 0.  0.
        4    1    3    3  502    0 -0.13715577456E+03  0.26463427735E+03 -0.41001949062E+03  0.50691281582E+03  0.12699999809E+01 0.  1.
       -4    1    3    3    0  502  0.13715577456E+03 -0.26463427735E+03 -0.28083367251E+03  0.40952676562E+03  0.12699999809E+01 0. -1.
</event>
<event>
 5   0  0.1513339E-01  0.5821022E+03  0.7818609E-02  0.9943250E-01
        2   -1    0    0  501    0  0.00000000000E+00  0.00000000000E+00  0.10160852035E+04  0.10160852035E+04  0.25500000920E-02 0.  1.
       -2   -1    0    0    0  501  0.00000000000E+00  0.00000000000E+00 -0.83369724216E+02  0.83369724255E+02  0.25500000920E-02 0. -1.
    10030    2    1    2    0    0  0.00000000000E+00  0.00000000000E+00  0.93271547928E+03  0.10994549278E+04  0.58210220140E+03 0.  0.
        3    1    3    3  502    0 -0.22375970754E+03 -0.10917008060E+03  0.75108082364E+03  0.79127045128E+03  0.10100000352E+00 0. -1.
       -3    1    3    3    0  502  0.22375970754E+03  0.10917008060E+03  0.18163465564E+03  0.30818447648E+03  0.10100000352E+00 0.  1.
</event>
<event>
 5   0  0.9497860E-02  0.5989224E+03  0.7818609E-02  0.9907644E-01
        1   -1    0    0  501    0  0.00000000000E+00  0.00000000000E+00  0.13504854688E+04  0.13504854688E+04  0.50400001928E-02 0.  1.
       -1   -1    0    0    0  501  0.00000000000E+00  0.00000000000E+00 -0.66403530544E+02  0.66403530736E+02  0.50400001928E-02 0. -1.
    10030    2    1    2    0    0  0.00000000000E+00  0.00000000000E+00  0.12840819382E+04  0.14168889995E+04  0.59892237633E+03 0.  0.
        5    1    3    3  502    0  0.11989115913E+03  0.17211040085E+03  0.11475496811E+04  0.11665711469E+04  0.46999998093E+01 0.  1.
       -5    1    3    3    0  502 -0.11989115913E+03 -0.17211040085E+03  0.13653225713E+03  0.25031785265E+03  0.46999998093E+01 0. -1.
</event>
<event>
 5   0  0.1502642E-01  0.6188860E+03  0.7818609E-02  0.9866980E-01
       -2   -1    0    0    0  501  0.00000000000E+00  0.00000000000E+00  0.10870711755E+03  0.10870711758E+03  0.25500000920E-02 0.  1.
        2   -1    0    0  501    0  0.00000000000E+00  0.00000000000E+00 -0.88085274358E+03  0.88085274359E+03  0.25500000920E-02 0. -1.
    10030    2    1    2    0    0  0.00000000000E+00  0.00000000000E+00 -0.77214562603E+03  0.98955986117E+03  0.61888597580E+03 0.  0.
        2    1    3    3  502    0 -0.16804080374E+02 -0.29280423832E+03 -0.22828545883E+03  0.37165972315E+03  0.25500000920E-02 0.  1.
       -2    1    3    3    0  502  0.16804080374E+02  0.29280423832E+03 -0.54386016720E+03  0.61790013802E+03  0.25500000920E-02 0. -1.
</event>
<event>
 5   0  0.9497860E-02  0.5941552E+03  0.7818609E-02  0.9917607E-01
       -1   -1    0    0    0  501  0.00000000000E+00  0.00000000000E+00  0.60477588841E+03  0.60477588844E+03  0.50400001928E-02 0.  1.
        1   -1    0    0  501    0  0.00000000000E+00  0.00000000000E+00 -0.14593026682E+03  0.14593026690E+03  0.50400001928E-02 0. -1.
    10030    2    1    2    0    0  0.00000000000E+00  0.00000000000E+00  0.45884562160E+03  0.75070615534E+03  0.59415522148E+03 0.  0.
        5    1    3    3  502    0 -0.12637312684E+03  0.12561406092E+03 -0.70861482698E+02  0.19181370967E+03  0.46999998093E+01 0. -1.
       -5    1    3    3    0  502  0.12637312684E+03 -0.12561406092E+03  0.52970710430E+03  0.55889244567E+03  0.46999998093E+01 0.  1.
</event>
<event>
 5   0  0.1502642E-01  0.6235331E+03  0.7818609E-02  0.9857750E-01
       -2   -1    0    0    0  501  0.00000000000E+00  0.00000000000E+00  0.45761727738E+02  0.45761727809E+02  0.25500000920E-02 0.  1.
        2   -1    0    0  501    0  0.00000000000E+00  0.00000000000E+00 -0.21240101771E+04  0.21240101771E+04  0.25500000920E-02 0. -1.
    10030    2    1    2    0    0  0.00000000000E+00  0.00000000000E+00 -0.20782484493E+04  0.21697719049E+04  0.62353308016E+03 0.  0.
        2    1    3    3  502    0 -0.18174634306E+02 -0.24339888868E+03 -0.36414087038E+03  0.43837416647E+03  0.25500000920E-02 0.  1.
       -2    1    3    3    0  502  0.18174634306E+02  0.24339888868E+03 -0.17141075790E+04  0.17313977384E+04  0.25500000920E-02 0. -1.
</event>
<event>
 5   0  0.8860626E-02  0.6006082E+03  0.7818609E-02  0.9904145E-01
        1   -1    0    0  501    0  0.00000000000E+00  0.00000000000E+00  0.47355088966E+03  0.47355088969E+03  0.50400001928E-02 0. -1.
       -1   -1    0    0    0  501  0.00000000000E+00  0.00000000000E+00 -0.19043897388E+03  0.19043897395E+03  0.50400001928E-02 0.  1.
    10030    2    1    2    0    0  0.00000000000E+00  0.00000000000E+00  0.28311191578E+03  0.66398986364E+03  0.60060817690E+03 0.  0.
        3    1    3    3  502    0  0.12260419293E+03 -0.17754699605E+03  0.37247083954E+03  0.43045239044E+03  0.10100000352E+00 0. -1.
       -3    1    3    3    0  502 -0.12260419293E+03  0.17754699605E+03 -0.89358923764E+02  0.23353747320E+03  0.10100000352E+00 0.  1.
</event>
<event>
 5   0  0.1513339E-01  0.5773847E+03  0.7818609E-02  0.9953469E-01
        2   -1    0    0  501    0  0.00000000000E+00  0.00000000000E+00  0.11498977800E+04  0.11498977800E+04  0.25500000920E-02 0.  1.
       -2   -1    0    0    0  501  0.00000000000E+00  0.00000000000E+00 -0.72478847450E+02  0.72478847495E+02  0.25500000920E-02 0. -1.
    10030    2    1    2    0    0  0.00000000000E+00  0.00000000000E+00  0.10774189325E+04  0.12223766275E+04  0.57738467527E+03 0.  0.
        3    1    3    3  502    0 -0.51203724797E+02  0.26048282054E+03  0.77888641618E+03  0.82288345514E+03  0.10100000352E+00 0. -1.
       -3    1    3    3    0  502  0.51203724797E+02 -0.26048282054E+03  0.29853251635E+03  0.39949317234E+03  0.10100000352E+00 0.  1.
</event>
<event>
 5   0  0.9420349E-02  0.5960925E+03  0.7818609E-02  0.9913546E-01
        1   -1    0    0  501    0  0.00000000000E+00  0.00000000000E+00  0.16367217156E+03  0.16367217164E+03  0.50400001928E-02 0. -1.
       -1   -1    0    0    0  501  0.00000000000E+00  0.00000000000E+00 -0.54274085483E+03  0.54274085485E+03  0.50400001928E-02 0.  1.
    10030    2    1    2    0    0  0.00000000000E+00  0.00000000000E+00 -0.37906868327E+03  0.70641302649E+03  0.59609252416E+03 0.  0.
        2    1    3    3  502    0 -0.25427865791E+03 -0.81566344013E+02 -0.34639818714E+03  0.43738130779E+03  0.25500000920E-02 0.  1.
       -2    1    3    3    0  502  0.25427865791E+03  0.81566344013E+02 -0.32670496129E+02  0.26903171870E+03  0.25500000920E-02 0. -1.
</event>
<event>
 5   0  0.9177281E-02  0.5959891E+03  0.7818609E-02  0.9913762E-01
       -1   -1    0    0    0  501  0.00000000000E+00  0.00000000000E+00  0.13036028451E+03  0.13036028460E+03  0.50400001928E-02 0. -1.
        1   -1    0    0  501    0  0.00000000000E+00  0.00000000000E+00 -0.68119485170E+03  0.68119485172E+03  0.50400001928E-02 0.  1.
    10030    2    1    2    0    0  0.00000000000E+00  0.00000000000E+00 -0.55083456719E+03  0.81155513632E+03  0.59598910970E+03 0.  0.
        1    1    3    3  502    0  0.44128694383E+02  0.40856411609E+02 -0.67284591045E+03  0.67552809510E+03  0.50400001928E-02 0.  1.
       -1    1    3    3    0  502 -0.44128694383E+02 -0.40856411609E+02  0.12201134325E+03  0.13602704123E+03  0.50400001928E-02 0. -1.
</event>
<event>
 5   0  0.1502642E-01  0.6050564E+03  0.7818609E-02  0.9894971E-01
        2   -1    0    0  501    0  0.00000000000E+00  0.00000000000E+00  0.73810488095E+03  0.73810488096E+03  0.25500000920E-02 0. -1.
       -2   -1    0    0    0  501  0.00000000000E+00  0.00000000000E+00 -0.12399769596E+03  0.12399769598E+03  0.25500000920E-02 0.  1.
    10030    2    1    2    0    0  0.00000000000E+00  0.00000000000E+00  0.61410718500E+03  0.86210257694E+03  0.60505637630E+03 0.  0.
        2    1    3    3  502    0  0.37950741362E+02 -0.20306511921E+03 -0.78551595033E+01  0.20673027100E+03  0.25500000920E-02 0.  1.
       -2    1    3    3    0  502 -0.37950741362E+02  0.20306511921E+03  0.62196234450E+03  0.65537230594E+03  0.25500000920E-02 0. -1.
</event>
<event>
 5   0  0.8860626E-02  0.5961246E+03  0.7818609E-02  0.9913479E-01
       -1   -1    0    0    0  501  0.00000000000E+00  0.00000000000E+00  0.51085455439E+03  0.51085455441E+03  0.50400001928E-02 0. -1.
        1   -1    0    0  501    0  0.00000000000E+00  0.00000000000E+00 -0.17390692653E+03  0.17390692660E+03  0.50400001928E-02 0.  1.
    10030    2    1    2    0    0  0.00000000000E+00  0.00000000000E+00  0.33694762786E+03  0.68476148101E+03  0.59612463626E+03 0.  0.
        3    1    3    3  502    0 -0.16728549233E+03  0.17953039892E+03 -0.25873731432E+02  0.24674898229E+03  0.10100000352E+00 0.  1.
       -3    1    3    3    0  502  0.16728549233E+03 -0.17953039892E+03  0.36282135929E+03  0.43801249872E+03  0.10100000352E+00 0. -1.
</event>
<event>
 5   0  0.1483942E-01  0.6058145E+03  0.7818609E-02  0.9893416E-01
        2   -1    0    0  501    0  0.00000000000E+00  0.00000000000E+00  0.77869076331E+03  0.77869076331E+03  0.25500000920E-02 0.  1.
       -2   -1    0    0    0  501  0.00000000000E+00  0.00000000000E+00 -0.11782957006E+03  0.11782957008E+03  0.25500000920E-02 0. -1.
    10030    2    1    2    0    0  0.00000000000E+00  0.00000000000E+00  0.66086119325E+03  0.89652033340E+03  0.60581448600E+03 0.  0.
        4    1    3    3  502    0  0.94753368729E+02  0.24305262341E+03  0.10261677948E+03  0.28032944005E+03  0.12699999809E+01 0. -1.
       -4    1    3    3    0  502 -0.94753368729E+02 -0.24305262341E+03  0.55824441377E+03  0.61619089334E+03  0.12699999809E+01 0.  1.
</event>
<event>
 5   0  0.1513339E-01  0.5961719E+03  0.7818609E-02  0.9913380E-01
       -2   -1    0    0    0  501  0.00000000000E+00  0.00000000000E+00  0.59716105035E+02  0.59716105090E+02  0.25500000920E-02 0. -1.
        2   -1    0    0  501    0  0.00000000000E+00  0.00000000000E+00 -0.14879608142E+04  0.14879608142E+04  0.25500000920E-02 0.  1.
    10030    2    1    2    0    0  0.00000000000E+00  0.00000000000E+00 -0.14282447091E+04  0.15476769193E+04  0.59617186888E+03 0.  0.
        3    1    3    3  502    0  0.23400188256E+03  0.40405066514E+02 -0.11818808005E+04  0.12055005961E+04  0.10100000352E+00 0.  1.
       -3    1    3    3    0  502 -0.23400188256E+03 -0.40405066514E+02 -0.24636390862E+03  0.34217632313E+03  0.10100000352E+00 0. -1.
</event>
<event>
 5   0  0.1488510E-01  0.6154890E+03  0.7818609E-02  0.9873782E-01
       -2   -1    0    0    0  501  0.00000000000E+00  0.00000000000E+00  0.19013695511E+03  0.19013695512E+03  0.25500000920E-02 0.  1.
        2   -1    0    0  501    0  0.00000000000E+00  0.00000000000E+00 -0.49809718888E+03  0.49809718889E+03  0.25500000920E-02 0. -1.
    10030    2    1    2    0    0  0.00000000000E+00  0.00000000000E+00 -0.30796023378E+03  0.68823414401E+03  0.61548901810E+03 0.  0.
        5    1    3    3  502    0  0.23362482443E+03  0.81349662597E+02  0.50640444497E+02  0.25255666852E+03  0.46999998093E+01 0.  1.
       -5    1    3    3    0  502 -0.23362482443E+03 -0.81349662597E+02 -0.35860067827E+03  0.43567747549E+03  0.46999998093E+01 0. -1.
</event>
<event>
 5   0  0.9411028E-02  0.6009712E+03  0.7818609E-02  0.9903393E-01
       -1   -1    0    0    0  501  0.00000000000E+00  0.00000000000E+00  0.21311393486E+03  0.21311393492E+03  0.50400001928E-02 0.  1.
        1   -1    0    0  501    0  0.00000000000E+00  0.00000000000E+00 -0.42367752283E+03  0.42367752286E+03  0.50400001928E-02 0. -1.
    10030    2    1    2    0    0  0.00000000000E+00  0.00000000000E+00 -0.21056358797E+03  0.63679145777E+03  0.60097116080E+03 0.  0.
        4    1    3    3  502    0  0.16345014117E+03 -0.23957868359E+03 -0.22009612339E+02  0.29086067148E+03  0.12699999809E+01 0.  1.
       -4    1    3    3    0  502 -0.16345014117E+03  0.23957868359E+03 -0.18855397563E+03  0.34593078629E+03  0.12699999809E+01 0. -1.
</event>
<event>
 5   0  0.9177281E-02  0.5972715E+03  0.7818609E-02  0.9911083E-01
        1   -1    0    0  501    0  0.00000000000E+00  0.00000000000E+00  0.19666183892E+03  0.19666183898E+03  0.50400001928E-02 0. -1.
       -1   -1    0    0    0  501  0.00000000000E+00  0.00000000000E+00 -0.45348563257E+03  0.45348563260E+03  0.50400001928E-02 0.  1.
    10030    2    1    2    0    0  0.00000000000E+00  0.00000000000E+00 -0.25682379365E+03  0.65014747159E+03  0.59727152437E+03 0.  0.
        1    1    3    3  502    0  0.28484311299E+02 -0.29677097851E+03 -0.10959108108E+03  0.31763906364E+03  0.50400001928E-02 0. -1.
       -1    1    3    3    0  502 -0.28484311299E+02  0.29677097851E+03 -0.14723271257E+03  0.33250840794E+03  0.50400001928E-02 0.  1.
</event>
<event>
 5   0  0.8860626E-02  0.6026210E+03  0.7818609E-02  0.9899983E-01
        1   -1    0    0  501    0  0.00000000000E+00  0.00000000000E+00  0.22430778411E+03  0.22430778417E+03  0.50400001928E-02 0. -1.
       -1   -1    0    0    0  501  0.00000000000E+00  0.00000000000E+00 -0.40474746572E+03  0.40474746575E+03  0.50400001928E-02 0.  1.
    10030    2    1    2    0    0  0.00000000000E+00  0.00000000000E+00 -0.18043968161E+03  0.62905524992E+03  0.60262096607E+03 0.  0.
        3    1    3    3  502    0  0.29014772411E+03 -0.36850155636E+02 -0.14625227106E+02  0.29284388887E+03  0.10100000352E+00 0. -1.
       -3    1    3    3    0  502 -0.29014772411E+03  0.36850155636E+02 -0.16581445450E+03  0.33621136105E+03  0.10100000352E+00 0.  1.
</event>
<event>
 5   0  0.1483942E-01  0.6443324E+03  0.7818609E-02  0.9817472E-01
        2   -1    0    0  501    0  0.00000000000E+00  0.00000000000E+00  0.10309698990E+04  0.10309698990E+04  0.25500000920E-02 0.  1.
       -2   -1    0    0    0  501  0.00000000000E+00  0.00000000000E+00 -0.10067323333E+03  0.10067323336E+03  0.25500000920E-02 0. -1.
    10030    2    1    2    0    0  0.00000000000E+00  0.00000000000E+00  0.93029666562E+03  0.11316431323E+04  0.64433243969E+03 0.  0.
        4    1    3    3  502    0 -0.24951464786E+03 -0.15858227213E+03  0.24034451463E+03  0.38101574133E+03  0.12699999809E+01 0. -1.
       -4    1    3    3    0  502  0.24951464786E+03  0.15858227213E+03  0.68995215099E+03  0.75062739098E+03  0.12699999809E+01 0.  1.
</event>
<event>
 5   0  0.1483942E-01  0.5922266E+03  0.7818609E-02  0.9921666E-01
       -2   -1    0    0    0  501  0.00000000000E+00  0.00000000000E+00  0.96823639836E+02  0.96823639869E+02  0.25500000920E-02 0. -1.
        2   -1    0    0  501    0  0.00000000000E+00  0.00000000000E+00 -0.90559573959E+03  0.90559573960E+03  0.25500000920E-02 0.  1.
    10030    2    1    2    0    0  0.00000000000E+00  0.00000000000E+00 -0.80877209976E+03  0.10024193795E+04  0.59222656389E+03 0.  0.
        4    1    3    3  502    0 -0.76354665221E+02 -0.19390279924E+03 -0.48317530066E+02  0.21392645247E+03  0.12699999809E+01 0. -1.
       -4    1    3    3    0  502  0.76354665221E+02  0.19390279924E+03 -0.76045456969E+03  0.78849292699E+03  0.12699999809E+01 0.  1.
</event>
<event>
 5   0  0.1488510E-01  0.6069736E+03  0.7818609E-02  0.9891043E-01
       -2   -1    0    0    0  501  0.00000000000E+00  0.00000000000E+00  0.46453398183E+02  0.46453398253E+02  0.25500000920E-02 0. -1.
        2   -1    0    0  501    0  0.00000000000E+00  0.00000000000E+00 -0.19827235603E+04  0.19827235603E+04  0.25500000920E-02 0.  1.
    10030    2    1    2    0    0  0.00000000000E+00  0.00000000000E+00 -0.19362701621E+04  0.20291769585E+04  0.60697363075E+03 0.  0.
        5    1    3    3  502    0 -0.22133573822E+03 -0.19456566845E+03 -0.72620764997E+03  0.78373780643E+03  0.46999998093E+01 0. -1.
       -5    1    3    3    0  502  0.22133573822E+03  0.19456566845E+03 -0.12100625121E+04  0.12454391521E+04  0.46999998093E+01 0.  1.
</event>
<event>
 5   0  0.1483942E-01  0.5865316E+03  0.7818609E-02  0.9933749E-01
       -2   -1    0    0    0  501  0.00000000000E+00  0.00000000000E+00  0.12992170597E+03  0.12992170600E+03  0.25500000920E-02 0. -1.
        2   -1    0    0  501    0  0.00000000000E+00  0.00000000000E+00 -0.66197433484E+03  0.66197433484E+03  0.25500000920E-02 0.  1.
    10030    2    1    2    0    0  0.00000000000E+00  0.00000000000E+00 -0.53205262887E+03  0.79189604084E+03  0.58653161860E+03 0.  0.
        4    1    3    3  502    0 -0.12794022125E+03 -0.13312501695E+03 -0.57364426609E+03  0.60262785139E+03  0.12699999809E+01 0.  1.
       -4    1    3    3    0  502  0.12794022125E+03  0.13312501695E+03  0.41591637222E+02  0.18926818945E+03  0.12699999809E+01 0. -1.
</event>
<event>
 5   0  0.1502642E-01  0.6024553E+03  0.7818609E-02  0.9900325E-01
        2   -1    0    0  501    0  0.00000000000E+00  0.00000000000E+00  0.63241979589E+03  0.63241979589E+03  0.25500000920E-02 0. -1.
       -2   -1    0    0    0  501  0.00000000000E+00  0.00000000000E+00 -0.14347763178E+03  0.14347763180E+03  0.25500000920E-02 0.  1.
    10030    2    1    2    0    0  0.00000000000E+00  0.00000000000E+00  0.48894216411E+03  0.77589742769E+03  0.60245529166E+03 0.  0.
        2    1    3    3  502    0  0.92813076564E+02 -0.27231291582E+03  0.35944388419E+03  0.46040036620E+03  0.25500000920E-02 0. -1.
       -2    1    3    3    0  502 -0.92813076564E+02  0.27231291582E+03  0.12949827992E+03  0.31549706150E+03  0.25500000920E-02 0.  1.
</event>
<event>
 5   0  0.1488510E-01  0.4848560E+03  0.7818609E-02  0.1017809E+00
        2   -1    0    0  501    0  0.00000000000E+00  0.00000000000E+00  0.20905998365E+03  0.20905998367E+03  0.25500000920E-02 0. -1.
       -2   -1    0    0    0  501  0.00000000000E+00  0.00000000000E+00 -0.28112190115E+03  0.28112190116E+03  0.25500000920E-02 0.  1.
    10030    2    1    2    0    0  0.00000000000E+00  0.00000000000E+00 -0.72061917494E+02  0.49018188483E+03  0.48485602013E+03 0.  0.
        5    1    3    3  502    0  0.17628894140E+03  0.22474137811E+02 -0.20266368104E+03  0.26958771363E+03  0.46999998093E+01 0.  1.
       -5    1    3    3    0  502 -0.17628894140E+03 -0.22474137811E+02  0.13060176354E+03  0.22059417120E+03  0.46999998093E+01 0. -1.
</event>
<event>
 5   0  0.1488510E-01  0.5829462E+03  0.7818609E-02  0.9941433E-01
       -2   -1    0    0    0  501  0.00000000000E+00  0.00000000000E+00  0.13135265399E+03  0.13135265401E+03  0.25500000920E-02 0.  1.
        2   -1    0    0  501    0  0.00000000000E+00  0.00000000000E+00 -0.64678235190E+03  0.64678235191E+03  0.25500000920E-02 0. -1.
    10030    2    1    2    0    0  0.00000000000E+00  0.00000000000E+00 -0.51542969791E+03  0.77813500592E+03  0.58294623590E+03 0.  0.
        5    1    3    3  502    0 -0.16452721155E+03  0.12588055304E+03  0.15907285958E+02  0.20782263765E+03  0.46999998093E+01 0.  1.
       -5    1    3    3    0  502  0.16452721155E+03 -0.12588055304E+03 -0.53133698387E+03  0.57031236827E+03  0.46999998093E+01 0. -1.
</event>
<event>
 5   0  0.6170500E-02  0.6006876E+03  0.7818609E-02  0.9903980E-01
       -4   -1    0    0    0  501  0.00000000000E+00  0.00000000000E+00  0.28065661678E+03  0.28065949020E+03  0.12699999809E+01 0.  1.
        4   -1    0    0  501    0  0.00000000000E+00  0.00000000000E+00 -0.32140624354E+03  0.32140875266E+03  0.12699999809E+01 0. -1.
    10030    2    1    2    0    0  0.00000000000E+00  0.00000000000E+00 -0.40749626768E+02  0.60206824287E+03  0.60068763679E+03 0.  0.
        1    1    3    3  502    0 -0.29722240637E+03 -0.41752257134E+02 -0.31445533424E+02  0.30178341807E+03  0.50400001928E-02 0.  1.
       -1    1    3    3    0  502  0.29722240637E+03  0.41752257134E+02 -0.93040933440E+01  0.30028482480E+03  0.50400001928E-02 0. -1.
</event>
<event>
 5   0  0.6170500E-02  0.6034617E+03  0.7818609E-02  0.9898250E-01
       -4   -1    0    0    0  501  0.00000000000E+00  0.00000000000E+00  0.35902169656E+03  0.35902394279E+03  0.12699999809E+01 0.  1.
        4   -1    0    0  501    0  0.00000000000E+00  0.00000000000E+00 -0.25357754123E+03  0.25358072150E+03  0.12699999809E+01 0. -1.
    10030    2    1    2    0    0  0.00000000000E+00  0.00000000000E+00  0.10544415533E+03  0.61260466429E+03  0.60346168463E+03 0.  0.
        3    1    3    3  502    0 -0.16311370874E+03  0.25374979881E+03  0.59640659006E+02  0.30749318819E+03  0.10100000352E+00 0. -1.
       -3    1    3    3    0  502  0.16311370874E+03 -0.25374979881E+03  0.45803496321E+02  0.30511147610E+03  0.10100000352E+00 0.  1.
</event>
<event>
 5   0  0.1488510E-01  0.5990331E+03  0.7818609E-02  0.9907414E-01
        2   -1    0    0  501    0  0.00000000000E+00  0.00000000000E+00  0.21745716313E+04  0.21745716313E+04  0.25500000920E-02 0.  1.
       -2   -1    0    0    0  501  0.00000000000E+00  0.00000000000E+00 -0.41254172979E+02  0.41254173058E+02  0.25500000920E-02 0. -1.
    10030    2    1    2    0    0  0.00000000000E+00  0.00000000000E+00  0.21333174583E+04  0.22158258043E+04  0.59903306861E+03 0.  0.
        5    1    3    3  502    0  0.18897613595E+03 -0.63313417132E+02  0.18935123060E+04  0.19039778128E+04  0.46999998093E+01 0.  1.
       -5    1    3    3    0  502 -0.18897613595E+03  0.63313417132E+02  0.23980515233E+03  0.31184799154E+03  0.46999998093E+01 0. -1.
</event>
<event>
 5   0  0.8860626E-02  0.6003481E+03  0.7818609E-02  0.9904684E-01
        1   -1    0    0  501    0  0.00000000000E+00  0.00000000000E+00  0.63779106843E+03  0.63779106845E+03  0.50400001928E-02 0.  1.
       -1   -1    0    0    0  501  0.00000000000E+00  0.00000000000E+00 -0.14127581283E+03  0.14127581292E+03  0.50400001928E-02 0. -1.
    10030    2    1    2    0    0  0.00000000000E+00  0.00000000000E+00  0.49651525560E+03  0.77906688137E+03  0.60034807121E+03 0.  0.
        3    1    3    3  502    0  0.23770454793E+03  0.14157628170E+03  0.39935459814E+03  0.48583062985E+03  0.10100000352E+00 0. -1.
       -3    1    3    3    0  502 -0.23770454793E+03 -0.14157628170E+03  0.97160657458E+02  0.29323625152E+03  0.10100000352E+00 0.  1.
</event>
<event>
 5   0  0.1513339E-01  0.6149705E+03  0.7818609E-02  0.9874825E-01
       -2   -1    0    0    0  501  0.00000000000E+00  0.00000000000E+00  0.18112065520E+03  0.18112065522E+03  0.25500000920E-02 0.  1.
        2   -1    0    0  501    0  0.00000000000E+00  0.00000000000E+00 -0.52201218026E+03  0.52201218026E+03  0.25500000920E-02 0. -1.
    10030    2    1    2    0    0  0.00000000000E+00  0.00000000000E+00 -0.34089152506E+03  0.70313283548E+03  0.61497052976E+03 0.  0.
        3    1    3    3  502    0 -0.12658801262E+03  0.26442063152E+03 -0.64387884897E+02  0.30014763906E+03  0.10100000352E+00 0.  1.
       -3    1    3    3    0  502  0.12658801262E+03 -0.26442063152E+03 -0.27650364016E+03  0.40298519642E+03  0.10100000352E+00 0. -1.
</event>
<event>
 5   0  0.9177281E-02  0.5876631E+03  0.7818609E-02  0.9931337E-01
        1   -1    0    0  501    0  0.00000000000E+00  0.00000000000E+00  0.15008470400E+04  0.15008470400E+04  0.50400001928E-02 0.  1.
       -1   -1    0    0    0  501  0.00000000000E+00  0.00000000000E+00 -0.57525499959E+02  0.57525500180E+02  0.50400001928E-02 0. -1.
    10030    2    1    2    0    0  0.00000000000E+00  0.00000000000E+00  0.14433215400E+04  0.15583725402E+04  0.58766308891E+03 0.  0.
        1    1    3    3  502    0  0.65331154447E+02  0.22979470948E+03  0.11752929366E+04  0.11993278347E+04  0.50400001928E-02 0.  1.
       -1    1    3    3    0  502 -0.65331154447E+02 -0.22979470948E+03  0.26802860344E+03  0.35904470548E+03  0.50400001928E-02 0. -1.
</event>
<event>
 5   0  0.9420349E-02  0.6328970E+03  0.7818609E-02  0.9839412E-01
       -1   -1    0    0    0  501  0.00000000000E+00  0.00000000000E+00  0.22237903351E+03  0.22237903356E+03  0.50400001928E-02 0. -1.
        1   -1    0    0  501    0  0.00000000000E+00  0.00000000000E+00 -0.45031069349E+03  0.45031069352E+03  0.50400001928E-02 0.  1.
    10030    2    1    2    0    0  0.00000000000E+00  0.00000000000E+00 -0.22793165999E+03  0.67268972708E+03  0.63289701161E+03 0.  0.
        2    1    3    3  502    0 -0.10243129115E+03  0.26555025549E+03 -0.26097535340E+03  0.38615701817E+03  0.25500000920E-02 0.  1.
       -2    1    3    3    0  502  0.10243129115E+03 -0.26555025549E+03  0.33043693407E+02  0.28653270891E+03  0.25500000920E-02 0. -1.
</event>
<event>
 5   0  0.9497860E-02  0.6120179E+03  0.7818609E-02  0.9880782E-01
        1   -1    0    0  501    0  0.00000000000E+00  0.00000000000E+00  0.94782747960E+03  0.94782747962E+03  0.50400001928E-02 0. -1.
       -1   -1    0    0    0  501  0.00000000000E+00  0.00000000000E+00 -0.98795901143E+02  0.98795901271E+02  0.50400001928E-02 0.  1.
    10030    2    1    2    0    0  0.00000000000E+00  0.00000000000E+00  0.84903157846E+03  0.10466233809E+04  0.61201787572E+03 0.  0.
        5    1    3    3  502    0  0.25171821628E+03  0.83693410346E+02  0.68528921054E+03  0.73485375377E+03  0.46999998093E+01 0. -1.
       -5    1    3    3    0  502 -0.25171821628E+03 -0.83693410346E+02  0.16374236792E+03  0.31176962712E+03  0.46999998093E+01 0.  1.
</event>
<event>
 5   0  0.1502642E-01  0.5872605E+03  0.7818609E-02  0.9932195E-01
       -2   -1    0    0    0  501  0.00000000000E+00  0.00000000000E+00  0.13793502417E+03  0.13793502419E+03  0.25500000920E-02 0.  1.
        2   -1    0    0  501    0  0.00000000000E+00  0.00000000000E+00 -0.62506758445E+03  0.62506758446E+03  0.25500000920E-02 0. -1.
    10030    2    1    2    0    0  0.00000000000E+00  0.00000000000E+00 -0.48713256028E+03  0.76300260865E+03  0.58726046139E+03 0.  0.
        2    1    3    3  502    0  0.15577501290E+03  0.23426328503E+03 -0.35283972127E+03  0.45126600833E+03  0.25500000920E-02 0. -1.
       -2    1    3    3    0  502 -0.15577501290E+03 -0.23426328503E+03 -0.13429283901E+03  0.31173660031E+03  0.25500000920E-02 0.  1.
</event>
<event>
 5   0  0.1483942E-01  0.3196353E+03  0.7818609E-02  0.1075817E+00
       -2   -1    0    0    0  501  0.00000000000E+00  0.00000000000E+00  0.12084221071E+03  0.12084221074E+03  0.25500000920E-02 0.  1.
        2   -1    0    0  501    0  0.00000000000E+00  0.00000000000E+00 -0.21136396429E+03  0.21136396430E+03  0.25500000920E-02 0. -1.
    10030    2    1    2    0    0  0.00000000000E+00  0.00000000000E+00 -0.90521753578E+02  0.33220617504E+03  0.31963534671E+03 0.  0.
        4    1    3    3  502    0  0.13704927336E+03  0.22973172825E+02  0.36772418253E+02  0.14375010832E+03  0.12699999809E+01 0.  1.
       -4    1    3    3    0  502 -0.13704927336E+03 -0.22973172825E+02 -0.12729417183E+03  0.18845606671E+03  0.12699999809E+01 0. -1.
</event>
<event>
 5   0  0.8860626E-02  0.6098597E+03  0.7818609E-02  0.9885159E-01
       -1   -1    0    0    0  501  0.00000000000E+00  0.00000000000E+00  0.85500455967E+02  0.85500456115E+02  0.50400001928E-02 0. -1.
        1   -1    0    0  501    0  0.00000000000E+00  0.00000000000E+00 -0.10875055772E+04  0.10875055772E+04  0.50400001928E-02 0.  1.
    10030    2    1    2    0    0  0.00000000000E+00  0.00000000000E+00 -0.10020051212E+04  0.11730060333E+04  0.60985973079E+03 0.  0.
        3    1    3    3  502    0  0.44415456288E+02 -0.15759054359E+02  0.78453140685E+02  0.91520413220E+02  0.10100000352E+00 0. -1.
       -3    1    3    3    0  502 -0.44415456288E+02  0.15759054359E+02 -0.10804582619E+04  0.10814856201E+04  0.10100000352E+00 0.  1.
</event>
<event>
 5   0  0.1502642E-01  0.5867596E+03  0.7818609E-02  0.9933263E-01
       -2   -1    0    0    0  501  0.00000000000E+00  0.00000000000E+00  0.15395912158E+03  0.15395912160E+03  0.25500000920E-02 0.  1.
        2   -1    0    0  501    0  0.00000000000E+00  0.00000000000E+00 -0.55905564002E+03  0.55905564002E+03  0.25500000920E-02 0. -1.
    10030    2    1    2    0    0  0.00000000000E+00  0.00000000000E+00 -0.40509651844E+03  0.71301476163E+03  0.58675962800E+03 0.  0.
        2    1    3    3  502    0 -0.15866616128E+03  0.20664577705E+03 -0.36645839924E+03  0.44963227897E+03  0.25500000920E-02 0. -1.
       -2    1    3    3    0  502  0.15866616128E+03 -0.20664577705E+03 -0.38638119195E+02  0.26338248266E+03  0.25500000920E-02 0.  1.
</event>
<event>
 5   0  0.9497860E-02  0.6045193E+03  0.7818609E-02  0.9896074E-01
       -1   -1    0    0    0  501  0.00000000000E+00  0.00000000000E+00  0.10700671430E+03  0.10700671442E+03  0.50400001928E-02 0.  1.
        1   -1    0    0  501    0  0.00000000000E+00  0.00000000000E+00 -0.85378670074E+03  0.85378670075E+03  0.50400001928E-02 0. -1.
    10030    2    1    2    0    0  0.00000000000E+00  0.00000000000E+00 -0.74677998644E+03  0.96079341518E+03  0.60451934502E+03 0.  0.
        5    1    3    3  502    0  0.17203664887E+03  0.20114474005E+03 -0.60525557390E+03  0.66061502764E+03  0.46999998093E+01 0.  1.
       -5    1    3    3    0  502 -0.17203664887E+03 -0.20114474005E+03 -0.14152441253E+03  0.30017838754E+03  0.46999998093E+01 0. -1.
</event>
<event>
 5   0  0.9497860E-02  0.6033693E+03  0.7818609E-02  0.9898440E-01
       -1   -1    0    0    0  501  0.00000000000E+00  0.00000000000E+00  0.57638376971E+03  0.57638376973E+03  0.50400001928E-02 0.  1.
        1   -1    0    0  501    0  0.00000000000E+00  0.00000000000E+00 -0.15790455081E+03  0.15790455089E+03  0.50400001928E-02 0. -1.
    10030    2    1    2    0    0  0.00000000000E+00  0.00000000000E+00  0.41847921890E+03  0.73428832062E+03  0.60336927429E+03 0.  0.
        5    1    3    3  502    0 -0.14211584576E+02 -0.21733080186E+03 -0.44747590449E+02  0.22239398243E+03  0.46999998093E+01 0. -1.
       -5    1    3    3    0  502  0.14211584576E+02  0.21733080186E+03  0.46322680935E+03  0.51189433819E+03  0.46999998093E+01 0.  1.
</event>
<event>
 5   0  0.9411028E-02  0.6373382E+03  0.7818609E-02  0.9830833E-01
        1   -1    0    0  501    0  0.00000000000E+00  0.00000000000E+00  0.14845931559E+03  0.14845931567E+03  0.50400001928E-02 0. -1.
       -1   -1    0    0    0  501  0.00000000000E+00  0.00000000000E+00 -0.68402572396E+03  0.68402572397E+03  0.50400001928E-02 0.  1.
    10030    2    1    2    0    0  0.00000000000E+00  0.00000000000E+00 -0.53556640837E+03  0.83248503965E+03  0.63733818610E+03 0.  0.
        4    1    3    3  502    0 -0.25876624738E+02 -0.23169593656E+03 -0.55154769028E+03  0.59879802461E+03  0.12699999809E+01 0.  1.
       -4    1    3    3    0  502  0.25876624738E+02  0.23169593656E+03  0.15981281912E+02  0.23368701504E+03  0.12699999809E+01 0. -1.
</event>
<event>
 5   0  0.9420349E-02  0.5808096E+03  0.7818609E-02  0.9946040E-01
       -1   -1    0    0    0  501  0.00000000000E+00  0.00000000000E+00  0.48162404561E+03  0.48162404564E+03  0.50400001928E-02 0. -1.
        1   -1    0    0  501    0  0.00000000000E+00  0.00000000000E+00 -0.17510535928E+03  0.17510535936E+03  0.50400001928E-02 0.  1.
    10030    2    1    2    0    0  0.00000000000E+00  0.00000000000E+00  0.30651868633E+03  0.65672940499E+03  0.58080961280E+03 0.  0.
        2    1    3    3  502    0  0.66952214642E+02 -0.21113443687E+03  0.36562472769E+03  0.42748308853E+03  0.25500000920E-02 0. -1.
       -2    1    3    3    0  502 -0.66952214642E+02  0.21113443687E+03 -0.59106041359E+02  0.22924631646E+03  0.25500000920E-02 0.  1.
</event>
<event>
 5   0  0.9497860E-02  0.6008869E+03  0.7818609E-02  0.9903568E-01
       -1   -1    0    0    0  501  0.00000000000E+00  0.00000000000E+00  0.12131078184E+03  0.12131078194E+03  0.50400001928E-02 0. -1.
        1   -1    0    0  501    0  0.00000000000E+00  0.00000000000E+00 -0.74409103221E+03  0.74409103222E+03  0.50400001928E-02 0.  1.
    10030    2    1    2    0    0  0.00000000000E+00  0.00000000000E+00 -0.62278025037E+03  0.86540181416E+03  0.60088689427E+03 0.  0.
        5    1    3    3  502    0 -0.10643943377E+01 -0.12975972829E+03 -0.70159189658E+03  0.71350683204E+03  0.46999998093E+01 0.  1.
       -5    1    3    3    0  502  0.10643943377E+01  0.12975972829E+03  0.78811646207E+02  0.15189498213E+03  0.46999998093E+01 0. -1.
</event>
<event>
 5   0  0.9177281E-02  0.6123757E+03  0.7818609E-02  0.9880058E-01
       -1   -1    0    0    0  501  0.00000000000E+00  0.00000000000E+00  0.18636496632E+03  0.18636496639E+03  0.50400001928E-02 0. -1.
        1   -1    0    0  501    0  0.00000000000E+00  0.00000000000E+00 -0.50305050706E+03  0.50305050709E+03  0.50400001928E-02 0.  1.
    10030    2    1    2    0    0  0.00000000000E+00  0.00000000000E+00 -0.31668554075E+03  0.68941547348E+03  0.61237567175E+03 0.  0.
        1    1    3    3  502    0  0.15870898232E+03  0.25411399849E+03 -0.22944271870E+03  0.37736776026E+03  0.50400001928E-02 0.  1.
       -1    1    3    3    0  502 -0.15870898232E+03 -0.25411399849E+03 -0.87242822047E+02  0.31204771321E+03  0.50400001928E-02 0. -1.
</event>
<event>
 5   0  0.1513339E-01  0.6011889E+03  0.7818609E-02  0.9902943E-01
       -2   -1    0    0    0  501  0.00000000000E+00  0.00000000000E+00  0.13102773971E+03  0.13102773973E+03  0.25500000920E-02 0.  1.
        2   -1    0    0  501    0  0.00000000000E+00  0.00000000000E+00 -0.68960224424E+03  0.68960224425E+03  0.25500000920E-02 0. -1.
    10030    2    1    2    0    0  0.00000000000E+00  0.00000000000E+00 -0.55857450454E+03  0.82062998398E+03  0.60118890001E+03 0.  0.
        3    1    3    3  502    0 -0.13951604636E+03  0.25397920144E+03 -0.38837596757E+03  0.48456791510E+03  0.10100000352E+00 0.  1.
       -3    1    3    3    0  502  0.13951604636E+03 -0.25397920144E+03 -0.17019853696E+03  0.33606206888E+03  0.10100000352E+00 0. -1.
</event>
<event>
 5   0  0.1513339E-01  0.6242532E+03  0.7818609E-02  0.9856328E-01
       -2   -1    0    0    0  501  0.00000000000E+00  0.00000000000E+00  0.26552451654E+03  0.26552451655E+03  0.25500000920E-02 0.  1.
        2   -1    0    0  501    0  0.00000000000E+00  0.00000000000E+00 -0.36690774376E+03  0.36690774377E+03  0.25500000920E-02 0. -1.
    10030    2    1    2    0    0  0.00000000000E+00  0.00000000000E+00 -0.10138322722E+03  0.63243226032E+03  0.62425315788E+03 0.  0.
        3    1    3    3  502    0  0.40422389636E+02  0.21580547196E+03 -0.27544742164E+03  0.35224602709E+03  0.10100000352E+00 0. -1.
       -3    1    3    3    0  502 -0.40422389636E+02 -0.21580547196E+03  0.17406419441E+03  0.28018623323E+03  0.10100000352E+00 0.  1.
</event>
<event>
 5   0  0.8860626E-02  0.5897607E+03  0.7818609E-02  0.9926880E-01
       -1   -1    0    0    0  501  0.00000000000E+00  0.00000000000E+00  0.56703378543E+03  0.56703378546E+03  0.50400001928E-02 0.  1.
        1   -1    0    0  501    0  0.00000000000E+00  0.00000000000E+00 -0.15334962384E+03  0.15334962392E+03  0.50400001928E-02 0. -1.
    10030    2    1    2    0    0  0.00000000000E+00  0.00000000000E+00  0.41368416160E+03  0.72038340937E+03  0.58976068956E+03 0.  0.
        3    1    3    3  502    0 -0.10506123335E+03 -0.23642292756E+03  0.37967560610E+03  0.45944231357E+03  0.10100000352E+00 0.  1.
       -3    1    3    3    0  502  0.10506123335E+03  0.23642292756E+03  0.34008555495E+02  0.26094109580E+03  0.10100000352E+00 0. -1.
</event>
<event>
 5   0  0.9177281E-02  0.6071353E+03  0.7818609E-02  0.9890712E-01
       -1   -1    0    0    0  501  0.00000000000E+00  0.00000000000E+00  0.18992591029E+03  0.18992591035E+03  0.50400001928E-02 0. -1.
        1   -1    0    0  501    0  0.00000000000E+00  0.00000000000E+00 -0.48520669591E+03  0.48520669594E+03  0.50400001928E-02 0.  1.
    10030    2    1    2    0    0  0.00000000000E+00  0.00000000000E+00 -0.29528078563E+03  0.67513260629E+03  0.60713531747E+03 0.  0.
        1    1    3    3  502    0 -0.19732916366E+03 -0.20238344203E+03 -0.24537426394E+02  0.28372511654E+03  0.50400001928E-02 0. -1.
       -1    1    3    3    0  502  0.19732916366E+03  0.20238344203E+03 -0.27074335923E+03  0.39140748975E+03  0.50400001928E-02 0.  1.
</event>
<event>
 5   0  0.8860626E-02  0.5947413E+03  0.7818609E-02  0.9916377E-01
        1   -1    0    0  501    0  0.00000000000E+00  0.00000000000E+00  0.32241834314E+03  0.32241834318E+03  0.50400001928E-02 0.  1.
       -1   -1    0    0    0  501  0.00000000000E+00  0.00000000000E+00 -0.27426885630E+03  0.27426885635E+03  0.50400001928E-02 0. -1.
    10030    2    1    2    0    0  0.00000000000E+00  0.00000000000E+00  0.48149486835E+02  0.59668719953E+03  0.59474132276E+03 0.  0.
        3    1    3    3  502    0 -0.17026956667E+03  0.27869277727E+01  0.26865464700E+03  0.31807989854E+03  0.10100000352E+00 0.  1.
       -3    1    3    3    0  502  0.17026956667E+03 -0.27869277727E+01 -0.22050516016E+03  0.27860730098E+03  0.10100000352E+00 0. -1.
</event>
<event>
 5   0  0.1502642E-01  0.6196704E+03  0.7818609E-02  0.9865416E-01
       -2   -1    0    0    0  501  0.00000000000E+00  0.00000000000E+00  0.31685094418E+03  0.31685094419E+03  0.25500000920E-02 0.  1.
        2   -1    0    0  501    0  0.00000000000E+00  0.00000000000E+00 -0.30297482943E+03  0.30297482944E+03  0.25500000920E-02 0. -1.
    10030    2    1    2    0    0  0.00000000000E+00  0.00000000000E+00  0.13876114749E+02  0.61982577363E+03  0.61967043104E+03 0.  0.
        2    1    3    3  502    0  0.48371769469E+02 -0.18814595187E+03 -0.23449173909E+03  0.30450796869E+03  0.25500000920E-02 0. -1.
       -2    1    3    3    0  502 -0.48371769469E+02  0.18814595187E+03  0.24836785384E+03  0.31531780494E+03  0.25500000920E-02 0.  1.
</event>
<event>
 5   0  0.1502642E-01  0.6067714E+03  0.7818609E-02  0.9891456E-01
        2   -1    0    0  501    0  0.00000000000E+00  0.00000000000E+00  0.35678922050E+03  0.35678922051E+03  0.25500000920E-02 0.  1.
       -2   -1    0    0    0  501  0.00000000000E+00  0.00000000000E+00 -0.25797548500E+03  0.25797548501E+03  0.25500000920E-02 0. -1.
    10030    2    1    2    0    0  0.00000000000E+00  0.00000000000E+00  0.98813735504E+02  0.61476470552E+03  0.60677136455E+03 0.  0.
        2    1    3    3  502    0  0.13878230551E+03 -0.13419890148E+02 -0.22359077089E+03  0.26350228578E+03  0.25500000920E-02 0. -1.
       -2    1    3    3    0  502 -0.13878230551E+03  0.13419890148E+02  0.32240450640E+03  0.35126241975E+03  0.25500000920E-02 0.  1.
</event>
<event>
 5   0  0.9411028E-02  0.5929326E+03  0.7818609E-02  0.9920178E-01
        1   -1    0    0  501    0  0.00000000000E+00  0.00000000000E+00  0.59339228772E+03  0.59339228775E+03  0.50400001928E-02 0.  1.
       -1   -1    0    0    0  501  0.00000000000E+00  0.00000000000E+00 -0.14811831880E+03  0.14811831888E+03  0.50400001928E-02 0. -1.
    10030    2    1    2    0    0  0.00000000000E+00  0.00000000000E+00  0.44527396892E+03  0.74151060663E+03  0.59293260354E+03 0.  0.
        4    1    3    3  502    0 -0.19291854157E+03  0.13569801680E+03  0.44725181456E+03  0.50563555450E+03  0.12699999809E+01 0.  1.
       -4    1    3    3    0  502  0.19291854157E+03 -0.13569801680E+03 -0.19778456394E+01  0.23587505213E+03  0.12699999809E+01 0. -1.
</event>
<event>
 5   0  0.1532571E-01  0.6008981E+03  0.7818609E-02  0.9903544E-01
        2   -1    0    0  501    0  0.00000000000E+00  0.00000000000E+00  0.11564513071E+04  0.11564513071E+04  0.25500000920E-02 0. -1.
       -2   -1    0    0    0  501  0.00000000000E+00  0.00000000000E+00 -0.78057453046E+02  0.78057453087E+02  0.25500000920E-02 0.  1.
    10030    2    1    2    0    0  0.00000000000E+00  0.00000000000E+00  0.10783938540E+04  0.12345087602E+04  0.60089813989E+03 0.  0.
        1    1    3    3  502    0  0.52432101788E+02 -0.18228804517E+03  0.10178926910E+04  0.10354146933E+04  0.50400001928E-02 0. -1.
       -1    1    3    3    0  502 -0.52432101788E+02  0.18228804517E+03  0.60501163051E+02  0.19909406688E+03  0.50400001928E-02 0.  1.
</event>
<event>
 5   0  0.9497860E-02  0.6130340E+03  0.7818609E-02  0.9878728E-01
        1   -1    0    0  501    0  0.00000000000E+00  0.00000000000E+00  0.27178945602E+03  0.27178945607E+03  0.50400001928E-02 0.  1.
       -1   -1    0    0    0  501  0.00000000000E+00  0.00000000000E+00 -0.34568179316E+03  0.34568179320E+03  0.50400001928E-02 0. -1.
    10030    2    1    2    0    0  0.00000000000E+00  0.00000000000E+00 -0.73892337136E+02  0.61747124927E+03  0.61303398452E+03 0.  0.
        5    1    3    3  502    0 -0.22610085687E+03 -0.19349851162E+03  0.36846009622E+02  0.29990496812E+03  0.46999998093E+01 0.  1.
       -5    1    3    3    0  502  0.22610085687E+03  0.19349851162E+03 -0.11073834676E+03  0.31756628115E+03  0.46999998093E+01 0. -1.
</event>
<event>
 5   0  0.1488510E-01  0.6117714E+03  0.7818609E-02  0.9881281E-01
       -2   -1    0    0    0  501  0.00000000000E+00  0.00000000000E+00  0.21909234756E+03  0.21909234757E+03  0.25500000920E-02 0. -1.
        2   -1    0    0  501    0  0.00000000000E+00  0.00000000000E+00 -0.42706217758E+03  0.42706217759E+03  0.25500000920E-02 0.  1.
    10030    2    1    2    0    0  0.00000000000E+00  0.00000000000E+00 -0.20796983003E+03  0.64615452516E+03  0.61177137902E+03 0.  0.
        5    1    3    3  502    0  0.25237153046E+03  0.71416668770E+02  0.62185783510E+02  0.26959393842E+03  0.46999998093E+01 0.  1.
       -5    1    3    3    0  502 -0.25237153046E+03 -0.71416668770E+02 -0.27015561354E+03  0.37656058674E+03  0.46999998093E+01 0. -1.
</event>
<event>
 5   0  0.1488510E-01  0.5810417E+03  0.7818609E-02  0.9945538E-01
       -2   -1    0    0    0  501  0.00000000000E+00  0.00000000000E+00  0.50907759972E+03  0.50907759973E+03  0.25500000920E-02 0.  1.
        2   -1    0    0  501    0  0.00000000000E+00  0.00000000000E+00 -0.16579467588E+03  0.16579467590E+03  0.25500000920E-02 0. -1.
    10030    2    1    2    0    0  0.00000000000E+00  0.00000000000E+00  0.34328292384E+03  0.67487227562E+03  0.58104167028E+03 0.  0.
        5    1    3    3  502    0  0.22337705172E+03 -0.12552644490E+03  0.33058307982E+03  0.41828394455E+03  0.46999998093E+01 0.  1.
       -5    1    3    3    0  502 -0.22337705172E+03  0.12552644490E+03  0.12699844015E+02  0.25658833107E+03  0.46999998093E+01 0. -1.
</event>
<event>
 5   0  0.6170500E-02  0.6187084E+03  0.7818609E-02  0.9867335E-01
        3   -1    0    0  501    0  0.00000000000E+00  0.00000000000E+00  0.16773393330E+03  0.16773396371E+03  0.10100000352E+00 0. -1.
       -3   -1    0    0    0  501  0.00000000000E+00  0.00000000000E+00 -0.57054651714E+03  0.57054652608E+03  0.10100000352E+00 0.  1.
    10030    2    1    2    0    0  0.00000000000E+00  0.00000000000E+00 -0.40281258383E+03  0.73828048979E+03  0.61870841590E+03 0.  0.
        4    1    3    3  502    0 -0.29495730301E+02 -0.12904830981E+03  0.13222683870E+03  0.18710695910E+03  0.12699999809E+01 0. -1.
       -4    1    3    3    0  502  0.29495730301E+02  0.12904830981E+03 -0.53503942253E+03  0.55117353069E+03  0.12699999809E+01 0.  1.
</event>
<event>
 5   0  0.1502642E-01  0.5927049E+03  0.7818609E-02  0.9920658E-01
       -2   -1    0    0    0  501  0.00000000000E+00  0.00000000000E+00  0.57314337806E+03  0.57314337807E+03  0.25500000920E-02 0. -1.
        2   -1    0    0  501    0  0.00000000000E+00  0.00000000000E+00 -0.15323353576E+03  0.15323353578E+03  0.25500000920E-02 0.  1.
    10030    2    1    2    0    0  0.00000000000E+00  0.00000000000E+00  0.41990984230E+03  0.72637691385E+03  0.59270493951E+03 0.  0.
        2    1    3    3  502    0 -0.20794808301E+03  0.12491767140E+03  0.41857560465E+03  0.48378958926E+03  0.25500000920E-02 0. -1.
       -2    1    3    3    0  502  0.20794808301E+03 -0.12491767140E+03  0.13342376464E+01  0.24258732459E+03  0.25500000920E-02 0.  1.
</event>
<event>
 5   0  0.9497860E-02  0.6000578E+03  0.7818609E-02  0.9905286E-01
       -1   -1    0    0    0  501  0.00000000000E+00  0.00000000000E+00  0.50096381738E+03  0.50096381740E+03  0.50400001928E-02 0.  1.
        1   -1    0    0  501    0  0.00000000000E+00  0.00000000000E+00 -0.17968828162E+03  0.17968828169E+03  0.50400001928E-02 0. -1.
    10030    2    1    2    0    0  0.00000000000E+00  0.00000000000E+00  0.32127553575E+03  0.68065209909E+03  0.60005775566E+03 0.  0.
        5    1    3    3  502    0 -0.16076755988E+03 -0.87188302719E+01  0.44776190453E+03  0.47585190916E+03  0.46999998093E+01 0.  1.
       -5    1    3    3    0  502  0.16076755988E+03  0.87188302719E+01 -0.12648636877E+03  0.20480018993E+03  0.46999998093E+01 0. -1.
</event>
<event>
 5   0  0.1513339E-01  0.5936708E+03  0.7818609E-02  0.9918625E-01
        2   -1    0    0  501    0  0.00000000000E+00  0.00000000000E+00  0.67571333182E+03  0.67571333183E+03  0.25500000920E-02 0. -1.
       -2   -1    0    0    0  501  0.00000000000E+00  0.00000000000E+00 -0.13039737964E+03  0.13039737967E+03  0.25500000920E-02 0.  1.
    10030    2    1    2    0    0  0.00000000000E+00  0.00000000000E+00  0.54531595218E+03  0.80611071150E+03  0.59367077702E+03 0.  0.
        3    1    3    3  502    0  0.10945289326E+03 -0.12296464796E+03 -0.62734319480E+02  0.17616993368E+03  0.10100000352E+00 0.  1.
       -3    1    3    3    0  502 -0.10945289326E+03  0.12296464796E+03  0.60805027166E+03  0.62994077782E+03  0.10100000352E+00 0. -1.
</event>
<event>
 5   0  0.8860626E-02  0.5816047E+03  0.7818609E-02  0.9944323E-01
       -1   -1    0    0    0  501  0.00000000000E+00  0.00000000000E+00  0.19187375369E+03  0.19187375376E+03  0.50400001928E-02 0.  1.
        1   -1    0    0  501    0  0.00000000000E+00  0.00000000000E+00 -0.44073769629E+03  0.44073769631E+03  0.50400001928E-02 0. -1.
    10030    2    1    2    0    0  0.00000000000E+00  0.00000000000E+00 -0.24886394260E+03  0.63261145007E+03  0.58160466370E+03 0.  0.
        3    1    3    3  502    0  0.18137092294E+03  0.17730661232E+02 -0.37092554430E+03  0.41327419185E+03  0.10100000352E+00 0. -1.
       -3    1    3    3    0  502 -0.18137092294E+03 -0.17730661232E+02  0.12206160170E+03  0.21933725822E+03  0.10100000352E+00 0.  1.
</event>
<event>
 5   0  0.1483942E-01  0.6035988E+03  0.7818609E-02  0.9897968E-01
        2   -1    0    0  501    0  0.00000000000E+00  0.00000000000E+00  0.44263010216E+03  0.44263010217E+03  0.25500000920E-02 0. -1.
       -2   -1    0    0    0  501  0.00000000000E+00  0.00000000000E+00 -0.20577652630E+03  0.20577652632E+03  0.25500000920E-02 0.  1.
    10030    2    1    2    0    0  0.00000000000E+00  0.00000000000E+00  0.23685357586E+03  0.64840662849E+03  0.60359882328E+03 0.  0.
        4    1    3    3  502    0  0.69145984317E+02  0.13352938103E+03 -0.16266570982E+03  0.22152428489E+03  0.12699999809E+01 0.  1.
       -4    1    3    3    0  502 -0.69145984317E+02 -0.13352938103E+03  0.39951928568E+03  0.42688234359E+03  0.12699999809E+01 0. -1.
</event>
<event>
 5   0  0.9420349E-02  0.6023413E+03  0.7818609E-02  0.9900560E-01
       -1   -1    0    0    0  501  0.00000000000E+00  0.00000000000E+00  0.74438943379E+02  0.74438943550E+02  0.50400001928E-02 0. -1.
        1   -1    0    0  501    0  0.00000000000E+00  0.00000000000E+00 -0.12184987378E+04  0.12184987378E+04  0.50400001928E-02 0.  1.
    10030    2    1    2    0    0  0.00000000000E+00  0.00000000000E+00 -0.11440597944E+04  0.12929376813E+04  0.60234129417E+03 0.  0.
        2    1    3    3  502    0  0.26268819217E+03  0.12813188689E+02 -0.25703588645E+03  0.36774544327E+03  0.25500000920E-02 0.  1.
       -2    1    3    3    0  502 -0.26268819217E+03 -0.12813188689E+02 -0.88702390792E+03  0.92519223804E+03  0.25500000920E-02 0. -1.
</event>
<event>
 5   0  0.9177281E-02  0.6047399E+03  0.7818609E-02  0.9895621E-01
       -1   -1    0    0    0  501  0.00000000000E+00  0.00000000000E+00  0.55716511576E+03  0.55716511578E+03  0.50400001928E-02 0. -1.
        1   -1    0    0  501    0  0.00000000000E+00  0.00000000000E+00 -0.16409422190E+03  0.16409422198E+03  0.50400001928E-02 0.  1.
    10030    2    1    2    0    0  0.00000000000E+00  0.00000000000E+00  0.39307089385E+03  0.72125933776E+03  0.60473986532E+03 0.  0.
        1    1    3    3  502    0  0.30010189174E+03  0.35248057040E+02  0.20981681473E+03  0.36786772992E+03  0.50400001928E-02 0. -1.
       -1    1    3    3    0  502 -0.30010189174E+03 -0.35248057040E+02  0.18325407913E+03  0.35339160784E+03  0.50400001928E-02 0.  1.
</event>
<event>
 5   0  0.1488510E-01  0.5938205E+03  0.7818609E-02  0.9918310E-01
        2   -1    0    0  501    0  0.00000000000E+00  0.00000000000E+00  0.33169394144E+03  0.33169394145E+03  0.25500000920E-02 0. -1.
       -2   -1    0    0    0  501  0.00000000000E+00  0.00000000000E+00 -0.26577422142E+03  0.26577422144E+03  0.25500000920E-02 0.  1.
    10030    2    1    2    0    0  0.00000000000E+00  0.00000000000E+00  0.65919720013E+02  0.59746816288E+03  0.59382050838E+03 0.  0.
        5    1    3    3  502    0  0.15257101561E+03  0.17634846486E+03 -0.15189928458E+03  0.27833824479E+03  0.46999998093E+01 0.  1.
       -5    1    3    3    0  502 -0.15257101561E+03 -0.17634846486E+03  0.21781900459E+03  0.31912991809E+03  0.46999998093E+01 0. -1.
</event>
<event>
 5   0  0.8860626E-02  0.6107034E+03  0.7818609E-02  0.9883445E-01
       -1   -1    0    0    0  501  0.00000000000E+00  0.00000000000E+00  0.43799588154E+03  0.43799588157E+03  0.50400001928E-02 0. -1.
        1   -1    0    0  501    0  0.00000000000E+00  0.00000000000E+00 -0.21287795731E+03  0.21287795737E+03  0.50400001928E-02 0.  1.
    10030    2    1    2    0    0  0.00000000000E+00  0.00000000000E+00  0.22511792423E+03  0.65087383894E+03  0.61070342590E+03 0.  0.
        3    1    3    3  502    0  0.25752455491E+03  0.16407491329E+03  0.11301718218E+03  0.32559540418E+03  0.10100000352E+00 0. -1.
       -3    1    3    3    0  502 -0.25752455491E+03 -0.16407491329E+03  0.11210074205E+03  0.32527843476E+03  0.10100000352E+00 0.  1.
</event>
<event>
 5   0  0.1513339E-01  0.6403279E+03  0.7818609E-02  0.9825099E-01
       -2   -1    0    0    0  501  0.00000000000E+00  0.00000000000E+00  0.39059394054E+03  0.39059394055E+03  0.25500000920E-02 0. -1.
        2   -1    0    0  501    0  0.00000000000E+00  0.00000000000E+00 -0.26243355603E+03  0.26243355604E+03  0.25500000920E-02 0.  1.
    10030    2    1    2    0    0  0.00000000000E+00  0.00000000000E+00  0.12816038451E+03  0.65302749658E+03  0.64032790595E+03 0.  0.
        3    1    3    3  502    0  0.21500839286E+03 -0.25075901965E+02 -0.17649564808E+03  0.27929936243E+03  0.10100000352E+00 0.  1.
       -3    1    3    3    0  502 -0.21500839286E+03  0.25075901965E+02  0.30465603259E+03  0.37372813415E+03  0.10100000352E+00 0. -1.
</event>
<event>
 5   0  0.1532571E-01  0.5951353E+03  0.7818609E-02  0.9915551E-01
       -2   -1    0    0    0  501  0.00000000000E+00  0.00000000000E+00  0.33626475156E+03  0.33626475157E+03  0.25500000920E-02 0. -1.
        2   -1    0    0  501    0  0.00000000000E+00  0.00000000000E+00 -0.26332374639E+03  0.26332374641E+03  0.25500000920E-02 0.  1.
    10030    2    1    2    0    0  0.00000000000E+00  0.00000000000E+00  0.72941005163E+02  0.59958849797E+03  0.59513525914E+03 0.  0.
        1    1    3    3  502    0 -0.12391155845E+03 -0.27044138683E+03  0.29075544046E+02  0.29889463915E+03  0.50400001928E-02 0.  1.
       -1    1    3    3    0  502  0.12391155845E+03  0.27044138683E+03  0.43865461117E+02  0.30069385882E+03  0.50400001928E-02 0. -1.
</event>
<event>
 5   0  0.6170500E-02  0.6257088E+03  0.7818609E-02  0.9853459E-01
       -4   -1    0    0    0  501  0.00000000000E+00  0.00000000000E+00  0.23538492437E+03  0.23538835044E+03  0.12699999809E+01 0. -1.
        4   -1    0    0  501    0  0.00000000000E+00  0.00000000000E+00 -0.41581302196E+03  0.41581496141E+03  0.12699999809E+01 0.  1.
    10030    2    1    2    0    0  0.00000000000E+00  0.00000000000E+00 -0.18042809759E+03  0.65120331185E+03  0.62570876209E+03 0.  0.
        5    1    3    3  502    0 -0.26604435104E+03 -0.15843223750E+03 -0.13647049181E+03  0.33841787148E+03  0.46999998093E+01 0.  1.
       -5    1    3    3    0  502  0.26604435104E+03  0.15843223750E+03 -0.43957605778E+02  0.31278544037E+03  0.46999998093E+01 0. -1.
</event>
<event>
 5   0  0.6170500E-02  0.6577477E+03  0.7818609E-02  0.9792349E-01
        4   -1    0    0  501    0  0.00000000000E+00  0.00000000000E+00  0.80126113375E+02  0.80136177501E+02  0.12699999809E+01 0. -1.
       -4   -1    0    0    0  501  0.00000000000E+00  0.00000000000E+00 -0.13497519181E+04  0.13497525156E+04  0.12699999809E+01 0.  1.
    10030    2    1    2    0    0  0.00000000000E+00  0.00000000000E+00 -0.12696258047E+04  0.14298886931E+04  0.65774766482E+03 0.  0.
        1    1    3    3  502    0  0.14478496540E+03 -0.96892720542E+02 -0.28422156000E+02  0.17651828369E+03  0.50400001928E-02 0. -1.
       -1    1    3    3    0  502 -0.14478496540E+03  0.96892720542E+02 -0.12412036487E+04  0.12533704094E+04  0.50400001928E-02 0.  1.
</event>
<event>
 5   0  0.1513339E-01  0.6026301E+03  0.7818609E-02  0.9899964E-01
        2   -1    0    0  501    0  0.00000000000E+00  0.00000000000E+00  0.29057596952E+03  0.29057596953E+03  0.25500000920E-02 0. -1.
       -2   -1    0    0    0  501  0.00000000000E+00  0.00000000000E+00 -0.31245101629E+03  0.31245101630E+03  0.25500000920E-02 0.  1.
    10030    2    1    2    0    0  0.00000000000E+00  0.00000000000E+00 -0.21875046767E+02  0.60302698583E+03  0.60263009215E+03 0.  0.
        3    1    3    3  502    0  0.28867764826E+03  0.75453523164E+02 -0.52950029436E+02  0.30303751349E+03  0.10100000352E+00 0. -1.
       -3    1    3    3    0  502 -0.28867764826E+03 -0.75453523164E+02  0.31074982669E+02  0.29998947234E+03  0.10100000352E+00 0.  1.
</event>
<event>
 5   0  0.1513339E-01  0.5984059E+03  0.7818609E-02  0.9908719E-01
       -2   -1    0    0    0  501  0.00000000000E+00  0.00000000000E+00  0.57680124205E+02  0.57680124261E+02  0.25500000920E-02 0.  1.
        2   -1    0    0  501    0  0.00000000000E+00  0.00000000000E+00 -0.15520494952E+04  0.15520494952E+04  0.25500000920E-02 0. -1.
    10030    2    1    2    0    0  0.00000000000E+00  0.00000000000E+00 -0.14943693710E+04  0.16097296194E+04  0.59840590806E+03 0.  0.
        3    1    3    3  502    0 -0.10285051533E+03 -0.14316098886E+03 -0.96836432859E+02  0.20112335062E+03  0.10100000352E+00 0.  1.
       -3    1    3    3    0  502  0.10285051533E+03  0.14316098886E+03 -0.13975329381E+04  0.14086062688E+04  0.10100000352E+00 0. -1.
</event>
<event>
 5   0  0.9420349E-02  0.5887889E+03  0.7818609E-02  0.9928942E-01
        1   -1    0    0  501    0  0.00000000000E+00  0.00000000000E+00  0.10931371028E+04  0.10931371029E+04  0.50400001928E-02 0.  1.
       -1   -1    0    0    0  501  0.00000000000E+00  0.00000000000E+00 -0.79283834072E+02  0.79283834232E+02  0.50400001928E-02 0. -1.
    10030    2    1    2    0    0  0.00000000000E+00  0.00000000000E+00  0.10138532688E+04  0.11724209371E+04  0.58878892918E+03 0.  0.
        2    1    3    3  502    0  0.18700382783E+03 -0.10142210305E+03  0.91213926587E+03  0.93661887390E+03  0.25500000920E-02 0.  1.
       -2    1    3    3    0  502 -0.18700382783E+03  0.10142210305E+03  0.10171400291E+03  0.23580206319E+03  0.25500000920E-02 0. -1.
</event>
<event>
 5   0  0.9411028E-02  0.5901856E+03  0.7818609E-02  0.9925980E-01
        1   -1    0    0  501    0  0.00000000000E+00  0.00000000000E+00  0.39317431631E+03  0.39317431634E+03  0.50400001928E-02 0.  1.
       -1   -1    0    0    0  501  0.00000000000E+00  0.00000000000E+00 -0.22147878999E+03  0.22147879005E+03  0.50400001928E-02 0. -1.
    10030    2    1    2    0    0  0.00000000000E+00  0.00000000000E+00  0.17169552632E+03  0.61465310639E+03  0.59018563812E+03 0.  0.
        4    1    3    3  502    0  0.56994872844E+02 -0.14883798593E+03 -0.17279662224E+03  0.23507753433E+03  0.12699999809E+01 0. -1.
       -4    1    3    3    0  502 -0.56994872844E+02  0.14883798593E+03  0.34449214856E+03  0.37957557206E+03  0.12699999809E+01 0.  1.
</event>
<event>
 5   0  0.9177281E-02  0.5540920E+03  0.7818609E-02  0.1000551E+00
        1   -1    0    0  501    0  0.00000000000E+00  0.00000000000E+00  0.25898478243E+03  0.25898478248E+03  0.50400001928E-02 0.  1.
       -1   -1    0    0    0  501  0.00000000000E+00  0.00000000000E+00 -0.29636681795E+03  0.29636681799E+03  0.50400001928E-02 0. -1.
    10030    2    1    2    0    0  0.00000000000E+00  0.00000000000E+00 -0.37382035515E+02  0.55535160047E+03  0.55409203529E+03 0.  0.
        1    1    3    3  502    0 -0.25334437183E+03  0.75065765101E+02  0.64782492738E+02  0.27205699995E+03  0.50400001928E-02 0.  1.
       -1    1    3    3    0  502  0.25334437183E+03 -0.75065765101E+02 -0.10216452825E+03  0.28329460053E+03  0.50400001928E-02 0. -1.
</event>
<event>
 5   0  0.9177281E-02  0.5781910E+03  0.7818609E-02  0.9951715E-01
        1   -1    0    0  501    0  0.00000000000E+00  0.00000000000E+00  0.44974874415E+03  0.44974874418E+03  0.50400001928E-02 0. -1.
       -1   -1    0    0    0  501  0.00000000000E+00  0.00000000000E+00 -0.18582864734E+03  0.18582864741E+03  0.50400001928E-02 0.  1.
    10030    2    1    2    0    0  0.00000000000E+00  0.00000000000E+00  0.26392009681E+03  0.63557739159E+03  0.57819097468E+03 0.  0.
        1    1    3    3  502    0  0.27146258735E+03  0.73690829157E+02  0.20532162189E+03  0.34825169500E+03  0.50400001928E-02 0.  1.
       -1    1    3    3    0  502 -0.27146258735E+03 -0.73690829157E+02  0.58598474921E+02  0.28732569659E+03  0.50400001928E-02 0. -1.
</event>
<event>
 5   0  0.9420349E-02  0.5989051E+03  0.7818609E-02  0.9907680E-01
        1   -1    0    0  501    0  0.00000000000E+00  0.00000000000E+00  0.79707476799E+03  0.79707476800E+03  0.50400001928E-02 0.  1.
       -1   -1    0    0    0  501  0.00000000000E+00  0.00000000000E+00 -0.11250116418E+03  0.11250116430E+03  0.50400001928E-02 0. -1.
    10030    2    1    2    0    0  0.00000000000E+00  0.00000000000E+00  0.68457360380E+03  0.90957593230E+03  0.59890513238E+03 0.  0.
        2    1    3    3  502    0  0.12352656749E+03  0.48600477191E+02  0.74994951687E+03  0.76160691772E+03  0.25500000920E-02 0.  1.
       -2    1    3    3    0  502 -0.12352656749E+03 -0.48600477191E+02 -0.65375913070E+02  0.14796901458E+03  0.25500000920E-02 0. -1.
</event>
<event>
 5   0  0.8860626E-02  0.5932166E+03  0.7818609E-02  0.9919580E-01
        1   -1    0    0  501    0  0.00000000000E+00  0.00000000000E+00  0.37166392776E+03  0.37166392780E+03  0.50400001928E-02 0. -1.
       -1   -1    0    0    0  501  0.00000000000E+00  0.00000000000E+00 -0.23670975750E+03  0.23670975755E+03  0.50400001928E-02 0.  1.
    10030    2    1    2    0    0  0.00000000000E+00  0.00000000000E+00  0.13495417026E+03  0.60837368535E+03  0.59321658182E+03 0.  0.
        3    1    3    3  502    0 -0.28115182190E+02 -0.22495743763E+03  0.26362329209E+03  0.34769751588E+03  0.10100000352E+00 0. -1.
       -3    1    3    3    0  502  0.28115182190E+02  0.22495743763E+03 -0.12866912183E+03  0.26067616947E+03  0.10100000352E+00 0.  1.
</event>
<event>
 5   0  0.6170500E-02  0.5954295E+03  0.7818609E-02  0.9914934E-01
        3   -1    0    0  501    0  0.00000000000E+00  0.00000000000E+00  0.20332520769E+03  0.20332523277E+03  0.10100000352E+00 0.  1.
       -3   -1    0    0    0  501  0.00000000000E+00  0.00000000000E+00 -0.43592262815E+03  0.43592263985E+03  0.10100000352E+00 0. -1.
    10030    2    1    2    0    0  0.00000000000E+00  0.00000000000E+00 -0.23259742046E+03  0.63924787263E+03  0.59542949427E+03 0.  0.
        4    1    3    3  502    0  0.20135544723E+03 -0.21877045094E+03 -0.10009027636E+03  0.31372631808E+03  0.12699999809E+01 0.  1.
       -4    1    3    3    0  502 -0.20135544723E+03  0.21877045094E+03 -0.13250714411E+03  0.32552155455E+03  0.12699999809E+01 0. -1.
</event>
<event>
 5   0  0.9420349E-02  0.5984727E+03  0.7818609E-02  0.9908580E-01
        1   -1    0    0  501    0  0.00000000000E+00  0.00000000000E+00  0.92062348215E+03  0.92062348216E+03  0.50400001928E-02 0.  1.
       -1   -1    0    0    0  501  0.00000000000E+00  0.00000000000E+00 -0.97262775999E+02  0.97262776129E+02  0.50400001928E-02 0. -1.
    10030    2    1    2    0    0  0.00000000000E+00  0.00000000000E+00  0.82336070615E+03  0.10178862583E+04  0.59847270814E+03 0.  0.
        2    1    3    3  502    0 -0.22670999770E+03 -0.18683513247E+03  0.31490452723E+03  0.43066187556E+03  0.25500000920E-02 0. -1.
       -2    1    3    3    0  502  0.22670999770E+03  0.18683513247E+03  0.50845617891E+03  0.58722438273E+03  0.25500000920E-02 0.  1.
</event>
<event>
 5   0  0.1532571E-01  0.6027065E+03  0.7818609E-02  0.9899807E-01
        2   -1    0    0  501    0  0.00000000000E+00  0.00000000000E+00  0.15479035464E+04  0.15479035464E+04  0.25500000920E-02 0. -1.
       -2   -1    0    0    0  501  0.00000000000E+00  0.00000000000E+00 -0.58668897370E+02  0.58668897425E+02  0.25500000920E-02 0.  1.
    10030    2    1    2    0    0  0.00000000000E+00  0.00000000000E+00  0.14892346491E+04  0.16065724438E+04  0.60270654335E+03 0.  0.
        1    1    3    3  502    0 -0.28321739465E+03 -0.16465630270E+02  0.10155471759E+04  0.10544284121E+04  0.50400001928E-02 0.  1.
       -1    1    3    3    0  502  0.28321739465E+03  0.16465630270E+02  0.47368747314E+03  0.55214403180E+03  0.50400001928E-02 0. -1.
</event>
<event>
 5   0  0.1532571E-01  0.6089083E+03  0.7818609E-02  0.9887095E-01
       -2   -1    0    0    0  501  0.00000000000E+00  0.00000000000E+00  0.15413470673E+03  0.15413470675E+03  0.25500000920E-02 0. -1.
        2   -1    0    0  501    0  0.00000000000E+00  0.00000000000E+00 -0.60137229815E+03  0.60137229816E+03  0.25500000920E-02 0.  1.
    10030    2    1    2    0    0  0.00000000000E+00  0.00000000000E+00 -0.44723759143E+03  0.75550700491E+03  0.60890834391E+03 0.  0.
        1    1    3    3  502    0 -0.18937807890E+03  0.23611087490E+03 -0.26439309823E+03  0.40189067224E+03  0.50400001928E-02 0.  1.
       -1    1    3    3    0  502  0.18937807890E+03 -0.23611087490E+03 -0.18284449320E+03  0.35361633267E+03  0.50400001928E-02 0. -1.
</event>
<event>
 5   0  0.1502642E-01  0.6702443E+03  0.7818609E-02  0.9769517E-01
        2   -1    0    0  501    0  0.00000000000E+00  0.00000000000E+00  0.13910567790E+04  0.13910567790E+04  0.25500000920E-02 0.  1.
       -2   -1    0    0    0  501  0.00000000000E+00  0.00000000000E+00 -0.80734923617E+02  0.80734923657E+02  0.25500000920E-02 0. -1.
    10030    2    1    2    0    0  0.00000000000E+00  0.00000000000E+00  0.13103218553E+04  0.14717917026E+04  0.67024432210E+03 0.  0.
        2    1    3    3  502    0 -0.21460817165E+03  0.15648420089E+02  0.91000415278E+02  0.23362922758E+03  0.25500000920E-02 0. -1.
       -2    1    3    3    0  502  0.21460817165E+03 -0.15648420089E+02  0.12193214401E+04  0.12381624750E+04  0.25500000920E-02 0.  1.
</event>
<event>
 5   0  0.9420349E-02  0.5956280E+03  0.7818609E-02  0.9914518E-01
       -1   -1    0    0    0  501  0.00000000000E+00  0.00000000000E+00  0.33879667477E+03  0.33879667481E+03  0.50400001928E-02 0. -1.
        1   -1    0    0  501    0  0.00000000000E+00  0.00000000000E+00 -0.26178880209E+03  0.26178880213E+03  0.50400001928E-02 0.  1.
    10030    2    1    2    0    0  0.00000000000E+00  0.00000000000E+00  0.77007872688E+02  0.60058547695E+03  0.59562799016E+03 0.  0.
        2    1    3    3  502    0 -0.12961057511E+03 -0.26775671275E+03  0.52785766725E+02  0.30212397386E+03  0.25500000920E-02 0. -1.
       -2    1    3    3    0  502  0.12961057511E+03  0.26775671275E+03  0.24222105963E+02  0.29846150309E+03  0.25500000920E-02 0.  1.
</event>
<event>
 5   0  0.9420349E-02  0.5994193E+03  0.7818609E-02  0.9906612E-01
       -1   -1    0    0    0  501  0.00000000000E+00  0.00000000000E+00  0.52575404839E+03  0.52575404841E+03  0.50400001928E-02 0.  1.
        1   -1    0    0  501    0  0.00000000000E+00  0.00000000000E+00 -0.17085150307E+03  0.17085150314E+03  0.50400001928E-02 0. -1.
    10030    2    1    2    0    0  0.00000000000E+00  0.00000000000E+00  0.35490254532E+03  0.69660555156E+03  0.59941928379E+03 0.  0.
        2    1    3    3  502    0 -0.29966908161E+03  0.15150183968E+01  0.17199843833E+03  0.34552469745E+03  0.25500000920E-02 0. -1.
       -2    1    3    3    0  502  0.29966908161E+03 -0.15150183968E+01  0.18290410699E+03  0.35108085410E+03  0.25500000920E-02 0.  1.
</event>
<event>
 5   0  0.9411028E-02  0.6138360E+03  0.7818609E-02  0.9877109E-01
       -1   -1    0    0    0  501  0.00000000000E+00  0.00000000000E+00  0.94322394524E+02  0.94322394658E+02  0.50400001928E-02 0.  1.
        1   -1    0    0  501    0  0.00000000000E+00  0.00000000000E+00 -0.99868813109E+03  0.99868813110E+03  0.50400001928E-02 0. -1.
    10030    2    1    2    0    0  0.00000000000E+00  0.00000000000E+00 -0.90436573656E+03  0.10930105258E+04  0.61383599108E+03 0.  0.
        4    1    3    3  502    0 -0.85492095178E+02  0.27582589825E+03 -0.26706469528E+03  0.39333699146E+03  0.12699999809E+01 0.  1.
       -4    1    3    3    0  502  0.85492095178E+02 -0.27582589825E+03 -0.63730104128E+03  0.69967353430E+03  0.12699999809E+01 0. -1.
</event>
<event>
 5   0  0.9420349E-02  0.5797539E+03  0.7818609E-02  0.9948324E-01
       -1   -1    0    0    0  501  0.00000000000E+00  0.00000000000E+00  0.17218816002E+03  0.17218816009E+03  0.50400001928E-02 0.  1.
        1   -1    0    0  501    0  0.00000000000E+00  0.00000000000E+00 -0.48800481126E+03  0.48800481128E+03  0.50400001928E-02 0. -1.
    10030    2    1    2    0    0  0.00000000000E+00  0.00000000000E+00 -0.31581665124E+03  0.66019297137E+03  0.57975391525E+03 0.  0.
        2    1    3    3  502    0  0.87863055267E+02  0.14325696144E+03 -0.42687006621E+03  0.45875977037E+03  0.25500000920E-02 0. -1.
       -2    1    3    3    0  502 -0.87863055267E+02 -0.14325696144E+03  0.11105341497E+03  0.20143320100E+03  0.25500000920E-02 0.  1.
</event>
<event>
 5   0  0.6170500E-02  0.3473284E+03  0.7818609E-02  0.1063717E+00
        4   -1    0    0  501    0  0.00000000000E+00  0.00000000000E+00  0.19267003485E+03  0.19267422046E+03  0.12699999809E+01 0.  1.
       -4   -1    0    0    0  501  0.00000000000E+00  0.00000000000E+00 -0.15652472160E+03  0.15652987373E+03  0.12699999809E+01 0. -1.
    10030    2    1    2    0    0  0.00000000000E+00  0.00000000000E+00  0.36145313254E+02  0.34920409419E+03  0.34732839753E+03 0.  0.
        4    1    3    3  502    0 -0.12104640954E+02 -0.53096792786E+02 -0.14771737201E+03  0.15744150225E+03  0.12699999809E+01 0. -1.
       -4    1    3    3    0  502  0.12104640954E+02  0.53096792786E+02  0.18386268526E+03  0.19176259194E+03  0.12699999809E+01 0.  1.
</event>
<event>
 5   0  0.1513339E-01  0.6521099E+03  0.7818609E-02  0.9802828E-01
        2   -1    0    0  501    0  0.00000000000E+00  0.00000000000E+00  0.25572957119E+03  0.25572957120E+03  0.25500000920E-02 0. -1.
       -2   -1    0    0    0  501  0.00000000000E+00  0.00000000000E+00 -0.41571970356E+03  0.41571970357E+03  0.25500000920E-02 0.  1.
    10030    2    1    2    0    0  0.00000000000E+00  0.00000000000E+00 -0.15999013238E+03  0.67144927477E+03  0.65210987275E+03 0.  0.
        3    1    3    3  502    0 -0.25376733903E+03  0.20037273787E+03 -0.12324940811E+03  0.34603110155E+03  0.10100000352E+00 0. -1.
       -3    1    3    3    0  502  0.25376733903E+03 -0.20037273787E+03 -0.36740724267E+02  0.32541817322E+03  0.10100000352E+00 0.  1.
</event>
<event>
 5   0  0.1532571E-01  0.4425137E+03  0.7818609E-02  0.1029978E+00
        2   -1    0    0  501    0  0.00000000000E+00  0.00000000000E+00  0.50245661238E+03  0.50245661238E+03  0.25500000920E-02 0. -1.
       -2   -1    0    0    0  501  0.00000000000E+00  0.00000000000E+00 -0.97430473005E+02  0.97430473038E+02  0.25500000920E-02 0.  1.
    10030    2    1    2    0    0  0.00000000000E+00  0.00000000000E+00  0.40502613937E+03  0.59988708542E+03  0.44251366271E+03 0.  0.
        1    1    3    3  502    0 -0.19806163058E+03 -0.96851958441E+02  0.17730138846E+03  0.28292135610E+03  0.50400001928E-02 0. -1.
       -1    1    3    3    0  502  0.19806163058E+03  0.96851958441E+02  0.22772475091E+03  0.31696572932E+03  0.50400001928E-02 0.  1.
</event>
<event>
 5   0  0.1513339E-01  0.6267810E+03  0.7818609E-02  0.9851351E-01
       -2   -1    0    0    0  501  0.00000000000E+00  0.00000000000E+00  0.88492208350E+02  0.88492208387E+02  0.25500000920E-02 0.  1.
        2   -1    0    0  501    0  0.00000000000E+00  0.00000000000E+00 -0.11098559763E+04  0.11098559763E+04  0.25500000920E-02 0. -1.
    10030    2    1    2    0    0  0.00000000000E+00  0.00000000000E+00 -0.10213637680E+04  0.11983481847E+04  0.62678100265E+03 0.  0.
        3    1    3    3  502    0 -0.58145952746E+02  0.29072689743E+03 -0.70481846881E+03  0.76463858449E+03  0.10100000352E+00 0. -1.
       -3    1    3    3    0  502  0.58145952746E+02 -0.29072689743E+03 -0.31654529918E+03  0.43370960024E+03  0.10100000352E+00 0.  1.
</event>
<event>
 5   0  0.9411028E-02  0.6062186E+03  0.7818609E-02  0.9892588E-01
        1   -1    0    0  501    0  0.00000000000E+00  0.00000000000E+00  0.80775896437E+03  0.80775896438E+03  0.50400001928E-02 0. -1.
       -1   -1    0    0    0  501  0.00000000000E+00  0.00000000000E+00 -0.11374093583E+03  0.11374093594E+03  0.50400001928E-02 0.  1.
    10030    2    1    2    0    0  0.00000000000E+00  0.00000000000E+00  0.69401802854E+03  0.92149990032E+03  0.60621864237E+03 0.  0.
        4    1    3    3  502    0  0.73705050892E+02 -0.28351558457E+03  0.46534227958E+03  0.54987141341E+03  0.12699999809E+01 0. -1.
       -4    1    3    3    0  502 -0.73705050892E+02  0.28351558457E+03  0.22867574896E+03  0.37162848691E+03  0.12699999809E+01 0.  1.
</event>
<event>
 5   0  0.1502642E-01  0.5865385E+03  0.7818609E-02  0.9933735E-01
        2   -1    0    0  501    0  0.00000000000E+00  0.00000000000E+00  0.38691851456E+03  0.38691851457E+03  0.25500000920E-02 0. -1.
       -2   -1    0    0    0  501  0.00000000000E+00  0.00000000000E+00 -0.22228671876E+03  0.22228671877E+03  0.25500000920E-02 0.  1.
    10030    2    1    2    0    0  0.00000000000E+00  0.00000000000E+00  0.16463179580E+03  0.60920523334E+03  0.58653847968E+03 0.  0.
        2    1    3    3  502    0  0.21848367957E+03 -0.80067634890E+02  0.26771010249E+03  0.35470359933E+03  0.25500000920E-02 0. -1.
       -2    1    3    3    0  502 -0.21848367957E+03  0.80067634890E+02 -0.10307830669E+03  0.25450163401E+03  0.25500000920E-02 0.  1.
</event>
<event>
 5   0  0.1502642E-01  0.5957284E+03  0.7818609E-02  0.9914308E-01
        2   -1    0    0  501    0  0.00000000000E+00  0.00000000000E+00  0.10635802682E+03  0.10635802685E+03  0.25500000920E-02 0.  1.
       -2   -1    0    0    0  501  0.00000000000E+00  0.00000000000E+00 -0.83419276501E+03  0.83419276501E+03  0.25500000920E-02 0. -1.
    10030    2    1    2    0    0  0.00000000000E+00  0.00000000000E+00 -0.72783473818E+03  0.94055079186E+03  0.59572844985E+03 0.  0.
        2    1    3    3  502    0  0.99255166854E+02  0.15639344549E+03 -0.73220204271E+03  0.75526838230E+03  0.25500000920E-02 0. -1.
       -2    1    3    3    0  502 -0.99255166854E+02 -0.15639344549E+03  0.43673045273E+01  0.18528240956E+03  0.25500000920E-02 0.  1.
</event>
<event>
 5   0  0.9411028E-02  0.6435958E+03  0.7818609E-02  0.9818871E-01
        1   -1    0    0  501    0  0.00000000000E+00  0.00000000000E+00  0.62839655302E+03  0.62839655304E+03  0.50400001928E-02 0. -1.
       -1   -1    0    0    0  501  0.00000000000E+00  0.00000000000E+00 -0.16479067817E+03  0.16479067825E+03  0.50400001928E-02 0.  1.
    10030    2    1    2    0    0  0.00000000000E+00  0.00000000000E+00  0.46360587485E+03  0.79318723128E+03  0.64359581779E+03 0.  0.
        4    1    3    3  502    0  0.16325142896E+03  0.36238183213E+02 -0.10703268417E+03  0.19854934742E+03  0.12699999809E+01 0.  1.
       -4    1    3    3    0  502 -0.16325142896E+03 -0.36238183213E+02  0.57063855902E+03  0.59463788386E+03  0.12699999809E+01 0. -1.
</event>
<event>
 5   0  0.9420349E-02  0.4897228E+03  0.7818609E-02  0.1016497E+00
       -1   -1    0    0    0  501  0.00000000000E+00  0.00000000000E+00  0.75109332203E+03  0.75109332204E+03  0.50400001928E-02 0.  1.
        1   -1    0    0  501    0  0.00000000000E+00  0.00000000000E+00 -0.79826436709E+02  0.79826436869E+02  0.50400001928E-02 0. -1.
    10030    2    1    2    0    0  0.00000000000E+00  0.00000000000E+00  0.67126688532E+03  0.83091975891E+03  0.48972279345E+03 0.  0.
        2    1    3    3  502    0 -0.52641514544E+02  0.93772518573E+02  0.70888243776E+03  0.71699283459E+03  0.25500000920E-02 0.  1.
       -2    1    3    3    0  502  0.52641514544E+02 -0.93772518573E+02 -0.37615552439E+02  0.11392692432E+03  0.25500000920E-02 0. -1.
</event>
<event>
 5   0  0.9497860E-02  0.5456471E+03  0.7818609E-02  0.1002506E+00
        1   -1    0    0  501    0  0.00000000000E+00  0.00000000000E+00  0.61522417008E+03  0.61522417010E+03  0.50400001928E-02 0. -1.
       -1   -1    0    0    0  501  0.00000000000E+00  0.00000000000E+00 -0.12098467646E+03  0.12098467656E+03  0.50400001928E-02 0.  1.
    10030    2    1    2    0    0  0.00000000000E+00  0.00000000000E+00  0.49423949362E+03  0.73620884666E+03  0.54564712850E+03 0.  0.
        5    1    3    3  502    0  0.94131085685E+02 -0.71474421834E+02  0.57882797641E+03  0.59079029321E+03  0.46999998093E+01 0. -1.
       -5    1    3    3    0  502 -0.94131085685E+02  0.71474421834E+02 -0.84588482793E+02  0.14541855345E+03  0.46999998093E+01 0.  1.
</event>
<event>
 5   0  0.1483942E-01  0.6112988E+03  0.7818609E-02  0.9882238E-01
       -2   -1    0    0    0  501  0.00000000000E+00  0.00000000000E+00  0.31679997517E+03  0.31679997518E+03  0.25500000920E-02 0. -1.
        2   -1    0    0  501    0  0.00000000000E+00  0.00000000000E+00 -0.29489125405E+03  0.29489125406E+03  0.25500000920E-02 0.  1.
    10030    2    1    2    0    0  0.00000000000E+00  0.00000000000E+00  0.21908721118E+02  0.61169122924E+03  0.61129875500E+03 0.  0.
        4    1    3    3  502    0  0.14534308183E+03 -0.16020310608E+03  0.22703346194E+03  0.31358484079E+03  0.12699999809E+01 0. -1.
       -4    1    3    3    0  502 -0.14534308183E+03  0.16020310608E+03 -0.20512474083E+03  0.29810638844E+03  0.12699999809E+01 0.  1.
</event>
<event>
 5   0  0.8860626E-02  0.5898659E+03  0.7818609E-02  0.9926657E-01
       -1   -1    0    0    0  501  0.00000000000E+00  0.00000000000E+00  0.22374445129E+03  0.22374445135E+03  0.50400001928E-02 0.  1.
        1   -1    0    0  501    0  0.00000000000E+00  0.00000000000E+00 -0.38877135316E+03  0.38877135319E+03  0.50400001928E-02 0. -1.
    10030    2    1    2    0    0  0.00000000000E+00  0.00000000000E+00 -0.16502690187E+03  0.61251580454E+03  0.58986585973E+03 0.  0.
        3    1    3    3  502    0  0.18912075160E+03 -0.18809997481E+03 -0.21319152987E+03  0.34146580768E+03  0.10100000352E+00 0. -1.
       -3    1    3    3    0  502 -0.18912075160E+03  0.18809997481E+03  0.48164628005E+02  0.27104999686E+03  0.10100000352E+00 0.  1.
</event>
<event>
 5   0  0.1532571E-01  0.5864447E+03  0.7818609E-02  0.9933935E-01
        2   -1    0    0  501    0  0.00000000000E+00  0.00000000000E+00  0.49345943197E+03  0.49345943198E+03  0.25500000920E-02 0. -1.
       -2   -1    0    0    0  501  0.00000000000E+00  0.00000000000E+00 -0.17423794902E+03  0.17423794904E+03  0.25500000920E-02 0.  1.
    10030    2    1    2    0    0  0.00000000000E+00  0.00000000000E+00  0.31922148295E+03  0.66769738102E+03  0.58644474373E+03 0.  0.
        1    1    3    3  502    0  0.60223737546E+02  0.88265133609E+02  0.47050346243E+03  0.48248434229E+03  0.50400001928E-02 0. -1.
       -1    1    3    3    0  502 -0.60223737546E+02 -0.88265133609E+02 -0.15128197948E+03  0.18521303873E+03  0.50400001928E-02 0.  1.
</event>
<event>
 5   0  0.9497860E-02  0.6224505E+03  0.7818609E-02  0.9859893E-01
       -1   -1    0    0    0  501  0.00000000000E+00  0.00000000000E+00  0.31086489665E+03  0.31086489669E+03  0.50400001928E-02 0.  1.
        1   -1    0    0  501    0  0.00000000000E+00  0.00000000000E+00 -0.31158602417E+03  0.31158602421E+03  0.50400001928E-02 0. -1.
    10030    2    1    2    0    0  0.00000000000E+00  0.00000000000E+00 -0.72112751925E+00  0.62245092090E+03  0.62245050317E+03 0.  0.
        5    1    3    3  502    0 -0.66062079823E+02  0.24268723769E+03 -0.18360307675E+03  0.31143775224E+03  0.46999998093E+01 0. -1.
       -5    1    3    3    0  502  0.66062079823E+02 -0.24268723769E+03  0.18288194923E+03  0.31101316866E+03  0.46999998093E+01 0.  1.
</event>
<event>
 5   0  0.9177281E-02  0.6118693E+03  0.7818609E-02  0.9881083E-01
        1   -1    0    0  501    0  0.00000000000E+00  0.00000000000E+00  0.11890555331E+03  0.11890555341E+03  0.50400001928E-02 0. -1.
       -1   -1    0    0    0  501  0.00000000000E+00  0.00000000000E+00 -0.78714573440E+03  0.78714573442E+03  0.50400001928E-02 0.  1.
    10030    2    1    2    0    0  0.00000000000E+00  0.00000000000E+00 -0.66824018110E+03  0.90605128783E+03  0.61186926426E+03 0.  0.
        1    1    3    3  502    0  0.22176811525E+03 -0.20855301917E+03 -0.28919224816E+03  0.41989000365E+03  0.50400001928E-02 0. -1.
       -1    1    3    3    0  502 -0.22176811525E+03  0.20855301917E+03 -0.37904793294E+03  0.48616128418E+03  0.50400001928E-02 0.  1.
</event>
<event>
 5   0  0.9177281E-02  0.5917199E+03  0.7818609E-02  0.9922735E-01
        1   -1    0    0  501    0  0.00000000000E+00  0.00000000000E+00  0.32351200858E+03  0.32351200862E+03  0.50400001928E-02 0. -1.
       -1   -1    0    0    0  501  0.00000000000E+00  0.00000000000E+00 -0.27057141065E+03  0.27057141070E+03  0.50400001928E-02 0.  1.
    10030    2    1    2    0    0  0.00000000000E+00  0.00000000000E+00  0.52940597933E+02  0.59408341932E+03  0.59171986801E+03 0.  0.
        1    1    3    3  502    0 -0.13479890320E+03 -0.60804007414E+01 -0.23787855060E+03  0.27348477186E+03  0.50400001928E-02 0.  1.
       -1    1    3    3    0  502  0.13479890320E+03  0.60804007414E+01  0.29081914853E+03  0.32059864746E+03  0.50400001928E-02 0. -1.
</event>
<event>
 5   0  0.9497860E-02  0.5971028E+03  0.7818609E-02  0.9911435E-01
        1   -1    0    0  501    0  0.00000000000E+00  0.00000000000E+00  0.69675494019E+03  0.69675494020E+03  0.50400001928E-02 0.  1.
       -1   -1    0    0    0  501  0.00000000000E+00  0.00000000000E+00 -0.12792579721E+03  0.12792579731E+03  0.50400001928E-02 0. -1.
    10030    2    1    2    0    0  0.00000000000E+00  0.00000000000E+00  0.56882914298E+03  0.82468073751E+03  0.59710277584E+03 0.  0.
        5    1    3    3  502    0 -0.12809781626E+03  0.99560863707E+02 -0.61668226997E+02  0.17362740663E+03  0.46999998093E+01 0. -1.
       -5    1    3    3    0  502  0.12809781626E+03 -0.99560863707E+02  0.63049736998E+03  0.65105333089E+03  0.46999998093E+01 0.  1.
</event>
<event>
 5   0  0.1483942E-01  0.5936029E+03  0.7818609E-02  0.9918768E-01
        2   -1    0    0  501    0  0.00000000000E+00  0.00000000000E+00  0.20935898966E+04  0.20935898966E+04  0.25500000920E-02 0. -1.
       -2   -1    0    0    0  501  0.00000000000E+00  0.00000000000E+00 -0.42076573669E+02  0.42076573746E+02  0.25500000920E-02 0.  1.
    10030    2    1    2    0    0  0.00000000000E+00  0.00000000000E+00  0.20515133230E+04  0.21356664704E+04  0.59360286254E+03 0.  0.
        4    1    3    3  502    0  0.18454874530E+03 -0.15743915714E+03  0.16410141914E+04  0.16588473459E+04  0.12699999809E+01 0. -1.
       -4    1    3    3    0  502 -0.18454874530E+03  0.15743915714E+03  0.41049913156E+03  0.47681912452E+03  0.12699999809E+01 0.  1.
</event>
<event>
 5   0  0.1513339E-01  0.5948786E+03  0.7818609E-02  0.9916089E-01
        2   -1    0    0  501    0  0.00000000000E+00  0.00000000000E+00  0.15468881418E+04  0.15468881418E+04  0.25500000920E-02 0. -1.
       -2   -1    0    0    0  501  0.00000000000E+00  0.00000000000E+00 -0.57192322428E+02  0.57192322485E+02  0.25500000920E-02 0.  1.
    10030    2    1    2    0    0  0.00000000000E+00  0.00000000000E+00  0.14896958193E+04  0.16040804642E+04  0.59487856042E+03 0.  0.
        3    1    3    3  502    0  0.10015518180E+03 -0.18980161490E+03  0.18951360061E+03  0.28630600496E+03  0.10100000352E+00 0.  1.
       -3    1    3    3    0  502 -0.10015518180E+03  0.18980161490E+03  0.13001822187E+04  0.13177744593E+04  0.10100000352E+00 0. -1.
</event>
<event>
 5   0  0.1502642E-01  0.7973466E+03  0.7818609E-02  0.9563866E-01
       -2   -1    0    0    0  501  0.00000000000E+00  0.00000000000E+00  0.17746518143E+03  0.17746518145E+03  0.25500000920E-02 0. -1.
        2   -1    0    0  501    0  0.00000000000E+00  0.00000000000E+00 -0.89561447449E+03  0.89561447450E+03  0.25500000920E-02 0.  1.
    10030    2    1    2    0    0  0.00000000000E+00  0.00000000000E+00 -0.71814929306E+03  0.10730796560E+04  0.79734656260E+03 0.  0.
        2    1    3    3  502    0 -0.80373356775E+02  0.22404993696E+03 -0.78948699861E+03  0.82458957774E+03  0.25500000920E-02 0.  1.
       -2    1    3    3    0  502  0.80373356775E+02 -0.22404993696E+03  0.71337705552E+02  0.24849007821E+03  0.25500000920E-02 0. -1.
</event>
<event>
 5   0  0.1532571E-01  0.6329854E+03  0.7818609E-02  0.9839240E-01
        2   -1    0    0  501    0  0.00000000000E+00  0.00000000000E+00  0.22616124780E+03  0.22616124781E+03  0.25500000920E-02 0.  1.
       -2   -1    0    0    0  501  0.00000000000E+00  0.00000000000E+00 -0.44290362138E+03  0.44290362139E+03  0.25500000920E-02 0. -1.
    10030    2    1    2    0    0  0.00000000000E+00  0.00000000000E+00 -0.21674237358E+03  0.66906486920E+03  0.63298542060E+03 0.  0.
        1    1    3    3  502    0  0.23965676677E+03 -0.44675151813E+02  0.10496564741E+03  0.26542234686E+03  0.50400001928E-02 0.  1.
       -1    1    3    3    0  502 -0.23965676677E+03  0.44675151813E+02 -0.32170802099E+03  0.40364252234E+03  0.50400001928E-02 0. -1.
</event>
<event>
 5   0  0.1488510E-01  0.5774100E+03  0.7818609E-02  0.9953414E-01
        2   -1    0    0  501    0  0.00000000000E+00  0.00000000000E+00  0.56344232046E+03  0.56344232047E+03  0.25500000920E-02 0. -1.
       -2   -1    0    0    0  501  0.00000000000E+00  0.00000000000E+00 -0.14793099297E+03  0.14793099300E+03  0.25500000920E-02 0.  1.
    10030    2    1    2    0    0  0.00000000000E+00  0.00000000000E+00  0.41551132748E+03  0.71137331346E+03  0.57741001709E+03 0.  0.
        5    1    3    3  502    0 -0.12604911896E+03  0.18940400638E+03 -0.11133690733E+02  0.22783394631E+03  0.46999998093E+01 0.  1.
       -5    1    3    3    0  502  0.12604911896E+03 -0.18940400638E+03  0.42664501822E+03  0.48353936716E+03  0.46999998093E+01 0. -1.
</event>
<event>
 5   0  0.1513339E-01  0.5954134E+03  0.7818609E-02  0.9914968E-01
        2   -1    0    0  501    0  0.00000000000E+00  0.00000000000E+00  0.14543971751E+03  0.14543971754E+03  0.25500000920E-02 0.  1.
       -2   -1    0    0    0  501  0.00000000000E+00  0.00000000000E+00 -0.60938832837E+03  0.60938832838E+03  0.25500000920E-02 0. -1.
    10030    2    1    2    0    0  0.00000000000E+00  0.00000000000E+00 -0.46394861086E+03  0.75482804591E+03  0.59541335674E+03 0.  0.
        3    1    3    3  502    0 -0.20024435138E+03 -0.42129274346E+02 -0.50610068137E+03  0.54590345840E+03  0.10100000352E+00 0. -1.
       -3    1    3    3    0  502  0.20024435138E+03  0.42129274346E+02  0.42152070506E+02  0.20892458751E+03  0.10100000352E+00 0.  1.
</event>
<event>
 5   0  0.9177281E-02  0.6084814E+03  0.7818609E-02  0.9887965E-01
        1   -1    0    0  501    0  0.00000000000E+00  0.00000000000E+00  0.14781667557E+04  0.14781667557E+04  0.50400001928E-02 0. -1.
       -1   -1    0    0    0  501  0.00000000000E+00  0.00000000000E+00 -0.62619720144E+02  0.62619720347E+02  0.50400001928E-02 0.  1.
    10030    2    1    2    0    0  0.00000000000E+00  0.00000000000E+00  0.14155470356E+04  0.15407864761E+04  0.60848135134E+03 0.  0.
        1    1    3    3  502    0  0.26853553849E+03 -0.12403971278E+03  0.52755740827E+03  0.60482559868E+03  0.50400001928E-02 0.  1.
       -1    1    3    3    0  502 -0.26853553849E+03  0.12403971278E+03  0.88798962730E+03  0.93596087739E+03  0.50400001928E-02 0. -1.
</event>
<event>
 5   0  0.8860626E-02  0.5966097E+03  0.7818609E-02  0.9912465E-01
        1   -1    0    0  501    0  0.00000000000E+00  0.00000000000E+00  0.49059388096E+03  0.49059388098E+03  0.50400001928E-02 0. -1.
       -1   -1    0    0    0  501  0.00000000000E+00  0.00000000000E+00 -0.18138378047E+03  0.18138378054E+03  0.50400001928E-02 0.  1.
    10030    2    1    2    0    0  0.00000000000E+00  0.00000000000E+00  0.30921010049E+03  0.67197766152E+03  0.59660966413E+03 0.  0.
        3    1    3    3  502    0  0.77292190051E+02 -0.18093771550E+03 -0.97936543469E+02  0.21978197443E+03  0.10100000352E+00 0.  1.
       -3    1    3    3    0  502 -0.77292190051E+02  0.18093771550E+03  0.40714664396E+03  0.45219568709E+03  0.10100000352E+00 0. -1.
</event>
<event>
 5   0  0.8860626E-02  0.6242811E+03  0.7818609E-02  0.9856273E-01
        1   -1    0    0  501    0  0.00000000000E+00  0.00000000000E+00  0.33689870047E+03  0.33689870050E+03  0.50400001928E-02 0. -1.
       -1   -1    0    0    0  501  0.00000000000E+00  0.00000000000E+00 -0.28920179122E+03  0.28920179126E+03  0.50400001928E-02 0.  1.
    10030    2    1    2    0    0  0.00000000000E+00  0.00000000000E+00  0.47696909248E+02  0.62610049177E+03  0.62428105100E+03 0.  0.
        3    1    3    3  502    0  0.56176500181E+02  0.25753810012E+03  0.19151831185E+03  0.32582348927E+03  0.10100000352E+00 0. -1.
       -3    1    3    3    0  502 -0.56176500181E+02 -0.25753810012E+03 -0.14382140260E+03  0.30027700250E+03  0.10100000352E+00 0.  1.
</event>
<event>
 5   0  0.8860626E-02  0.6182819E+03  0.7818609E-02  0.9868186E-01
        1   -1    0    0  501    0  0.00000000000E+00  0.00000000000E+00  0.12261312210E+04  0.12261312210E+04  0.50400001928E-02 0.  1.
       -1   -1    0    0    0  501  0.00000000000E+00  0.00000000000E+00 -0.77942818724E+02  0.77942818887E+02  0.50400001928E-02 0. -1.
    10030    2    1    2    0    0  0.00000000000E+00  0.00000000000E+00  0.11481884022E+04  0.13040740399E+04  0.61828188911E+03 0.  0.
        3    1    3    3  502    0  0.29988631449E+03  0.74522927070E+02  0.59326871410E+03  0.66891946122E+03  0.10100000352E+00 0.  1.
       -3    1    3    3    0  502 -0.29988631449E+03 -0.74522927070E+02  0.55491968815E+03  0.63515457864E+03  0.10100000352E+00 0. -1.
</event>
<event>
 5   0  0.1502642E-01  0.3233865E+03  0.7818609E-02  0.1074101E+00
       -2   -1    0    0    0  501  0.00000000000E+00  0.00000000000E+00  0.43279120266E+02  0.43279120341E+02  0.25500000920E-02 0. -1.
        2   -1    0    0  501    0  0.00000000000E+00  0.00000000000E+00 -0.60409509986E+03  0.60409509987E+03  0.25500000920E-02 0.  1.
    10030    2    1    2    0    0  0.00000000000E+00  0.00000000000E+00 -0.56081597960E+03  0.64737422021E+03  0.32338648398E+03 0.  0.
        2    1    3    3  502    0  0.34977687070E+01 -0.11734577052E+03 -0.50298773415E+03  0.51650646168E+03  0.25500000920E-02 0.  1.
       -2    1    3    3    0  502 -0.34977687070E+01  0.11734577052E+03 -0.57828245441E+02  0.13086775852E+03  0.25500000920E-02 0. -1.
</event>
<event>
 5   0  0.1513339E-01  0.5647898E+03  0.7818609E-02  0.9981275E-01
       -2   -1    0    0    0  501  0.00000000000E+00  0.00000000000E+00  0.17754326083E+03  0.17754326085E+03  0.25500000920E-02 0.  1.
        2   -1    0    0  501    0  0.00000000000E+00  0.00000000000E+00 -0.44916877602E+03  0.44916877603E+03  0.25500000920E-02 0. -1.
    10030    2    1    2    0    0  0.00000000000E+00  0.00000000000E+00 -0.27162551519E+03  0.62671203688E+03  0.56478983406E+03 0.  0.
        3    1    3    3  502    0 -0.12127049534E+01 -0.26243950951E+03 -0.25150764245E+03  0.36349975408E+03  0.10100000352E+00 0. -1.
       -3    1    3    3    0  502  0.12127049534E+01  0.26243950951E+03 -0.20117872739E+02  0.26321228279E+03  0.10100000352E+00 0.  1.
</event>
<event>
 5   0  0.8860626E-02  0.6242070E+03  0.7818609E-02  0.9856419E-01
        1   -1    0    0  501    0  0.00000000000E+00  0.00000000000E+00  0.67607860557E+02  0.67607860745E+02  0.50400001928E-02 0.  1.
       -1   -1    0    0    0  501  0.00000000000E+00  0.00000000000E+00 -0.14407882024E+04  0.14407882024E+04  0.50400001928E-02 0. -1.
    10030    2    1    2    0    0  0.00000000000E+00  0.00000000000E+00 -0.13731803418E+04  0.15083960631E+04  0.62420704266E+03 0.  0.
        3    1    3    3  502    0  0.23757482440E+03  0.16580247300E+03 -0.96711590987E+03  0.10095768671E+04  0.10100000352E+00 0. -1.
       -3    1    3    3    0  502 -0.23757482440E+03 -0.16580247300E+03 -0.40606443195E+03  0.49881919604E+03  0.10100000352E+00 0.  1.
</event>
<event>
 5   0  0.9420349E-02  0.6024510E+03  0.7818609E-02  0.9900334E-01
        1   -1    0    0  501    0  0.00000000000E+00  0.00000000000E+00  0.28907097392E+03  0.28907097396E+03  0.50400001928E-02 0. -1.
       -1   -1    0    0    0  501  0.00000000000E+00  0.00000000000E+00 -0.31389105676E+03  0.31389105680E+03  0.50400001928E-02 0.  1.
    10030    2    1    2    0    0  0.00000000000E+00  0.00000000000E+00 -0.24820082843E+02  0.60296203076E+03  0.60245097230E+03 0.  0.
        2    1    3    3  502    0 -0.18325080505E+03 -0.24705389530E+02  0.22558482295E+03  0.29168429196E+03  0.25500000920E-02 0. -1.
       -2    1    3    3    0  502  0.18325080505E+03  0.24705389530E+02 -0.25040490579E+03  0.31127773880E+03  0.25500000920E-02 0.  1.
</event>
<event>
 5   0  0.1502642E-01  0.5959751E+03  0.7818609E-02  0.9913792E-01
        2   -1    0    0  501    0  0.00000000000E+00  0.00000000000E+00  0.14732609362E+04  0.14732609362E+04  0.25500000920E-02 0. -1.
       -2   -1    0    0    0  501  0.00000000000E+00  0.00000000000E+00 -0.60272141365E+02  0.60272141419E+02  0.25500000920E-02 0.  1.
    10030    2    1    2    0    0  0.00000000000E+00  0.00000000000E+00  0.14129887949E+04  0.15335330776E+04  0.59597513860E+03 0.  0.
        2    1    3    3  502    0  0.17015782063E+03  0.48339274861E+02  0.89441461406E+02  0.19821741709E+03  0.25500000920E-02 0.  1.
       -2    1    3    3    0  502 -0.17015782063E+03 -0.48339274861E+02  0.13235473335E+04  0.13353156606E+04  0.25500000920E-02 0. -1.
</event>
<event>
 5   0  0.9420349E-02  0.6050764E+03  0.7818609E-02  0.9894930E-01
        1   -1    0    0  501    0  0.00000000000E+00  0.00000000000E+00  0.10988934174E+04  0.10988934174E+04  0.50400001928E-02 0.  1.
       -1   -1    0    0    0  501  0.00000000000E+00  0.00000000000E+00 -0.83292310417E+02  0.83292310569E+02  0.50400001928E-02 0. -1.
    10030    2    1    2    0    0  0.00000000000E+00  0.00000000000E+00  0.10156011070E+04  0.11821857280E+04  0.60507643066E+03 0.  0.
        2    1    3    3  502    0 -0.25475782830E+02 -0.27463593270E+03  0.26490674024E+03  0.38242579943E+03  0.25500000920E-02 0. -1.
       -2    1    3    3    0  502  0.25475782830E+02  0.27463593270E+03  0.75069436674E+03  0.79975992854E+03  0.25500000920E-02 0.  1.
</event>
<event>
 5   0  0.9497860E-02  0.5600062E+03  0.7818609E-02  0.9992041E-01
        1   -1    0    0  501    0  0.00000000000E+00  0.00000000000E+00  0.20695136004E+03  0.20695136010E+03  0.50400001928E-02 0. -1.
       -1   -1    0    0    0  501  0.00000000000E+00  0.00000000000E+00 -0.37884141315E+03  0.37884141318E+03  0.50400001928E-02 0.  1.
    10030    2    1    2    0    0  0.00000000000E+00  0.00000000000E+00 -0.17189005311E+03  0.58579277328E+03  0.56000623467E+03 0.  0.
        5    1    3    3  502    0 -0.17274861575E+03 -0.39774294132E+02  0.14072533551E+03  0.22638416192E+03  0.46999998093E+01 0. -1.
       -5    1    3    3    0  502  0.17274861575E+03  0.39774294132E+02 -0.31261538862E+03  0.35940861136E+03  0.46999998093E+01 0.  1.
</event>
<event>
 5   0  0.1532571E-01  0.6069063E+03  0.7818609E-02  0.9891180E-01
       -2   -1    0    0    0  501  0.00000000000E+00  0.00000000000E+00  0.14154409370E+03  0.14154409373E+03  0.25500000920E-02 0. -1.
        2   -1    0    0  501    0  0.00000000000E+00  0.00000000000E+00 -0.65056618183E+03  0.65056618183E+03  0.25500000920E-02 0.  1.
    10030    2    1    2    0    0  0.00000000000E+00  0.00000000000E+00 -0.50902208812E+03  0.79211027556E+03  0.60690625507E+03 0.  0.
        1    1    3    3  502    0  0.10536293176E+03  0.28936606109E+02  0.11497887313E+03  0.15861530775E+03  0.50400001928E-02 0. -1.
       -1    1    3    3    0  502 -0.10536293176E+03 -0.28936606109E+02 -0.62400096125E+03  0.63349496780E+03  0.50400001928E-02 0.  1.
</event>
<event>
 5   0  0.9420349E-02  0.5740447E+03  0.7818609E-02  0.9960768E-01
        1   -1    0    0  501    0  0.00000000000E+00  0.00000000000E+00  0.31164666612E+03  0.31164666616E+03  0.50400001928E-02 0. -1.
       -1   -1    0    0    0  501  0.00000000000E+00  0.00000000000E+00 -0.26434364794E+03  0.26434364799E+03  0.50400001928E-02 0.  1.
    10030    2    1    2    0    0  0.00000000000E+00  0.00000000000E+00  0.47303018179E+02  0.57599031415E+03  0.57404465546E+03 0.  0.
        2    1    3    3  502    0  0.16419619328E+03 -0.45708858908E+01 -0.21251944108E+03  0.26859969421E+03  0.25500000920E-02 0.  1.
       -2    1    3    3    0  502 -0.16419619328E+03  0.45708858908E+01  0.25982245926E+03  0.30739061994E+03  0.25500000920E-02 0. -1.
</event>
<event>
 5   0  0.9177281E-02  0.6223911E+03  0.7818609E-02  0.9860011E-01
       -1   -1    0    0    0  501  0.00000000000E+00  0.00000000000E+00  0.17301709322E+03  0.17301709329E+03  0.50400001928E-02 0. -1.
        1   -1    0    0  501    0  0.00000000000E+00  0.00000000000E+00 -0.55972888268E+03  0.55972888270E+03  0.50400001928E-02 0.  1.
    10030    2    1    2    0    0  0.00000000000E+00  0.00000000000E+00 -0.38671178946E+03  0.73274597599E+03  0.62239108061E+03 0.  0.
        1    1    3    3  502    0 -0.56103972316E+02  0.18158242642E+03  0.96756368629E+02  0.21326422154E+03  0.50400001928E-02 0. -1.
       -1    1    3    3    0  502  0.56103972316E+02 -0.18158242642E+03 -0.48346815809E+03  0.51948175445E+03  0.50400001928E-02 0.  1.
</event>
<event>
 5   0  0.9420349E-02  0.6151703E+03  0.7818609E-02  0.9874423E-01
       -1   -1    0    0    0  501  0.00000000000E+00  0.00000000000E+00  0.13378607771E+03  0.13378607780E+03  0.50400001928E-02 0.  1.
        1   -1    0    0  501    0  0.00000000000E+00  0.00000000000E+00 -0.70716344164E+03  0.70716344166E+03  0.50400001928E-02 0. -1.
    10030    2    1    2    0    0  0.00000000000E+00  0.00000000000E+00 -0.57337736393E+03  0.84094951946E+03  0.61517029578E+03 0.  0.
        2    1    3    3  502    0 -0.26573417717E+03 -0.73042536218E+02 -0.99957890494E+02  0.29315771334E+03  0.25500000920E-02 0. -1.
       -2    1    3    3    0  502  0.26573417717E+03  0.73042536218E+02 -0.47341947344E+03  0.54779180612E+03  0.25500000920E-02 0.  1.
</event>
<event>
 5   0  0.1532571E-01  0.5816779E+03  0.7818609E-02  0.9944165E-01
       -2   -1    0    0    0  501  0.00000000000E+00  0.00000000000E+00  0.11230809492E+03  0.11230809495E+03  0.25500000920E-02 0.  1.
        2   -1    0    0  501    0  0.00000000000E+00  0.00000000000E+00 -0.75317195006E+03  0.75317195007E+03  0.25500000920E-02 0. -1.
    10030    2    1    2    0    0  0.00000000000E+00  0.00000000000E+00 -0.64086385515E+03  0.86548004501E+03  0.58167794137E+03 0.  0.
        1    1    3    3  502    0 -0.38954257563E+02 -0.27154516685E+03 -0.17668872782E+03  0.32630218876E+03  0.50400001928E-02 0.  1.
       -1    1    3    3    0  502  0.38954257563E+02  0.27154516685E+03 -0.46417512732E+03  0.53917785625E+03  0.50400001928E-02 0. -1.
</event>
<event>
 5   0  0.1488510E-01  0.6034110E+03  0.7818609E-02  0.9898355E-01
        2   -1    0    0  501    0  0.00000000000E+00  0.00000000000E+00  0.72198876345E+03  0.72198876345E+03  0.25500000920E-02 0.  1.
       -2   -1    0    0    0  501  0.00000000000E+00  0.00000000000E+00 -0.12607703907E+03  0.12607703909E+03  0.25500000920E-02 0. -1.
    10030    2    1    2    0    0  0.00000000000E+00  0.00000000000E+00  0.59591172438E+03  0.84806580254E+03  0.60341098945E+03 0.  0.
        5    1    3    3  502    0  0.17525728715E+02  0.25672626004E+03  0.76675810848E+02  0.26854570137E+03  0.46999998093E+01 0. -1.
       -5    1    3    3    0  502 -0.17525728715E+02 -0.25672626004E+03  0.51923591353E+03  0.57952010117E+03  0.46999998093E+01 0.  1.
</event>
<event>
 5   0  0.8860626E-02  0.5723320E+03  0.7818609E-02  0.9964531E-01
        1   -1    0    0  501    0  0.00000000000E+00  0.00000000000E+00  0.10867331127E+04  0.10867331127E+04  0.50400001928E-02 0. -1.
       -1   -1    0    0    0  501  0.00000000000E+00  0.00000000000E+00 -0.75355202450E+02  0.75355202619E+02  0.50400001928E-02 0.  1.
    10030    2    1    2    0    0  0.00000000000E+00  0.00000000000E+00  0.10113779103E+04  0.11620883153E+04  0.57233204985E+03 0.  0.
        3    1    3    3  502    0 -0.13549104448E+03  0.25205671443E+03  0.50415171175E+03  0.57970627829E+03  0.10100000352E+00 0.  1.
       -3    1    3    3    0  502  0.13549104448E+03 -0.25205671443E+03  0.50722619851E+03  0.58238203705E+03  0.10100000352E+00 0. -1.
</event>
<event>
 5   0  0.1483942E-01  0.5940577E+03  0.7818609E-02  0.9917812E-01
        2   -1    0    0  501    0  0.00000000000E+00  0.00000000000E+00  0.28651491233E+03  0.28651491234E+03  0.25500000920E-02 0. -1.
       -2   -1    0    0    0  501  0.00000000000E+00  0.00000000000E+00 -0.30792860600E+03  0.30792860601E+03  0.25500000920E-02 0.  1.
    10030    2    1    2    0    0  0.00000000000E+00  0.00000000000E+00 -0.21413693671E+02  0.59444351835E+03  0.59405769941E+03 0.  0.
        4    1    3    3  502    0 -0.12350602139E+02  0.19792715046E+03  0.21056304370E+03  0.28925093351E+03  0.12699999809E+01 0. -1.
       -4    1    3    3    0  502  0.12350602139E+02 -0.19792715046E+03 -0.23197673737E+03  0.30519258484E+03  0.12699999809E+01 0.  1.
</event>
<event>
 5   0  0.9411028E-02  0.5765098E+03  0.7818609E-02  0.9955376E-01
        1   -1    0    0  501    0  0.00000000000E+00  0.00000000000E+00  0.12857617221E+04  0.12857617221E+04  0.50400001928E-02 0. -1.
       -1   -1    0    0    0  501  0.00000000000E+00  0.00000000000E+00 -0.64623869675E+02  0.64623869872E+02  0.50400001928E-02 0.  1.
    10030    2    1    2    0    0  0.00000000000E+00  0.00000000000E+00  0.12211378524E+04  0.13503855919E+04  0.57650983721E+03 0.  0.
        4    1    3    3  502    0  0.74509871446E+02 -0.66339956310E+02  0.12440277366E+04  0.12480221685E+04  0.12699999809E+01 0. -1.
       -4    1    3    3    0  502 -0.74509871446E+02  0.66339956310E+02 -0.22889884265E+02  0.10236342339E+03  0.12699999809E+01 0.  1.
</event>
<event>
 5   0  0.9497860E-02  0.6200141E+03  0.7818609E-02  0.9864732E-01
       -1   -1    0    0    0  501  0.00000000000E+00  0.00000000000E+00  0.26816030577E+03  0.26816030581E+03  0.50400001928E-02 0. -1.
        1   -1    0    0  501    0  0.00000000000E+00  0.00000000000E+00 -0.35838408175E+03  0.35838408179E+03  0.50400001928E-02 0.  1.
    10030    2    1    2    0    0  0.00000000000E+00  0.00000000000E+00 -0.90223775982E+02  0.62654438760E+03  0.62001414490E+03 0.  0.
        5    1    3    3  502    0 -0.23981498234E+03  0.19510352082E+03 -0.22387591566E+02  0.30999984491E+03  0.46999998093E+01 0. -1.
       -5    1    3    3    0  502  0.23981498234E+03 -0.19510352082E+03 -0.67836184416E+02  0.31654454269E+03  0.46999998093E+01 0.  1.
</event>
<event>
 5   0  0.9420349E-02  0.5945073E+03  0.7818609E-02  0.9916868E-01
       -1   -1    0    0    0  501  0.00000000000E+00  0.00000000000E+00  0.12056251551E+03  0.12056251562E+03  0.50400001928E-02 0.  1.
        1   -1    0    0  501    0  0.00000000000E+00  0.00000000000E+00 -0.73289563630E+03  0.73289563632E+03  0.50400001928E-02 0. -1.
    10030    2    1    2    0    0  0.00000000000E+00  0.00000000000E+00 -0.61233312078E+03  0.85345815193E+03  0.59450733073E+03 0.  0.
        2    1    3    3  502    0  0.83202979903E+02  0.13716744486E+03  0.53076860057E+02  0.16898164656E+03  0.25500000920E-02 0.  1.
       -2    1    3    3    0  502 -0.83202979903E+02 -0.13716744486E+03 -0.66540998084E+03  0.68447650537E+03  0.25500000920E-02 0. -1.
</event>
<event>
 5   0  0.6170500E-02  0.6048422E+03  0.7818609E-02  0.9895411E-01
        4   -1    0    0  501    0  0.00000000000E+00  0.00000000000E+00  0.12047652579E+04  0.12047659272E+04  0.12699999809E+01 0. -1.
       -4   -1    0    0    0  501  0.00000000000E+00  0.00000000000E+00 -0.75907965594E+02  0.75918588900E+02  0.12699999809E+01 0.  1.
    10030    2    1    2    0    0  0.00000000000E+00  0.00000000000E+00  0.11288572923E+04  0.12806845161E+04  0.60484216419E+03 0.  0.
        5    1    3    3  502    0  0.12885773998E+03 -0.27177916728E+02 -0.11926335802E+02  0.13231509284E+03  0.46999998093E+01 0.  1.
       -5    1    3    3    0  502 -0.12885773998E+03  0.27177916728E+02  0.11407836281E+04  0.11483694233E+04  0.46999998093E+01 0. -1.
</event>
<event>
 5   0  0.9497860E-02  0.7328435E+03  0.7818609E-02  0.9662657E-01
        1   -1    0    0  501    0  0.00000000000E+00  0.00000000000E+00  0.38066726738E+03  0.38066726742E+03  0.50400001928E-02 0.  1.
       -1   -1    0    0    0  501  0.00000000000E+00  0.00000000000E+00 -0.35270933207E+03  0.35270933211E+03  0.50400001928E-02 0. -1.
    10030    2    1    2    0    0  0.00000000000E+00  0.00000000000E+00  0.27957935314E+02  0.73337659952E+03  0.73284349665E+03 0.  0.
        5    1    3    3  502    0 -0.12131751567E+03 -0.20497682155E+03  0.29258653969E+03  0.37730943559E+03  0.46999998093E+01 0.  1.
       -5    1    3    3    0  502  0.12131751567E+03  0.20497682155E+03 -0.26462860437E+03  0.35606716393E+03  0.46999998093E+01 0. -1.
</event>
<event>
 5   0  0.9497860E-02  0.5996722E+03  0.7818609E-02  0.9906086E-01
       -1   -1    0    0    0  501  0.00000000000E+00  0.00000000000E+00  0.15617269861E+03  0.15617269869E+03  0.50400001928E-02 0. -1.
        1   -1    0    0  501    0  0.00000000000E+00  0.00000000000E+00 -0.57565557818E+03  0.57565557820E+03  0.50400001928E-02 0.  1.
    10030    2    1    2    0    0  0.00000000000E+00  0.00000000000E+00 -0.41948287957E+03  0.73182827689E+03  0.59967219429E+03 0.  0.
        5    1    3    3  502    0 -0.17207047488E+03 -0.20106383107E+03 -0.37825021902E+02  0.26737190348E+03  0.46999998093E+01 0. -1.
       -5    1    3    3    0  502  0.17207047488E+03  0.20106383107E+03 -0.38165785767E+03  0.46445637342E+03  0.46999998093E+01 0.  1.
</event>
<event>
 5   0  0.9420349E-02  0.5269025E+03  0.7818609E-02  0.1006986E+00
        1   -1    0    0  501    0  0.00000000000E+00  0.00000000000E+00  0.31844097399E+03  0.31844097403E+03  0.50400001928E-02 0. -1.
       -1   -1    0    0    0  501  0.00000000000E+00  0.00000000000E+00 -0.21795740731E+03  0.21795740737E+03  0.50400001928E-02 0.  1.
    10030    2    1    2    0    0  0.00000000000E+00  0.00000000000E+00  0.10048356668E+03  0.53639838140E+03  0.52690253026E+03 0.  0.
        2    1    3    3  502    0  0.18543575208E+03 -0.41226836657E+02 -0.13558697374E+03  0.23338786958E+03  0.25500000920E-02 0.  1.
       -2    1    3    3    0  502 -0.18543575208E+03  0.41226836657E+02  0.23607054042E+03  0.30301051182E+03  0.25500000920E-02 0. -1.
</event>
<event>
 5   0  0.6170500E-02  0.5890288E+03  0.7818609E-02  0.9928433E-01
       -4   -1    0    0    0  501  0.00000000000E+00  0.00000000000E+00  0.40337453310E+03  0.40337653235E+03  0.12699999809E+01 0. -1.
        4   -1    0    0  501    0  0.00000000000E+00  0.00000000000E+00 -0.21502831370E+03  0.21503206410E+03  0.12699999809E+01 0.  1.
    10030    2    1    2    0    0  0.00000000000E+00  0.00000000000E+00  0.18834621940E+03  0.61840859645E+03  0.58902877163E+03 0.  0.
        1    1    3    3  502    0 -0.22234553786E+02  0.16085202541E+02 -0.21368592862E+03  0.21544090893E+03  0.50400001928E-02 0.  1.
       -1    1    3    3    0  502  0.22234553786E+02 -0.16085202541E+02  0.40203214802E+03  0.40296768753E+03  0.50400001928E-02 0. -1.
</event>
<event>
 5   0  0.6170500E-02  0.5620224E+03  0.7818609E-02  0.9987489E-01
        3   -1    0    0  501    0  0.00000000000E+00  0.00000000000E+00  0.11701804407E+04  0.11701804451E+04  0.10100000352E+00 0. -1.
       -3   -1    0    0    0  501  0.00000000000E+00  0.00000000000E+00 -0.67482964963E+02  0.67483040545E+02  0.10100000352E+00 0.  1.
    10030    2    1    2    0    0  0.00000000000E+00  0.00000000000E+00  0.11026974758E+04  0.12376634857E+04  0.56202240224E+03 0.  0.
        1    1    3    3  502    0  0.16604952256E+03  0.15537509511E+03  0.18780259303E+03  0.29492995456E+03  0.50400001928E-02 0.  1.
       -1    1    3    3    0  502 -0.16604952256E+03 -0.15537509511E+03  0.91489488276E+03  0.94273353109E+03  0.50400001928E-02 0. -1.
</event>
<event>
 5   0  0.1488510E-01  0.5994651E+03  0.7818609E-02  0.9906516E-01
       -2   -1    0    0    0  501  0.00000000000E+00  0.00000000000E+00  0.76403687027E+02  0.76403687070E+02  0.25500000920E-02 0. -1.
        2   -1    0    0  501    0  0.00000000000E+00  0.00000000000E+00 -0.11758542024E+04  0.11758542024E+04  0.25500000920E-02 0.  1.
    10030    2    1    2    0    0  0.00000000000E+00  0.00000000000E+00 -0.10994505154E+04  0.12522578895E+04  0.59946508321E+03 0.  0.
        5    1    3    3  502    0 -0.17748227723E+03  0.50550129764E+02 -0.56437929099E+02  0.19303524079E+03  0.46999998093E+01 0. -1.
       -5    1    3    3    0  502  0.17748227723E+03 -0.50550129764E+02 -0.10430125863E+04  0.10592226487E+04  0.46999998093E+01 0.  1.
</event>
<event>
 5   0  0.1532571E-01  0.5968605E+03  0.7818609E-02  0.9911941E-01
       -2   -1    0    0    0  501  0.00000000000E+00  0.00000000000E+00  0.53917473074E+02  0.53917473134E+02  0.25500000920E-02 0. -1.
        2   -1    0    0  501    0  0.00000000000E+00  0.00000000000E+00 -0.16517951999E+04  0.16517951999E+04  0.25500000920E-02 0.  1.
    10030    2    1    2    0    0  0.00000000000E+00  0.00000000000E+00 -0.15978777268E+04  0.17057126730E+04  0.59686053066E+03 0.  0.
        1    1    3    3  502    0 -0.13389281474E+03  0.13086610992E+03 -0.13479885210E+03  0.23070317535E+03  0.50400001928E-02 0. -1.
       -1    1    3    3    0  502  0.13389281474E+03 -0.13086610992E+03 -0.14630788747E+04  0.14750094976E+04  0.50400001928E-02 0.  1.
</event>
<event>
 5   0  0.9497860E-02  0.6024507E+03  0.7818609E-02  0.9900335E-01
        1   -1    0    0  501    0  0.00000000000E+00  0.00000000000E+00  0.18656999283E+04  0.18656999283E+04  0.50400001928E-02 0.  1.
       -1   -1    0    0    0  501  0.00000000000E+00  0.00000000000E+00 -0.48634135312E+02  0.48634135573E+02  0.50400001928E-02 0. -1.
    10030    2    1    2    0    0  0.00000000000E+00  0.00000000000E+00  0.18170657930E+04  0.19143340639E+04  0.60245067191E+03 0.  0.
        5    1    3    3  502    0 -0.68355021779E+02  0.11236270018E+03  0.17695148359E+04  0.17744020486E+04  0.46999998093E+01 0.  1.
       -5    1    3    3    0  502  0.68355021779E+02 -0.11236270018E+03  0.47550957060E+02  0.13993201531E+03  0.46999998093E+01 0. -1.
</event>
<event>
 5   0  0.9420349E-02  0.6137469E+03  0.7818609E-02  0.9877289E-01
        1   -1    0    0  501    0  0.00000000000E+00  0.00000000000E+00  0.36520218277E+03  0.36520218281E+03  0.50400001928E-02 0. -1.
       -1   -1    0    0    0  501  0.00000000000E+00  0.00000000000E+00 -0.25786076444E+03  0.25786076449E+03  0.50400001928E-02 0.  1.
    10030    2    1    2    0    0  0.00000000000E+00  0.00000000000E+00  0.10734141833E+03  0.62306294730E+03  0.61374689915E+03 0.  0.
        2    1    3    3  502    0 -0.18854527680E+02  0.15746781892E+03 -0.21303306981E+03  0.26558368935E+03  0.25500000920E-02 0.  1.
       -2    1    3    3    0  502  0.18854527680E+02 -0.15746781892E+03  0.32037448814E+03  0.35747925795E+03  0.25500000920E-02 0. -1.
</event>
<event>
 5   0  0.9177281E-02  0.5836201E+03  0.7818609E-02  0.9939984E-01
        1   -1    0    0  501    0  0.00000000000E+00  0.00000000000E+00  0.15228757081E+04  0.15228757081E+04  0.50400001928E-02 0.  1.
       -1   -1    0    0    0  501  0.00000000000E+00  0.00000000000E+00 -0.55915989159E+02  0.55915989386E+02  0.50400001928E-02 0. -1.
    10030    2    1    2    0    0  0.00000000000E+00  0.00000000000E+00  0.14669597190E+04  0.15787916975E+04  0.58362008797E+03 0.  0.
        1    1    3    3  502    0 -0.22089714286E+03 -0.16876631384E+03  0.49341241705E+03  0.56633332035E+03  0.50400001928E-02 0. -1.
       -1    1    3    3    0  502  0.22089714286E+03  0.16876631384E+03  0.97354730192E+03  0.10124583772E+04  0.50400001928E-02 0.  1.
</event>
<event>
 5   0  0.1488510E-01  0.6103835E+03  0.7818609E-02  0.9884095E-01
        2   -1    0    0  501    0  0.00000000000E+00  0.00000000000E+00  0.12532727302E+03  0.12532727304E+03  0.25500000920E-02 0.  1.
       -2   -1    0    0    0  501  0.00000000000E+00  0.00000000000E+00 -0.74319017904E+03  0.74319017905E+03  0.25500000920E-02 0. -1.
    10030    2    1    2    0    0  0.00000000000E+00  0.00000000000E+00 -0.61786290603E+03  0.86851745209E+03  0.61038348105E+03 0.  0.
        5    1    3    3  502    0  0.22169336430E+03  0.42564696981E+02 -0.16767153732E+02  0.22641318125E+03  0.46999998093E+01 0.  1.
       -5    1    3    3    0  502 -0.22169336430E+03 -0.42564696981E+02 -0.60109575229E+03  0.64210427084E+03  0.46999998093E+01 0. -1.
</event>
<event>
 5   0  0.1488510E-01  0.5815576E+03  0.7818609E-02  0.9944424E-01
        2   -1    0    0  501    0  0.00000000000E+00  0.00000000000E+00  0.24690503382E+04  0.24690503383E+04  0.25500000920E-02 0.  1.
       -2   -1    0    0    0  501  0.00000000000E+00  0.00000000000E+00 -0.34244874924E+02  0.34244875019E+02  0.25500000920E-02 0. -1.
    10030    2    1    2    0    0  0.00000000000E+00  0.00000000000E+00  0.24348054633E+04  0.25032952133E+04  0.58155763303E+03 0.  0.
        5    1    3    3  502    0 -0.17852234264E+03 -0.11318691680E+03  0.20766665495E+04  0.20874021061E+04  0.46999998093E+01 0.  1.
       -5    1    3    3    0  502  0.17852234264E+03  0.11318691680E+03  0.35813891385E+03  0.41589310714E+03  0.46999998093E+01 0. -1.
</event>
<event>
 5   0  0.1483942E-01  0.6060390E+03  0.7818609E-02  0.9892956E-01
       -2   -1    0    0    0  501  0.00000000000E+00  0.00000000000E+00  0.75217110210E+02  0.75217110254E+02  0.25500000920E-02 0. -1.
        2   -1    0    0  501    0  0.00000000000E+00  0.00000000000E+00 -0.12207437176E+04  0.12207437176E+04  0.25500000920E-02 0.  1.
    10030    2    1    2    0    0  0.00000000000E+00  0.00000000000E+00 -0.11455266074E+04  0.12959608279E+04  0.60603899141E+03 0.  0.
        4    1    3    3  502    0  0.23582282988E+03 -0.14540835080E+03 -0.31031122318E+03  0.41599358614E+03  0.12699999809E+01 0.  1.
       -4    1    3    3    0  502 -0.23582282988E+03  0.14540835080E+03 -0.83521538426E+03  0.87996724176E+03  0.12699999809E+01 0. -1.
</event>
<event>
 5   0  0.9497860E-02  0.6006825E+03  0.7818609E-02  0.9903991E-01
        1   -1    0    0  501    0  0.00000000000E+00  0.00000000000E+00  0.26273409607E+03  0.26273409612E+03  0.50400001928E-02 0. -1.
       -1   -1    0    0    0  501  0.00000000000E+00  0.00000000000E+00 -0.34333141734E+03  0.34333141737E+03  0.50400001928E-02 0.  1.
    10030    2    1    2    0    0  0.00000000000E+00  0.00000000000E+00 -0.80597321269E+02  0.60606551349E+03  0.60068251052E+03 0.  0.
        5    1    3    3  502    0 -0.10385980316E+03 -0.73192513544E+02 -0.31483775891E+03  0.33954220236E+03  0.46999998093E+01 0.  1.
       -5    1    3    3    0  502  0.10385980316E+03  0.73192513544E+02  0.23424043764E+03  0.26652331113E+03  0.46999998093E+01 0. -1.
</event>
<event>
 5   0  0.1502642E-01  0.6063114E+03  0.7818609E-02  0.9892398E-01
       -2   -1    0    0    0  501  0.00000000000E+00  0.00000000000E+00  0.19664388927E+03  0.19664388929E+03  0.25500000920E-02 0.  1.
        2   -1    0    0  501    0  0.00000000000E+00  0.00000000000E+00 -0.46735937712E+03  0.46735937712E+03  0.25500000920E-02 0. -1.
    10030    2    1    2    0    0  0.00000000000E+00  0.00000000000E+00 -0.27071548785E+03  0.66400326641E+03  0.60631135767E+03 0.  0.
        2    1    3    3  502    0 -0.22966591925E+03 -0.19645920831E+03 -0.10942527307E+03  0.32142891187E+03  0.25500000920E-02 0. -1.
       -2    1    3    3    0  502  0.22966591925E+03  0.19645920831E+03 -0.16129021478E+03  0.34257435453E+03  0.25500000920E-02 0.  1.
</event>
<event>
 5   0  0.9420349E-02  0.5637879E+03  0.7818609E-02  0.9983520E-01
       -1   -1    0    0    0  501  0.00000000000E+00  0.00000000000E+00  0.10825396992E+03  0.10825397003E+03  0.50400001928E-02 0.  1.
        1   -1    0    0  501    0  0.00000000000E+00  0.00000000000E+00 -0.73405339579E+03  0.73405339581E+03  0.50400001928E-02 0. -1.
    10030    2    1    2    0    0  0.00000000000E+00  0.00000000000E+00 -0.62579942587E+03  0.84230736584E+03  0.56378788310E+03 0.  0.
        2    1    3    3  502    0 -0.17090328629E+02  0.25969008745E+03 -0.15106838207E+03  0.30091971839E+03  0.25500000920E-02 0.  1.
       -2    1    3    3    0  502  0.17090328629E+02 -0.25969008745E+03 -0.47473104381E+03  0.54138764745E+03  0.25500000920E-02 0. -1.
</event>
<event>
 5   0  0.1502642E-01  0.6163381E+03  0.7818609E-02  0.9872078E-01
        2   -1    0    0  501    0  0.00000000000E+00  0.00000000000E+00  0.68576881175E+03  0.68576881175E+03  0.25500000920E-02 0.  1.
       -2   -1    0    0    0  501  0.00000000000E+00  0.00000000000E+00 -0.13848423364E+03  0.13848423366E+03  0.25500000920E-02 0. -1.
    10030    2    1    2    0    0  0.00000000000E+00  0.00000000000E+00  0.54728457811E+03  0.82425304542E+03  0.61633811617E+03 0.  0.
        2    1    3    3  502    0  0.15007472776E+03  0.20037335337E+03  0.33306927507E+02  0.25254951213E+03  0.25500000920E-02 0. -1.
       -2    1    3    3    0  502 -0.15007472776E+03 -0.20037335337E+03  0.51397765060E+03  0.57170353329E+03  0.25500000920E-02 0.  1.
</event>
<event>
 5   0  0.8860626E-02  0.5754713E+03  0.7818609E-02  0.9957644E-01
        1   -1    0    0  501    0  0.00000000000E+00  0.00000000000E+00  0.21094141679E+03  0.21094141685E+03  0.50400001928E-02 0.  1.
       -1   -1    0    0    0  501  0.00000000000E+00  0.00000000000E+00 -0.39248719967E+03  0.39248719970E+03  0.50400001928E-02 0. -1.
    10030    2    1    2    0    0  0.00000000000E+00  0.00000000000E+00 -0.18154578288E+03  0.60342861655E+03  0.57547130597E+03 0.  0.
        3    1    3    3  502    0  0.17091540667E+03  0.23145182653E+03 -0.87495079230E+02  0.30072815520E+03  0.10100000352E+00 0. -1.
       -3    1    3    3    0  502 -0.17091540667E+03 -0.23145182653E+03 -0.94050703651E+02  0.30270046135E+03  0.10100000352E+00 0.  1.
</event>
<event>
 5   0  0.1483942E-01  0.6224370E+03  0.7818609E-02  0.9859920E-01
       -2   -1    0    0    0  501  0.00000000000E+00  0.00000000000E+00  0.98854527228E+02  0.98854527261E+02  0.25500000920E-02 0. -1.
        2   -1    0    0  501    0  0.00000000000E+00  0.00000000000E+00 -0.97979273208E+03  0.97979273208E+03  0.25500000920E-02 0.  1.
    10030    2    1    2    0    0  0.00000000000E+00  0.00000000000E+00 -0.88093820485E+03  0.10786472593E+04  0.62243697618E+03 0.  0.
        4    1    3    3  502    0  0.17249348156E+03 -0.17193315267E+03 -0.10470592204E+03  0.26510366497E+03  0.12699999809E+01 0. -1.
       -4    1    3    3    0  502 -0.17249348156E+03  0.17193315267E+03 -0.77623228281E+03  0.81354359437E+03  0.12699999809E+01 0.  1.
</event>
<event>
 5   0  0.9177281E-02  0.5884611E+03  0.7818609E-02  0.9929639E-01
        1   -1    0    0  501    0  0.00000000000E+00  0.00000000000E+00  0.15645693445E+04  0.15645693446E+04  0.50400001928E-02 0.  1.
       -1   -1    0    0    0  501  0.00000000000E+00  0.00000000000E+00 -0.55332552052E+02  0.55332552281E+02  0.50400001928E-02 0. -1.
    10030    2    1    2    0    0  0.00000000000E+00  0.00000000000E+00  0.15092367925E+04  0.16199018968E+04  0.58846109434E+03 0.  0.
        1    1    3    3  502    0  0.73640447673E+01  0.26422329897E+03  0.11103920971E+04  0.11414196380E+04  0.50400001928E-02 0.  1.
       -1    1    3    3    0  502 -0.73640447673E+01 -0.26422329897E+03  0.39884469544E+03  0.47848225879E+03  0.50400001928E-02 0. -1.
</event>
<event>
 5   0  0.9497860E-02  0.7033773E+03  0.7818609E-02  0.9711474E-01
       -1   -1    0    0    0  501  0.00000000000E+00  0.00000000000E+00  0.12630768958E+03  0.12630768968E+03  0.50400001928E-02 0.  1.
        1   -1    0    0  501    0  0.00000000000E+00  0.00000000000E+00 -0.97923488400E+03  0.97923488401E+03  0.50400001928E-02 0. -1.
    10030    2    1    2    0    0  0.00000000000E+00  0.00000000000E+00 -0.85292719442E+03  0.11055425737E+04  0.70337726952E+03 0.  0.
        5    1    3    3  502    0 -0.24619822232E+03  0.24799012050E+03 -0.48834680009E+03  0.60051423938E+03  0.46999998093E+01 0.  1.
       -5    1    3    3    0  502  0.24619822232E+03 -0.24799012050E+03 -0.36458039432E+03  0.50502833432E+03  0.46999998093E+01 0. -1.
</event>
<event>
 5   0  0.9411028E-02  0.6028829E+03  0.7818609E-02  0.9899443E-01
       -1   -1    0    0    0  501  0.00000000000E+00  0.00000000000E+00  0.27383944734E+03  0.27383944739E+03  0.50400001928E-02 0.  1.
        1   -1    0    0  501    0  0.00000000000E+00  0.00000000000E+00 -0.33182560082E+03  0.33182560085E+03  0.50400001928E-02 0. -1.
    10030    2    1    2    0    0  0.00000000000E+00  0.00000000000E+00 -0.57986153471E+02  0.60566504825E+03  0.60288287144E+03 0.  0.
        4    1    3    3  502    0  0.29921817425E+03 -0.23764978252E+02 -0.56852555053E+02  0.30549978054E+03  0.12699999809E+01 0.  1.
       -4    1    3    3    0  502 -0.29921817425E+03  0.23764978252E+02 -0.11335984181E+01  0.30016526771E+03  0.12699999809E+01 0. -1.
</event>
<event>
 5   0  0.1502642E-01  0.5742194E+03  0.7818609E-02  0.9960385E-01
       -2   -1    0    0    0  501  0.00000000000E+00  0.00000000000E+00  0.11450316573E+03  0.11450316576E+03  0.25500000920E-02 0.  1.
        2   -1    0    0  501    0  0.00000000000E+00  0.00000000000E+00 -0.71991011509E+03  0.71991011510E+03  0.25500000920E-02 0. -1.
    10030    2    1    2    0    0  0.00000000000E+00  0.00000000000E+00 -0.60540694937E+03  0.83441328085E+03  0.57421942576E+03 0.  0.
        2    1    3    3  502    0  0.21373252372E+01 -0.18007089788E+03  0.22231560945E+02  0.18145065095E+03  0.25500000920E-02 0.  1.
       -2    1    3    3    0  502 -0.21373252372E+01  0.18007089788E+03 -0.62763851031E+03  0.65296262990E+03  0.25500000920E-02 0. -1.
</event>
<event>
 5   0  0.1532571E-01  0.5968990E+03  0.7818609E-02  0.9911861E-01
        2   -1    0    0  501    0  0.00000000000E+00  0.00000000000E+00  0.69669715717E+03  0.69669715718E+03  0.25500000920E-02 0. -1.
       -2   -1    0    0    0  501  0.00000000000E+00  0.00000000000E+00 -0.12784910183E+03  0.12784910186E+03  0.25500000920E-02 0.  1.
    10030    2    1    2    0    0  0.00000000000E+00  0.00000000000E+00  0.56884805534E+03  0.82454625903E+03  0.59689900588E+03 0.  0.
        1    1    3    3  502    0  0.51242729446E+02 -0.14483436790E+03 -0.69030052975E+02  0.16842790649E+03  0.50400001928E-02 0.  1.
       -1    1    3    3    0  502 -0.51242729446E+02  0.14483436790E+03  0.63787810832E+03  0.65611835254E+03  0.50400001928E-02 0. -1.
</event>
<event>
 5   0  0.8860626E-02  0.6004874E+03  0.7818609E-02  0.9904395E-01
       -1   -1    0    0    0  501  0.00000000000E+00  0.00000000000E+00  0.49432902895E+03  0.49432902898E+03  0.50400001928E-02 0. -1.
        1   -1    0    0  501    0  0.00000000000E+00  0.00000000000E+00 -0.18236087638E+03  0.18236087645E+03  0.50400001928E-02 0.  1.
    10030    2    1    2    0    0  0.00000000000E+00  0.00000000000E+00  0.31196815257E+03  0.67668990543E+03  0.60048738529E+03 0.  0.
        3    1    3    3  502    0  0.79077673736E+02 -0.60128217789E+02 -0.16330418770E+03  0.19114640719E+03  0.10100000352E+00 0.  1.
       -3    1    3    3    0  502 -0.79077673736E+02  0.60128217789E+02  0.47527234027E+03  0.48554349824E+03  0.10100000352E+00 0. -1.
</event>
<event>
 5   0  0.1488510E-01  0.5515035E+03  0.7818609E-02  0.1001147E+00
       -2   -1    0    0    0  501  0.00000000000E+00  0.00000000000E+00  0.20918884275E+03  0.20918884276E+03  0.25500000920E-02 0. -1.
        2   -1    0    0  501    0  0.00000000000E+00  0.00000000000E+00 -0.36349463776E+03  0.36349463777E+03  0.25500000920E-02 0.  1.
    10030    2    1    2    0    0  0.00000000000E+00  0.00000000000E+00 -0.15430579501E+03  0.57268348053E+03  0.55150348186E+03 0.  0.
        5    1    3    3  502    0 -0.78991287033E+02 -0.18763322907E+03 -0.27022648848E+03  0.33836414874E+03  0.46999998093E+01 0.  1.
       -5    1    3    3    0  502  0.78991287033E+02  0.18763322907E+03  0.11592069347E+03  0.23431933179E+03  0.46999998093E+01 0. -1.
</event>
<event>
 5   0  0.1488510E-01  0.5563299E+03  0.7818609E-02  0.1000039E+00
       -2   -1    0    0    0  501  0.00000000000E+00  0.00000000000E+00  0.19405055015E+03  0.19405055017E+03  0.25500000920E-02 0. -1.
        2   -1    0    0  501    0  0.00000000000E+00  0.00000000000E+00 -0.39874015779E+03  0.39874015780E+03  0.25500000920E-02 0.  1.
    10030    2    1    2    0    0  0.00000000000E+00  0.00000000000E+00 -0.20468960764E+03  0.59279070797E+03  0.55632992727E+03 0.  0.
        5    1    3    3  502    0 -0.59429299442E+02  0.91390759663E+02 -0.37498420786E+03  0.39053726932E+03  0.46999998093E+01 0.  1.
       -5    1    3    3    0  502  0.59429299442E+02 -0.91390759663E+02  0.17029460022E+03  0.20225343865E+03  0.46999998093E+01 0. -1.
</event>
<event>
 5   0  0.1488510E-01  0.6050357E+03  0.7818609E-02  0.9895013E-01
       -2   -1    0    0    0  501  0.00000000000E+00  0.00000000000E+00  0.14140997596E+03  0.14140997598E+03  0.25500000920E-02 0. -1.
        2   -1    0    0  501    0  0.00000000000E+00  0.00000000000E+00 -0.64717541001E+03  0.64717541002E+03  0.25500000920E-02 0.  1.
    10030    2    1    2    0    0  0.00000000000E+00  0.00000000000E+00 -0.50576543406E+03  0.78858538599E+03  0.60503573177E+03 0.  0.
        5    1    3    3  502    0 -0.70126716355E+01 -0.25801468628E+03 -0.47320933202E+02  0.26245402762E+03  0.46999998093E+01 0. -1.
       -5    1    3    3    0  502  0.70126716355E+01  0.25801468628E+03 -0.45844450085E+03  0.52613135837E+03  0.46999998093E+01 0.  1.
</event>
<event>
 5   0  0.9411028E-02  0.6070846E+03  0.7818609E-02  0.9890816E-01
       -1   -1    0    0    0  501  0.00000000000E+00  0.00000000000E+00  0.24345248945E+03  0.24345248950E+03  0.50400001928E-02 0. -1.
        1   -1    0    0  501    0  0.00000000000E+00  0.00000000000E+00 -0.37846368925E+03  0.37846368928E+03  0.50400001928E-02 0.  1.
    10030    2    1    2    0    0  0.00000000000E+00  0.00000000000E+00 -0.13501119979E+03  0.62191617878E+03  0.60708459819E+03 0.  0.
        4    1    3    3  502    0  0.57349809954E+02 -0.16708266692E+03  0.18536638063E+03  0.25606234837E+03  0.12699999809E+01 0. -1.
       -4    1    3    3    0  502 -0.57349809954E+02  0.16708266692E+03 -0.32037758043E+03  0.36585383041E+03  0.12699999809E+01 0.  1.
</event>
<event>
 5   0  0.1483942E-01  0.6120033E+03  0.7818609E-02  0.9880811E-01
        2   -1    0    0  501    0  0.00000000000E+00  0.00000000000E+00  0.25227678385E+03  0.25227678386E+03  0.25500000920E-02 0. -1.
       -2   -1    0    0    0  501  0.00000000000E+00  0.00000000000E+00 -0.37116782410E+03  0.37116782411E+03  0.25500000920E-02 0.  1.
    10030    2    1    2    0    0  0.00000000000E+00  0.00000000000E+00 -0.11889104025E+03  0.62344460797E+03  0.61200334946E+03 0.  0.
        4    1    3    3  502    0  0.25749977651E+03  0.11388329563E+03 -0.18151844775E+03  0.33500164134E+03  0.12699999809E+01 0. -1.
       -4    1    3    3    0  502 -0.25749977651E+03 -0.11388329563E+03  0.62627407494E+02  0.28844296663E+03  0.12699999809E+01 0.  1.
</event>
<event>
 5   0  0.9411028E-02  0.5646969E+03  0.7818609E-02  0.9981483E-01
        1   -1    0    0  501    0  0.00000000000E+00  0.00000000000E+00  0.20499047161E+03  0.20499047167E+03  0.50400001928E-02 0. -1.
       -1   -1    0    0    0  501  0.00000000000E+00  0.00000000000E+00 -0.38889923480E+03  0.38889923484E+03  0.50400001928E-02 0.  1.
    10030    2    1    2    0    0  0.00000000000E+00  0.00000000000E+00 -0.18390876320E+03  0.59388970651E+03  0.56469686586E+03 0.  0.
        4    1    3    3  502    0 -0.16135862091E+03 -0.14324390752E+03 -0.28347753118E+03  0.35625348443E+03  0.12699999809E+01 0.  1.
       -4    1    3    3    0  502  0.16135862091E+03  0.14324390752E+03  0.99568767984E+02  0.23763622207E+03  0.12699999809E+01 0. -1.
</event>
<event>
 5   0  0.6170500E-02  0.6114570E+03  0.7818609E-02  0.9881918E-01
       -3   -1    0    0    0  501  0.00000000000E+00  0.00000000000E+00  0.92511742782E+03  0.92511743334E+03  0.10100000352E+00 0. -1.
        3   -1    0    0  501    0  0.00000000000E+00  0.00000000000E+00 -0.10103568418E+03  0.10103573467E+03  0.10100000352E+00 0.  1.
    10030    2    1    2    0    0  0.00000000000E+00  0.00000000000E+00  0.82408174364E+03  0.10261531680E+04  0.61145695188E+03 0.  0.
        2    1    3    3  502    0 -0.12330133053E+03 -0.77371665583E+02  0.86322758442E+03  0.87541501887E+03  0.25500000920E-02 0. -1.
       -2    1    3    3    0  502  0.12330133053E+03  0.77371665583E+02 -0.39145840787E+02  0.15073814913E+03  0.25500000920E-02 0.  1.
</event>
<event>
 5   0  0.9177281E-02  0.5946747E+03  0.7818609E-02  0.9916516E-01
        1   -1    0    0  501    0  0.00000000000E+00  0.00000000000E+00  0.62824118680E+03  0.62824118682E+03  0.50400001928E-02 0. -1.
       -1   -1    0    0    0  501  0.00000000000E+00  0.00000000000E+00 -0.14072541332E+03  0.14072541341E+03  0.50400001928E-02 0.  1.
    10030    2    1    2    0    0  0.00000000000E+00  0.00000000000E+00  0.48751577348E+03  0.76896660023E+03  0.59467470342E+03 0.  0.
        1    1    3    3  502    0  0.37998809487E+02 -0.11316317514E+03 -0.10837935338E+03  0.16123243469E+03  0.50400001928E-02 0.  1.
       -1    1    3    3    0  502 -0.37998809487E+02  0.11316317514E+03  0.59589512686E+03  0.60773416555E+03  0.50400001928E-02 0. -1.
</event>
<event>
 5   0  0.9420349E-02  0.5958466E+03  0.7818609E-02  0.9914061E-01
        1   -1    0    0  501    0  0.00000000000E+00  0.00000000000E+00  0.64143427165E+03  0.64143427167E+03  0.50400001928E-02 0.  1.
       -1   -1    0    0    0  501  0.00000000000E+00  0.00000000000E+00 -0.13837475027E+03  0.13837475037E+03  0.50400001928E-02 0. -1.
    10030    2    1    2    0    0  0.00000000000E+00  0.00000000000E+00  0.50305952138E+03  0.77980902204E+03  0.59584664873E+03 0.  0.
        2    1    3    3  502    0 -0.13530263933E+03  0.78089093020E+02 -0.80471831230E+02  0.17572827401E+03  0.25500000920E-02 0. -1.
       -2    1    3    3    0  502  0.13530263933E+03 -0.78089093020E+02  0.58353135261E+03  0.60408074803E+03  0.25500000920E-02 0.  1.
</event>
<event>
 5   0  0.1483942E-01  0.6046238E+03  0.7818609E-02  0.9895859E-01
       -2   -1    0    0    0  501  0.00000000000E+00  0.00000000000E+00  0.47311321940E+03  0.47311321941E+03  0.25500000920E-02 0.  1.
        2   -1    0    0  501    0  0.00000000000E+00  0.00000000000E+00 -0.19317257573E+03  0.19317257574E+03  0.25500000920E-02 0. -1.
    10030    2    1    2    0    0  0.00000000000E+00  0.00000000000E+00  0.27994064367E+03  0.66628579515E+03  0.60462384739E+03 0.  0.
        4    1    3    3  502    0  0.21710687608E+03  0.10905923211E+03 -0.58269137248E+02  0.24985239044E+03  0.12699999809E+01 0.  1.
       -4    1    3    3    0  502 -0.21710687608E+03 -0.10905923211E+03  0.33820978092E+03  0.41643340471E+03  0.12699999809E+01 0. -1.
</event>
<event>
 5   0  0.9411028E-02  0.6074573E+03  0.7818609E-02  0.9890054E-01
        1   -1    0    0  501    0  0.00000000000E+00  0.00000000000E+00  0.43706565259E+03  0.43706565262E+03  0.50400001928E-02 0.  1.
       -1   -1    0    0    0  501  0.00000000000E+00  0.00000000000E+00 -0.21106917842E+03  0.21106917848E+03  0.50400001928E-02 0. -1.
    10030    2    1    2    0    0  0.00000000000E+00  0.00000000000E+00  0.22599647417E+03  0.64813483110E+03  0.60745728488E+03 0.  0.
        4    1    3    3  502    0  0.16833965780E+03 -0.20979800105E+03  0.26349697939E+03  0.37654443653E+03  0.12699999809E+01 0.  1.
       -4    1    3    3    0  502 -0.16833965780E+03  0.20979800105E+03 -0.37500505227E+02  0.27159039457E+03  0.12699999809E+01 0. -1.
</event>
<event>
 5   0  0.9177281E-02  0.6153373E+03  0.7818609E-02  0.9874087E-01
        1   -1    0    0  501    0  0.00000000000E+00  0.00000000000E+00  0.22364449325E+04  0.22364449325E+04  0.50400001928E-02 0.  1.
       -1   -1    0    0    0  501  0.00000000000E+00  0.00000000000E+00 -0.42326101443E+02  0.42326101743E+02  0.50400001928E-02 0. -1.
    10030    2    1    2    0    0  0.00000000000E+00  0.00000000000E+00  0.21941188311E+04  0.22787710343E+04  0.61533729103E+03 0.  0.
        1    1    3    3  502    0 -0.28785492115E+03  0.10710916537E+03  0.10300752966E+04  0.10748897365E+04  0.50400001928E-02 0. -1.
       -1    1    3    3    0  502  0.28785492115E+03 -0.10710916537E+03  0.11640435344E+04  0.12038812977E+04  0.50400001928E-02 0.  1.
</event>
<event>
 5   0  0.1532571E-01  0.6025170E+03  0.7818609E-02  0.9900198E-01
       -2   -1    0    0    0  501  0.00000000000E+00  0.00000000000E+00  0.10830370095E+03  0.10830370098E+03  0.25500000920E-02 0. -1.
        2   -1    0    0  501    0  0.00000000000E+00  0.00000000000E+00 -0.83798327752E+03  0.83798327752E+03  0.25500000920E-02 0.  1.
    10030    2    1    2    0    0  0.00000000000E+00  0.00000000000E+00 -0.72967957657E+03  0.94628697850E+03  0.60251702152E+03 0.  0.
        1    1    3    3  502    0  0.86530910293E+02  0.24868812365E+02 -0.81635942031E+03  0.82130917407E+03  0.50400001928E-02 0.  1.
       -1    1    3    3    0  502 -0.86530910293E+02 -0.24868812365E+02  0.86679843736E+02  0.12497780443E+03  0.50400001928E-02 0. -1.
</event>
<event>
 5   0  0.6170500E-02  0.6046835E+03  0.7818609E-02  0.9895737E-01
        3   -1    0    0  501    0  0.00000000000E+00  0.00000000000E+00  0.36583731103E+03  0.36583732497E+03  0.10100000352E+00 0.  1.
       -3   -1    0    0    0  501  0.00000000000E+00  0.00000000000E+00 -0.24986662091E+03  0.24986664132E+03  0.10100000352E+00 0. -1.
    10030    2    1    2    0    0  0.00000000000E+00  0.00000000000E+00  0.11597069012E+03  0.61570396629E+03  0.60468353139E+03 0.  0.
        3    1    3    3  502    0  0.24398054606E+03  0.12821846092E+03 -0.68553668711E+02  0.28401777457E+03  0.10100000352E+00 0.  1.
       -3    1    3    3    0  502 -0.24398054606E+03 -0.12821846092E+03  0.18452435883E+03  0.33168619172E+03  0.10100000352E+00 0. -1.
</event>
<event>
 5   0  0.1488510E-01  0.5985301E+03  0.7818609E-02  0.9908460E-01
       -2   -1    0    0    0  501  0.00000000000E+00  0.00000000000E+00  0.12068374141E+03  0.12068374144E+03  0.25500000920E-02 0. -1.
        2   -1    0    0  501    0  0.00000000000E+00  0.00000000000E+00 -0.74210128546E+03  0.74210128546E+03  0.25500000920E-02 0.  1.
    10030    2    1    2    0    0  0.00000000000E+00  0.00000000000E+00 -0.62141754404E+03  0.86278502690E+03  0.59853006491E+03 0.  0.
        5    1    3    3  502    0 -0.23686959930E+03  0.18129949542E+03 -0.34484404774E+03  0.45597831239E+03  0.46999998093E+01 0.  1.
       -5    1    3    3    0  502  0.23686959930E+03 -0.18129949542E+03 -0.27657349630E+03  0.40680671451E+03  0.46999998093E+01 0. -1.
</event>
<event>
 5   0  0.9420349E-02  0.5986638E+03  0.7818609E-02  0.9908182E-01
       -1   -1    0    0    0  501  0.00000000000E+00  0.00000000000E+00  0.28798750518E+03  0.28798750523E+03  0.50400001928E-02 0.  1.
        1   -1    0    0  501    0  0.00000000000E+00  0.00000000000E+00 -0.31112318344E+03  0.31112318348E+03  0.50400001928E-02 0. -1.
    10030    2    1    2    0    0  0.00000000000E+00  0.00000000000E+00 -0.23135678257E+02  0.59911068871E+03  0.59866381026E+03 0.  0.
        2    1    3    3  502    0 -0.19872903009E+03  0.15105909178E+03 -0.17688047045E+03  0.30593917279E+03  0.25500000920E-02 0. -1.
       -2    1    3    3    0  502  0.19872903009E+03 -0.15105909178E+03  0.15374479220E+03  0.29317151592E+03  0.25500000920E-02 0.  1.
</event>
<event>
 5   0  0.1483942E-01  0.5954190E+03  0.7818609E-02  0.9914956E-01
       -2   -1    0    0    0  501  0.00000000000E+00  0.00000000000E+00  0.20070778772E+03  0.20070778773E+03  0.25500000920E-02 0.  1.
        2   -1    0    0  501    0  0.00000000000E+00  0.00000000000E+00 -0.44159189695E+03  0.44159189696E+03  0.25500000920E-02 0. -1.
    10030    2    1    2    0    0  0.00000000000E+00  0.00000000000E+00 -0.24088410923E+03  0.64229968469E+03  0.59541895408E+03 0.  0.
        4    1    3    3  502    0  0.17852163356E+03  0.13734986176E+03 -0.33043386177E+03  0.39990387355E+03  0.12699999809E+01 0. -1.
       -4    1    3    3    0  502 -0.17852163356E+03 -0.13734986176E+03  0.89549752540E+02  0.24239581114E+03  0.12699999809E+01 0.  1.
</event>
<event>
 5   0  0.1502642E-01  0.6003543E+03  0.7818609E-02  0.9904671E-01
        2   -1    0    0  501    0  0.00000000000E+00  0.00000000000E+00  0.12642685070E+03  0.12642685072E+03  0.25500000920E-02 0. -1.
       -2   -1    0    0    0  501  0.00000000000E+00  0.00000000000E+00 -0.71271508870E+03  0.71271508870E+03  0.25500000920E-02 0.  1.
    10030    2    1    2    0    0  0.00000000000E+00  0.00000000000E+00 -0.58628823800E+03  0.83914193943E+03  0.60035430913E+03 0.  0.
        2    1    3    3  502    0  0.12864392522E+03  0.21212714671E+03 -0.52935524204E+03  0.58460598538E+03  0.25500000920E-02 0.  1.
       -2    1    3    3    0  502 -0.12864392522E+03 -0.21212714671E+03 -0.56932995962E+02  0.25453595404E+03  0.25500000920E-02 0. -1.
</event>
<event>
 5   0  0.9177281E-02  0.6082085E+03  0.7818609E-02  0.9888521E-01
        1   -1    0    0  501    0  0.00000000000E+00  0.00000000000E+00  0.13601113011E+04  0.13601113011E+04  0.50400001928E-02 0.  1.
       -1   -1    0    0    0  501  0.00000000000E+00  0.00000000000E+00 -0.67993998051E+02  0.67993998238E+02  0.50400001928E-02 0. -1.
    10030    2    1    2    0    0  0.00000000000E+00  0.00000000000E+00  0.12921173030E+04  0.14281052993E+04  0.60820853429E+03 0.  0.
        1    1    3    3  502    0 -0.30276218259E+03  0.78028178549E+01  0.58160121826E+03  0.65573302516E+03  0.50400001928E-02 0. -1.
       -1    1    3    3    0  502  0.30276218259E+03 -0.78028178549E+01  0.71051608477E+03  0.77237227417E+03  0.50400001928E-02 0.  1.
</event>
<event>
 5   0  0.1502642E-01  0.5043653E+03  0.7818609E-02  0.1012646E+00
        2   -1    0    0  501    0  0.00000000000E+00  0.00000000000E+00  0.62375054084E+03  0.62375054084E+03  0.25500000920E-02 0.  1.
       -2   -1    0    0    0  501  0.00000000000E+00  0.00000000000E+00 -0.10195756136E+03  0.10195756139E+03  0.25500000920E-02 0. -1.
    10030    2    1    2    0    0  0.00000000000E+00  0.00000000000E+00  0.52179297948E+03  0.72570810223E+03  0.50436528054E+03 0.  0.
        2    1    3    3  502    0 -0.36636356800E+02 -0.22122391878E+03  0.94873419109E+02  0.24348143778E+03  0.25500000920E-02 0.  1.
       -2    1    3    3    0  502  0.36636356800E+02  0.22122391878E+03  0.42691956037E+03  0.48222666446E+03  0.25500000920E-02 0. -1.
</event>
<event>
 5   0  0.9420349E-02  0.5951141E+03  0.7818609E-02  0.9915595E-01
       -1   -1    0    0    0  501  0.00000000000E+00  0.00000000000E+00  0.13010836323E+03  0.13010836332E+03  0.50400001928E-02 0.  1.
        1   -1    0    0  501    0  0.00000000000E+00  0.00000000000E+00 -0.68051126551E+03  0.68051126553E+03  0.50400001928E-02 0. -1.
    10030    2    1    2    0    0  0.00000000000E+00  0.00000000000E+00 -0.55040290228E+03  0.81061962885E+03  0.59511413009E+03 0.  0.
        2    1    3    3  502    0 -0.29055161804E+03 -0.63601465767E+01 -0.18820110092E+03  0.34623741652E+03  0.25500000920E-02 0.  1.
       -2    1    3    3    0  502  0.29055161804E+03  0.63601465767E+01 -0.36220180136E+03  0.46438221233E+03  0.25500000920E-02 0. -1.
</event>
<event>
 5   0  0.9411028E-02  0.6067244E+03  0.7818609E-02  0.9891552E-01
       -1   -1    0    0    0  501  0.00000000000E+00  0.00000000000E+00  0.76173055444E+02  0.76173055610E+02  0.50400001928E-02 0. -1.
        1   -1    0    0  501    0  0.00000000000E+00  0.00000000000E+00 -0.12081519822E+04  0.12081519822E+04  0.50400001928E-02 0.  1.
    10030    2    1    2    0    0  0.00000000000E+00  0.00000000000E+00 -0.11319789267E+04  0.12843250378E+04  0.60672441202E+03 0.  0.
        4    1    3    3  502    0  0.21177423971E+03 -0.24633329760E+02 -0.10228097591E+04  0.10447949779E+04  0.12699999809E+01 0.  1.
       -4    1    3    3    0  502 -0.21177423971E+03  0.24633329760E+02 -0.10916916757E+03  0.23953005988E+03  0.12699999809E+01 0. -1.
</event>
<event>
 5   0  0.1532571E-01  0.5952485E+03  0.7818609E-02  0.9915313E-01
        2   -1    0    0  501    0  0.00000000000E+00  0.00000000000E+00  0.65530820058E+03  0.65530820058E+03  0.25500000920E-02 0.  1.
       -2   -1    0    0    0  501  0.00000000000E+00  0.00000000000E+00 -0.13517331132E+03  0.13517331134E+03  0.25500000920E-02 0. -1.
    10030    2    1    2    0    0  0.00000000000E+00  0.00000000000E+00  0.52013488926E+03  0.79048151193E+03  0.59524845037E+03 0.  0.
        1    1    3    3  502    0 -0.28849037115E+03 -0.47359765591E+02  0.33413212986E+03  0.44397513655E+03  0.50400001928E-02 0. -1.
       -1    1    3    3    0  502  0.28849037115E+03  0.47359765591E+02  0.18600275940E+03  0.34650637537E+03  0.50400001928E-02 0.  1.
</event>
<event>
 5   0  0.1502642E-01  0.6151006E+03  0.7818609E-02  0.9874563E-01
        2   -1    0    0  501    0  0.00000000000E+00  0.00000000000E+00  0.15743225360E+03  0.15743225362E+03  0.25500000920E-02 0. -1.
       -2   -1    0    0    0  501  0.00000000000E+00  0.00000000000E+00 -0.60081192003E+03  0.60081192004E+03  0.25500000920E-02 0.  1.
    10030    2    1    2    0    0  0.00000000000E+00  0.00000000000E+00 -0.44337966643E+03  0.75824417365E+03  0.61510055948E+03 0.  0.
        2    1    3    3  502    0  0.17422763761E+03  0.15895024916E+03  0.21648149153E+02  0.23683136149E+03  0.25500000920E-02 0. -1.
       -2    1    3    3    0  502 -0.17422763761E+03 -0.15895024916E+03 -0.46502781559E+03  0.52141281217E+03  0.25500000920E-02 0.  1.
</event>
<event>
 5   0  0.9177281E-02  0.4721312E+03  0.7818609E-02  0.1021320E+00
        1   -1    0    0  501    0  0.00000000000E+00  0.00000000000E+00  0.98739674538E+03  0.98739674539E+03  0.50400001928E-02 0.  1.
       -1   -1    0    0    0  501  0.00000000000E+00  0.00000000000E+00 -0.56438275292E+02  0.56438275517E+02  0.50400001928E-02 0. -1.
    10030    2    1    2    0    0  0.00000000000E+00  0.00000000000E+00  0.93095847008E+03  0.10438350209E+04  0.47213120830E+03 0.  0.
        1    1    3    3  502    0 -0.14348702992E+03 -0.19110354292E+01  0.87989649368E+03  0.89152118283E+03  0.50400001928E-02 0.  1.
       -1    1    3    3    0  502  0.14348702992E+03  0.19110354292E+01  0.51061976403E+02  0.15231383808E+03  0.50400001928E-02 0. -1.
</event>
<event>
 5   0  0.9420349E-02  0.5968227E+03  0.7818609E-02  0.9912020E-01
        1   -1    0    0  501    0  0.00000000000E+00  0.00000000000E+00  0.37217302178E+03  0.37217302181E+03  0.50400001928E-02 0.  1.
       -1   -1    0    0    0  501  0.00000000000E+00  0.00000000000E+00 -0.23926865327E+03  0.23926865332E+03  0.50400001928E-02 0. -1.
    10030    2    1    2    0    0  0.00000000000E+00  0.00000000000E+00  0.13290436851E+03  0.61144167513E+03  0.59682271314E+03 0.  0.
        2    1    3    3  502    0 -0.43120895370E+01 -0.15068184424E+03 -0.19739392730E+03  0.24837064005E+03  0.25500000920E-02 0. -1.
       -2    1    3    3    0  502  0.43120895370E+01  0.15068184424E+03  0.33029829580E+03  0.36307103508E+03  0.25500000920E-02 0.  1.
</event>
<event>
 5   0  0.1532571E-01  0.5994454E+03  0.7818609E-02  0.9906557E-01
       -2   -1    0    0    0  501  0.00000000000E+00  0.00000000000E+00  0.99483446333E+03  0.99483446333E+03  0.25500000920E-02 0. -1.
        2   -1    0    0  501    0  0.00000000000E+00  0.00000000000E+00 -0.90300142064E+02  0.90300142100E+02  0.25500000920E-02 0.  1.
    10030    2    1    2    0    0  0.00000000000E+00  0.00000000000E+00  0.90453432127E+03  0.10851346054E+04  0.59944538831E+03 0.  0.
        1    1    3    3  502    0 -0.12447618954E+03 -0.25355753037E+03  0.27081057643E+03  0.39131076052E+03  0.50400001928E-02 0.  1.
       -1    1    3    3    0  502  0.12447618954E+03  0.25355753037E+03  0.63372374484E+03  0.69382384491E+03  0.50400001928E-02 0. -1.
</event>
<event>
 5   0  0.6170500E-02  0.5940251E+03  0.7818609E-02  0.9917880E-01
        4   -1    0    0  501    0  0.00000000000E+00  0.00000000000E+00  0.14235302004E+03  0.14235868507E+03  0.12699999809E+01 0. -1.
       -4   -1    0    0    0  501  0.00000000000E+00  0.00000000000E+00 -0.61968337043E+03  0.61968467182E+03  0.12699999809E+01 0.  1.
    10030    2    1    2    0    0  0.00000000000E+00  0.00000000000E+00 -0.47733035039E+03  0.76204335689E+03  0.59402509575E+03 0.  0.
        5    1    3    3  502    0 -0.16832353163E+03 -0.13839821221E+03 -0.49749363960E+03  0.54314720646E+03  0.46999998093E+01 0.  1.
       -5    1    3    3    0  502  0.16832353163E+03  0.13839821221E+03  0.20163289209E+02  0.21889615043E+03  0.46999998093E+01 0. -1.
</event>
<event>
 5   0  0.9177281E-02  0.6047908E+03  0.7818609E-02  0.9895516E-01
       -1   -1    0    0    0  501  0.00000000000E+00  0.00000000000E+00  0.34354518637E+03  0.34354518641E+03  0.50400001928E-02 0. -1.
        1   -1    0    0  501    0  0.00000000000E+00  0.00000000000E+00 -0.26617454583E+03  0.26617454588E+03  0.50400001928E-02 0.  1.
    10030    2    1    2    0    0  0.00000000000E+00  0.00000000000E+00  0.77370640537E+02  0.60971973229E+03  0.60479081998E+03 0.  0.
        1    1    3    3  502    0  0.10551453335E+03 -0.85590558191E+02  0.31104239647E+03  0.33942073128E+03  0.50400001928E-02 0. -1.
       -1    1    3    3    0  502 -0.10551453335E+03  0.85590558191E+02 -0.23367175593E+03  0.27029900101E+03  0.50400001928E-02 0.  1.
</event>
<event>
 5   0  0.6170500E-02  0.6129826E+03  0.7818609E-02  0.9878832E-01
       -3   -1    0    0    0  501  0.00000000000E+00  0.00000000000E+00  0.89035602967E+03  0.89035603540E+03  0.10100000352E+00 0. -1.
        3   -1    0    0  501    0  0.00000000000E+00  0.00000000000E+00 -0.10550484838E+03  0.10550489672E+03  0.10100000352E+00 0.  1.
    10030    2    1    2    0    0  0.00000000000E+00  0.00000000000E+00  0.78485118129E+03  0.99586093212E+03  0.61298256040E+03 0.  0.
        1    1    3    3  502    0 -0.27662790530E+03  0.10186939579E+03  0.52870490552E+03  0.60533399784E+03  0.50400001928E-02 0. -1.
       -1    1    3    3    0  502  0.27662790530E+03 -0.10186939579E+03  0.25614627577E+03  0.39052693428E+03  0.50400001928E-02 0.  1.
</event>
<event>
 5   0  0.1483942E-01  0.6090115E+03  0.7818609E-02  0.9886885E-01
       -2   -1    0    0    0  501  0.00000000000E+00  0.00000000000E+00  0.10864922502E+04  0.10864922502E+04  0.25500000920E-02 0. -1.
        2   -1    0    0  501    0  0.00000000000E+00  0.00000000000E+00 -0.85342291048E+02  0.85342291086E+02  0.25500000920E-02 0.  1.
    10030    2    1    2    0    0  0.00000000000E+00  0.00000000000E+00  0.10011499591E+04  0.11718345413E+04  0.60901145428E+03 0.  0.
        4    1    3    3  502    0  0.12943079676E+03  0.10861677043E+02 -0.29361517702E+02  0.13316913607E+03  0.12699999809E+01 0.  1.
       -4    1    3    3    0  502 -0.12943079676E+03 -0.10861677043E+02  0.10305114768E+04  0.10386654052E+04  0.12699999809E+01 0. -1.
</event>
<event>
 5   0  0.1483942E-01  0.6192074E+03  0.7818609E-02  0.9866339E-01
        2   -1    0    0  501    0  0.00000000000E+00  0.00000000000E+00  0.59597525780E+02  0.59597525834E+02  0.25500000920E-02 0.  1.
       -2   -1    0    0    0  501  0.00000000000E+00  0.00000000000E+00 -0.16083631222E+04  0.16083631222E+04  0.25500000920E-02 0. -1.
    10030    2    1    2    0    0  0.00000000000E+00  0.00000000000E+00 -0.15487655964E+04  0.16679606480E+04  0.61920743757E+03 0.  0.
        4    1    3    3  502    0  0.16748686527E+03  0.24740341155E+03 -0.55566888645E+03  0.63089604718E+03  0.12699999809E+01 0. -1.
       -4    1    3    3    0  502 -0.16748686527E+03 -0.24740341155E+03 -0.99309670996E+03  0.10370646008E+04  0.12699999809E+01 0.  1.
</event>
<event>
 5   0  0.1483942E-01  0.5898888E+03  0.7818609E-02  0.9926608E-01
        2   -1    0    0  501    0  0.00000000000E+00  0.00000000000E+00  0.60377227592E+03  0.60377227592E+03  0.25500000920E-02 0. -1.
       -2   -1    0    0    0  501  0.00000000000E+00  0.00000000000E+00 -0.14408115584E+03  0.14408115587E+03  0.25500000920E-02 0.  1.
    10030    2    1    2    0    0  0.00000000000E+00  0.00000000000E+00  0.45969112007E+03  0.74785343179E+03  0.58988882814E+03 0.  0.
        4    1    3    3  502    0 -0.10856765276E+03 -0.26152087356E+03  0.33447058194E+03  0.43823770447E+03  0.12699999809E+01 0. -1.
       -4    1    3    3    0  502  0.10856765276E+03  0.26152087356E+03  0.12522053814E+03  0.30961572732E+03  0.12699999809E+01 0.  1.
</event>
<event>
 5   0  0.1513339E-01  0.6332114E+03  0.7818609E-02  0.9838802E-01
        2   -1    0    0  501    0  0.00000000000E+00  0.00000000000E+00  0.11646832559E+04  0.11646832559E+04  0.25500000920E-02 0.  1.
       -2   -1    0    0    0  501  0.00000000000E+00  0.00000000000E+00 -0.86065597589E+02  0.86065597626E+02  0.25500000920E-02 0. -1.
    10030    2    1    2    0    0  0.00000000000E+00  0.00000000000E+00  0.10786176583E+04  0.12507488535E+04  0.63321137211E+03 0.  0.
        3    1    3    3  502    0  0.75398049412E+00 -0.18516391170E+03  0.32039761420E+02  0.18791700081E+03  0.10100000352E+00 0. -1.
       -3    1    3    3    0  502 -0.75398049412E+00  0.18516391170E+03  0.10465778968E+04  0.10628318527E+04  0.10100000352E+00 0.  1.
</event>
<event>
 5   0  0.9177281E-02  0.5903433E+03  0.7818609E-02  0.9925646E-01
        1   -1    0    0  501    0  0.00000000000E+00  0.00000000000E+00  0.11862204564E+04  0.11862204564E+04  0.50400001928E-02 0. -1.
       -1   -1    0    0    0  501  0.00000000000E+00  0.00000000000E+00 -0.73448667869E+02  0.73448668042E+02  0.50400001928E-02 0.  1.
    10030    2    1    2    0    0  0.00000000000E+00  0.00000000000E+00  0.11127717886E+04  0.12596691245E+04  0.59034333210E+03 0.  0.
        1    1    3    3  502    0 -0.12664680744E+02  0.29427472685E+03  0.59733596849E+03  0.66600921036E+03  0.50400001928E-02 0.  1.
       -1    1    3    3    0  502  0.12664680744E+02 -0.29427472685E+03  0.51543582007E+03  0.59365991413E+03  0.50400001928E-02 0. -1.
</event>
<event>
 5   0  0.1502642E-01  0.6131508E+03  0.7818609E-02  0.9878492E-01
        2   -1    0    0  501    0  0.00000000000E+00  0.00000000000E+00  0.25349815616E+03  0.25349815618E+03  0.25500000920E-02 0. -1.
       -2   -1    0    0    0  501  0.00000000000E+00  0.00000000000E+00 -0.37076588381E+03  0.37076588382E+03  0.25500000920E-02 0.  1.
    10030    2    1    2    0    0  0.00000000000E+00  0.00000000000E+00 -0.11726772765E+03  0.62426404000E+03  0.61315077403E+03 0.  0.
        2    1    3    3  502    0 -0.10894188709E+03  0.16482378633E+03 -0.29730381222E+03  0.35696606571E+03  0.25500000920E-02 0.  1.
       -2    1    3    3    0  502  0.10894188709E+03 -0.16482378633E+03  0.18003608457E+03  0.26729797429E+03  0.25500000920E-02 0. -1.
</event>
<event>
 5   0  0.1532571E-01  0.6146017E+03  0.7818609E-02  0.9875567E-01
       -2   -1    0    0    0  501  0.00000000000E+00  0.00000000000E+00  0.11243411389E+03  0.11243411392E+03  0.25500000920E-02 0. -1.
        2   -1    0    0  501    0  0.00000000000E+00  0.00000000000E+00 -0.83990366183E+03  0.83990366184E+03  0.25500000920E-02 0.  1.
    10030    2    1    2    0    0  0.00000000000E+00  0.00000000000E+00 -0.72746954794E+03  0.95233777576E+03  0.61460173768E+03 0.  0.
        1    1    3    3  502    0 -0.22512869408E+02  0.15733627064E+03 -0.77126827245E+03  0.78747462147E+03  0.50400001928E-02 0.  1.
       -1    1    3    3    0  502  0.22512869408E+02 -0.15733627064E+03  0.43798724514E+02  0.16486315429E+03  0.50400001928E-02 0. -1.
</event>
<event>
 5   0  0.9420349E-02  0.5941774E+03  0.7818609E-02  0.9917560E-01
       -1   -1    0    0    0  501  0.00000000000E+00  0.00000000000E+00  0.41939355263E+03  0.41939355266E+03  0.50400001928E-02 0.  1.
        1   -1    0    0  501    0  0.00000000000E+00  0.00000000000E+00 -0.21045078713E+03  0.21045078719E+03  0.50400001928E-02 0. -1.
    10030    2    1    2    0    0  0.00000000000E+00  0.00000000000E+00  0.20894276550E+03  0.62984433985E+03  0.59417742568E+03 0.  0.
        2    1    3    3  502    0 -0.42420976389E+02  0.48023542224E+02 -0.20303871151E+03  0.21290964802E+03  0.25500000920E-02 0. -1.
       -2    1    3    3    0  502  0.42420976389E+02 -0.48023542224E+02  0.41198147701E+03  0.41693469183E+03  0.25500000920E-02 0.  1.
</event>
<event>
 5   0  0.9420349E-02  0.5999432E+03  0.7818609E-02  0.9905524E-01
       -1   -1    0    0    0  501  0.00000000000E+00  0.00000000000E+00  0.79558496655E+03  0.79558496657E+03  0.50400001928E-02 0.  1.
        1   -1    0    0  501    0  0.00000000000E+00  0.00000000000E+00 -0.11310287964E+03  0.11310287975E+03  0.50400001928E-02 0. -1.
    10030    2    1    2    0    0  0.00000000000E+00  0.00000000000E+00  0.68248208691E+03  0.90868784631E+03  0.59994316654E+03 0.  0.
        2    1    3    3  502    0 -0.48251665959E+02  0.16077287292E+03  0.71779115094E+03  0.73715688717E+03  0.25500000920E-02 0.  1.
       -2    1    3    3    0  502  0.48251665959E+02 -0.16077287292E+03 -0.35309064023E+02  0.17153095914E+03  0.25500000920E-02 0. -1.
</event>
<event>
 5   0  0.1483942E-01  0.5426523E+03  0.7818609E-02  0.1003209E+00
       -2   -1    0    0    0  501  0.00000000000E+00  0.00000000000E+00  0.26831349944E+03  0.26831349946E+03  0.25500000920E-02 0. -1.
        2   -1    0    0  501    0  0.00000000000E+00  0.00000000000E+00 -0.27437265285E+03  0.27437265286E+03  0.25500000920E-02 0.  1.
    10030    2    1    2    0    0  0.00000000000E+00  0.00000000000E+00 -0.60591534020E+01  0.54268615232E+03  0.54265232569E+03 0.  0.
        4    1    3    3  502    0 -0.23246709418E+03  0.11979579791E+02  0.13637715270E+03  0.26978658397E+03  0.12699999809E+01 0. -1.
       -4    1    3    3    0  502  0.23246709418E+03 -0.11979579791E+02 -0.14243630610E+03  0.27289956835E+03  0.12699999809E+01 0.  1.
</event>
<event>
 5   0  0.1483942E-01  0.6074075E+03  0.7818609E-02  0.9890156E-01
        2   -1    0    0  501    0  0.00000000000E+00  0.00000000000E+00  0.96401171333E+03  0.96401171334E+03  0.25500000920E-02 0. -1.
       -2   -1    0    0    0  501  0.00000000000E+00  0.00000000000E+00 -0.95679302795E+02  0.95679302829E+02  0.25500000920E-02 0.  1.
    10030    2    1    2    0    0  0.00000000000E+00  0.00000000000E+00  0.86833241054E+03  0.10596910162E+04  0.60740750288E+03 0.  0.
        4    1    3    3  502    0 -0.97795340730E+02  0.26404205465E+03  0.23561560058E+03  0.36714909700E+03  0.12699999809E+01 0. -1.
       -4    1    3    3    0  502  0.97795340730E+02 -0.26404205465E+03  0.63271680996E+03  0.69254191916E+03  0.12699999809E+01 0.  1.
</event>
<event>
 5   0  0.1483942E-01  0.4976178E+03  0.7818609E-02  0.1014403E+00
        2   -1    0    0  501    0  0.00000000000E+00  0.00000000000E+00  0.40340002315E+03  0.40340002316E+03  0.25500000920E-02 0.  1.
       -2   -1    0    0    0  501  0.00000000000E+00  0.00000000000E+00 -0.15346023692E+03  0.15346023694E+03  0.25500000920E-02 0. -1.
    10030    2    1    2    0    0  0.00000000000E+00  0.00000000000E+00  0.24993978623E+03  0.55686026010E+03  0.49761777756E+03 0.  0.
        4    1    3    3  502    0 -0.20191409379E+03  0.13107872639E+03  0.54609034842E+02  0.24684953590E+03  0.12699999809E+01 0.  1.
       -4    1    3    3    0  502  0.20191409379E+03 -0.13107872639E+03  0.19533075139E+03  0.31001072421E+03  0.12699999809E+01 0. -1.
</event>
<event>
 5   0  0.8860626E-02  0.5502492E+03  0.7818609E-02  0.1001436E+00
        1   -1    0    0  501    0  0.00000000000E+00  0.00000000000E+00  0.69357141987E+03  0.69357141988E+03  0.50400001928E-02 0. -1.
       -1   -1    0    0    0  501  0.00000000000E+00  0.00000000000E+00 -0.10913592136E+03  0.10913592148E+03  0.50400001928E-02 0.  1.
    10030    2    1    2    0    0  0.00000000000E+00  0.00000000000E+00  0.58443549850E+03  0.80270734136E+03  0.55024923804E+03 0.  0.
        3    1    3    3  502    0  0.10677243499E+03  0.71635615416E+01 -0.77531153193E+02  0.13214673437E+03  0.10100000352E+00 0.  1.
       -3    1    3    3    0  502 -0.10677243499E+03 -0.71635615416E+01  0.66196665170E+03  0.67056060699E+03  0.10100000352E+00 0. -1.
</event>
<event>
 5   0  0.9497860E-02  0.6032648E+03  0.7818609E-02  0.9898656E-01
        1   -1    0    0  501    0  0.00000000000E+00  0.00000000000E+00  0.51939133126E+03  0.51939133129E+03  0.50400001928E-02 0.  1.
       -1   -1    0    0    0  501  0.00000000000E+00  0.00000000000E+00 -0.17517065316E+03  0.17517065324E+03  0.50400001928E-02 0. -1.
    10030    2    1    2    0    0  0.00000000000E+00  0.00000000000E+00  0.34422067810E+03  0.69456198453E+03  0.60326484658E+03 0.  0.
        5    1    3    3  502    0  0.22732515386E+03  0.19162427589E+03  0.11381758464E+03  0.31839145915E+03  0.46999998093E+01 0. -1.
       -5    1    3    3    0  502 -0.22732515386E+03 -0.19162427589E+03  0.23040309346E+03  0.37617052538E+03  0.46999998093E+01 0.  1.
</event>
<event>
 5   0  0.8860626E-02  0.6224204E+03  0.7818609E-02  0.9859953E-01
        1   -1    0    0  501    0  0.00000000000E+00  0.00000000000E+00  0.71867031469E+03  0.71867031471E+03  0.50400001928E-02 0. -1.
       -1   -1    0    0    0  501  0.00000000000E+00  0.00000000000E+00 -0.13476524276E+03  0.13476524285E+03  0.50400001928E-02 0.  1.
    10030    2    1    2    0    0  0.00000000000E+00  0.00000000000E+00  0.58390507194E+03  0.85343555756E+03  0.62242037071E+03 0.  0.
        3    1    3    3  502    0  0.14702918857E+03 -0.21507001167E+03  0.52536777704E+03  0.58641623747E+03  0.10100000352E+00 0. -1.
       -3    1    3    3    0  502 -0.14702918857E+03  0.21507001167E+03  0.58537294893E+02  0.26701932009E+03  0.10100000352E+00 0.  1.
</event>
<event>
 5   0  0.1502642E-01  0.6072571E+03  0.7818609E-02  0.9890463E-01
       -2   -1    0    0    0  501  0.00000000000E+00  0.00000000000E+00  0.12683806792E+03  0.12683806795E+03  0.25500000920E-02 0.  1.
        2   -1    0    0  501    0  0.00000000000E+00  0.00000000000E+00 -0.72683458044E+03  0.72683458045E+03  0.25500000920E-02 0. -1.
    10030    2    1    2    0    0  0.00000000000E+00  0.00000000000E+00 -0.59999651252E+03  0.85367264839E+03  0.60725709183E+03 0.  0.
        2    1    3    3  502    0  0.12060325213E+03 -0.76714695395E+02  0.76584128685E+02  0.16215861891E+03  0.25500000920E-02 0.  1.
       -2    1    3    3    0  502 -0.12060325213E+03  0.76714695395E+02 -0.67658064121E+03  0.69151402949E+03  0.25500000920E-02 0. -1.
</event>
<event>
 5   0  0.6170500E-02  0.6112898E+03  0.7818609E-02  0.9882256E-01
       -4   -1    0    0    0  501  0.00000000000E+00  0.00000000000E+00  0.59608722870E+03  0.59608858160E+03  0.12699999809E+01 0.  1.
        4   -1    0    0  501    0  0.00000000000E+00  0.00000000000E+00 -0.15671591793E+03  0.15672106378E+03  0.12699999809E+01 0. -1.
    10030    2    1    2    0    0  0.00000000000E+00  0.00000000000E+00  0.43937131077E+03  0.75280964538E+03  0.61128979498E+03 0.  0.
        3    1    3    3  502    0  0.19647251636E+03  0.10767143844E+03  0.47572195121E+03  0.52583835292E+03  0.10100000352E+00 0. -1.
       -3    1    3    3    0  502 -0.19647251636E+03 -0.10767143844E+03 -0.36350640439E+02  0.22697129246E+03  0.10100000352E+00 0.  1.
</event>
<event>
 5   0  0.9420349E-02  0.5562699E+03  0.7818609E-02  0.1000053E+00
        1   -1    0    0  501    0  0.00000000000E+00  0.00000000000E+00  0.74702505019E+03  0.74702505021E+03  0.50400001928E-02 0.  1.
       -1   -1    0    0    0  501  0.00000000000E+00  0.00000000000E+00 -0.10355615854E+03  0.10355615867E+03  0.50400001928E-02 0. -1.
    10030    2    1    2    0    0  0.00000000000E+00  0.00000000000E+00  0.64346889165E+03  0.85058120888E+03  0.55626987908E+03 0.  0.
        2    1    3    3  502    0  0.27581838438E+03  0.35822663689E+02  0.32171334865E+03  0.42527464432E+03  0.25500000920E-02 0.  1.
       -2    1    3    3    0  502 -0.27581838438E+03 -0.35822663689E+02  0.32175554300E+03  0.42530656456E+03  0.25500000920E-02 0. -1.
</event>
<event>
 5   0  0.9177281E-02  0.6081163E+03  0.7818609E-02  0.9888709E-01
        1   -1    0    0  501    0  0.00000000000E+00  0.00000000000E+00  0.73521781754E+03  0.73521781756E+03  0.50400001928E-02 0. -1.
       -1   -1    0    0    0  501  0.00000000000E+00  0.00000000000E+00 -0.12574690511E+03  0.12574690522E+03  0.50400001928E-02 0.  1.
    10030    2    1    2    0    0  0.00000000000E+00  0.00000000000E+00  0.60947091242E+03  0.86096472277E+03  0.60811632174E+03 0.  0.
        1    1    3    3  502    0  0.66387813895E+02 -0.93619653112E+01 -0.11515148013E+03  0.13324733254E+03  0.50400001928E-02 0.  1.
       -1    1    3    3    0  502 -0.66387813895E+02  0.93619653112E+01  0.72462239255E+03  0.72771739023E+03  0.50400001928E-02 0. -1.
</event>
<event>
 5   0  0.1502642E-01  0.5991271E+03  0.7818609E-02  0.9907219E-01
        2   -1    0    0  501    0  0.00000000000E+00  0.00000000000E+00  0.19512600037E+03  0.19512600038E+03  0.25500000920E-02 0.  1.
       -2   -1    0    0    0  501  0.00000000000E+00  0.00000000000E+00 -0.45989929709E+03  0.45989929710E+03  0.25500000920E-02 0. -1.
    10030    2    1    2    0    0  0.00000000000E+00  0.00000000000E+00 -0.26477329672E+03  0.65502529748E+03  0.59912706639E+03 0.  0.
        2    1    3    3  502    0  0.10399821615E+03 -0.21382741386E+03 -0.33159684607E+03  0.40803708190E+03  0.25500000920E-02 0. -1.
       -2    1    3    3    0  502 -0.10399821615E+03  0.21382741386E+03  0.66823549341E+02  0.24698821558E+03  0.25500000920E-02 0.  1.
</event>
<event>
 5   0  0.1483942E-01  0.6008754E+03  0.7818609E-02  0.9903592E-01
        2   -1    0    0  501    0  0.00000000000E+00  0.00000000000E+00  0.66451669356E+03  0.66451669357E+03  0.25500000920E-02 0.  1.
       -2   -1    0    0    0  501  0.00000000000E+00  0.00000000000E+00 -0.13583226148E+03  0.13583226150E+03  0.25500000920E-02 0. -1.
    10030    2    1    2    0    0  0.00000000000E+00  0.00000000000E+00  0.52868443209E+03  0.80034895507E+03  0.60087537905E+03 0.  0.
        4    1    3    3  502    0  0.13999747944E+03  0.24720162172E+03  0.13415429580E+03  0.31417658094E+03  0.12699999809E+01 0. -1.
       -4    1    3    3    0  502 -0.13999747944E+03 -0.24720162172E+03  0.39453013629E+03  0.48617237413E+03  0.12699999809E+01 0.  1.
</event>
<event>
 5   0  0.9177281E-02  0.6056426E+03  0.7818609E-02  0.9893768E-01
       -1   -1    0    0    0  501  0.00000000000E+00  0.00000000000E+00  0.77112517629E+03  0.77112517631E+03  0.50400001928E-02 0. -1.
        1   -1    0    0  501    0  0.00000000000E+00  0.00000000000E+00 -0.11891811052E+03  0.11891811063E+03  0.50400001928E-02 0.  1.
    10030    2    1    2    0    0  0.00000000000E+00  0.00000000000E+00  0.65220706577E+03  0.89004328693E+03  0.60564263058E+03 0.  0.
        1    1    3    3  502    0  0.20378173322E+03  0.25747849309E+02 -0.89414931260E+00  0.20540386088E+03  0.50400001928E-02 0.  1.
       -1    1    3    3    0  502 -0.20378173322E+03 -0.25747849309E+02  0.65310121508E+03  0.68463942605E+03  0.50400001928E-02 0. -1.
</event>
<event>
 5   0  0.1532571E-01  0.7015724E+03  0.7818609E-02  0.9714547E-01
        2   -1    0    0  501    0  0.00000000000E+00  0.00000000000E+00  0.79560436268E+03  0.79560436268E+03  0.25500000920E-02 0. -1.
       -2   -1    0    0    0  501  0.00000000000E+00  0.00000000000E+00 -0.15466348452E+03  0.15466348454E+03  0.25500000920E-02 0.  1.
    10030    2    1    2    0    0  0.00000000000E+00  0.00000000000E+00  0.64094087816E+03  0.95026784722E+03  0.70157235704E+03 0.  0.
        1    1    3    3  502    0 -0.48054816612E+02  0.29705556716E+03  0.56465209010E+03  0.63983064811E+03  0.50400001928E-02 0. -1.
       -1    1    3    3    0  502  0.48054816612E+02 -0.29705556716E+03  0.76288788062E+02  0.31043719911E+03  0.50400001928E-02 0.  1.
</event>
<event>
 5   0  0.9420349E-02  0.5283215E+03  0.7818609E-02  0.1006640E+00
       -1   -1    0    0    0  501  0.00000000000E+00  0.00000000000E+00  0.20223734765E+03  0.20223734771E+03  0.50400001928E-02 0.  1.
        1   -1    0    0  501    0  0.00000000000E+00  0.00000000000E+00 -0.34504455667E+03  0.34504455670E+03  0.50400001928E-02 0. -1.
    10030    2    1    2    0    0  0.00000000000E+00  0.00000000000E+00 -0.14280720902E+03  0.54728190441E+03  0.52832147784E+03 0.  0.
        2    1    3    3  502    0  0.21259193168E+03 -0.14150564010E+03 -0.14391982556E+01  0.25538450794E+03  0.25500000920E-02 0.  1.
       -2    1    3    3    0  502 -0.21259193168E+03  0.14150564010E+03 -0.14136801076E+03  0.29189739648E+03  0.25500000920E-02 0. -1.
</event>
<event>
 5   0  0.9411028E-02  0.4680921E+03  0.7818609E-02  0.1022460E+00
       -1   -1    0    0    0  501  0.00000000000E+00  0.00000000000E+00  0.18604759422E+03  0.18604759429E+03  0.50400001928E-02 0.  1.
        1   -1    0    0  501    0  0.00000000000E+00  0.00000000000E+00 -0.29442767598E+03  0.29442767602E+03  0.50400001928E-02 0. -1.
    10030    2    1    2    0    0  0.00000000000E+00  0.00000000000E+00 -0.10838008176E+03  0.48047527031E+03  0.46809213117E+03 0.  0.
        4    1    3    3  502    0  0.23322998562E+02 -0.78842288475E+02 -0.27911214727E+03  0.29097297532E+03  0.12699999809E+01 0. -1.
       -4    1    3    3    0  502 -0.23322998562E+02  0.78842288475E+02  0.17073206551E+03  0.18950229499E+03  0.12699999809E+01 0.  1.
</event>
<event>
 5   0  0.9177281E-02  0.4443894E+03  0.7818609E-02  0.1029409E+00
        1   -1    0    0  501    0  0.00000000000E+00  0.00000000000E+00  0.15826332319E+03  0.15826332327E+03  0.50400001928E-02 0.  1.
       -1   -1    0    0    0  501  0.00000000000E+00  0.00000000000E+00 -0.31195146368E+03  0.31195146372E+03  0.50400001928E-02 0. -1.
    10030    2    1    2    0    0  0.00000000000E+00  0.00000000000E+00 -0.15368814049E+03  0.47021478699E+03  0.44438935785E+03 0.  0.
        1    1    3    3  502    0  0.20012151162E+03  0.95905153492E+02 -0.65058678049E+02  0.23125537722E+03  0.50400001928E-02 0. -1.
       -1    1    3    3    0  502 -0.20012151162E+03 -0.95905153492E+02 -0.88629462442E+02  0.23895940977E+03  0.50400001928E-02 0.  1.
</event>
<event>
 5   0  0.9177281E-02  0.6194543E+03  0.7818609E-02  0.9865847E-01
        1   -1    0    0  501    0  0.00000000000E+00  0.00000000000E+00  0.60618211226E+03  0.60618211228E+03  0.50400001928E-02 0. -1.
       -1   -1    0    0    0  501  0.00000000000E+00  0.00000000000E+00 -0.15825429200E+03  0.15825429208E+03  0.50400001928E-02 0.  1.
    10030    2    1    2    0    0  0.00000000000E+00  0.00000000000E+00  0.44792782026E+03  0.76443640436E+03  0.61945434388E+03 0.  0.
        1    1    3    3  502    0 -0.35387937435E+02  0.26965172812E+02  0.60221823679E+03  0.60385944674E+03  0.50400001928E-02 0. -1.
       -1    1    3    3    0  502  0.35387937435E+02 -0.26965172812E+02 -0.15429041654E+03  0.16057695763E+03  0.50400001928E-02 0.  1.
</event>
<event>
 5   0  0.9177281E-02  0.6106563E+03  0.7818609E-02  0.9883541E-01
       -1   -1    0    0    0  501  0.00000000000E+00  0.00000000000E+00  0.16642686869E+03  0.16642686877E+03  0.50400001928E-02 0.  1.
        1   -1    0    0  501    0  0.00000000000E+00  0.00000000000E+00 -0.56015768118E+03  0.56015768120E+03  0.50400001928E-02 0. -1.
    10030    2    1    2    0    0  0.00000000000E+00  0.00000000000E+00 -0.39373081249E+03  0.72658454997E+03  0.61065633178E+03 0.  0.
        1    1    3    3  502    0 -0.24350149584E+03  0.73757632857E+02 -0.39770609023E+03  0.47212636138E+03  0.50400001928E-02 0. -1.
       -1    1    3    3    0  502  0.24350149584E+03 -0.73757632857E+02  0.39752777392E+01  0.25445818859E+03  0.50400001928E-02 0.  1.
</event>
<event>
 5   0  0.6170500E-02  0.5607035E+03  0.7818609E-02  0.9990464E-01
       -3   -1    0    0    0  501  0.00000000000E+00  0.00000000000E+00  0.62469682843E+03  0.62469683659E+03  0.10100000352E+00 0. -1.
        3   -1    0    0  501    0  0.00000000000E+00  0.00000000000E+00 -0.12581634572E+03  0.12581638626E+03  0.10100000352E+00 0.  1.
    10030    2    1    2    0    0  0.00000000000E+00  0.00000000000E+00  0.49888048270E+03  0.75051322285E+03  0.56070345251E+03 0.  0.
        1    1    3    3  502    0 -0.11646255516E+03  0.21445179922E+03  0.43415605786E+03  0.49804074487E+03  0.50400001928E-02 0. -1.
       -1    1    3    3    0  502  0.11646255516E+03 -0.21445179922E+03  0.64724424844E+02  0.25247247799E+03  0.50400001928E-02 0.  1.
</event>
<event>
 5   0  0.9420349E-02  0.5731508E+03  0.7818609E-02  0.9962731E-01
        1   -1    0    0  501    0  0.00000000000E+00  0.00000000000E+00  0.47547195000E+03  0.47547195003E+03  0.50400001928E-02 0. -1.
       -1   -1    0    0    0  501  0.00000000000E+00  0.00000000000E+00 -0.17272408170E+03  0.17272408178E+03  0.50400001928E-02 0.  1.
    10030    2    1    2    0    0  0.00000000000E+00  0.00000000000E+00  0.30274786830E+03  0.64819603181E+03  0.57315078635E+03 0.  0.
        2    1    3    3  502    0 -0.24075165170E+03 -0.13957680678E+03  0.73986162396E+02  0.28795311254E+03  0.25500000920E-02 0. -1.
       -2    1    3    3    0  502  0.24075165170E+03  0.13957680678E+03  0.22876170590E+03  0.36024291927E+03  0.25500000920E-02 0.  1.
</event>
<event>
 5   0  0.9411028E-02  0.6068258E+03  0.7818609E-02  0.9891345E-01
       -1   -1    0    0    0  501  0.00000000000E+00  0.00000000000E+00  0.42135461431E+03  0.42135461434E+03  0.50400001928E-02 0.  1.
        1   -1    0    0  501    0  0.00000000000E+00  0.00000000000E+00 -0.21848433864E+03  0.21848433870E+03  0.50400001928E-02 0. -1.
    10030    2    1    2    0    0  0.00000000000E+00  0.00000000000E+00  0.20287027567E+03  0.63983895304E+03  0.60682578808E+03 0.  0.
        4    1    3    3  502    0  0.26775613761E+03  0.15409083556E+02 -0.48152594915E+02  0.27249050328E+03  0.12699999809E+01 0. -1.
       -4    1    3    3    0  502 -0.26775613761E+03 -0.15409083556E+02  0.25102287058E+03  0.36734844976E+03  0.12699999809E+01 0.  1.
</event>
<event>
 5   0  0.1502642E-01  0.5948530E+03  0.7818609E-02  0.9916142E-01
        2   -1    0    0  501    0  0.00000000000E+00  0.00000000000E+00  0.39893380441E+03  0.39893380441E+03  0.25500000920E-02 0. -1.
       -2   -1    0    0    0  501  0.00000000000E+00  0.00000000000E+00 -0.22174739588E+03  0.22174739590E+03  0.25500000920E-02 0.  1.
    10030    2    1    2    0    0  0.00000000000E+00  0.00000000000E+00  0.17718640853E+03  0.62068120031E+03  0.59485303147E+03 0.  0.
        2    1    3    3  502    0 -0.14073711130E+01  0.77650193955E+02 -0.21098084769E+03  0.22482093188E+03  0.25500000920E-02 0.  1.
       -2    1    3    3    0  502  0.14073711130E+01 -0.77650193955E+02  0.38816725622E+03  0.39586026843E+03  0.25500000920E-02 0. -1.
</event>
<event>
 5   0  0.6170500E-02  0.5934934E+03  0.7818609E-02  0.9918998E-01
       -4   -1    0    0    0  501  0.00000000000E+00  0.00000000000E+00  0.82133228989E+02  0.82143047205E+02  0.12699999809E+01 0. -1.
        4   -1    0    0  501    0  0.00000000000E+00  0.00000000000E+00 -0.10720692916E+04  0.10720700438E+04  0.12699999809E+01 0.  1.
    10030    2    1    2    0    0  0.00000000000E+00  0.00000000000E+00 -0.98993606258E+03  0.11542130910E+04  0.59349343001E+03 0.  0.
        1    1    3    3  502    0  0.11581930026E+03 -0.42635279394E+01 -0.10262390278E+04  0.10327627172E+04  0.50400001928E-02 0.  1.
       -1    1    3    3    0  502 -0.11581930026E+03  0.42635279394E+01  0.36302965181E+02  0.12145037378E+03  0.50400001928E-02 0. -1.
</event>
<event>
 5   0  0.8860626E-02  0.5915764E+03  0.7818609E-02  0.9923038E-01
        1   -1    0    0  501    0  0.00000000000E+00  0.00000000000E+00  0.11778758855E+04  0.11778758855E+04  0.50400001928E-02 0. -1.
       -1   -1    0    0    0  501  0.00000000000E+00  0.00000000000E+00 -0.74278322100E+02  0.74278322271E+02  0.50400001928E-02 0.  1.
    10030    2    1    2    0    0  0.00000000000E+00  0.00000000000E+00  0.11035975634E+04  0.12521542078E+04  0.59157635020E+03 0.  0.
        3    1    3    3  502    0 -0.82054894846E+02  0.15063688935E+03  0.41753713732E+02  0.17654421830E+03  0.10100000352E+00 0.  1.
       -3    1    3    3    0  502  0.82054894846E+02 -0.15063688935E+03  0.10618438496E+04  0.10756099895E+04  0.10100000352E+00 0. -1.
</event>
<event>
 5   0  0.1532571E-01  0.5926066E+03  0.7818609E-02  0.9920865E-01
       -2   -1    0    0    0  501  0.00000000000E+00  0.00000000000E+00  0.30356569217E+03  0.30356569218E+03  0.25500000920E-02 0. -1.
        2   -1    0    0  501    0  0.00000000000E+00  0.00000000000E+00 -0.28921464805E+03  0.28921464806E+03  0.25500000920E-02 0.  1.
    10030    2    1    2    0    0  0.00000000000E+00  0.00000000000E+00  0.14351044118E+02  0.59278034024E+03  0.59260659742E+03 0.  0.
        1    1    3    3  502    0 -0.93394581774E+01  0.26739467353E+03  0.13452548647E+03  0.29947327668E+03  0.50400001928E-02 0. -1.
       -1    1    3    3    0  502  0.93394581774E+01 -0.26739467353E+03 -0.12017444236E+03  0.29330706356E+03  0.50400001928E-02 0.  1.
</event>
<event>
 5   0  0.1532571E-01  0.6039181E+03  0.7818609E-02  0.9897310E-01
        2   -1    0    0  501    0  0.00000000000E+00  0.00000000000E+00  0.15365515740E+04  0.15365515740E+04  0.25500000920E-02 0.  1.
       -2   -1    0    0    0  501  0.00000000000E+00  0.00000000000E+00 -0.59340197227E+02  0.59340197281E+02  0.25500000920E-02 0. -1.
    10030    2    1    2    0    0  0.00000000000E+00  0.00000000000E+00  0.14772113767E+04  0.15958917712E+04  0.60391811860E+03 0.  0.
        1    1    3    3  502    0  0.67328499082E+01 -0.94900417211E+02 -0.18698939590E+02  0.96959119333E+02  0.50400001928E-02 0. -1.
       -1    1    3    3    0  502 -0.67328499082E+01  0.94900417211E+02  0.14959103163E+04  0.14989326519E+04  0.50400001928E-02 0.  1.
</event>
<event>
 5   0  0.1502642E-01  0.6501995E+03  0.7818609E-02  0.9806405E-01
       -2   -1    0    0    0  501  0.00000000000E+00  0.00000000000E+00  0.91849278939E+02  0.91849278974E+02  0.25500000920E-02 0.  1.
        2   -1    0    0  501    0  0.00000000000E+00  0.00000000000E+00 -0.11506879083E+04  0.11506879083E+04  0.25500000920E-02 0. -1.
    10030    2    1    2    0    0  0.00000000000E+00  0.00000000000E+00 -0.10588386293E+04  0.12425371873E+04  0.65019952225E+03 0.  0.
        2    1    3    3  502    0 -0.12434762481E+03 -0.16010464875E+03 -0.10151090451E+04  0.10351532272E+04  0.25500000920E-02 0. -1.
       -2    1    3    3    0  502  0.12434762481E+03  0.16010464875E+03 -0.43729584259E+02  0.20738396007E+03  0.25500000920E-02 0.  1.
</event>
<event>
 5   0  0.1488510E-01  0.6375278E+03  0.7818609E-02  0.9830468E-01
        2   -1    0    0  501    0  0.00000000000E+00  0.00000000000E+00  0.11137508191E+04  0.11137508191E+04  0.25500000920E-02 0.  1.
       -2   -1    0    0    0  501  0.00000000000E+00  0.00000000000E+00 -0.91232633458E+02  0.91232633494E+02  0.25500000920E-02 0. -1.
    10030    2    1    2    0    0  0.00000000000E+00  0.00000000000E+00  0.10225181856E+04  0.12049834526E+04  0.63752778846E+03 0.  0.
        5    1    3    3  502    0 -0.42000091324E+02  0.64393610639E+02 -0.73379554665E+02  0.10638230024E+03  0.46999998093E+01 0. -1.
       -5    1    3    3    0  502  0.42000091324E+02 -0.64393610639E+02  0.10958977403E+04  0.10986011523E+04  0.46999998093E+01 0.  1.
</event>
<event>
 5   0  0.9420349E-02  0.5954412E+03  0.7818609E-02  0.9914910E-01
        1   -1    0    0  501    0  0.00000000000E+00  0.00000000000E+00  0.57067799333E+03  0.57067799335E+03  0.50400001928E-02 0.  1.
       -1   -1    0    0    0  501  0.00000000000E+00  0.00000000000E+00 -0.15531972497E+03  0.15531972505E+03  0.50400001928E-02 0. -1.
    10030    2    1    2    0    0  0.00000000000E+00  0.00000000000E+00  0.41535826836E+03  0.72599771840E+03  0.59544117764E+03 0.  0.
        2    1    3    3  502    0 -0.25668533900E+03  0.60329803560E+02  0.39127711680E+02  0.26656711403E+03  0.25500000920E-02 0. -1.
       -2    1    3    3    0  502  0.25668533900E+03 -0.60329803560E+02  0.37623055668E+03  0.45943060438E+03  0.25500000920E-02 0.  1.
</event>
<event>
 5   0  0.1532571E-01  0.6054747E+03  0.7818609E-02  0.9894112E-01
        2   -1    0    0  501    0  0.00000000000E+00  0.00000000000E+00  0.20485581896E+04  0.20485581896E+04  0.25500000920E-02 0. -1.
       -2   -1    0    0    0  501  0.00000000000E+00  0.00000000000E+00 -0.44738739994E+02  0.44738740066E+02  0.25500000920E-02 0.  1.
    10030    2    1    2    0    0  0.00000000000E+00  0.00000000000E+00  0.20038194496E+04  0.20932969297E+04  0.60547473039E+03 0.  0.
        1    1    3    3  502    0  0.17088577320E+03 -0.28782367717E+02  0.14369879699E+03  0.22512155929E+03  0.50400001928E-02 0.  1.
       -1    1    3    3    0  502 -0.17088577320E+03  0.28782367717E+02  0.18601206526E+04  0.18681753704E+04  0.50400001928E-02 0. -1.
</event>
<event>
 5   0  0.9411028E-02  0.6908083E+03  0.7818609E-02  0.9733082E-01
        1   -1    0    0  501    0  0.00000000000E+00  0.00000000000E+00  0.38768307128E+03  0.38768307132E+03  0.50400001928E-02 0. -1.
       -1   -1    0    0    0  501  0.00000000000E+00  0.00000000000E+00 -0.30773592984E+03  0.30773592988E+03  0.50400001928E-02 0.  1.
    10030    2    1    2    0    0  0.00000000000E+00  0.00000000000E+00  0.79947141449E+02  0.69541900119E+03  0.69080825255E+03 0.  0.
        4    1    3    3  502    0 -0.15992518961E+03 -0.64939814658E+02  0.34115123198E+03  0.38233365243E+03  0.12699999809E+01 0. -1.
       -4    1    3    3    0  502  0.15992518961E+03  0.64939814658E+02 -0.26120409053E+03  0.31308534876E+03  0.12699999809E+01 0.  1.
</event>
<event>
 5   0  0.6170500E-02  0.6473801E+03  0.7818609E-02  0.9811708E-01
        4   -1    0    0  501    0  0.00000000000E+00  0.00000000000E+00  0.26766013313E+03  0.26766314608E+03  0.12699999809E+01 0. -1.
       -4   -1    0    0    0  501  0.00000000000E+00  0.00000000000E+00 -0.39144259113E+03  0.39144465133E+03  0.12699999809E+01 0.  1.
    10030    2    1    2    0    0  0.00000000000E+00  0.00000000000E+00 -0.12378245800E+03  0.65910779740E+03  0.64738009831E+03 0.  0.
        2    1    3    3  502    0  0.29707497137E+03 -0.10484014566E+03  0.13821624023E+02  0.31533479359E+03  0.25500000920E-02 0. -1.
       -2    1    3    3    0  502 -0.29707497137E+03  0.10484014566E+03 -0.13760408203E+03  0.34377300381E+03  0.25500000920E-02 0.  1.
</event>
<event>
 5   0  0.6170500E-02  0.6063801E+03  0.7818609E-02  0.9892257E-01
        3   -1    0    0  501    0  0.00000000000E+00  0.00000000000E+00  0.53248087293E+03  0.53248088251E+03  0.10100000352E+00 0. -1.
       -3   -1    0    0    0  501  0.00000000000E+00  0.00000000000E+00 -0.17263378930E+03  0.17263381885E+03  0.10100000352E+00 0.  1.
    10030    2    1    2    0    0  0.00000000000E+00  0.00000000000E+00  0.35984708363E+03  0.70511470136E+03  0.60638009406E+03 0.  0.
        3    1    3    3  502    0  0.26115412920E+02 -0.30014320362E+03  0.14038339703E+03  0.33237849785E+03  0.10100000352E+00 0. -1.
       -3    1    3    3    0  502 -0.26115412920E+02  0.30014320362E+03  0.21946368660E+03  0.37273620351E+03  0.10100000352E+00 0.  1.
</event>
<event>
 5   0  0.9177281E-02  0.6030270E+03  0.7818609E-02  0.9899146E-01
        1   -1    0    0  501    0  0.00000000000E+00  0.00000000000E+00  0.90816397016E+03  0.90816397017E+03  0.50400001928E-02 0. -1.
       -1   -1    0    0    0  501  0.00000000000E+00  0.00000000000E+00 -0.10010350691E+03  0.10010350703E+03  0.50400001928E-02 0.  1.
    10030    2    1    2    0    0  0.00000000000E+00  0.00000000000E+00  0.80806046325E+03  0.10082674772E+04  0.60302702536E+03 0.  0.
        1    1    3    3  502    0  0.98131017536E+02 -0.32456449919E+02 -0.69557036586E+02  0.12458450589E+03  0.50400001928E-02 0.  1.
       -1    1    3    3    0  502 -0.98131017536E+02  0.32456449919E+02  0.87761749983E+03  0.88368297131E+03  0.50400001928E-02 0. -1.
</event>
<event>
 5   0  0.9497860E-02  0.6157564E+03  0.7818609E-02  0.9873245E-01
       -1   -1    0    0    0  501  0.00000000000E+00  0.00000000000E+00  0.19158013072E+03  0.19158013078E+03  0.50400001928E-02 0. -1.
        1   -1    0    0  501    0  0.00000000000E+00  0.00000000000E+00 -0.49477467512E+03  0.49477467514E+03  0.50400001928E-02 0.  1.
    10030    2    1    2    0    0  0.00000000000E+00  0.00000000000E+00 -0.30319454440E+03  0.68635480593E+03  0.61575643550E+03 0.  0.
        5    1    3    3  502    0 -0.20579561549E+03 -0.13743876234E+03  0.52495853090E+02  0.25302006509E+03  0.46999998093E+01 0. -1.
       -5    1    3    3    0  502  0.20579561549E+03  0.13743876234E+03 -0.35569039749E+03  0.43333474083E+03  0.46999998093E+01 0.  1.
</event>
<event>
 5   0  0.6170500E-02  0.6071616E+03  0.7818609E-02  0.9890658E-01
       -4   -1    0    0    0  501  0.00000000000E+00  0.00000000000E+00  0.25543703465E+03  0.25544019177E+03  0.12699999809E+01 0.  1.
        4   -1    0    0  501    0  0.00000000000E+00  0.00000000000E+00 -0.36079199403E+03  0.36079422925E+03  0.12699999809E+01 0. -1.
    10030    2    1    2    0    0  0.00000000000E+00  0.00000000000E+00 -0.10535495938E+03  0.61623442102E+03  0.60716158820E+03 0.  0.
        4    1    3    3  502    0  0.11671324986E+03  0.26937854081E+03  0.25761955456E+02  0.29470675627E+03  0.12699999809E+01 0.  1.
       -4    1    3    3    0  502 -0.11671324986E+03 -0.26937854081E+03 -0.13111691483E+03  0.32152766475E+03  0.12699999809E+01 0. -1.
</event>
<event>
 5   0  0.1532571E-01  0.6022343E+03  0.7818609E-02  0.9900781E-01
        2   -1    0    0  501    0  0.00000000000E+00  0.00000000000E+00  0.41626031484E+03  0.41626031485E+03  0.25500000920E-02 0. -1.
       -2   -1    0    0    0  501  0.00000000000E+00  0.00000000000E+00 -0.21782409583E+03  0.21782409585E+03  0.25500000920E-02 0.  1.
    10030    2    1    2    0    0  0.00000000000E+00  0.00000000000E+00  0.19843621901E+03  0.63408441070E+03  0.60223426246E+03 0.  0.
        1    1    3    3  502    0  0.25449438959E+03 -0.19109416930E+02  0.26747902272E+03  0.36969932617E+03  0.50400001928E-02 0. -1.
       -1    1    3    3    0  502 -0.25449438959E+03  0.19109416930E+02 -0.69042803713E+02  0.26438508453E+03  0.50400001928E-02 0.  1.
</event>
<event>
 5   0  0.1513339E-01  0.6221384E+03  0.7818609E-02  0.9860511E-01
        2   -1    0    0  501    0  0.00000000000E+00  0.00000000000E+00  0.10549868770E+04  0.10549868770E+04  0.25500000920E-02 0.  1.
       -2   -1    0    0    0  501  0.00000000000E+00  0.00000000000E+00 -0.91720608361E+02  0.91720608396E+02  0.25500000920E-02 0. -1.
    10030    2    1    2    0    0  0.00000000000E+00  0.00000000000E+00  0.96326626861E+03  0.11467074854E+04  0.62213837107E+03 0.  0.
        3    1    3    3  502    0  0.24229711848E+03 -0.14191508482E+03  0.23492178269E+03  0.36610932671E+03  0.10100000352E+00 0. -1.
       -3    1    3    3    0  502 -0.24229711848E+03  0.14191508482E+03  0.72834448593E+03  0.78059815866E+03  0.10100000352E+00 0.  1.
</event>
<event>
 5   0  0.9177281E-02  0.5748612E+03  0.7818609E-02  0.9958979E-01
       -1   -1    0    0    0  501  0.00000000000E+00  0.00000000000E+00  0.76846172390E+02  0.76846172555E+02  0.50400001928E-02 0.  1.
        1   -1    0    0  501    0  0.00000000000E+00  0.00000000000E+00 -0.10750871972E+04  0.10750871972E+04  0.50400001928E-02 0. -1.
    10030    2    1    2    0    0  0.00000000000E+00  0.00000000000E+00 -0.99824102476E+03  0.11519333697E+04  0.57486115259E+03 0.  0.
        1    1    3    3  502    0  0.23775321772E+03  0.70488075464E+02 -0.79034201198E+03  0.82833305936E+03  0.50400001928E-02 0.  1.
       -1    1    3    3    0  502 -0.23775321772E+03 -0.70488075464E+02 -0.20789901279E+03  0.32360031035E+03  0.50400001928E-02 0. -1.
</event>
<event>
 5   0  0.9420349E-02  0.5917062E+03  0.7818609E-02  0.9922764E-01
       -1   -1    0    0    0  501  0.00000000000E+00  0.00000000000E+00  0.12151102105E+03  0.12151102115E+03  0.50400001928E-02 0.  1.
        1   -1    0    0  501    0  0.00000000000E+00  0.00000000000E+00 -0.72033834101E+03  0.72033834103E+03  0.50400001928E-02 0. -1.
    10030    2    1    2    0    0  0.00000000000E+00  0.00000000000E+00 -0.59882731996E+03  0.84184936219E+03  0.59170616819E+03 0.  0.
        2    1    3    3  502    0  0.75670286828E+02 -0.94498620508E+02 -0.68348492069E+03  0.69412363337E+03  0.25500000920E-02 0. -1.
       -2    1    3    3    0  502 -0.75670286828E+02  0.94498620508E+02  0.84657600727E+02  0.14772572881E+03  0.25500000920E-02 0.  1.
</event>
<event>
 5   0  0.9497860E-02  0.5911433E+03  0.7818609E-02  0.9923953E-01
        1   -1    0    0  501    0  0.00000000000E+00  0.00000000000E+00  0.34014062089E+03  0.34014062093E+03  0.50400001928E-02 0.  1.
       -1   -1    0    0    0  501  0.00000000000E+00  0.00000000000E+00 -0.25684256349E+03  0.25684256354E+03  0.50400001928E-02 0. -1.
    10030    2    1    2    0    0  0.00000000000E+00  0.00000000000E+00  0.83298057401E+02  0.59698318447E+03  0.59114326197E+03 0.  0.
        5    1    3    3  502    0  0.14093295880E+03  0.12356010992E+03  0.27240428661E+03  0.33068925746E+03  0.46999998093E+01 0.  1.
       -5    1    3    3    0  502 -0.14093295880E+03 -0.12356010992E+03 -0.18910622921E+03  0.26629392701E+03  0.46999998093E+01 0. -1.
</event>
<event>
 5   0  0.9411028E-02  0.5221743E+03  0.7818609E-02  0.1008148E+00
        1   -1    0    0  501    0  0.00000000000E+00  0.00000000000E+00  0.93700933090E+03  0.93700933091E+03  0.50400001928E-02 0. -1.
       -1   -1    0    0    0  501  0.00000000000E+00  0.00000000000E+00 -0.72749008681E+02  0.72749008855E+02  0.50400001928E-02 0.  1.
    10030    2    1    2    0    0  0.00000000000E+00  0.00000000000E+00  0.86426032222E+03  0.10097583398E+04  0.52217430056E+03 0.  0.
        4    1    3    3  502    0 -0.34999276460E+02 -0.21060941054E+03  0.72273221270E+03  0.75360781401E+03  0.12699999809E+01 0. -1.
       -4    1    3    3    0  502  0.34999276460E+02  0.21060941054E+03  0.14152810952E+03  0.25615052576E+03  0.12699999809E+01 0.  1.
</event>
<event>
 5   0  0.9420349E-02  0.3268567E+03  0.7818609E-02  0.1072536E+00
       -1   -1    0    0    0  501  0.00000000000E+00  0.00000000000E+00  0.29987605267E+02  0.29987605690E+02  0.50400001928E-02 0.  1.
        1   -1    0    0  501    0  0.00000000000E+00  0.00000000000E+00 -0.89066206595E+03  0.89066206597E+03  0.50400001928E-02 0. -1.
    10030    2    1    2    0    0  0.00000000000E+00  0.00000000000E+00 -0.86067446069E+03  0.92064967166E+03  0.32685668212E+03 0.  0.
        2    1    3    3  502    0  0.10379846068E+03 -0.20038361141E+02 -0.78138565672E+03  0.78850440766E+03  0.25500000920E-02 0. -1.
       -2    1    3    3    0  502 -0.10379846068E+03  0.20038361141E+02 -0.79288803963E+02  0.13214526400E+03  0.25500000920E-02 0.  1.
</event>
<event>
 5   0  0.8860626E-02  0.6129917E+03  0.7818609E-02  0.9878813E-01
       -1   -1    0    0    0  501  0.00000000000E+00  0.00000000000E+00  0.13670945002E+03  0.13670945011E+03  0.50400001928E-02 0. -1.
        1   -1    0    0  501    0  0.00000000000E+00  0.00000000000E+00 -0.68714848361E+03  0.68714848363E+03  0.50400001928E-02 0.  1.
    10030    2    1    2    0    0  0.00000000000E+00  0.00000000000E+00 -0.55043903359E+03  0.82385793374E+03  0.61299165189E+03 0.  0.
        3    1    3    3  502    0  0.35896141793E+02  0.48879203909E+02 -0.67900451160E+03  0.68170730269E+03  0.10100000352E+00 0.  1.
       -3    1    3    3    0  502 -0.35896141793E+02 -0.48879203909E+02  0.12856547801E+03  0.14215063105E+03  0.10100000352E+00 0. -1.
</event>
<event>
 5   0  0.1532571E-01  0.6019967E+03  0.7818609E-02  0.9901272E-01
        2   -1    0    0  501    0  0.00000000000E+00  0.00000000000E+00  0.42647063874E+03  0.42647063875E+03  0.25500000920E-02 0.  1.
       -2   -1    0    0    0  501  0.00000000000E+00  0.00000000000E+00 -0.21244138139E+03  0.21244138140E+03  0.25500000920E-02 0. -1.
    10030    2    1    2    0    0  0.00000000000E+00  0.00000000000E+00  0.21402925735E+03  0.63891202015E+03  0.60199671634E+03 0.  0.
        1    1    3    3  502    0 -0.69458623350E+02  0.89337996007E+02  0.40303434633E+03  0.41861971076E+03  0.50400001928E-02 0.  1.
       -1    1    3    3    0  502  0.69458623350E+02 -0.89337996007E+02 -0.18900508898E+03  0.22029230938E+03  0.50400001928E-02 0. -1.
</event>
<event>
 5   0  0.9497860E-02  0.6123727E+03  0.7818609E-02  0.9880064E-01
       -1   -1    0    0    0  501  0.00000000000E+00  0.00000000000E+00  0.99885278955E+02  0.99885279082E+02  0.50400001928E-02 0. -1.
        1   -1    0    0  501    0  0.00000000000E+00  0.00000000000E+00 -0.93857760438E+03  0.93857760439E+03  0.50400001928E-02 0.  1.
    10030    2    1    2    0    0  0.00000000000E+00  0.00000000000E+00 -0.83869232542E+03  0.10384628835E+04  0.61237271627E+03 0.  0.
        5    1    3    3  502    0 -0.28113299141E+03 -0.97324757692E+02 -0.54186863355E+03  0.61818409341E+03  0.46999998093E+01 0.  1.
       -5    1    3    3    0  502  0.28113299141E+03  0.97324757692E+02 -0.29682369187E+03  0.42027879006E+03  0.46999998093E+01 0. -1.
</event>
<event>
 5   0  0.1502642E-01  0.6187868E+03  0.7818609E-02  0.9867178E-01
        2   -1    0    0  501    0  0.00000000000E+00  0.00000000000E+00  0.85095230754E+03  0.85095230755E+03  0.25500000920E-02 0. -1.
       -2   -1    0    0    0  501  0.00000000000E+00  0.00000000000E+00 -0.11249075369E+03  0.11249075372E+03  0.25500000920E-02 0.  1.
    10030    2    1    2    0    0  0.00000000000E+00  0.00000000000E+00  0.73846155385E+03  0.96344306126E+03  0.61878676923E+03 0.  0.
        2    1    3    3  502    0 -0.32620812869E+02  0.17854395182E+03 -0.20893809152E+02  0.18269814294E+03  0.25500000920E-02 0.  1.
       -2    1    3    3    0  502  0.32620812869E+02 -0.17854395182E+03  0.75935536300E+03  0.78074491833E+03  0.25500000920E-02 0. -1.
</event>
<event>
 5   0  0.9420349E-02  0.5928159E+03  0.7818609E-02  0.9920424E-01
       -1   -1    0    0    0  501  0.00000000000E+00  0.00000000000E+00  0.20843511511E+03  0.20843511517E+03  0.50400001928E-02 0.  1.
        1   -1    0    0  501    0  0.00000000000E+00  0.00000000000E+00 -0.42151083618E+03  0.42151083621E+03  0.50400001928E-02 0. -1.
    10030    2    1    2    0    0  0.00000000000E+00  0.00000000000E+00 -0.21307572107E+03  0.62994595138E+03  0.59281585569E+03 0.  0.
        2    1    3    3  502    0 -0.11549068591E+03 -0.78181590640E+02  0.17139147270E+03  0.22096492158E+03  0.25500000920E-02 0.  1.
       -2    1    3    3    0  502  0.11549068591E+03  0.78181590640E+02 -0.38446719377E+03  0.40898102981E+03  0.25500000920E-02 0. -1.
</event>
<event>
 5   0  0.1513339E-01  0.6184626E+03  0.7818609E-02  0.9867825E-01
        2   -1    0    0  501    0  0.00000000000E+00  0.00000000000E+00  0.21873951775E+04  0.21873951775E+04  0.25500000920E-02 0. -1.
       -2   -1    0    0    0  501  0.00000000000E+00  0.00000000000E+00 -0.43715928346E+02  0.43715928421E+02  0.25500000920E-02 0.  1.
    10030    2    1    2    0    0  0.00000000000E+00  0.00000000000E+00  0.21436792491E+04  0.22311111059E+04  0.61846264536E+03 0.  0.
        3    1    3    3  502    0  0.11218073545E+03  0.19321396272E+03  0.30057553443E+03  0.37451544013E+03  0.10100000352E+00 0.  1.
       -3    1    3    3    0  502 -0.11218073545E+03 -0.19321396272E+03  0.18431037147E+04  0.18565956657E+04  0.10100000352E+00 0. -1.
</event>
<event>
 5   0  0.9411028E-02  0.6062506E+03  0.7818609E-02  0.9892522E-01
        1   -1    0    0  501    0  0.00000000000E+00  0.00000000000E+00  0.87133975311E+03  0.87133975313E+03  0.50400001928E-02 0. -1.
       -1   -1    0    0    0  501  0.00000000000E+00  0.00000000000E+00 -0.10545249683E+03  0.10545249695E+03  0.50400001928E-02 0.  1.
    10030    2    1    2    0    0  0.00000000000E+00  0.00000000000E+00  0.76588725629E+03  0.97679225008E+03  0.60625061688E+03 0.  0.
        4    1    3    3  502    0  0.61775120631E+02  0.17272925635E+03 -0.58597572476E+01  0.18354157890E+03  0.12699999809E+01 0.  1.
       -4    1    3    3    0  502 -0.61775120631E+02 -0.17272925635E+03  0.77174701353E+03  0.79325067118E+03  0.12699999809E+01 0. -1.
</event>
<event>
 5   0  0.1513339E-01  0.5947825E+03  0.7818609E-02  0.9916290E-01
        2   -1    0    0  501    0  0.00000000000E+00  0.00000000000E+00  0.15458217793E+03  0.15458217795E+03  0.25500000920E-02 0.  1.
       -2   -1    0    0    0  501  0.00000000000E+00  0.00000000000E+00 -0.57213297090E+03  0.57213297091E+03  0.25500000920E-02 0. -1.
    10030    2    1    2    0    0  0.00000000000E+00  0.00000000000E+00 -0.41755079298E+03  0.72671514886E+03  0.59478251728E+03 0.  0.
        3    1    3    3  502    0  0.19101579526E+03  0.96962745130E+02 -0.46081558553E+03  0.50817302373E+03  0.10100000352E+00 0. -1.
       -3    1    3    3    0  502 -0.19101579526E+03 -0.96962745130E+02  0.43264792546E+02  0.21854212513E+03  0.10100000352E+00 0.  1.
</event>
<event>
 5   0  0.8860626E-02  0.6353398E+03  0.7818609E-02  0.9834684E-01
        1   -1    0    0  501    0  0.00000000000E+00  0.00000000000E+00  0.20691088158E+03  0.20691088164E+03  0.50400001928E-02 0. -1.
       -1   -1    0    0    0  501  0.00000000000E+00  0.00000000000E+00 -0.48771801133E+03  0.48771801136E+03  0.50400001928E-02 0.  1.
    10030    2    1    2    0    0  0.00000000000E+00  0.00000000000E+00 -0.28080712976E+03  0.69462889300E+03  0.63533979481E+03 0.  0.
        3    1    3    3  502    0  0.27240414010E+03  0.39105010421E+01 -0.31903607250E+03  0.41952751200E+03  0.10100000352E+00 0.  1.
       -3    1    3    3    0  502 -0.27240414010E+03 -0.39105010421E+01  0.38228942747E+02  0.27510138100E+03  0.10100000352E+00 0. -1.
</event>
<event>
 5   0  0.9497860E-02  0.5907738E+03  0.7818609E-02  0.9924734E-01
       -1   -1    0    0    0  501  0.00000000000E+00  0.00000000000E+00  0.10648460515E+03  0.10648460527E+03  0.50400001928E-02 0. -1.
        1   -1    0    0  501    0  0.00000000000E+00  0.00000000000E+00 -0.81939951683E+03  0.81939951684E+03  0.50400001928E-02 0.  1.
    10030    2    1    2    0    0  0.00000000000E+00  0.00000000000E+00 -0.71291491168E+03  0.92588412212E+03  0.59077384530E+03 0.  0.
        5    1    3    3  502    0 -0.13294887339E+03 -0.25403706482E+03 -0.24540318102E+03  0.37743217204E+03  0.46999998093E+01 0. -1.
       -5    1    3    3    0  502  0.13294887339E+03  0.25403706482E+03 -0.46751173066E+03  0.54845195007E+03  0.46999998093E+01 0.  1.
</event>
<event>
 5   0  0.9177281E-02  0.5960076E+03  0.7818609E-02  0.9913724E-01
        1   -1    0    0  501    0  0.00000000000E+00  0.00000000000E+00  0.22435203457E+03  0.22435203463E+03  0.50400001928E-02 0. -1.
       -1   -1    0    0    0  501  0.00000000000E+00  0.00000000000E+00 -0.39583450239E+03  0.39583450242E+03  0.50400001928E-02 0.  1.
    10030    2    1    2    0    0  0.00000000000E+00  0.00000000000E+00 -0.17148246782E+03  0.62018653705E+03  0.59600763750E+03 0.  0.
        1    1    3    3  502    0 -0.78072856765E+02 -0.28252069600E+03 -0.29772971508E+02  0.29461796362E+03  0.50400001928E-02 0. -1.
       -1    1    3    3    0  502  0.78072856765E+02  0.28252069600E+03 -0.14170949631E+03  0.32556857342E+03  0.50400001928E-02 0.  1.
</event>
<event>
 5   0  0.1488510E-01  0.5540571E+03  0.7818609E-02  0.1000559E+00
        2   -1    0    0  501    0  0.00000000000E+00  0.00000000000E+00  0.39447865770E+03  0.39447865771E+03  0.25500000920E-02 0.  1.
       -2   -1    0    0    0  501  0.00000000000E+00  0.00000000000E+00 -0.19454745982E+03  0.19454745984E+03  0.25500000920E-02 0. -1.
    10030    2    1    2    0    0  0.00000000000E+00  0.00000000000E+00  0.19993119787E+03  0.58902611754E+03  0.55405711192E+03 0.  0.
        5    1    3    3  502    0 -0.90950119258E+02 -0.23823220908E+03 -0.15009238523E+02  0.25548752783E+03  0.46999998093E+01 0. -1.
       -5    1    3    3    0  502  0.90950119258E+02  0.23823220908E+03  0.21494043640E+03  0.33353858972E+03  0.46999998093E+01 0.  1.
</event>
<event>
 5   0  0.1532571E-01  0.5957541E+03  0.7818609E-02  0.9914254E-01
       -2   -1    0    0    0  501  0.00000000000E+00  0.00000000000E+00  0.71713994405E+02  0.71713994451E+02  0.25500000920E-02 0. -1.
        2   -1    0    0  501    0  0.00000000000E+00  0.00000000000E+00 -0.12372860314E+04  0.12372860315E+04  0.25500000920E-02 0.  1.
    10030    2    1    2    0    0  0.00000000000E+00  0.00000000000E+00 -0.11655720370E+04  0.13090000259E+04  0.59575405519E+03 0.  0.
        1    1    3    3  502    0  0.11846900164E+03  0.10130417175E+02 -0.11828841151E+04  0.11888449687E+04  0.50400001928E-02 0.  1.
       -1    1    3    3    0  502 -0.11846900164E+03 -0.10130417175E+02  0.17312078089E+02  0.12015505722E+03  0.50400001928E-02 0. -1.
</event>
<event>
 5   0  0.1532571E-01  0.4369013E+03  0.7818609E-02  0.1031702E+00
        2   -1    0    0  501    0  0.00000000000E+00  0.00000000000E+00  0.29137218724E+03  0.29137218725E+03  0.25500000920E-02 0.  1.
       -2   -1    0    0    0  501  0.00000000000E+00  0.00000000000E+00 -0.16377912654E+03  0.16377912656E+03  0.25500000920E-02 0. -1.
    10030    2    1    2    0    0  0.00000000000E+00  0.00000000000E+00  0.12759306071E+03  0.45515131381E+03  0.43690128098E+03 0.  0.
        1    1    3    3  502    0 -0.10895534489E+03 -0.14846410013E+03  0.18621167131E+03  0.26189242594E+03  0.50400001928E-02 0.  1.
       -1    1    3    3    0  502  0.10895534489E+03  0.14846410013E+03 -0.58618610601E+02  0.19325888787E+03  0.50400001928E-02 0. -1.
</event>
<event>
 5   0  0.9420349E-02  0.6178028E+03  0.7818609E-02  0.9869144E-01
       -1   -1    0    0    0  501  0.00000000000E+00  0.00000000000E+00  0.89406070894E+02  0.89406071036E+02  0.50400001928E-02 0. -1.
        1   -1    0    0  501    0  0.00000000000E+00  0.00000000000E+00 -0.10672662256E+04  0.10672662256E+04  0.50400001928E-02 0.  1.
    10030    2    1    2    0    0  0.00000000000E+00  0.00000000000E+00 -0.97786015467E+03  0.11566722966E+04  0.61780281616E+03 0.  0.
        2    1    3    3  502    0 -0.13579575390E+03  0.25145777718E+03 -0.26940235889E+03  0.39274563201E+03  0.25500000920E-02 0. -1.
       -2    1    3    3    0  502  0.13579575390E+03 -0.25145777718E+03 -0.70845779578E+03  0.76392666460E+03  0.25500000920E-02 0.  1.
</event>
<event>
 5   0  0.1488510E-01  0.6019222E+03  0.7818609E-02  0.9901426E-01
       -2   -1    0    0    0  501  0.00000000000E+00  0.00000000000E+00  0.55877007851E+02  0.55877007909E+02  0.25500000920E-02 0.  1.
        2   -1    0    0  501    0  0.00000000000E+00  0.00000000000E+00 -0.16210171104E+04  0.16210171104E+04  0.25500000920E-02 0. -1.
    10030    2    1    2    0    0  0.00000000000E+00  0.00000000000E+00 -0.15651401026E+04  0.16768941183E+04  0.60192220712E+03 0.  0.
        5    1    3    3  502    0  0.14666985034E+03  0.76902989780E+02 -0.82597450446E+02  0.18512305004E+03  0.46999998093E+01 0.  1.
       -5    1    3    3    0  502 -0.14666985034E+03 -0.76902989780E+02 -0.14825426521E+04  0.14917710683E+04  0.46999998093E+01 0. -1.
</event>
<event>
 5   0  0.1502642E-01  0.6179060E+03  0.7818609E-02  0.9868938E-01
       -2   -1    0    0    0  501  0.00000000000E+00  0.00000000000E+00  0.40593619677E+03  0.40593619678E+03  0.25500000920E-02 0. -1.
        2   -1    0    0  501    0  0.00000000000E+00  0.00000000000E+00 -0.23514029245E+03  0.23514029246E+03  0.25500000920E-02 0.  1.
    10030    2    1    2    0    0  0.00000000000E+00  0.00000000000E+00  0.17079590432E+03  0.64107648924E+03  0.61790599943E+03 0.  0.
        2    1    3    3  502    0 -0.28995725037E+03  0.13482298579E+02  0.19517183682E+03  0.34978425538E+03  0.25500000920E-02 0. -1.
       -2    1    3    3    0  502  0.28995725037E+03 -0.13482298579E+02 -0.24375932499E+02  0.29129223386E+03  0.25500000920E-02 0.  1.
</event>
<event>
 5   0  0.9497860E-02  0.6009503E+03  0.7818609E-02  0.9903437E-01
       -1   -1    0    0    0  501  0.00000000000E+00  0.00000000000E+00  0.17819162498E+03  0.17819162506E+03  0.50400001928E-02 0. -1.
        1   -1    0    0  501    0  0.00000000000E+00  0.00000000000E+00 -0.50667535826E+03  0.50667535828E+03  0.50400001928E-02 0.  1.
    10030    2    1    2    0    0  0.00000000000E+00  0.00000000000E+00 -0.32848373327E+03  0.68486698334E+03  0.60095026570E+03 0.  0.
        5    1    3    3  502    0 -0.20582848425E+03 -0.48677944379E+01 -0.41359696920E+03  0.46203203707E+03  0.46999998093E+01 0.  1.
       -5    1    3    3    0  502  0.20582848425E+03  0.48677944379E+01  0.85113235927E+02  0.22283494627E+03  0.46999998093E+01 0. -1.
</event>
<event>
 5   0  0.9411028E-02  0.5845588E+03  0.7818609E-02  0.9937970E-01
        1   -1    0    0  501    0  0.00000000000E+00  0.00000000000E+00  0.53305372349E+03  0.53305372351E+03  0.50400001928E-02 0.  1.
       -1   -1    0    0    0  501  0.00000000000E+00  0.00000000000E+00 -0.16026011886E+03  0.16026011894E+03  0.50400001928E-02 0. -1.
    10030    2    1    2    0    0  0.00000000000E+00  0.00000000000E+00  0.37279360463E+03  0.69331384245E+03  0.58455881866E+03 0.  0.
        4    1    3    3  502    0 -0.10670266765E+03 -0.24820829245E+03  0.31864402375E+03  0.41776601405E+03  0.12699999809E+01 0.  1.
       -4    1    3    3    0  502  0.10670266765E+03  0.24820829245E+03  0.54149580887E+02  0.27554782840E+03  0.12699999809E+01 0. -1.
</event>
<event>
 5   0  0.8860626E-02  0.5582621E+03  0.7818609E-02  0.9995995E-01
        1   -1    0    0  501    0  0.00000000000E+00  0.00000000000E+00  0.19025695797E+03  0.19025695803E+03  0.50400001928E-02 0.  1.
       -1   -1    0    0    0  501  0.00000000000E+00  0.00000000000E+00 -0.40952061524E+03  0.40952061527E+03  0.50400001928E-02 0. -1.
    10030    2    1    2    0    0  0.00000000000E+00  0.00000000000E+00 -0.21926365727E+03  0.59977757330E+03  0.55826211231E+03 0.  0.
        3    1    3    3  502    0  0.27486629399E+03  0.48462666514E+02 -0.10560809058E+03  0.29841780881E+03  0.10100000352E+00 0.  1.
       -3    1    3    3    0  502 -0.27486629399E+03 -0.48462666514E+02 -0.11365556669E+03  0.30135976449E+03  0.10100000352E+00 0. -1.
</event>
<event>
 5   0  0.8860626E-02  0.5519740E+03  0.7818609E-02  0.1001038E+00
        1   -1    0    0  501    0  0.00000000000E+00  0.00000000000E+00  0.23915190703E+03  0.23915190708E+03  0.50400001928E-02 0. -1.
       -1   -1    0    0    0  501  0.00000000000E+00  0.00000000000E+00 -0.31849556297E+03  0.31849556301E+03  0.50400001928E-02 0.  1.
    10030    2    1    2    0    0  0.00000000000E+00  0.00000000000E+00 -0.79343655944E+02  0.55764747009E+03  0.55197398957E+03 0.  0.
        3    1    3    3  502    0 -0.23497927976E+03  0.12776747682E+03 -0.10840805670E+03  0.28860371967E+03  0.10100000352E+00 0.  1.
       -3    1    3    3    0  502  0.23497927976E+03 -0.12776747682E+03  0.29064400757E+02  0.26904375042E+03  0.10100000352E+00 0. -1.
</event>
<event>
 5   0  0.1502642E-01  0.5967019E+03  0.7818609E-02  0.9912272E-01
        2   -1    0    0  501    0  0.00000000000E+00  0.00000000000E+00  0.17392067074E+04  0.17392067074E+04  0.25500000920E-02 0.  1.
       -2   -1    0    0    0  501  0.00000000000E+00  0.00000000000E+00 -0.51180401580E+02  0.51180401643E+02  0.25500000920E-02 0. -1.
    10030    2    1    2    0    0  0.00000000000E+00  0.00000000000E+00  0.16880263058E+04  0.17903871091E+04  0.59670192818E+03 0.  0.
        2    1    3    3  502    0 -0.45830485360E+02  0.28652512828E+03  0.63578356244E+03  0.69886895824E+03  0.25500000920E-02 0. -1.
       -2    1    3    3    0  502  0.45830485360E+02 -0.28652512828E+03  0.10522427434E+04  0.10915181508E+04  0.25500000920E-02 0.  1.
</event>
<event>
 5   0  0.1502642E-01  0.5724652E+03  0.7818609E-02  0.9964238E-01
       -2   -1    0    0    0  501  0.00000000000E+00  0.00000000000E+00  0.69368836970E+02  0.69368837017E+02  0.25500000920E-02 0. -1.
        2   -1    0    0  501    0  0.00000000000E+00  0.00000000000E+00 -0.11810648568E+04  0.11810648568E+04  0.25500000920E-02 0.  1.
    10030    2    1    2    0    0  0.00000000000E+00  0.00000000000E+00 -0.11116960198E+04  0.12504336938E+04  0.57246517983E+03 0.  0.
        2    1    3    3  502    0 -0.17437252926E+02 -0.20265279181E+03 -0.99573779828E+03  0.10163001401E+04  0.25500000920E-02 0.  1.
       -2    1    3    3    0  502  0.17437252926E+02  0.20265279181E+03 -0.11595822150E+03  0.23413355368E+03  0.25500000920E-02 0. -1.
</event>
<event>
 5   0  0.9411028E-02  0.5854104E+03  0.7818609E-02  0.9936146E-01
        1   -1    0    0  501    0  0.00000000000E+00  0.00000000000E+00  0.73542123381E+02  0.73542123554E+02  0.50400001928E-02 0.  1.
       -1   -1    0    0    0  501  0.00000000000E+00  0.00000000000E+00 -0.11649965969E+04  0.11649965969E+04  0.50400001928E-02 0. -1.
    10030    2    1    2    0    0  0.00000000000E+00  0.00000000000E+00 -0.10914544735E+04  0.12385387204E+04  0.58541036403E+03 0.  0.
        4    1    3    3  502    0  0.50551543688E+00 -0.14656207071E+03 -0.96881608322E+01  0.14688828911E+03  0.12699999809E+01 0.  1.
       -4    1    3    3    0  502 -0.50551543688E+00  0.14656207071E+03 -0.10817663127E+04  0.10916504313E+04  0.12699999809E+01 0. -1.
</event>
<event>
 5   0  0.9177281E-02  0.5867300E+03  0.7818609E-02  0.9933326E-01
       -1   -1    0    0    0  501  0.00000000000E+00  0.00000000000E+00  0.16259014150E+03  0.16259014158E+03  0.50400001928E-02 0.  1.
        1   -1    0    0  501    0  0.00000000000E+00  0.00000000000E+00 -0.52932504756E+03  0.52932504759E+03  0.50400001928E-02 0. -1.
    10030    2    1    2    0    0  0.00000000000E+00  0.00000000000E+00 -0.36673490606E+03  0.69191518916E+03  0.58673003815E+03 0.  0.
        1    1    3    3  502    0 -0.10196788883E+03  0.12564132993E+03 -0.47193989738E+03  0.49890927122E+03  0.50400001928E-02 0. -1.
       -1    1    3    3    0  502  0.10196788883E+03 -0.12564132993E+03  0.10520499132E+03  0.19300591795E+03  0.50400001928E-02 0.  1.
</event>
<event>
 5   0  0.6170500E-02  0.6214663E+03  0.7818609E-02  0.9861845E-01
        3   -1    0    0  501    0  0.00000000000E+00  0.00000000000E+00  0.17201708357E+04  0.17201708387E+04  0.10100000352E+00 0. -1.
       -3   -1    0    0    0  501  0.00000000000E+00  0.00000000000E+00 -0.56131054582E+02  0.56131145450E+02  0.10100000352E+00 0.  1.
    10030    2    1    2    0    0  0.00000000000E+00  0.00000000000E+00  0.16640397811E+04  0.17763019841E+04  0.62146628680E+03 0.  0.
        3    1    3    3  502    0  0.29447772544E+03 -0.23123580852E+02  0.11077070040E+04  0.11464146927E+04  0.10100000352E+00 0. -1.
       -3    1    3    3    0  502 -0.29447772544E+03  0.23123580852E+02  0.55633277716E+03  0.62988729144E+03  0.10100000352E+00 0.  1.
</event>
<event>
 5   0  0.9411028E-02  0.6317029E+03  0.7818609E-02  0.9841731E-01
        1   -1    0    0  501    0  0.00000000000E+00  0.00000000000E+00  0.20789990333E+04  0.20789990333E+04  0.50400001928E-02 0. -1.
       -1   -1    0    0    0  501  0.00000000000E+00  0.00000000000E+00 -0.47985653677E+02  0.47985653942E+02  0.50400001928E-02 0.  1.
    10030    2    1    2    0    0  0.00000000000E+00  0.00000000000E+00  0.20310133796E+04  0.21269846872E+04  0.63170286652E+03 0.  0.
        4    1    3    3  502    0  0.50755914019E+00 -0.11858900642E+03  0.29830912107E+02  0.12229107194E+03  0.12699999809E+01 0.  1.
       -4    1    3    3    0  502 -0.50755914019E+00  0.11858900642E+03  0.20011824675E+04  0.20046936153E+04  0.12699999809E+01 0. -1.
</event>
<event>
 5   0  0.6170500E-02  0.6211804E+03  0.7818609E-02  0.9862412E-01
       -3   -1    0    0    0  501  0.00000000000E+00  0.00000000000E+00  0.70505292975E+03  0.70505293698E+03  0.10100000352E+00 0. -1.
        3   -1    0    0  501    0  0.00000000000E+00  0.00000000000E+00 -0.13682130964E+03  0.13682134692E+03  0.10100000352E+00 0.  1.
    10030    2    1    2    0    0  0.00000000000E+00  0.00000000000E+00  0.56823162010E+03  0.84187428390E+03  0.62118043740E+03 0.  0.
        4    1    3    3  502    0 -0.91361692315E+02 -0.20062413117E+03  0.58063350723E+03  0.62107478088E+03  0.12699999809E+01 0. -1.
       -4    1    3    3    0  502  0.91361692315E+02  0.20062413117E+03 -0.12401887126E+02  0.22079950302E+03  0.12699999809E+01 0.  1.
</event>
<event>
 5   0  0.9497860E-02  0.5409503E+03  0.7818609E-02  0.1003611E+00
       -1   -1    0    0    0  501  0.00000000000E+00  0.00000000000E+00  0.45946232659E+03  0.45946232662E+03  0.50400001928E-02 0.  1.
        1   -1    0    0  501    0  0.00000000000E+00  0.00000000000E+00 -0.15922267059E+03  0.15922267067E+03  0.50400001928E-02 0. -1.
    10030    2    1    2    0    0  0.00000000000E+00  0.00000000000E+00  0.30023965600E+03  0.61868499729E+03  0.54095034414E+03 0.  0.
        5    1    3    3  502    0  0.71328429534E+01  0.22419977547E+03 -0.22644446122E+02  0.22550227872E+03  0.46999998093E+01 0.  1.
       -5    1    3    3    0  502 -0.71328429534E+01 -0.22419977547E+03  0.32288410213E+03  0.39318271856E+03  0.46999998093E+01 0. -1.
</event>
<event>
 5   0  0.8860626E-02  0.6012224E+03  0.7818609E-02  0.9902873E-01
       -1   -1    0    0    0  501  0.00000000000E+00  0.00000000000E+00  0.70644680687E+03  0.70644680689E+03  0.50400001928E-02 0.  1.
        1   -1    0    0  501    0  0.00000000000E+00  0.00000000000E+00 -0.12791775098E+03  0.12791775107E+03  0.50400001928E-02 0. -1.
    10030    2    1    2    0    0  0.00000000000E+00  0.00000000000E+00  0.57852905590E+03  0.83436455796E+03  0.60122237739E+03 0.  0.
        3    1    3    3  502    0  0.14388784398E+03 -0.25320369267E+03  0.18586553770E+03  0.34548781445E+03  0.10100000352E+00 0. -1.
       -3    1    3    3    0  502 -0.14388784398E+03  0.25320369267E+03  0.39266351819E+03  0.48887674351E+03  0.10100000352E+00 0.  1.
</event>
<event>
 5   0  0.1483942E-01  0.6091206E+03  0.7818609E-02  0.9886662E-01
       -2   -1    0    0    0  501  0.00000000000E+00  0.00000000000E+00  0.48055473937E+02  0.48055474004E+02  0.25500000920E-02 0.  1.
        2   -1    0    0  501    0  0.00000000000E+00  0.00000000000E+00 -0.19302061601E+04  0.19302061601E+04  0.25500000920E-02 0. -1.
    10030    2    1    2    0    0  0.00000000000E+00  0.00000000000E+00 -0.18821506861E+04  0.19782616341E+04  0.60912058539E+03 0.  0.
        4    1    3    3  502    0  0.57258424243E+02  0.69531699582E+02  0.37985681445E+01  0.90162222762E+02  0.12699999809E+01 0.  1.
       -4    1    3    3    0  502 -0.57258424243E+02 -0.69531699582E+02 -0.18859492543E+04  0.18880994113E+04  0.12699999809E+01 0. -1.
</event>
<event>
 5   0  0.1513339E-01  0.6189540E+03  0.7818609E-02  0.9866844E-01
        2   -1    0    0  501    0  0.00000000000E+00  0.00000000000E+00  0.89438835285E+03  0.89438835285E+03  0.25500000920E-02 0.  1.
       -2   -1    0    0    0  501  0.00000000000E+00  0.00000000000E+00 -0.10708549077E+03  0.10708549080E+03  0.25500000920E-02 0. -1.
    10030    2    1    2    0    0  0.00000000000E+00  0.00000000000E+00  0.78730286208E+03  0.10014738437E+04  0.61895400709E+03 0.  0.
        3    1    3    3  502    0  0.24537516348E+03 -0.68600300018E+01  0.88709212430E+02  0.26100836277E+03  0.10100000352E+00 0. -1.
       -3    1    3    3    0  502 -0.24537516348E+03  0.68600300018E+01  0.69859364965E+03  0.74046548089E+03  0.10100000352E+00 0.  1.
</event>
<event>
 5   0  0.1532571E-01  0.6045841E+03  0.7818609E-02  0.9895941E-01
        2   -1    0    0  501    0  0.00000000000E+00  0.00000000000E+00  0.49682010345E+03  0.49682010345E+03  0.25500000920E-02 0.  1.
       -2   -1    0    0    0  501  0.00000000000E+00  0.00000000000E+00 -0.18393072091E+03  0.18393072093E+03  0.25500000920E-02 0. -1.
    10030    2    1    2    0    0  0.00000000000E+00  0.00000000000E+00  0.31288938253E+03  0.68075082438E+03  0.60458408778E+03 0.  0.
        1    1    3    3  502    0 -0.25949846482E+03 -0.80483704064E+02  0.30566768833E+03  0.40896187546E+03  0.50400001928E-02 0.  1.
       -1    1    3    3    0  502  0.25949846482E+03  0.80483704064E+02  0.72216942072E+01  0.27178894893E+03  0.50400001928E-02 0. -1.
</event>
<event>
 5   0  0.6170500E-02  0.6748175E+03  0.7818609E-02  0.9761294E-01
       -3   -1    0    0    0  501  0.00000000000E+00  0.00000000000E+00  0.50739412468E+03  0.50739413473E+03  0.10100000352E+00 0.  1.
        3   -1    0    0  501    0  0.00000000000E+00  0.00000000000E+00 -0.22437121677E+03  0.22437123950E+03  0.10100000352E+00 0. -1.
    10030    2    1    2    0    0  0.00000000000E+00  0.00000000000E+00  0.28302290791E+03  0.73176537423E+03  0.67481745422E+03 0.  0.
        4    1    3    3  502    0  0.24013246635E+01 -0.20354196236E+02  0.50671591060E+03  0.50713182371E+03  0.12699999809E+01 0.  1.
       -4    1    3    3    0  502 -0.24013246635E+01  0.20354196236E+02 -0.22369300269E+03  0.22463355052E+03  0.12699999809E+01 0. -1.
</event>
<event>
 5   0  0.1513339E-01  0.6741873E+03  0.7818609E-02  0.9762423E-01
        2   -1    0    0  501    0  0.00000000000E+00  0.00000000000E+00  0.90135228356E+03  0.90135228356E+03  0.25500000920E-02 0. -1.
       -2   -1    0    0    0  501  0.00000000000E+00  0.00000000000E+00 -0.12606848721E+03  0.12606848723E+03  0.25500000920E-02 0.  1.
    10030    2    1    2    0    0  0.00000000000E+00  0.00000000000E+00  0.77528379635E+03  0.10274207708E+04  0.67418727026E+03 0.  0.
        3    1    3    3  502    0 -0.11020591574E+03  0.28307114850E+03  0.61035352779E+03  0.68176686489E+03  0.10100000352E+00 0. -1.
       -3    1    3    3    0  502  0.11020591574E+03 -0.28307114850E+03  0.16493026856E+03  0.34565390591E+03  0.10100000352E+00 0.  1.
</event>
<event>
 5   0  0.1488510E-01  0.5973878E+03  0.7818609E-02  0.9910840E-01
        2   -1    0    0  501    0  0.00000000000E+00  0.00000000000E+00  0.82283566326E+03  0.82283566327E+03  0.25500000920E-02 0.  1.
       -2   -1    0    0    0  501  0.00000000000E+00  0.00000000000E+00 -0.10842752544E+03  0.10842752547E+03  0.25500000920E-02 0. -1.
    10030    2    1    2    0    0  0.00000000000E+00  0.00000000000E+00  0.71440813782E+03  0.93126318874E+03  0.59738776294E+03 0.  0.
        5    1    3    3  502    0  0.31945516590E+02  0.24554867559E+03  0.96905103115E+02  0.26594615455E+03  0.46999998093E+01 0. -1.
       -5    1    3    3    0  502 -0.31945516590E+02 -0.24554867559E+03  0.61750303471E+03  0.66531703419E+03  0.46999998093E+01 0.  1.
</event>
<event>
 5   0  0.1488510E-01  0.6584074E+03  0.7818609E-02  0.9791130E-01
        2   -1    0    0  501    0  0.00000000000E+00  0.00000000000E+00  0.11369705287E+04  0.11369705287E+04  0.25500000920E-02 0. -1.
       -2   -1    0    0    0  501  0.00000000000E+00  0.00000000000E+00 -0.95319156206E+02  0.95319156240E+02  0.25500000920E-02 0.  1.
    10030    2    1    2    0    0  0.00000000000E+00  0.00000000000E+00  0.10416513725E+04  0.12322896850E+04  0.65840738591E+03 0.  0.
        5    1    3    3  502    0  0.24346130488E+03  0.57494636570E+02  0.12039507229E+03  0.27766185124E+03  0.46999998093E+01 0.  1.
       -5    1    3    3    0  502 -0.24346130488E+03 -0.57494636570E+02  0.92125630025E+03  0.95462783375E+03  0.46999998093E+01 0. -1.
</event>
<event>
 5   0  0.9177281E-02  0.5882556E+03  0.7818609E-02  0.9930076E-01
       -1   -1    0    0    0  501  0.00000000000E+00  0.00000000000E+00  0.41839104058E+03  0.41839104061E+03  0.50400001928E-02 0.  1.
        1   -1    0    0  501    0  0.00000000000E+00  0.00000000000E+00 -0.20677105345E+03  0.20677105351E+03  0.50400001928E-02 0. -1.
    10030    2    1    2    0    0  0.00000000000E+00  0.00000000000E+00  0.21161998713E+03  0.62516209413E+03  0.58825557794E+03 0.  0.
        1    1    3    3  502    0  0.21326337670E+03  0.13758720740E+03  0.26379623560E+03  0.36606005166E+03  0.50400001928E-02 0.  1.
       -1    1    3    3    0  502 -0.21326337670E+03 -0.13758720740E+03 -0.52176248467E+02  0.25910204246E+03  0.50400001928E-02 0. -1.
</event>
<event>
 5   0  0.1483942E-01  0.6019889E+03  0.7818609E-02  0.9901288E-01
        2   -1    0    0  501    0  0.00000000000E+00  0.00000000000E+00  0.81342267249E+03  0.81342267249E+03  0.25500000920E-02 0. -1.
       -2   -1    0    0    0  501  0.00000000000E+00  0.00000000000E+00 -0.11137833495E+03  0.11137833498E+03  0.25500000920E-02 0.  1.
    10030    2    1    2    0    0  0.00000000000E+00  0.00000000000E+00  0.70204433753E+03  0.92480100747E+03  0.60198891316E+03 0.  0.
        4    1    3    3  502    0 -0.69962196650E+02  0.19512785369E+03  0.68628388230E+03  0.71690778225E+03  0.12699999809E+01 0. -1.
       -4    1    3    3    0  502  0.69962196650E+02 -0.19512785369E+03  0.15760455228E+02  0.20789322522E+03  0.12699999809E+01 0.  1.
</event>
<event>
 5   0  0.8860626E-02  0.6013990E+03  0.7818609E-02  0.9902508E-01
       -1   -1    0    0    0  501  0.00000000000E+00  0.00000000000E+00  0.24381928742E+03  0.24381928748E+03  0.50400001928E-02 0. -1.
        1   -1    0    0  501    0  0.00000000000E+00  0.00000000000E+00 -0.37084923772E+03  0.37084923775E+03  0.50400001928E-02 0.  1.
    10030    2    1    2    0    0  0.00000000000E+00  0.00000000000E+00 -0.12702995029E+03  0.61466852523E+03  0.60139902530E+03 0.  0.
        3    1    3    3  502    0 -0.22255602748E+03  0.19364700477E+03 -0.40080124640E+01  0.29503630656E+03  0.10100000352E+00 0.  1.
       -3    1    3    3    0  502  0.22255602748E+03 -0.19364700477E+03 -0.12302193783E+03  0.31963221867E+03  0.10100000352E+00 0. -1.
</event>
<event>
 5   0  0.6170500E-02  0.5923960E+03  0.7818609E-02  0.9921309E-01
       -3   -1    0    0    0  501  0.00000000000E+00  0.00000000000E+00  0.64680704260E+03  0.64680705048E+03  0.10100000352E+00 0.  1.
        3   -1    0    0  501    0  0.00000000000E+00  0.00000000000E+00 -0.13564051127E+03  0.13564054888E+03  0.10100000352E+00 0. -1.
    10030    2    1    2    0    0  0.00000000000E+00  0.00000000000E+00  0.51116653132E+03  0.78244759936E+03  0.59239600184E+03 0.  0.
        3    1    3    3  502    0  0.45325710390E+02 -0.25201972317E+03  0.58941447309E+02  0.26275932962E+03  0.10100000352E+00 0. -1.
       -3    1    3    3    0  502 -0.45325710390E+02  0.25201972317E+03  0.45222508402E+03  0.51968826974E+03  0.10100000352E+00 0.  1.
</event>
<event>
 5   0  0.9420349E-02  0.6307527E+03  0.7818609E-02  0.9843581E-01
        1   -1    0    0  501    0  0.00000000000E+00  0.00000000000E+00  0.32340482452E+03  0.32340482456E+03  0.50400001928E-02 0. -1.
       -1   -1    0    0    0  501  0.00000000000E+00  0.00000000000E+00 -0.30754719209E+03  0.30754719213E+03  0.50400001928E-02 0.  1.
    10030    2    1    2    0    0  0.00000000000E+00  0.00000000000E+00  0.15857632425E+02  0.63095201669E+03  0.63075271133E+03 0.  0.
        2    1    3    3  502    0 -0.20301980982E+02 -0.24164281887E+03  0.20963286225E+03  0.32054540908E+03  0.25500000920E-02 0. -1.
       -2    1    3    3    0  502  0.20301980982E+02  0.24164281887E+03 -0.19377522983E+03  0.31040660760E+03  0.25500000920E-02 0.  1.
</event>
<event>
 5   0  0.9411028E-02  0.5942448E+03  0.7818609E-02  0.9917419E-01
       -1   -1    0    0    0  501  0.00000000000E+00  0.00000000000E+00  0.53228686953E+03  0.53228686955E+03  0.50400001928E-02 0. -1.
        1   -1    0    0  501    0  0.00000000000E+00  0.00000000000E+00 -0.16585363939E+03  0.16585363946E+03  0.50400001928E-02 0.  1.
    10030    2    1    2    0    0  0.00000000000E+00  0.00000000000E+00  0.36643323014E+03  0.69814050901E+03  0.59424477968E+03 0.  0.
        4    1    3    3  502    0 -0.22625811453E+03  0.16885789216E+03  0.29200406935E+03  0.40616956010E+03  0.12699999809E+01 0. -1.
       -4    1    3    3    0  502  0.22625811453E+03 -0.16885789216E+03  0.74429160791E+02  0.29197094891E+03  0.12699999809E+01 0.  1.
</event>
<event>
 5   0  0.1483942E-01  0.5960022E+03  0.7818609E-02  0.9913735E-01
        2   -1    0    0  501    0  0.00000000000E+00  0.00000000000E+00  0.34458500779E+03  0.34458500779E+03  0.25500000920E-02 0. -1.
       -2   -1    0    0    0  501  0.00000000000E+00  0.00000000000E+00 -0.25771475964E+03  0.25771475965E+03  0.25500000920E-02 0.  1.
    10030    2    1    2    0    0  0.00000000000E+00  0.00000000000E+00  0.86870248144E+02  0.60229976745E+03  0.59600215592E+03 0.  0.
        4    1    3    3  502    0 -0.43736170824E+02  0.22016964984E+03 -0.15463461176E+03  0.27258210397E+03  0.12699999809E+01 0.  1.
       -4    1    3    3    0  502  0.43736170824E+02 -0.22016964984E+03  0.24150485991E+03  0.32971766348E+03  0.12699999809E+01 0. -1.
</event>
<event>
 5   0  0.9497860E-02  0.6024416E+03  0.7818609E-02  0.9900353E-01
        1   -1    0    0  501    0  0.00000000000E+00  0.00000000000E+00  0.21448154998E+03  0.21448155004E+03  0.50400001928E-02 0.  1.
       -1   -1    0    0    0  501  0.00000000000E+00  0.00000000000E+00 -0.42303862495E+03  0.42303862498E+03  0.50400001928E-02 0. -1.
    10030    2    1    2    0    0  0.00000000000E+00  0.00000000000E+00 -0.20855707496E+03  0.63752017502E+03  0.60244163206E+03 0.  0.
        5    1    3    3  502    0 -0.88977795582E+02 -0.85373222113E+02 -0.39506248062E+03  0.41388656507E+03  0.46999998093E+01 0. -1.
       -5    1    3    3    0  502  0.88977795582E+02  0.85373222113E+02  0.18650540565E+03  0.22363360995E+03  0.46999998093E+01 0.  1.
</event>
<event>
 5   0  0.6170500E-02  0.5910423E+03  0.7818609E-02  0.9924167E-01
        3   -1    0    0  501    0  0.00000000000E+00  0.00000000000E+00  0.15419086246E+03  0.15419089554E+03  0.10100000352E+00 0.  1.
       -3   -1    0    0    0  501  0.00000000000E+00  0.00000000000E+00 -0.56639367431E+03  0.56639368331E+03  0.10100000352E+00 0. -1.
    10030    2    1    2    0    0  0.00000000000E+00  0.00000000000E+00 -0.41220281184E+03  0.72058457885E+03  0.59104228037E+03 0.  0.
        3    1    3    3  502    0  0.18365970003E+03 -0.23071350518E+03 -0.18255119105E+03  0.34682063728E+03  0.10100000352E+00 0.  1.
       -3    1    3    3    0  502 -0.18365970003E+03  0.23071350518E+03 -0.22965162079E+03  0.37376394157E+03  0.10100000352E+00 0. -1.
</event>
<event>
 5   0  0.8860626E-02  0.5860315E+03  0.7818609E-02  0.9934818E-01
       -1   -1    0    0    0  501  0.00000000000E+00  0.00000000000E+00  0.90044506528E+02  0.90044506669E+02  0.50400001928E-02 0. -1.
        1   -1    0    0  501    0  0.00000000000E+00  0.00000000000E+00 -0.95350875375E+03  0.95350875377E+03  0.50400001928E-02 0.  1.
    10030    2    1    2    0    0  0.00000000000E+00  0.00000000000E+00 -0.86346424722E+03  0.10435532604E+04  0.58603148476E+03 0.  0.
        3    1    3    3  502    0 -0.24038591464E+03  0.37436808409E+02 -0.14091775261E+03  0.28114893879E+03  0.10100000352E+00 0. -1.
       -3    1    3    3    0  502  0.24038591464E+03 -0.37436808409E+02 -0.72254649461E+03  0.76240432164E+03  0.10100000352E+00 0.  1.
</event>
<event>
 5   0  0.9497860E-02  0.5620638E+03  0.7818609E-02  0.9987396E-01
       -1   -1    0    0    0  501  0.00000000000E+00  0.00000000000E+00  0.16377191526E+03  0.16377191534E+03  0.50400001928E-02 0. -1.
        1   -1    0    0  501    0  0.00000000000E+00  0.00000000000E+00 -0.48224945357E+03  0.48224945360E+03  0.50400001928E-02 0.  1.
    10030    2    1    2    0    0  0.00000000000E+00  0.00000000000E+00 -0.31847753831E+03  0.64602136894E+03  0.56206375681E+03 0.  0.
        5    1    3    3  502    0 -0.16187430471E+03  0.59722215465E+02  0.95670457912E+02  0.19734477459E+03  0.46999998093E+01 0. -1.
       -5    1    3    3    0  502  0.16187430471E+03 -0.59722215465E+02 -0.41414799622E+03  0.44867659435E+03  0.46999998093E+01 0.  1.
</event>
<event>
 5   0  0.1488510E-01  0.5963571E+03  0.7818609E-02  0.9912993E-01
        2   -1    0    0  501    0  0.00000000000E+00  0.00000000000E+00  0.38293617341E+03  0.38293617342E+03  0.25500000920E-02 0.  1.
       -2   -1    0    0    0  501  0.00000000000E+00  0.00000000000E+00 -0.23218083727E+03  0.23218083728E+03  0.25500000920E-02 0. -1.
    10030    2    1    2    0    0  0.00000000000E+00  0.00000000000E+00  0.15075533614E+03  0.61511701070E+03  0.59635707884E+03 0.  0.
        5    1    3    3  502    0  0.19679859620E+03 -0.13512442935E+03  0.25960202852E+03  0.35270894811E+03  0.46999998093E+01 0.  1.
       -5    1    3    3    0  502 -0.19679859620E+03  0.13512442935E+03 -0.10884669238E+03  0.26240806259E+03  0.46999998093E+01 0. -1.
</event>
<event>
 5   0  0.1532571E-01  0.5934565E+03  0.7818609E-02  0.9919076E-01
        2   -1    0    0  501    0  0.00000000000E+00  0.00000000000E+00  0.43604121953E+03  0.43604121954E+03  0.25500000920E-02 0. -1.
       -2   -1    0    0    0  501  0.00000000000E+00  0.00000000000E+00 -0.20192504205E+03  0.20192504206E+03  0.25500000920E-02 0.  1.
    10030    2    1    2    0    0  0.00000000000E+00  0.00000000000E+00  0.23411617749E+03  0.63796626160E+03  0.59345645702E+03 0.  0.
        1    1    3    3  502    0  0.94820966997E+02 -0.26833631334E+03  0.26782014881E+02  0.28585427963E+03  0.50400001928E-02 0.  1.
       -1    1    3    3    0  502 -0.94820966997E+02  0.26833631334E+03  0.20733416261E+03  0.35211198197E+03  0.50400001928E-02 0. -1.
</event>
<event>
 5   0  0.6170500E-02  0.6035421E+03  0.7818609E-02  0.9898084E-01
        4   -1    0    0  501    0  0.00000000000E+00  0.00000000000E+00  0.12189214009E+03  0.12189875601E+03  0.12699999809E+01 0. -1.
       -4   -1    0    0    0  501  0.00000000000E+00  0.00000000000E+00 -0.74707389182E+03  0.74707497130E+03  0.12699999809E+01 0.  1.
    10030    2    1    2    0    0  0.00000000000E+00  0.00000000000E+00 -0.62518175172E+03  0.86897372731E+03  0.60354214108E+03 0.  0.
        1    1    3    3  502    0  0.15307501385E+03  0.14046387800E+03  0.25347044192E+01  0.20777027131E+03  0.50400001928E-02 0. -1.
       -1    1    3    3    0  502 -0.15307501385E+03 -0.14046387800E+03 -0.62771645614E+03  0.66120345600E+03  0.50400001928E-02 0.  1.
</event>
<event>
 5   0  0.1488510E-01  0.6008408E+03  0.7818609E-02  0.9903663E-01
        2   -1    0    0  501    0  0.00000000000E+00  0.00000000000E+00  0.91714268673E+02  0.91714268709E+02  0.25500000920E-02 0.  1.
       -2   -1    0    0    0  501  0.00000000000E+00  0.00000000000E+00 -0.98406073605E+03  0.98406073605E+03  0.25500000920E-02 0. -1.
    10030    2    1    2    0    0  0.00000000000E+00  0.00000000000E+00 -0.89234646737E+03  0.10757750048E+04  0.60084078010E+03 0.  0.
        5    1    3    3  502    0 -0.12975143775E+03 -0.52108376336E+02  0.29829116054E+02  0.14304749088E+03  0.46999998093E+01 0.  1.
       -5    1    3    3    0  502  0.12975143775E+03  0.52108376336E+02 -0.92217558343E+03  0.93272751388E+03  0.46999998093E+01 0. -1.
</event>
<event>
 5   0  0.1532571E-01  0.4777775E+03  0.7818609E-02  0.1019748E+00
       -2   -1    0    0    0  501  0.00000000000E+00  0.00000000000E+00  0.85611616366E+02  0.85611616404E+02  0.25500000920E-02 0. -1.
        2   -1    0    0  501    0  0.00000000000E+00  0.00000000000E+00 -0.66658971924E+03  0.66658971925E+03  0.25500000920E-02 0.  1.
    10030    2    1    2    0    0  0.00000000000E+00  0.00000000000E+00 -0.58097810288E+03  0.75220133565E+03  0.47777745168E+03 0.  0.
        1    1    3    3  502    0  0.74136536600E+02  0.88738341709E+02 -0.61959427690E+03  0.63029182712E+03  0.50400001928E-02 0.  1.
       -1    1    3    3    0  502 -0.74136536600E+02 -0.88738341709E+02  0.38616174020E+02  0.12190950853E+03  0.50400001928E-02 0. -1.
</event>
<event>
 5   0  0.9497860E-02  0.5624463E+03  0.7818609E-02  0.9986535E-01
       -1   -1    0    0    0  501  0.00000000000E+00  0.00000000000E+00  0.95167407960E+02  0.95167408094E+02  0.50400001928E-02 0. -1.
        1   -1    0    0  501    0  0.00000000000E+00  0.00000000000E+00 -0.83102457032E+03  0.83102457033E+03  0.50400001928E-02 0.  1.
    10030    2    1    2    0    0  0.00000000000E+00  0.00000000000E+00 -0.73585716236E+03  0.92619197843E+03  0.56244627967E+03 0.  0.
        5    1    3    3  502    0 -0.10952736892E+03  0.62216799227E+01  0.58408067461E+02  0.12437261028E+03  0.46999998093E+01 0. -1.
       -5    1    3    3    0  502  0.10952736892E+03 -0.62216799227E+01 -0.79426522982E+03  0.80181936815E+03  0.46999998093E+01 0.  1.
</event>
<event>
 5   0  0.1532571E-01  0.6055192E+03  0.7818609E-02  0.9894021E-01
       -2   -1    0    0    0  501  0.00000000000E+00  0.00000000000E+00  0.15115951384E+03  0.15115951386E+03  0.25500000920E-02 0.  1.
        2   -1    0    0  501    0  0.00000000000E+00  0.00000000000E+00 -0.60640163804E+03  0.60640163804E+03  0.25500000920E-02 0. -1.
    10030    2    1    2    0    0  0.00000000000E+00  0.00000000000E+00 -0.45524212419E+03  0.75756115190E+03  0.60551920468E+03 0.  0.
        1    1    3    3  502    0  0.19596517074E+03 -0.35332244428E+02  0.57706884596E+02  0.20731811352E+03  0.50400001928E-02 0.  1.
       -1    1    3    3    0  502 -0.19596517074E+03  0.35332244428E+02 -0.51294900879E+03  0.55024303838E+03  0.50400001928E-02 0. -1.
</event>
<event>
 5   0  0.1513339E-01  0.6134849E+03  0.7818609E-02  0.9877818E-01
       -2   -1    0    0    0  501  0.00000000000E+00  0.00000000000E+00  0.48834769768E+03  0.48834769769E+03  0.25500000920E-02 0.  1.
        2   -1    0    0  501    0  0.00000000000E+00  0.00000000000E+00 -0.19267199678E+03  0.19267199679E+03  0.25500000920E-02 0. -1.
    10030    2    1    2    0    0  0.00000000000E+00  0.00000000000E+00  0.29567570091E+03  0.68101969448E+03  0.61348488504E+03 0.  0.
        3    1    3    3  502    0 -0.57125118678E+01  0.39486166720E+02  0.48545509283E+03  0.48709182657E+03  0.10100000352E+00 0.  1.
       -3    1    3    3    0  502  0.57125118678E+01 -0.39486166720E+02 -0.18977939192E+03  0.19392786791E+03  0.10100000352E+00 0. -1.
</event>
<event>
 5   0  0.9411028E-02  0.6188906E+03  0.7818609E-02  0.9866971E-01
        1   -1    0    0  501    0  0.00000000000E+00  0.00000000000E+00  0.88903047311E+03  0.88903047312E+03  0.50400001928E-02 0.  1.
       -1   -1    0    0    0  501  0.00000000000E+00  0.00000000000E+00 -0.10770879924E+03  0.10770879936E+03  0.50400001928E-02 0. -1.
    10030    2    1    2    0    0  0.00000000000E+00  0.00000000000E+00  0.78132167387E+03  0.99673927248E+03  0.61889063593E+03 0.  0.
        4    1    3    3  502    0 -0.25219560425E+03 -0.12130694678E+03  0.60332826265E+03  0.66507488567E+03  0.12699999809E+01 0. -1.
       -4    1    3    3    0  502  0.25219560425E+03  0.12130694678E+03  0.17799341121E+03  0.33166438680E+03  0.12699999809E+01 0.  1.
</event>
<event>
 5   0  0.9420349E-02  0.5906361E+03  0.7818609E-02  0.9925026E-01
       -1   -1    0    0    0  501  0.00000000000E+00  0.00000000000E+00  0.23326526306E+03  0.23326526312E+03  0.50400001928E-02 0. -1.
        1   -1    0    0  501    0  0.00000000000E+00  0.00000000000E+00 -0.37387806550E+03  0.37387806553E+03  0.50400001928E-02 0.  1.
    10030    2    1    2    0    0  0.00000000000E+00  0.00000000000E+00 -0.14061280243E+03  0.60714332865E+03  0.59063614969E+03 0.  0.
        2    1    3    3  502    0 -0.17865980564E+03 -0.23089749120E+03 -0.11604475372E+03  0.31416454680E+03  0.25500000920E-02 0.  1.
       -2    1    3    3    0  502  0.17865980564E+03  0.23089749120E+03 -0.24568048711E+02  0.29297878185E+03  0.25500000920E-02 0. -1.
</event>
<event>
 5   0  0.9177281E-02  0.6028785E+03  0.7818609E-02  0.9899452E-01
        1   -1    0    0  501    0  0.00000000000E+00  0.00000000000E+00  0.14034687412E+04  0.14034687412E+04  0.50400001928E-02 0. -1.
       -1   -1    0    0    0  501  0.00000000000E+00  0.00000000000E+00 -0.64743612426E+02  0.64743612622E+02  0.50400001928E-02 0.  1.
    10030    2    1    2    0    0  0.00000000000E+00  0.00000000000E+00  0.13387251288E+04  0.14682123538E+04  0.60287854957E+03 0.  0.
        1    1    3    3  502    0  0.40108692812E+02 -0.74444578304E+02  0.13739915613E+04  0.13765912658E+04  0.50400001928E-02 0. -1.
       -1    1    3    3    0  502 -0.40108692812E+02  0.74444578304E+02 -0.35266432560E+02  0.91621088015E+02  0.50400001928E-02 0.  1.
</event>
<event>
 5   0  0.1488510E-01  0.5983939E+03  0.7818609E-02  0.9908744E-01
       -2   -1    0    0    0  501  0.00000000000E+00  0.00000000000E+00  0.17267616553E+03  0.17267616555E+03  0.25500000920E-02 0. -1.
        2   -1    0    0  501    0  0.00000000000E+00  0.00000000000E+00 -0.51842020320E+03  0.51842020321E+03  0.25500000920E-02 0.  1.
    10030    2    1    2    0    0  0.00000000000E+00  0.00000000000E+00 -0.34574403767E+03  0.69109636875E+03  0.59839389312E+03 0.  0.
        5    1    3    3  502    0  0.27459439864E+03  0.90298830088E+02 -0.83855116990E+02  0.30101450650E+03  0.46999998093E+01 0. -1.
       -5    1    3    3    0  502 -0.27459439864E+03 -0.90298830088E+02 -0.26188892068E+03  0.39008186225E+03  0.46999998093E+01 0.  1.
</event>
<event>
 5   0  0.9177281E-02  0.5638946E+03  0.7818609E-02  0.9983281E-01
       -1   -1    0    0    0  501  0.00000000000E+00  0.00000000000E+00  0.17045894970E+03  0.17045894977E+03  0.50400001928E-02 0. -1.
        1   -1    0    0  501    0  0.00000000000E+00  0.00000000000E+00 -0.46635436679E+03  0.46635436681E+03  0.50400001928E-02 0.  1.
    10030    2    1    2    0    0  0.00000000000E+00  0.00000000000E+00 -0.29589541709E+03  0.63681331658E+03  0.56389458441E+03 0.  0.
        1    1    3    3  502    0  0.15101579844E+03  0.13323807755E+03 -0.37078637065E+03  0.42194868097E+03  0.50400001928E-02 0.  1.
       -1    1    3    3    0  502 -0.15101579844E+03 -0.13323807755E+03  0.74890953561E+02  0.21486463561E+03  0.50400001928E-02 0. -1.
</event>
<event>
 5   0  0.9497860E-02  0.6078727E+03  0.7818609E-02  0.9889206E-01
        1   -1    0    0  501    0  0.00000000000E+00  0.00000000000E+00  0.63286348766E+03  0.63286348768E+03  0.50400001928E-02 0.  1.
       -1   -1    0    0    0  501  0.00000000000E+00  0.00000000000E+00 -0.14596716652E+03  0.14596716661E+03  0.50400001928E-02 0. -1.
    10030    2    1    2    0    0  0.00000000000E+00  0.00000000000E+00  0.48689632114E+03  0.77883065429E+03  0.60787265157E+03 0.  0.
        5    1    3    3  502    0 -0.26491850056E+03 -0.64701348118E+02  0.71613292733E+02  0.28199047871E+03  0.46999998093E+01 0. -1.
       -5    1    3    3    0  502  0.26491850056E+03  0.64701348118E+02  0.41528302840E+03  0.49684017558E+03  0.46999998093E+01 0.  1.
</event>
<event>
 5   0  0.1488510E-01  0.5659463E+03  0.7818609E-02  0.9978689E-01
        2   -1    0    0  501    0  0.00000000000E+00  0.00000000000E+00  0.47059730975E+03  0.47059730975E+03  0.25500000920E-02 0.  1.
       -2   -1    0    0    0  501  0.00000000000E+00  0.00000000000E+00 -0.17015353655E+03  0.17015353657E+03  0.25500000920E-02 0. -1.
    10030    2    1    2    0    0  0.00000000000E+00  0.00000000000E+00  0.30044377319E+03  0.64075084632E+03  0.56594627503E+03 0.  0.
        5    1    3    3  502    0 -0.23649873737E+03  0.30043683871E+02 -0.22290809658E+02  0.23948537724E+03  0.46999998093E+01 0. -1.
       -5    1    3    3    0  502  0.23649873737E+03 -0.30043683871E+02  0.32273458285E+03  0.40126546909E+03  0.46999998093E+01 0.  1.
</event>
<event>
 5   0  0.1532571E-01  0.5959587E+03  0.7818609E-02  0.9913826E-01
        2   -1    0    0  501    0  0.00000000000E+00  0.00000000000E+00  0.12031240537E+04  0.12031240537E+04  0.25500000920E-02 0.  1.
       -2   -1    0    0    0  501  0.00000000000E+00  0.00000000000E+00 -0.73800952713E+02  0.73800952757E+02  0.25500000920E-02 0. -1.
    10030    2    1    2    0    0  0.00000000000E+00  0.00000000000E+00  0.11293231010E+04  0.12769250065E+04  0.59595872819E+03 0.  0.
        1    1    3    3  502    0  0.26946881046E+03 -0.52938749362E+02  0.31685756588E+03  0.41930259727E+03  0.50400001928E-02 0. -1.
       -1    1    3    3    0  502 -0.26946881046E+03  0.52938749362E+02  0.81246553513E+03  0.85762240922E+03  0.50400001928E-02 0.  1.
</event>
<event>
 5   0  0.1483942E-01  0.6041753E+03  0.7818609E-02  0.9896781E-01
        2   -1    0    0  501    0  0.00000000000E+00  0.00000000000E+00  0.13148065643E+04  0.13148065643E+04  0.25500000920E-02 0.  1.
       -2   -1    0    0    0  501  0.00000000000E+00  0.00000000000E+00 -0.69407132655E+02  0.69407132702E+02  0.25500000920E-02 0. -1.
    10030    2    1    2    0    0  0.00000000000E+00  0.00000000000E+00  0.12453994316E+04  0.13842136970E+04  0.60417531779E+03 0.  0.
        4    1    3    3  502    0 -0.17588459169E+03  0.19315789054E+03  0.27516492412E+03  0.37942418036E+03  0.12699999809E+01 0. -1.
       -4    1    3    3    0  502  0.17588459169E+03 -0.19315789054E+03  0.97023450751E+03  0.10047895166E+04  0.12699999809E+01 0.  1.
</event>
<event>
 5   0  0.1488510E-01  0.6166792E+03  0.7818609E-02  0.9871394E-01
        2   -1    0    0  501    0  0.00000000000E+00  0.00000000000E+00  0.72838689534E+03  0.72838689534E+03  0.25500000920E-02 0. -1.
       -2   -1    0    0    0  501  0.00000000000E+00  0.00000000000E+00 -0.13052584835E+03  0.13052584837E+03  0.25500000920E-02 0.  1.
    10030    2    1    2    0    0  0.00000000000E+00  0.00000000000E+00  0.59786104699E+03  0.85891274372E+03  0.61667922765E+03 0.  0.
        5    1    3    3  502    0 -0.18317813393E+03  0.22483956787E+03  0.44463774971E+03  0.53087840274E+03  0.46999998093E+01 0. -1.
       -5    1    3    3    0  502  0.18317813393E+03 -0.22483956787E+03  0.15322329728E+03  0.32803434097E+03  0.46999998093E+01 0.  1.
</event>
<event>
 5   0  0.9411028E-02  0.6075845E+03  0.7818609E-02  0.9889794E-01
       -1   -1    0    0    0  501  0.00000000000E+00  0.00000000000E+00  0.15101058498E+03  0.15101058507E+03  0.50400001928E-02 0.  1.
        1   -1    0    0  501    0  0.00000000000E+00  0.00000000000E+00 -0.61114741534E+03  0.61114741537E+03  0.50400001928E-02 0. -1.
    10030    2    1    2    0    0  0.00000000000E+00  0.00000000000E+00 -0.46013683036E+03  0.76215800043E+03  0.60758449204E+03 0.  0.
        4    1    3    3  502    0 -0.16373445126E+03  0.18255668476E+03 -0.51403257375E+01  0.24528340655E+03  0.12699999809E+01 0.  1.
       -4    1    3    3    0  502  0.16373445126E+03 -0.18255668476E+03 -0.45499650462E+03  0.51687459388E+03  0.12699999809E+01 0. -1.
</event>
<event>
 5   0  0.1532571E-01  0.5824065E+03  0.7818609E-02  0.9942595E-01
       -2   -1    0    0    0  501  0.00000000000E+00  0.00000000000E+00  0.50663253896E+02  0.50663253960E+02  0.25500000920E-02 0.  1.
        2   -1    0    0  501    0  0.00000000000E+00  0.00000000000E+00 -0.16737835334E+04  0.16737835334E+04  0.25500000920E-02 0. -1.
    10030    2    1    2    0    0  0.00000000000E+00  0.00000000000E+00 -0.16231202795E+04  0.17244467874E+04  0.58240645662E+03 0.  0.
        1    1    3    3  502    0  0.32805249922E+02  0.26398908801E+03 -0.11623098230E+04  0.11923634294E+04  0.50400001928E-02 0. -1.
       -1    1    3    3    0  502 -0.32805249922E+02 -0.26398908801E+03 -0.46081045651E+03  0.53208335801E+03  0.50400001928E-02 0.  1.
</event>
<event>
 5   0  0.6170500E-02  0.5794276E+03  0.7818609E-02  0.9949031E-01
       -3   -1    0    0    0  501  0.00000000000E+00  0.00000000000E+00  0.42552816098E+03  0.42552817296E+03  0.10100000352E+00 0. -1.
        3   -1    0    0  501    0  0.00000000000E+00  0.00000000000E+00 -0.19724682894E+03  0.19724685480E+03  0.10100000352E+00 0.  1.
    10030    2    1    2    0    0  0.00000000000E+00  0.00000000000E+00  0.22828133203E+03  0.62277502777E+03  0.57942762158E+03 0.  0.
        5    1    3    3  502    0 -0.21620284671E+03 -0.93110780724E+02  0.29558550724E+03  0.37789703690E+03  0.46999998093E+01 0. -1.
       -5    1    3    3    0  502  0.21620284671E+03  0.93110780724E+02 -0.67304175207E+02  0.24487799086E+03  0.46999998093E+01 0.  1.
</event>
<event>
 5   0  0.9411028E-02  0.6111666E+03  0.7818609E-02  0.9882506E-01
        1   -1    0    0  501    0  0.00000000000E+00  0.00000000000E+00  0.97710205416E+03  0.97710205417E+03  0.50400001928E-02 0. -1.
       -1   -1    0    0    0  501  0.00000000000E+00  0.00000000000E+00 -0.95569485996E+02  0.95569486128E+02  0.50400001928E-02 0.  1.
    10030    2    1    2    0    0  0.00000000000E+00  0.00000000000E+00  0.88153256816E+03  0.10726715403E+04  0.61116656047E+03 0.  0.
        4    1    3    3  502    0  0.85756447523E+02  0.26322151097E+03  0.21368452156E+03  0.34971762864E+03  0.12699999809E+01 0.  1.
       -4    1    3    3    0  502 -0.85756447523E+02 -0.26322151097E+03  0.66784804661E+03  0.72295391166E+03  0.12699999809E+01 0. -1.
</event>
<event>
 5   0  0.9420349E-02  0.5942868E+03  0.7818609E-02  0.9917331E-01
       -1   -1    0    0    0  501  0.00000000000E+00  0.00000000000E+00  0.19309075130E+03  0.19309075136E+03  0.50400001928E-02 0. -1.
        1   -1    0    0  501    0  0.00000000000E+00  0.00000000000E+00 -0.45726781195E+03  0.45726781198E+03  0.50400001928E-02 0.  1.
    10030    2    1    2    0    0  0.00000000000E+00  0.00000000000E+00 -0.26417706065E+03  0.65035856334E+03  0.59428675026E+03 0.  0.
        2    1    3    3  502    0  0.15037290303E+03  0.22945213884E+03 -0.71507274522E+01  0.27442927485E+03  0.25500000920E-02 0. -1.
       -2    1    3    3    0  502 -0.15037290303E+03 -0.22945213884E+03 -0.25702633320E+03  0.37592928849E+03  0.25500000920E-02 0.  1.
</event>
<event>
 5   0  0.6170500E-02  0.5890831E+03  0.7818609E-02  0.9928318E-01
       -4   -1    0    0    0  501  0.00000000000E+00  0.00000000000E+00  0.54467368128E+03  0.54467516189E+03  0.12699999809E+01 0. -1.
        4   -1    0    0  501    0  0.00000000000E+00  0.00000000000E+00 -0.15927412506E+03  0.15927918826E+03  0.12699999809E+01 0.  1.
    10030    2    1    2    0    0  0.00000000000E+00  0.00000000000E+00  0.38539955622E+03  0.70395435016E+03  0.58908310888E+03 0.  0.
        2    1    3    3  502    0  0.28492256261E+03  0.22523357922E+02  0.27775960156E+03  0.39854556151E+03  0.25500000920E-02 0. -1.
       -2    1    3    3    0  502 -0.28492256261E+03 -0.22523357922E+02  0.10763995466E+03  0.30540878865E+03  0.25500000920E-02 0.  1.
</event>
<event>
 5   0  0.9411028E-02  0.8579702E+03  0.7818609E-02  0.9479702E-01
       -1   -1    0    0    0  501  0.00000000000E+00  0.00000000000E+00  0.11324585114E+03  0.11324585125E+03  0.50400001928E-02 0.  1.
        1   -1    0    0  501    0  0.00000000000E+00  0.00000000000E+00 -0.16250325778E+04  0.16250325778E+04  0.50400001928E-02 0. -1.
    10030    2    1    2    0    0  0.00000000000E+00  0.00000000000E+00 -0.15117867267E+04  0.17382784291E+04  0.85797015685E+03 0.  0.
        4    1    3    3  502    0  0.30835800362E+03  0.10323348779E+03 -0.13227664100E+04  0.13621506524E+04  0.12699999809E+01 0.  1.
       -4    1    3    3    0  502 -0.30835800362E+03 -0.10323348779E+03 -0.18902031666E+03  0.37612777670E+03  0.12699999809E+01 0. -1.
</event>
<event>
 5   0  0.9411028E-02  0.5916689E+03  0.7818609E-02  0.9922843E-01
        1   -1    0    0  501    0  0.00000000000E+00  0.00000000000E+00  0.48446227850E+03  0.48446227852E+03  0.50400001928E-02 0.  1.
       -1   -1    0    0    0  501  0.00000000000E+00  0.00000000000E+00 -0.18064982527E+03  0.18064982534E+03  0.50400001928E-02 0. -1.
    10030    2    1    2    0    0  0.00000000000E+00  0.00000000000E+00  0.30381245322E+03  0.66511210386E+03  0.59166891415E+03 0.  0.
        4    1    3    3  502    0 -0.25526680037E+03 -0.97871789527E+02  0.24842929596E+02  0.27451559265E+03  0.12699999809E+01 0. -1.
       -4    1    3    3    0  502  0.25526680037E+03  0.97871789527E+02  0.27896952363E+03  0.39059651121E+03  0.12699999809E+01 0.  1.
</event>
<event>
 5   0  0.1483942E-01  0.6015925E+03  0.7818609E-02  0.9902108E-01
        2   -1    0    0  501    0  0.00000000000E+00  0.00000000000E+00  0.35230338183E+03  0.35230338183E+03  0.25500000920E-02 0.  1.
       -2   -1    0    0    0  501  0.00000000000E+00  0.00000000000E+00 -0.25681950794E+03  0.25681950795E+03  0.25500000920E-02 0. -1.
    10030    2    1    2    0    0  0.00000000000E+00  0.00000000000E+00  0.95483873888E+02  0.60912288978E+03  0.60159249055E+03 0.  0.
        4    1    3    3  502    0  0.29777783851E+03 -0.51097765422E+01  0.50355722214E+01  0.29786695153E+03  0.12699999809E+01 0. -1.
       -4    1    3    3    0  502 -0.29777783851E+03  0.51097765422E+01  0.90448301666E+02  0.31125593826E+03  0.12699999809E+01 0.  1.
</event>
<event>
 5   0  0.1502642E-01  0.5980122E+03  0.7818609E-02  0.9909539E-01
        2   -1    0    0  501    0  0.00000000000E+00  0.00000000000E+00  0.44882975852E+03  0.44882975853E+03  0.25500000920E-02 0. -1.
       -2   -1    0    0    0  501  0.00000000000E+00  0.00000000000E+00 -0.19919502374E+03  0.19919502376E+03  0.25500000920E-02 0.  1.
    10030    2    1    2    0    0  0.00000000000E+00  0.00000000000E+00  0.24963473478E+03  0.64802478229E+03  0.59801222199E+03 0.  0.
        2    1    3    3  502    0 -0.10943611319E+03 -0.67575880825E+02 -0.16768661045E+03  0.21133282251E+03  0.25500000920E-02 0.  1.
       -2    1    3    3    0  502  0.10943611319E+03  0.67575880825E+02  0.41732134523E+03  0.43669195978E+03  0.25500000920E-02 0. -1.
</event>
<event>
 5   0  0.8860626E-02  0.5937095E+03  0.7818609E-02  0.9918543E-01
        1   -1    0    0  501    0  0.00000000000E+00  0.00000000000E+00  0.23673827636E+03  0.23673827641E+03  0.50400001928E-02 0. -1.
       -1   -1    0    0    0  501  0.00000000000E+00  0.00000000000E+00 -0.37223702504E+03  0.37223702507E+03  0.50400001928E-02 0.  1.
    10030    2    1    2    0    0  0.00000000000E+00  0.00000000000E+00 -0.13549874868E+03  0.60897530149E+03  0.59370953077E+03 0.  0.
        3    1    3    3  502    0  0.18851003505E+03 -0.15048764087E+03 -0.24523077547E+03  0.34397777080E+03  0.10100000352E+00 0.  1.
       -3    1    3    3    0  502 -0.18851003505E+03  0.15048764087E+03  0.10973202678E+03  0.26499753069E+03  0.10100000352E+00 0. -1.
</event>
<event>
 5   0  0.1502642E-01  0.5755838E+03  0.7818609E-02  0.9957398E-01
        2   -1    0    0  501    0  0.00000000000E+00  0.00000000000E+00  0.27880328201E+03  0.27880328203E+03  0.25500000920E-02 0. -1.
       -2   -1    0    0    0  501  0.00000000000E+00  0.00000000000E+00 -0.29707030135E+03  0.29707030137E+03  0.25500000920E-02 0.  1.
    10030    2    1    2    0    0  0.00000000000E+00  0.00000000000E+00 -0.18267019340E+02  0.57587358339E+03  0.57558379065E+03 0.  0.
        2    1    3    3  502    0  0.16673513838E+03  0.22497888028E+03  0.57293231176E+02  0.28582969980E+03  0.25500000920E-02 0. -1.
       -2    1    3    3    0  502 -0.16673513838E+03 -0.22497888028E+03 -0.75560250517E+02  0.29004388359E+03  0.25500000920E-02 0.  1.
</event>
<event>
 5   0  0.9497860E-02  0.6022450E+03  0.7818609E-02  0.9900759E-01
        1   -1    0    0  501    0  0.00000000000E+00  0.00000000000E+00  0.40473033777E+03  0.40473033780E+03  0.50400001928E-02 0. -1.
       -1   -1    0    0    0  501  0.00000000000E+00  0.00000000000E+00 -0.22403749841E+03  0.22403749847E+03  0.50400001928E-02 0.  1.
    10030    2    1    2    0    0  0.00000000000E+00  0.00000000000E+00  0.18069283935E+03  0.62876783627E+03  0.60224504127E+03 0.  0.
        5    1    3    3  502    0  0.14500019288E+03 -0.25078769550E+03  0.46768673890E+01  0.28976453757E+03  0.46999998093E+01 0.  1.
       -5    1    3    3    0  502 -0.14500019288E+03  0.25078769550E+03  0.17601597197E+03  0.33900329870E+03  0.46999998093E+01 0. -1.
</event>
<event>
 5   0  0.1532571E-01  0.4182625E+03  0.7818609E-02  0.1037633E+00
       -2   -1    0    0    0  501  0.00000000000E+00  0.00000000000E+00  0.11133547870E+03  0.11133547873E+03  0.25500000920E-02 0.  1.
        2   -1    0    0  501    0  0.00000000000E+00  0.00000000000E+00 -0.39282963392E+03  0.39282963393E+03  0.25500000920E-02 0. -1.
    10030    2    1    2    0    0  0.00000000000E+00  0.00000000000E+00 -0.28149415523E+03  0.50416511266E+03  0.41826247907E+03 0.  0.
        1    1    3    3  502    0 -0.96191778680E+02  0.17931123534E+03 -0.19893706223E+03  0.28457219147E+03  0.50400001928E-02 0. -1.
       -1    1    3    3    0  502  0.96191778680E+02 -0.17931123534E+03 -0.82557092996E+02  0.21959292119E+03  0.50400001928E-02 0.  1.
</event>
<event>
 5   0  0.1483942E-01  0.6019504E+03  0.7818609E-02  0.9901368E-01
       -2   -1    0    0    0  501  0.00000000000E+00  0.00000000000E+00  0.11629474384E+03  0.11629474387E+03  0.25500000920E-02 0. -1.
        2   -1    0    0  501    0  0.00000000000E+00  0.00000000000E+00 -0.77893509168E+03  0.77893509169E+03  0.25500000920E-02 0.  1.
    10030    2    1    2    0    0  0.00000000000E+00  0.00000000000E+00 -0.66264034784E+03  0.89522983556E+03  0.60195035334E+03 0.  0.
        4    1    3    3  502    0 -0.12879806724E+03  0.27139624173E+03 -0.35872620556E+03  0.46790059372E+03  0.12699999809E+01 0. -1.
       -4    1    3    3    0  502  0.12879806724E+03 -0.27139624173E+03 -0.30391414229E+03  0.42732924184E+03  0.12699999809E+01 0.  1.
</event>
<event>
 5   0  0.8860626E-02  0.6263417E+03  0.7818609E-02  0.9852214E-01
       -1   -1    0    0    0  501  0.00000000000E+00  0.00000000000E+00  0.10062409095E+03  0.10062409107E+03  0.50400001928E-02 0. -1.
        1   -1    0    0  501    0  0.00000000000E+00  0.00000000000E+00 -0.97467699428E+03  0.97467699430E+03  0.50400001928E-02 0.  1.
    10030    2    1    2    0    0  0.00000000000E+00  0.00000000000E+00 -0.87405290334E+03  0.10753010854E+04  0.62634171693E+03 0.  0.
        3    1    3    3  502    0 -0.16122118259E+03 -0.14982702007E+00 -0.89795884817E+03  0.91231704761E+03  0.10100000352E+00 0.  1.
       -3    1    3    3    0  502  0.16122118259E+03  0.14982702007E+00  0.23905944832E+02  0.16298403776E+03  0.10100000352E+00 0. -1.
</event>
<event>
 5   0  0.1483942E-01  0.6170529E+03  0.7818609E-02  0.9870645E-01
        2   -1    0    0  501    0  0.00000000000E+00  0.00000000000E+00  0.12603585934E+04  0.12603585934E+04  0.25500000920E-02 0.  1.
       -2   -1    0    0    0  501  0.00000000000E+00  0.00000000000E+00 -0.75524990744E+02  0.75524990787E+02  0.25500000920E-02 0. -1.
    10030    2    1    2    0    0  0.00000000000E+00  0.00000000000E+00  0.11848336027E+04  0.13358835842E+04  0.61705290254E+03 0.  0.
        4    1    3    3  502    0 -0.21069040873E+03 -0.13901704949E+03  0.97647752607E+03  0.10085763036E+04  0.12699999809E+01 0.  1.
       -4    1    3    3    0  502  0.21069040873E+03  0.13901704949E+03  0.20835607661E+03  0.32730728061E+03  0.12699999809E+01 0. -1.
</event>
<event>
 5   0  0.1488510E-01  0.5998962E+03  0.7818609E-02  0.9905621E-01
        2   -1    0    0  501    0  0.00000000000E+00  0.00000000000E+00  0.39405278035E+03  0.39405278036E+03  0.25500000920E-02 0.  1.
       -2   -1    0    0    0  501  0.00000000000E+00  0.00000000000E+00 -0.22831680853E+03  0.22831680854E+03  0.25500000920E-02 0. -1.
    10030    2    1    2    0    0  0.00000000000E+00  0.00000000000E+00  0.16573597182E+03  0.62236958890E+03  0.59989623505E+03 0.  0.
        5    1    3    3  502    0 -0.15749344015E+03 -0.11703416609E+03  0.31818122402E+03  0.37384831287E+03  0.46999998093E+01 0.  1.
       -5    1    3    3    0  502  0.15749344015E+03  0.11703416609E+03 -0.15244525219E+03  0.24852127603E+03  0.46999998093E+01 0. -1.
</event>
<event>
 5   0  0.1532571E-01  0.5962786E+03  0.7818609E-02  0.9913157E-01
       -2   -1    0    0    0  501  0.00000000000E+00  0.00000000000E+00  0.18765039413E+03  0.18765039415E+03  0.25500000920E-02 0.  1.
        2   -1    0    0  501    0  0.00000000000E+00  0.00000000000E+00 -0.47368433167E+03  0.47368433168E+03  0.25500000920E-02 0. -1.
    10030    2    1    2    0    0  0.00000000000E+00  0.00000000000E+00 -0.28603393754E+03  0.66133472583E+03  0.59627863132E+03 0.  0.
        1    1    3    3  502    0 -0.11824256402E+03  0.19365441224E+03 -0.35751803641E+03  0.42344123761E+03  0.50400001928E-02 0. -1.
       -1    1    3    3    0  502  0.11824256402E+03 -0.19365441224E+03  0.71484098866E+02  0.23789348823E+03  0.50400001928E-02 0.  1.
</event>
<event>
 5   0  0.9411028E-02  0.5719909E+03  0.7818609E-02  0.9965283E-01
       -1   -1    0    0    0  501  0.00000000000E+00  0.00000000000E+00  0.95834526018E+02  0.95834526151E+02  0.50400001928E-02 0. -1.
        1   -1    0    0  501    0  0.00000000000E+00  0.00000000000E+00 -0.85348565182E+03  0.85348565184E+03  0.50400001928E-02 0.  1.
    10030    2    1    2    0    0  0.00000000000E+00  0.00000000000E+00 -0.75765112581E+03  0.94932017799E+03  0.57199088446E+03 0.  0.
        4    1    3    3  502    0 -0.19551983850E+03 -0.20297358535E+03 -0.29810489309E+03  0.41023703366E+03  0.12699999809E+01 0. -1.
       -4    1    3    3    0  502  0.19551983850E+03  0.20297358535E+03 -0.45954623272E+03  0.53908314434E+03  0.12699999809E+01 0.  1.
</event>
<event>
 5   0  0.1532571E-01  0.6297612E+03  0.7818609E-02  0.9845515E-01
        2   -1    0    0  501    0  0.00000000000E+00  0.00000000000E+00  0.12041234864E+04  0.12041234864E+04  0.25500000920E-02 0.  1.
       -2   -1    0    0    0  501  0.00000000000E+00  0.00000000000E+00 -0.82341869174E+02  0.82341869214E+02  0.25500000920E-02 0. -1.
    10030    2    1    2    0    0  0.00000000000E+00  0.00000000000E+00  0.11217816172E+04  0.12864653556E+04  0.62976115667E+03 0.  0.
        1    1    3    3  502    0  0.20006404545E+03 -0.83981487521E+02  0.10270360914E+04  0.10497055043E+04  0.50400001928E-02 0.  1.
       -1    1    3    3    0  502 -0.20006404545E+03  0.83981487521E+02  0.94745525778E+02  0.23675985135E+03  0.50400001928E-02 0. -1.
</event>
<event>
 5   0  0.9420349E-02  0.5937877E+03  0.7818609E-02  0.9918379E-01
        1   -1    0    0  501    0  0.00000000000E+00  0.00000000000E+00  0.39608658794E+03  0.39608658797E+03  0.50400001928E-02 0. -1.
       -1   -1    0    0    0  501  0.00000000000E+00  0.00000000000E+00 -0.22254213631E+03  0.22254213637E+03  0.50400001928E-02 0.  1.
    10030    2    1    2    0    0  0.00000000000E+00  0.00000000000E+00  0.17354445163E+03  0.61862872434E+03  0.59378769092E+03 0.  0.
        2    1    3    3  502    0  0.27515591922E+03 -0.10690313631E+03  0.11983132300E+03  0.31858845932E+03  0.25500000920E-02 0. -1.
       -2    1    3    3    0  502 -0.27515591922E+03  0.10690313631E+03  0.53713128628E+02  0.30004026502E+03  0.25500000920E-02 0.  1.
</event>
<event>
 5   0  0.1513339E-01  0.5814561E+03  0.7818609E-02  0.9944643E-01
        2   -1    0    0  501    0  0.00000000000E+00  0.00000000000E+00  0.31117758178E+03  0.31117758179E+03  0.25500000920E-02 0. -1.
       -2   -1    0    0    0  501  0.00000000000E+00  0.00000000000E+00 -0.27162242967E+03  0.27162242968E+03  0.25500000920E-02 0.  1.
    10030    2    1    2    0    0  0.00000000000E+00  0.00000000000E+00  0.39555152114E+02  0.58280001147E+03  0.58145614049E+03 0.  0.
        3    1    3    3  502    0  0.16355230511E+03  0.19848022685E+03  0.15566023773E+03  0.30062248214E+03  0.10100000352E+00 0. -1.
       -3    1    3    3    0  502 -0.16355230511E+03 -0.19848022685E+03 -0.11610508561E+03  0.28217752934E+03  0.10100000352E+00 0.  1.
</event>
<event>
 5   0  0.6170500E-02  0.5225657E+03  0.7818609E-02  0.1008051E+00
       -3   -1    0    0    0  501  0.00000000000E+00  0.00000000000E+00  0.31422869851E+03  0.31422871474E+03  0.10100000352E+00 0.  1.
        3   -1    0    0  501    0  0.00000000000E+00  0.00000000000E+00 -0.21725805417E+03  0.21725807765E+03  0.10100000352E+00 0. -1.
    10030    2    1    2    0    0  0.00000000000E+00  0.00000000000E+00  0.96970644342E+02  0.53148679239E+03  0.52256569407E+03 0.  0.
        5    1    3    3  502    0 -0.11033547153E+03 -0.17352613588E+03  0.21236142827E+03  0.29564286280E+03  0.46999998093E+01 0.  1.
       -5    1    3    3    0  502  0.11033547153E+03  0.17352613588E+03 -0.11539078392E+03  0.23584392959E+03  0.46999998093E+01 0. -1.
</event>
<event>
 5   0  0.9411028E-02  0.5936825E+03  0.7818609E-02  0.9918600E-01
       -1   -1    0    0    0  501  0.00000000000E+00  0.00000000000E+00  0.17478287152E+03  0.17478287159E+03  0.50400001928E-02 0. -1.
        1   -1    0    0  501    0  0.00000000000E+00  0.00000000000E+00 -0.50413823660E+03  0.50413823663E+03  0.50400001928E-02 0.  1.
    10030    2    1    2    0    0  0.00000000000E+00  0.00000000000E+00 -0.32935536508E+03  0.67892110822E+03  0.59368250326E+03 0.  0.
        4    1    3    3  502    0 -0.29586625246E+01 -0.27842690964E+03 -0.28232058392E+03  0.39653098581E+03  0.12699999809E+01 0.  1.
       -4    1    3    3    0  502  0.29586625246E+01  0.27842690964E+03 -0.47034781162E+02  0.28239012241E+03  0.12699999809E+01 0. -1.
</event>
<event>
 5   0  0.9411028E-02  0.5946449E+03  0.7818609E-02  0.9916579E-01
        1   -1    0    0  501    0  0.00000000000E+00  0.00000000000E+00  0.16265429351E+03  0.16265429358E+03  0.50400001928E-02 0. -1.
       -1   -1    0    0    0  501  0.00000000000E+00  0.00000000000E+00 -0.54348796907E+03  0.54348796909E+03  0.50400001928E-02 0.  1.
    10030    2    1    2    0    0  0.00000000000E+00  0.00000000000E+00 -0.38083367556E+03  0.70614226268E+03  0.59464494170E+03 0.  0.
        4    1    3    3  502    0  0.84291545045E+02  0.22982334938E+03 -0.39080307248E+03  0.46114259275E+03  0.12699999809E+01 0.  1.
       -4    1    3    3    0  502 -0.84291545045E+02 -0.22982334938E+03  0.99693969201E+01  0.24499966992E+03  0.12699999809E+01 0. -1.
</event>
<event>
 5   0  0.1532571E-01  0.5993527E+03  0.7818609E-02  0.9906750E-01
        2   -1    0    0  501    0  0.00000000000E+00  0.00000000000E+00  0.46412617465E+03  0.46412617466E+03  0.25500000920E-02 0.  1.
       -2   -1    0    0    0  501  0.00000000000E+00  0.00000000000E+00 -0.19349463018E+03  0.19349463020E+03  0.25500000920E-02 0. -1.
    10030    2    1    2    0    0  0.00000000000E+00  0.00000000000E+00  0.27063154447E+03  0.65762080486E+03  0.59935272596E+03 0.  0.
        1    1    3    3  502    0  0.19253227457E+03 -0.10849549244E+03 -0.86761800100E+02  0.23741853047E+03  0.50400001928E-02 0. -1.
       -1    1    3    3    0  502 -0.19253227457E+03  0.10849549244E+03  0.35739334457E+03  0.42020227438E+03  0.50400001928E-02 0.  1.
</event>
<event>
 5   0  0.1483942E-01  0.5945173E+03  0.7818609E-02  0.9916847E-01
       -2   -1    0    0    0  501  0.00000000000E+00  0.00000000000E+00  0.73654553180E+02  0.73654553224E+02  0.25500000920E-02 0. -1.
        2   -1    0    0  501    0  0.00000000000E+00  0.00000000000E+00 -0.11996908951E+04  0.11996908951E+04  0.25500000920E-02 0.  1.
    10030    2    1    2    0    0  0.00000000000E+00  0.00000000000E+00 -0.11260363419E+04  0.12733454483E+04  0.59451727262E+03 0.  0.
        4    1    3    3  502    0  0.25039493782E+03 -0.71207581182E+02 -0.87037363255E+03  0.90847125306E+03  0.12699999809E+01 0.  1.
       -4    1    3    3    0  502 -0.25039493782E+03  0.71207581182E+02 -0.25566270934E+03  0.36487419524E+03  0.12699999809E+01 0. -1.
</event>
<event>
 5   0  0.9497860E-02  0.6055809E+03  0.7818609E-02  0.9893895E-01
       -1   -1    0    0    0  501  0.00000000000E+00  0.00000000000E+00  0.92046641312E+02  0.92046641450E+02  0.50400001928E-02 0. -1.
        1   -1    0    0  501    0  0.00000000000E+00  0.00000000000E+00 -0.99603906207E+03  0.99603906208E+03  0.50400001928E-02 0.  1.
    10030    2    1    2    0    0  0.00000000000E+00  0.00000000000E+00 -0.90399242076E+03  0.10880857035E+04  0.60558087936E+03 0.  0.
        5    1    3    3  502    0  0.14370565239E+03  0.18070788397E+03 -0.80387440529E+03  0.83638675464E+03  0.46999998093E+01 0.  1.
       -5    1    3    3    0  502 -0.14370565239E+03 -0.18070788397E+03 -0.10011801547E+03  0.25169894889E+03  0.46999998093E+01 0. -1.
</event>
<event>
 5   0  0.1532571E-01  0.5689338E+03  0.7818609E-02  0.9972041E-01
       -2   -1    0    0    0  501  0.00000000000E+00  0.00000000000E+00  0.15646716326E+03  0.15646716328E+03  0.25500000920E-02 0.  1.
        2   -1    0    0  501    0  0.00000000000E+00  0.00000000000E+00 -0.51717829417E+03  0.51717829418E+03  0.25500000920E-02 0. -1.
    10030    2    1    2    0    0  0.00000000000E+00  0.00000000000E+00 -0.36071113091E+03  0.67364545746E+03  0.56893381196E+03 0.  0.
        1    1    3    3  502    0 -0.12593375743E+03  0.25066704976E+03 -0.23624642998E+03  0.36675012856E+03  0.50400001928E-02 0. -1.
       -1    1    3    3    0  502  0.12593375743E+03 -0.25066704976E+03 -0.12446470093E+03  0.30689532890E+03  0.50400001928E-02 0.  1.
</event>
<event>
 5   0  0.1513339E-01  0.6021496E+03  0.7818609E-02  0.9900956E-01
        2   -1    0    0  501    0  0.00000000000E+00  0.00000000000E+00  0.13267966064E+04  0.13267966064E+04  0.25500000920E-02 0. -1.
       -2   -1    0    0    0  501  0.00000000000E+00  0.00000000000E+00 -0.68319460610E+02  0.68319460657E+02  0.25500000920E-02 0.  1.
    10030    2    1    2    0    0  0.00000000000E+00  0.00000000000E+00  0.12584771458E+04  0.13951160670E+04  0.60214957783E+03 0.  0.
        3    1    3    3  502    0  0.86175943060E+02 -0.69719954026E+02  0.12777983186E+04  0.12825972549E+04  0.10100000352E+00 0. -1.
       -3    1    3    3    0  502 -0.86175943060E+02  0.69719954026E+02 -0.19321172849E+02  0.11251881208E+03  0.10100000352E+00 0.  1.
</event>
<event>
 5   0  0.9411028E-02  0.5972997E+03  0.7818609E-02  0.9911024E-01
       -1   -1    0    0    0  501  0.00000000000E+00  0.00000000000E+00  0.14765667958E+03  0.14765667967E+03  0.50400001928E-02 0.  1.
        1   -1    0    0  501    0  0.00000000000E+00  0.00000000000E+00 -0.60404804512E+03  0.60404804514E+03  0.50400001928E-02 0. -1.
    10030    2    1    2    0    0  0.00000000000E+00  0.00000000000E+00 -0.45639136554E+03  0.75170472481E+03  0.59729968589E+03 0.  0.
        4    1    3    3  502    0  0.35329650874E+02 -0.21267562244E+03  0.31895075229E+02  0.21794038941E+03  0.12699999809E+01 0.  1.
       -4    1    3    3    0  502 -0.35329650874E+02  0.21267562244E+03 -0.48828644077E+03  0.53376433540E+03  0.12699999809E+01 0. -1.
</event>
<event>
 5   0  0.9411028E-02  0.6036837E+03  0.7818609E-02  0.9897793E-01
       -1   -1    0    0    0  501  0.00000000000E+00  0.00000000000E+00  0.34545561400E+03  0.34545561404E+03  0.50400001928E-02 0.  1.
        1   -1    0    0  501    0  0.00000000000E+00  0.00000000000E+00 -0.26373435298E+03  0.26373435303E+03  0.50400001928E-02 0. -1.
    10030    2    1    2    0    0  0.00000000000E+00  0.00000000000E+00  0.81721261017E+02  0.60918996707E+03  0.60368373464E+03 0.  0.
        4    1    3    3  502    0  0.26708818391E+03 -0.11937057052E+03 -0.34123710991E+02  0.29453602775E+03  0.12699999809E+01 0.  1.
       -4    1    3    3    0  502 -0.26708818391E+03  0.11937057052E+03  0.11584497201E+03  0.31465393932E+03  0.12699999809E+01 0. -1.
</event>
<event>
 5   0  0.9177281E-02  0.5584551E+03  0.7818609E-02  0.9995556E-01
        1   -1    0    0  501    0  0.00000000000E+00  0.00000000000E+00  0.61957670197E+03  0.61957670199E+03  0.50400001928E-02 0.  1.
       -1   -1    0    0    0  501  0.00000000000E+00  0.00000000000E+00 -0.12584080409E+03  0.12584080419E+03  0.50400001928E-02 0. -1.
    10030    2    1    2    0    0  0.00000000000E+00  0.00000000000E+00  0.49373589787E+03  0.74541750618E+03  0.55845512055E+03 0.  0.
        1    1    3    3  502    0 -0.23002491052E+03 -0.19197840160E+02  0.37140928519E+02  0.23379363790E+03  0.50400001928E-02 0. -1.
       -1    1    3    3    0  502  0.23002491052E+03  0.19197840160E+02  0.45659496935E+03  0.51162386828E+03  0.50400001928E-02 0.  1.
</event>
<event>
 5   0  0.8860626E-02  0.6574932E+03  0.7818609E-02  0.9792819E-01
        1   -1    0    0  501    0  0.00000000000E+00  0.00000000000E+00  0.69119686136E+03  0.69119686137E+03  0.50400001928E-02 0. -1.
       -1   -1    0    0    0  501  0.00000000000E+00  0.00000000000E+00 -0.15635824801E+03  0.15635824809E+03  0.50400001928E-02 0.  1.
    10030    2    1    2    0    0  0.00000000000E+00  0.00000000000E+00  0.53483861335E+03  0.84755510946E+03  0.65749321004E+03 0.  0.
        3    1    3    3  502    0  0.13509731947E+03 -0.19649181265E+03  0.55914254842E+03  0.60786570706E+03  0.10100000352E+00 0. -1.
       -3    1    3    3    0  502 -0.13509731947E+03  0.19649181265E+03 -0.24303935068E+02  0.23968940240E+03  0.10100000352E+00 0.  1.
</event>
<event>
 5   0  0.6170500E-02  0.5948461E+03  0.7818609E-02  0.9916157E-01
       -3   -1    0    0    0  501  0.00000000000E+00  0.00000000000E+00  0.39616610550E+03  0.39616611838E+03  0.10100000352E+00 0.  1.
        3   -1    0    0  501    0  0.00000000000E+00  0.00000000000E+00 -0.22329135467E+03  0.22329137751E+03  0.10100000352E+00 0. -1.
    10030    2    1    2    0    0  0.00000000000E+00  0.00000000000E+00  0.17287475083E+03  0.61945749588E+03  0.59484612273E+03 0.  0.
        1    1    3    3  502    0 -0.11234727770E+02  0.28476121068E+03 -0.22037781240E+01  0.28499126808E+03  0.50400001928E-02 0.  1.
       -1    1    3    3    0  502  0.11234727770E+02 -0.28476121068E+03  0.17507852896E+03  0.33446622781E+03  0.50400001928E-02 0. -1.
</event>
<event>
 5   0  0.6170500E-02  0.6015787E+03  0.7818609E-02  0.9902136E-01
        3   -1    0    0  501    0  0.00000000000E+00  0.00000000000E+00  0.28325511471E+03  0.28325513271E+03  0.10100000352E+00 0. -1.
       -3   -1    0    0    0  501  0.00000000000E+00  0.00000000000E+00 -0.31940895582E+03  0.31940897179E+03  0.10100000352E+00 0.  1.
    10030    2    1    2    0    0  0.00000000000E+00  0.00000000000E+00 -0.36153841113E+02  0.60266410450E+03  0.60157869196E+03 0.  0.
        2    1    3    3  502    0  0.17700005566E+03  0.17313584878E+03  0.15302112783E+03  0.29106787423E+03  0.25500000920E-02 0. -1.
       -2    1    3    3    0  502 -0.17700005566E+03 -0.17313584878E+03 -0.18917496894E+03  0.31159623027E+03  0.25500000920E-02 0.  1.
</event>
<event>
 5   0  0.8860626E-02  0.6039909E+03  0.7818609E-02  0.9897161E-01
       -1   -1    0    0    0  501  0.00000000000E+00  0.00000000000E+00  0.31219323213E+03  0.31219323217E+03  0.50400001928E-02 0. -1.
        1   -1    0    0  501    0  0.00000000000E+00  0.00000000000E+00 -0.29213081149E+03  0.29213081153E+03  0.50400001928E-02 0.  1.
    10030    2    1    2    0    0  0.00000000000E+00  0.00000000000E+00  0.20062420643E+02  0.60432404371E+03  0.60399093460E+03 0.  0.
        3    1    3    3  502    0  0.20391602295E+03  0.22208827492E+03  0.27254239061E+02  0.30273379399E+03  0.10100000352E+00 0. -1.
       -3    1    3    3    0  502 -0.20391602295E+03 -0.22208827492E+03 -0.71918184183E+01  0.30159024972E+03  0.10100000352E+00 0.  1.
</event>
<event>
 5   0  0.1483942E-01  0.5976519E+03  0.7818609E-02  0.9910290E-01
       -2   -1    0    0    0  501  0.00000000000E+00  0.00000000000E+00  0.13739906687E+03  0.13739906689E+03  0.25500000920E-02 0. -1.
        2   -1    0    0  501    0  0.00000000000E+00  0.00000000000E+00 -0.64990938123E+03  0.64990938124E+03  0.25500000920E-02 0.  1.
    10030    2    1    2    0    0  0.00000000000E+00  0.00000000000E+00 -0.51251031436E+03  0.78730844813E+03  0.59765188042E+03 0.  0.
        4    1    3    3  502    0  0.27287925491E+03  0.37626187147E+02 -0.40884176976E+03  0.49298278197E+03  0.12699999809E+01 0.  1.
       -4    1    3    3    0  502 -0.27287925491E+03 -0.37626187147E+02 -0.10366854460E+03  0.29432566616E+03  0.12699999809E+01 0. -1.
</event>
<event>
 5   0  0.1532571E-01  0.6558346E+03  0.7818609E-02  0.9795892E-01
        2   -1    0    0  501    0  0.00000000000E+00  0.00000000000E+00  0.14279526266E+04  0.14279526266E+04  0.25500000920E-02 0. -1.
       -2   -1    0    0    0  501  0.00000000000E+00  0.00000000000E+00 -0.75303450002E+02  0.75303450046E+02  0.25500000920E-02 0.  1.
    10030    2    1    2    0    0  0.00000000000E+00  0.00000000000E+00  0.13526491766E+04  0.15032560766E+04  0.65583461103E+03 0.  0.
        1    1    3    3  502    0 -0.22987494774E+02  0.25802890951E+03  0.11371641662E+04  0.11662974252E+04  0.50400001928E-02 0. -1.
       -1    1    3    3    0  502  0.22987494774E+02 -0.25802890951E+03  0.21548501036E+03  0.33695865144E+03  0.50400001928E-02 0.  1.
</event>
<event>
 5   0  0.9420349E-02  0.5834494E+03  0.7818609E-02  0.9940351E-01
       -1   -1    0    0    0  501  0.00000000000E+00  0.00000000000E+00  0.25258291485E+03  0.25258291491E+03  0.50400001928E-02 0.  1.
        1   -1    0    0  501    0  0.00000000000E+00  0.00000000000E+00 -0.33693211970E+03  0.33693211974E+03  0.50400001928E-02 0. -1.
    10030    2    1    2    0    0  0.00000000000E+00  0.00000000000E+00 -0.84349204844E+02  0.58951503464E+03  0.58344938745E+03 0.  0.
        2    1    3    3  502    0 -0.30382997329E+02 -0.27377751689E+03  0.54876260792E+02  0.28087125037E+03  0.25500000920E-02 0.  1.
       -2    1    3    3    0  502  0.30382997329E+02  0.27377751689E+03 -0.13922546564E+03  0.30864378427E+03  0.25500000920E-02 0. -1.
</event>
<event>
 5   0  0.1488510E-01  0.6157216E+03  0.7818609E-02  0.9873315E-01
       -2   -1    0    0    0  501  0.00000000000E+00  0.00000000000E+00  0.18120231303E+03  0.18120231305E+03  0.25500000920E-02 0.  1.
        2   -1    0    0  501    0  0.00000000000E+00  0.00000000000E+00 -0.52305230202E+03  0.52305230203E+03  0.25500000920E-02 0. -1.
    10030    2    1    2    0    0  0.00000000000E+00  0.00000000000E+00 -0.34184998899E+03  0.70425461507E+03  0.61572164805E+03 0.  0.
        5    1    3    3  502    0 -0.80210702420E+02 -0.20207437159E+03 -0.42017719135E+03  0.47311602231E+03  0.46999998093E+01 0. -1.
       -5    1    3    3    0  502  0.80210702420E+02  0.20207437159E+03  0.78327202361E+02  0.23113859276E+03  0.46999998093E+01 0.  1.
</event>
<event>
 5   0  0.6170500E-02  0.6812485E+03  0.7818609E-02  0.9749848E-01
        3   -1    0    0  501    0  0.00000000000E+00  0.00000000000E+00  0.25451252244E+03  0.25451254248E+03  0.10100000352E+00 0. -1.
       -3   -1    0    0    0  501  0.00000000000E+00  0.00000000000E+00 -0.45587095064E+03  0.45587096183E+03  0.10100000352E+00 0.  1.
    10030    2    1    2    0    0  0.00000000000E+00  0.00000000000E+00 -0.20135842820E+03  0.71038350431E+03  0.68124849107E+03 0.  0.
        1    1    3    3  502    0 -0.27306038530E+03 -0.61000809734E+00 -0.31301109985E+03  0.41537729209E+03  0.50400001928E-02 0.  1.
       -1    1    3    3    0  502  0.27306038530E+03  0.61000809734E+00  0.11165267165E+03  0.29500621221E+03  0.50400001928E-02 0. -1.
</event>
<event>
 5   0  0.6170500E-02  0.5661554E+03  0.7818609E-02  0.9978222E-01
       -3   -1    0    0    0  501  0.00000000000E+00  0.00000000000E+00  0.95155921816E+02  0.95155975418E+02  0.10100000352E+00 0. -1.
        3   -1    0    0  501    0  0.00000000000E+00  0.00000000000E+00 -0.84212257850E+03  0.84212258455E+03  0.10100000352E+00 0.  1.
    10030    2    1    2    0    0  0.00000000000E+00  0.00000000000E+00 -0.74696665668E+03  0.93727855997E+03  0.56615537866E+03 0.  0.
        1    1    3    3  502    0  0.13655210062E+03  0.39881186182E+02  0.31681678907E+02  0.14574194317E+03  0.50400001928E-02 0. -1.
       -1    1    3    3    0  502 -0.13655210062E+03 -0.39881186182E+02 -0.77864833559E+03  0.79153661680E+03  0.50400001928E-02 0.  1.
</event>
<event>
 5   0  0.9420349E-02  0.5857356E+03  0.7818609E-02  0.9935450E-01
        1   -1    0    0  501    0  0.00000000000E+00  0.00000000000E+00  0.28206675090E+03  0.28206675095E+03  0.50400001928E-02 0.  1.
       -1   -1    0    0    0  501  0.00000000000E+00  0.00000000000E+00 -0.30408247971E+03  0.30408247975E+03  0.50400001928E-02 0. -1.
    10030    2    1    2    0    0  0.00000000000E+00  0.00000000000E+00 -0.22015728806E+02  0.58614923070E+03  0.58573563007E+03 0.  0.
        2    1    3    3  502    0 -0.12931041724E+03  0.77836668474E+02 -0.26216681270E+03  0.30250812989E+03  0.25500000920E-02 0. -1.
       -2    1    3    3    0  502  0.12931041724E+03 -0.77836668474E+02  0.24015108389E+03  0.28364110081E+03  0.25500000920E-02 0.  1.
</event>
<event>
 5   0  0.1502642E-01  0.6179254E+03  0.7818609E-02  0.9868899E-01
       -2   -1    0    0    0  501  0.00000000000E+00  0.00000000000E+00  0.50770620735E+03  0.50770620735E+03  0.25500000920E-02 0.  1.
        2   -1    0    0  501    0  0.00000000000E+00  0.00000000000E+00 -0.18801807882E+03  0.18801807884E+03  0.25500000920E-02 0. -1.
    10030    2    1    2    0    0  0.00000000000E+00  0.00000000000E+00  0.31968812852E+03  0.69572428619E+03  0.61792538617E+03 0.  0.
        2    1    3    3  502    0  0.23824024036E+03 -0.17238020177E+03  0.53122915701E+02  0.29882334291E+03  0.25500000920E-02 0.  1.
       -2    1    3    3    0  502 -0.23824024036E+03  0.17238020177E+03  0.26656521282E+03  0.39690094329E+03  0.25500000920E-02 0. -1.
</event>
<event>
 5   0  0.1513339E-01  0.5823208E+03  0.7818609E-02  0.9942779E-01
        2   -1    0    0  501    0  0.00000000000E+00  0.00000000000E+00  0.12836513030E+04  0.12836513030E+04  0.25500000920E-02 0.  1.
       -2   -1    0    0    0  501  0.00000000000E+00  0.00000000000E+00 -0.66041594285E+02  0.66041594334E+02  0.25500000920E-02 0. -1.
    10030    2    1    2    0    0  0.00000000000E+00  0.00000000000E+00  0.12176097087E+04  0.13496928974E+04  0.58232080022E+03 0.  0.
        3    1    3    3  502    0  0.14476419646E+02  0.29078195562E+03  0.60123881167E+03  0.66802083148E+03  0.10100000352E+00 0.  1.
       -3    1    3    3    0  502 -0.14476419646E+02 -0.29078195562E+03  0.61637089707E+03  0.68167206588E+03  0.10100000352E+00 0. -1.
</event>
<event>
 5   0  0.9497860E-02  0.5108442E+03  0.7818609E-02  0.1010987E+00
       -1   -1    0    0    0  501  0.00000000000E+00  0.00000000000E+00  0.43971485680E+02  0.43971485969E+02  0.50400001928E-02 0.  1.
        1   -1    0    0  501    0  0.00000000000E+00  0.00000000000E+00 -0.14836992284E+04  0.14836992284E+04  0.50400001928E-02 0. -1.
    10030    2    1    2    0    0  0.00000000000E+00  0.00000000000E+00 -0.14397277427E+04  0.15276707144E+04  0.51084424085E+03 0.  0.
        5    1    3    3  502    0 -0.10789632238E+03  0.19388871935E+03 -0.34178459821E+03  0.40752086259E+03  0.46999998093E+01 0.  1.
       -5    1    3    3    0  502  0.10789632238E+03 -0.19388871935E+03 -0.10979431445E+04  0.11201498518E+04  0.46999998093E+01 0. -1.
</event>
<event>
 5   0  0.1532571E-01  0.5771544E+03  0.7818609E-02  0.9953971E-01
       -2   -1    0    0    0  501  0.00000000000E+00  0.00000000000E+00  0.55653130849E+02  0.55653130908E+02  0.25500000920E-02 0.  1.
        2   -1    0    0  501    0  0.00000000000E+00  0.00000000000E+00 -0.14963541704E+04  0.14963541704E+04  0.25500000920E-02 0. -1.
    10030    2    1    2    0    0  0.00000000000E+00  0.00000000000E+00 -0.14407010395E+04  0.15520073013E+04  0.57715437965E+03 0.  0.
        1    1    3    3  502    0 -0.18546763218E+03  0.83036096026E+01 -0.13144434679E+04  0.13274896696E+04  0.50400001928E-02 0. -1.
       -1    1    3    3    0  502  0.18546763218E+03 -0.83036096026E+01 -0.12625757158E+03  0.22451763165E+03  0.50400001928E-02 0.  1.
</event>
<event>
 5   0  0.1483942E-01  0.5608743E+03  0.7818609E-02  0.9990078E-01
        2   -1    0    0  501    0  0.00000000000E+00  0.00000000000E+00  0.17128324092E+04  0.17128324092E+04  0.25500000920E-02 0. -1.
       -2   -1    0    0    0  501  0.00000000000E+00  0.00000000000E+00 -0.45915176010E+02  0.45915176080E+02  0.25500000920E-02 0.  1.
    10030    2    1    2    0    0  0.00000000000E+00  0.00000000000E+00  0.16669172331E+04  0.17587475852E+04  0.56087432320E+03 0.  0.
        4    1    3    3  502    0  0.11830399831E+03 -0.12360850388E+03  0.13673123354E+03  0.21902497887E+03  0.12699999809E+01 0.  1.
       -4    1    3    3    0  502 -0.11830399831E+03  0.12360850388E+03  0.15301859996E+04  0.15397226064E+04  0.12699999809E+01 0. -1.
</event>
<event>
 5   0  0.9497860E-02  0.5206421E+03  0.7818609E-02  0.1008527E+00
        1   -1    0    0  501    0  0.00000000000E+00  0.00000000000E+00  0.17119758622E+03  0.17119758629E+03  0.50400001928E-02 0.  1.
       -1   -1    0    0    0  501  0.00000000000E+00  0.00000000000E+00 -0.39584108606E+03  0.39584108609E+03  0.50400001928E-02 0. -1.
    10030    2    1    2    0    0  0.00000000000E+00  0.00000000000E+00 -0.22464349984E+03  0.56703867238E+03  0.52064205934E+03 0.  0.
        5    1    3    3  502    0  0.55628030565E+00 -0.12057257128E+03 -0.36354358524E+03  0.38304579721E+03  0.46999998093E+01 0. -1.
       -5    1    3    3    0  502 -0.55628030565E+00  0.12057257128E+03  0.13890008539E+03  0.18399287517E+03  0.46999998093E+01 0.  1.
</event>
<event>
 5   0  0.9420349E-02  0.6014812E+03  0.7818609E-02  0.9902338E-01
       -1   -1    0    0    0  501  0.00000000000E+00  0.00000000000E+00  0.44164267515E+03  0.44164267518E+03  0.50400001928E-02 0. -1.
        1   -1    0    0  501    0  0.00000000000E+00  0.00000000000E+00 -0.20479201612E+03  0.20479201618E+03  0.50400001928E-02 0.  1.
    10030    2    1    2    0    0  0.00000000000E+00  0.00000000000E+00  0.23685065903E+03  0.64643469136E+03  0.60148115141E+03 0.  0.
        2    1    3    3  502    0  0.11797894501E+03 -0.13337873907E+03 -0.14204287810E+03  0.22778300799E+03  0.25500000920E-02 0.  1.
       -2    1    3    3    0  502 -0.11797894501E+03  0.13337873907E+03  0.37889353713E+03  0.41865168337E+03  0.25500000920E-02 0. -1.
</event>
<event>
 5   0  0.9497860E-02  0.5955155E+03  0.7818609E-02  0.9914754E-01
       -1   -1    0    0    0  501  0.00000000000E+00  0.00000000000E+00  0.11239233309E+03  0.11239233320E+03  0.50400001928E-02 0. -1.
        1   -1    0    0  501    0  0.00000000000E+00  0.00000000000E+00 -0.78884110416E+03  0.78884110418E+03  0.50400001928E-02 0.  1.
    10030    2    1    2    0    0  0.00000000000E+00  0.00000000000E+00 -0.67644877107E+03  0.90123343738E+03  0.59551554872E+03 0.  0.
        5    1    3    3  502    0  0.21543476476E+03 -0.52057614771E+01 -0.27344946114E+02  0.21727649181E+03  0.46999998093E+01 0. -1.
       -5    1    3    3    0  502 -0.21543476476E+03  0.52057614771E+01 -0.64910382496E+03  0.68395694557E+03  0.46999998093E+01 0.  1.
</event>
<event>
 5   0  0.1513339E-01  0.6081342E+03  0.7818609E-02  0.9888672E-01
       -2   -1    0    0    0  501  0.00000000000E+00  0.00000000000E+00  0.12513737111E+03  0.12513737114E+03  0.25500000920E-02 0.  1.
        2   -1    0    0  501    0  0.00000000000E+00  0.00000000000E+00 -0.73884243531E+03  0.73884243532E+03  0.25500000920E-02 0. -1.
    10030    2    1    2    0    0  0.00000000000E+00  0.00000000000E+00 -0.61370506420E+03  0.86397980646E+03  0.60813419583E+03 0.  0.
        3    1    3    3  502    0  0.17861470848E+03 -0.13914652557E+03 -0.18509368826E+02  0.22717301028E+03  0.10100000352E+00 0.  1.
       -3    1    3    3    0  502 -0.17861470848E+03  0.13914652557E+03 -0.59519569537E+03  0.63680679618E+03  0.10100000352E+00 0. -1.
</event>
<event>
 5   0  0.1502642E-01  0.6104154E+03  0.7818609E-02  0.9884030E-01
       -2   -1    0    0    0  501  0.00000000000E+00  0.00000000000E+00  0.82344896784E+02  0.82344896823E+02  0.25500000920E-02 0. -1.
        2   -1    0    0  501    0  0.00000000000E+00  0.00000000000E+00 -0.11312388252E+04  0.11312388252E+04  0.25500000920E-02 0.  1.
    10030    2    1    2    0    0  0.00000000000E+00  0.00000000000E+00 -0.10488939284E+04  0.12135837220E+04  0.61041541371E+03 0.  0.
        2    1    3    3  502    0 -0.21721079460E+03  0.10669275158E+02 -0.98702629394E+02  0.23882330661E+03  0.25500000920E-02 0. -1.
       -2    1    3    3    0  502  0.21721079460E+03 -0.10669275158E+02 -0.95019129899E+03  0.97476041539E+03  0.25500000920E-02 0.  1.
</event>
<event>
 5   0  0.1488510E-01  0.5964620E+03  0.7818609E-02  0.9912774E-01
        2   -1    0    0  501    0  0.00000000000E+00  0.00000000000E+00  0.42474735586E+03  0.42474735587E+03  0.25500000920E-02 0. -1.
       -2   -1    0    0    0  501  0.00000000000E+00  0.00000000000E+00 -0.20939915942E+03  0.20939915944E+03  0.25500000920E-02 0.  1.
    10030    2    1    2    0    0  0.00000000000E+00  0.00000000000E+00  0.21534819644E+03  0.63414651531E+03  0.59646203330E+03 0.  0.
        5    1    3    3  502    0 -0.76855734834E+02 -0.13302397436E+03 -0.16404581973E+03  0.22480058430E+03  0.46999998093E+01 0.  1.
       -5    1    3    3    0  502  0.76855734834E+02  0.13302397436E+03  0.37939401617E+03  0.40934593101E+03  0.46999998093E+01 0. -1.
</event>
<event>
 5   0  0.6170500E-02  0.6074210E+03  0.7818609E-02  0.9890128E-01
       -3   -1    0    0    0  501  0.00000000000E+00  0.00000000000E+00  0.12467757176E+04  0.12467757217E+04  0.10100000352E+00 0.  1.
        3   -1    0    0  501    0  0.00000000000E+00  0.00000000000E+00 -0.73982844140E+02  0.73982913082E+02  0.10100000352E+00 0. -1.
    10030    2    1    2    0    0  0.00000000000E+00  0.00000000000E+00  0.11727928734E+04  0.13207586347E+04  0.60742098028E+03 0.  0.
        3    1    3    3  502    0  0.70190424773E+02  0.15942289444E+03  0.45429260828E+02  0.18001717402E+03  0.10100000352E+00 0. -1.
       -3    1    3    3    0  502 -0.70190424773E+02 -0.15942289444E+03  0.11273636126E+04  0.11407414607E+04  0.10100000352E+00 0.  1.
</event>
<event>
 5   0  0.9411028E-02  0.6033704E+03  0.7818609E-02  0.9898438E-01
        1   -1    0    0  501    0  0.00000000000E+00  0.00000000000E+00  0.11728156518E+04  0.11728156518E+04  0.50400001928E-02 0.  1.
       -1   -1    0    0    0  501  0.00000000000E+00  0.00000000000E+00 -0.77602960720E+02  0.77602960884E+02  0.50400001928E-02 0. -1.
    10030    2    1    2    0    0  0.00000000000E+00  0.00000000000E+00  0.10952126911E+04  0.12504186127E+04  0.60337042376E+03 0.  0.
        4    1    3    3  502    0 -0.27451527109E+03  0.79073541573E+02  0.74854367929E+03  0.80120566133E+03  0.12699999809E+01 0.  1.
       -4    1    3    3    0  502  0.27451527109E+03 -0.79073541573E+02  0.34666901178E+03  0.44921295136E+03  0.12699999809E+01 0. -1.
</event>
<event>
 5   0  0.9177281E-02  0.6015728E+03  0.7818609E-02  0.9902148E-01
        1   -1    0    0  501    0  0.00000000000E+00  0.00000000000E+00  0.12893682777E+04  0.12893682778E+04  0.50400001928E-02 0. -1.
       -1   -1    0    0    0  501  0.00000000000E+00  0.00000000000E+00 -0.70168047393E+02  0.70168047574E+02  0.50400001928E-02 0.  1.
    10030    2    1    2    0    0  0.00000000000E+00  0.00000000000E+00  0.12192002304E+04  0.13595363253E+04  0.60157278712E+03 0.  0.
        1    1    3    3  502    0 -0.20431101537E+03  0.14497033685E+03  0.23337748641E+03  0.34238054962E+03  0.50400001928E-02 0. -1.
       -1    1    3    3    0  502  0.20431101537E+03 -0.14497033685E+03  0.98582274394E+03  0.10171557757E+04  0.50400001928E-02 0.  1.
</event>
<event>
 5   0  0.1502642E-01  0.6058896E+03  0.7818609E-02  0.9893262E-01
       -2   -1    0    0    0  501  0.00000000000E+00  0.00000000000E+00  0.14410161569E+03  0.14410161571E+03  0.25500000920E-02 0. -1.
        2   -1    0    0  501    0  0.00000000000E+00  0.00000000000E+00 -0.63688084235E+03  0.63688084235E+03  0.25500000920E-02 0.  1.
    10030    2    1    2    0    0  0.00000000000E+00  0.00000000000E+00 -0.49277922666E+03  0.78098245806E+03  0.60588962161E+03 0.  0.
        2    1    3    3  502    0 -0.89231731591E+02  0.27288708466E+03 -0.12177808406E+03  0.31186465760E+03  0.25500000920E-02 0. -1.
       -2    1    3    3    0  502  0.89231731591E+02 -0.27288708466E+03 -0.37100114260E+03  0.46911780046E+03  0.25500000920E-02 0.  1.
</event>
<event>
 5   0  0.9497860E-02  0.6104683E+03  0.7818609E-02  0.9883923E-01
       -1   -1    0    0    0  501  0.00000000000E+00  0.00000000000E+00  0.32095388921E+03  0.32095388925E+03  0.50400001928E-02 0.  1.
        1   -1    0    0  501    0  0.00000000000E+00  0.00000000000E+00 -0.29028433052E+03  0.29028433057E+03  0.50400001928E-02 0. -1.
    10030    2    1    2    0    0  0.00000000000E+00  0.00000000000E+00  0.30669558686E+02  0.61123821982E+03  0.61046829528E+03 0.  0.
        5    1    3    3  502    0  0.28644716301E+03  0.99009196505E+02 -0.20640978769E+02  0.30381398616E+03  0.46999998093E+01 0.  1.
       -5    1    3    3    0  502 -0.28644716301E+03 -0.99009196505E+02  0.51310537455E+02  0.30742423366E+03  0.46999998093E+01 0. -1.
</event>
<event>
 5   0  0.9411028E-02  0.5842886E+03  0.7818609E-02  0.9938549E-01
       -1   -1    0    0    0  501  0.00000000000E+00  0.00000000000E+00  0.80869436088E+02  0.80869436245E+02  0.50400001928E-02 0. -1.
        1   -1    0    0  501    0  0.00000000000E+00  0.00000000000E+00 -0.10553838619E+04  0.10553838619E+04  0.50400001928E-02 0.  1.
    10030    2    1    2    0    0  0.00000000000E+00  0.00000000000E+00 -0.97451442578E+03  0.11362532981E+04  0.58428861999E+03 0.  0.
        4    1    3    3  502    0  0.25279481678E+03 -0.13323136345E+03 -0.60540132044E+03  0.66945364835E+03  0.12699999809E+01 0. -1.
       -4    1    3    3    0  502 -0.25279481678E+03  0.13323136345E+03 -0.36911310534E+03  0.46679964978E+03  0.12699999809E+01 0.  1.
</event>
<event>
 5   0  0.1483942E-01  0.5802509E+03  0.7818609E-02  0.9947248E-01
       -2   -1    0    0    0  501  0.00000000000E+00  0.00000000000E+00  0.42847163107E+02  0.42847163183E+02  0.25500000920E-02 0.  1.
        2   -1    0    0  501    0  0.00000000000E+00  0.00000000000E+00 -0.19644888528E+04  0.19644888528E+04  0.25500000920E-02 0. -1.
    10030    2    1    2    0    0  0.00000000000E+00  0.00000000000E+00 -0.19216416897E+04  0.20073360160E+04  0.58025089186E+03 0.  0.
        4    1    3    3  502    0  0.17713139839E+03  0.62384471493E+02 -0.17258457861E+04  0.17360335955E+04  0.12699999809E+01 0. -1.
       -4    1    3    3    0  502 -0.17713139839E+03 -0.62384471493E+02 -0.19579590366E+03  0.27130242050E+03  0.12699999809E+01 0.  1.
</event>
<event>
 5   0  0.9497860E-02  0.6127769E+03  0.7818609E-02  0.9879247E-01
       -1   -1    0    0    0  501  0.00000000000E+00  0.00000000000E+00  0.20632903658E+03  0.20632903664E+03  0.50400001928E-02 0.  1.
        1   -1    0    0  501    0  0.00000000000E+00  0.00000000000E+00 -0.45497180464E+03  0.45497180467E+03  0.50400001928E-02 0. -1.
    10030    2    1    2    0    0  0.00000000000E+00  0.00000000000E+00 -0.24864276806E+03  0.66130084130E+03  0.61277693870E+03 0.  0.
        5    1    3    3  502    0 -0.21567464049E+03 -0.13159114571E+03  0.62661640287E+02  0.26034659848E+03  0.46999998093E+01 0.  1.
       -5    1    3    3    0  502  0.21567464049E+03  0.13159114571E+03 -0.31130440835E+03  0.40095424282E+03  0.46999998093E+01 0. -1.
</event>
<event>
 5   0  0.1513339E-01  0.6206081E+03  0.7818609E-02  0.9863550E-01
        2   -1    0    0  501    0  0.00000000000E+00  0.00000000000E+00  0.29484949044E+03  0.29484949045E+03  0.25500000920E-02 0.  1.
       -2   -1    0    0    0  501  0.00000000000E+00  0.00000000000E+00 -0.32656869103E+03  0.32656869104E+03  0.25500000920E-02 0. -1.
    10030    2    1    2    0    0  0.00000000000E+00  0.00000000000E+00 -0.31719200589E+02  0.62141818149E+03  0.62060812804E+03 0.  0.
        3    1    3    3  502    0 -0.23781537614E+03 -0.28112432104E+02 -0.21345480614E+03  0.32079499128E+03  0.10100000352E+00 0. -1.
       -3    1    3    3    0  502  0.23781537614E+03  0.28112432104E+02  0.18173560555E+03  0.30062319021E+03  0.10100000352E+00 0.  1.
</event>
<event>
 5   0  0.1532571E-01  0.5826036E+03  0.7818609E-02  0.9942170E-01
       -2   -1    0    0    0  501  0.00000000000E+00  0.00000000000E+00  0.69353932563E+02  0.69353932610E+02  0.25500000920E-02 0. -1.
        2   -1    0    0  501    0  0.00000000000E+00  0.00000000000E+00 -0.12235315504E+04  0.12235315504E+04  0.25500000920E-02 0.  1.
    10030    2    1    2    0    0  0.00000000000E+00  0.00000000000E+00 -0.11541776178E+04  0.12928854830E+04  0.58260355188E+03 0.  0.
        1    1    3    3  502    0  0.47481662352E+01  0.26869617002E+03 -0.32762867398E+03  0.42374606182E+03  0.50400001928E-02 0. -1.
       -1    1    3    3    0  502 -0.47481662352E+01 -0.26869617002E+03 -0.82654894384E+03  0.86913942118E+03  0.50400001928E-02 0.  1.
</event>
<event>
 5   0  0.9177281E-02  0.5764823E+03  0.7818609E-02  0.9955436E-01
        1   -1    0    0  501    0  0.00000000000E+00  0.00000000000E+00  0.82670241768E+03  0.82670241770E+03  0.50400001928E-02 0. -1.
       -1   -1    0    0    0  501  0.00000000000E+00  0.00000000000E+00 -0.10049923173E+03  0.10049923185E+03  0.50400001928E-02 0.  1.
    10030    2    1    2    0    0  0.00000000000E+00  0.00000000000E+00  0.72620318596E+03  0.92720164955E+03  0.57648229083E+03 0.  0.
        1    1    3    3  502    0 -0.11387265530E+03 -0.98814155909E+01  0.78869423525E+03  0.79693363634E+03  0.50400001928E-02 0. -1.
       -1    1    3    3    0  502  0.11387265530E+03  0.98814155909E+01 -0.62491049292E+02  0.13026801321E+03  0.50400001928E-02 0.  1.
</event>
<event>
 5   0  0.6170500E-02  0.6032272E+03  0.7818609E-02  0.9898733E-01
       -3   -1    0    0    0  501  0.00000000000E+00  0.00000000000E+00  0.21754756589E+03  0.21754758933E+03  0.10100000352E+00 0.  1.
        3   -1    0    0  501    0  0.00000000000E+00  0.00000000000E+00 -0.41816485033E+03  0.41816486253E+03  0.10100000352E+00 0. -1.
    10030    2    1    2    0    0  0.00000000000E+00  0.00000000000E+00 -0.20061728445E+03  0.63571245186E+03  0.60322717664E+03 0.  0.
        2    1    3    3  502    0 -0.67037835480E+02 -0.25109611152E+03  0.60994239156E+02  0.26695247858E+03  0.25500000920E-02 0.  1.
       -2    1    3    3    0  502  0.67037835480E+02  0.25109611152E+03 -0.26161152360E+03  0.36875997328E+03  0.25500000920E-02 0. -1.
</event>
<event>
 5   0  0.9420349E-02  0.5749153E+03  0.7818609E-02  0.9958860E-01
        1   -1    0    0  501    0  0.00000000000E+00  0.00000000000E+00  0.20331214155E+03  0.20331214161E+03  0.50400001928E-02 0. -1.
       -1   -1    0    0    0  501  0.00000000000E+00  0.00000000000E+00 -0.40642876580E+03  0.40642876583E+03  0.50400001928E-02 0.  1.
    10030    2    1    2    0    0  0.00000000000E+00  0.00000000000E+00 -0.20311662425E+03  0.60974090744E+03  0.57491530782E+03 0.  0.
        2    1    3    3  502    0  0.16164152489E+03  0.19700285658E+02 -0.35279560957E+03  0.38856251230E+03  0.25500000920E-02 0.  1.
       -2    1    3    3    0  502 -0.16164152489E+03 -0.19700285658E+02  0.14967898533E+03  0.22117839514E+03  0.25500000920E-02 0. -1.
</event>
<event>
 5   0  0.9411028E-02  0.6133565E+03  0.7818609E-02  0.9878077E-01
        1   -1    0    0  501    0  0.00000000000E+00  0.00000000000E+00  0.35053690534E+03  0.35053690538E+03  0.50400001928E-02 0.  1.
       -1   -1    0    0    0  501  0.00000000000E+00  0.00000000000E+00 -0.26830709912E+03  0.26830709917E+03  0.50400001928E-02 0. -1.
    10030    2    1    2    0    0  0.00000000000E+00  0.00000000000E+00  0.82229806220E+02  0.61884400454E+03  0.61335647134E+03 0.  0.
        4    1    3    3  502    0 -0.26024115566E+03 -0.60088055921E+02  0.19317456876E+03  0.32962715373E+03  0.12699999809E+01 0.  1.
       -4    1    3    3    0  502  0.26024115566E+03  0.60088055921E+02 -0.11094476254E+03  0.28921685082E+03  0.12699999809E+01 0. -1.
</event>
<event>
 5   0  0.9420349E-02  0.6044402E+03  0.7818609E-02  0.9896237E-01
        1   -1    0    0  501    0  0.00000000000E+00  0.00000000000E+00  0.62864223475E+03  0.62864223477E+03  0.50400001928E-02 0.  1.
       -1   -1    0    0    0  501  0.00000000000E+00  0.00000000000E+00 -0.14529248636E+03  0.14529248645E+03  0.50400001928E-02 0. -1.
    10030    2    1    2    0    0  0.00000000000E+00  0.00000000000E+00  0.48334974839E+03  0.77393472122E+03  0.60444021494E+03 0.  0.
        2    1    3    3  502    0  0.41174159802E+02 -0.14790497213E+03 -0.91641207713E+02  0.17879961738E+03  0.25500000920E-02 0. -1.
       -2    1    3    3    0  502 -0.41174159802E+02  0.14790497213E+03  0.57499095611E+03  0.59513510384E+03  0.25500000920E-02 0.  1.
</event>
<event>
 5   0  0.9177281E-02  0.5706457E+03  0.7818609E-02  0.9968251E-01
        1   -1    0    0  501    0  0.00000000000E+00  0.00000000000E+00  0.69897185907E+03  0.69897185909E+03  0.50400001928E-02 0. -1.
       -1   -1    0    0    0  501  0.00000000000E+00  0.00000000000E+00 -0.11646980745E+03  0.11646980756E+03  0.50400001928E-02 0.  1.
    10030    2    1    2    0    0  0.00000000000E+00  0.00000000000E+00  0.58250205163E+03  0.81544166665E+03  0.57064566200E+03 0.  0.
        1    1    3    3  502    0 -0.16761276138E+03  0.68711843088E+02  0.60625544244E+03  0.63274087640E+03  0.50400001928E-02 0. -1.
       -1    1    3    3    0  502  0.16761276138E+03 -0.68711843088E+02 -0.23753390813E+02  0.18270079025E+03  0.50400001928E-02 0.  1.
</event>
<event>
 5   0  0.1488510E-01  0.5918539E+03  0.7818609E-02  0.9922452E-01
        2   -1    0    0  501    0  0.00000000000E+00  0.00000000000E+00  0.83405505502E+03  0.83405505503E+03  0.25500000920E-02 0. -1.
       -2   -1    0    0    0  501  0.00000000000E+00  0.00000000000E+00 -0.10499637719E+03  0.10499637722E+03  0.25500000920E-02 0.  1.
    10030    2    1    2    0    0  0.00000000000E+00  0.00000000000E+00  0.72905867783E+03  0.93905143225E+03  0.59185389809E+03 0.  0.
        5    1    3    3  502    0  0.77298177265E+02 -0.26919723137E+03  0.51595468489E+03  0.58708899193E+03  0.46999998093E+01 0.  1.
       -5    1    3    3    0  502 -0.77298177265E+02  0.26919723137E+03  0.21310399295E+03  0.35196244032E+03  0.46999998093E+01 0. -1.
</event>
<event>
 5   0  0.1502642E-01  0.5877477E+03  0.7818609E-02  0.9931157E-01
       -2   -1    0    0    0  501  0.00000000000E+00  0.00000000000E+00  0.29840582004E+02  0.29840582113E+02  0.25500000920E-02 0. -1.
        2   -1    0    0  501    0  0.00000000000E+00  0.00000000000E+00 -0.28941071991E+04  0.28941071991E+04  0.25500000920E-02 0.  1.
    10030    2    1    2    0    0  0.00000000000E+00  0.00000000000E+00 -0.28642666171E+04  0.29239477812E+04  0.58774771242E+03 0.  0.
        2    1    3    3  502    0 -0.64446821868E+02 -0.28379482763E+03 -0.12288976781E+04  0.12628865350E+04  0.25500000920E-02 0. -1.
       -2    1    3    3    0  502  0.64446821868E+02  0.28379482763E+03 -0.16353689390E+04  0.16610612462E+04  0.25500000920E-02 0.  1.
</event>
<event>
 5   0  0.9420349E-02  0.5834087E+03  0.7818609E-02  0.9940438E-01
       -1   -1    0    0    0  501  0.00000000000E+00  0.00000000000E+00  0.27722897821E+03  0.27722897826E+03  0.50400001928E-02 0.  1.
        1   -1    0    0  501    0  0.00000000000E+00  0.00000000000E+00 -0.30693552946E+03  0.30693552950E+03  0.50400001928E-02 0. -1.
    10030    2    1    2    0    0  0.00000000000E+00  0.00000000000E+00 -0.29706551245E+02  0.58416450776E+03  0.58340868432E+03 0.  0.
        2    1    3    3  502    0 -0.94665198218E+02 -0.14522323348E+03 -0.24976355765E+03  0.30402815994E+03  0.25500000920E-02 0. -1.
       -2    1    3    3    0  502  0.94665198218E+02  0.14522323348E+03  0.22005700641E+03  0.28013634782E+03  0.25500000920E-02 0.  1.
</event>
<event>
 5   0  0.9411028E-02  0.5999072E+03  0.7818609E-02  0.9905599E-01
        1   -1    0    0  501    0  0.00000000000E+00  0.00000000000E+00  0.42499310737E+03  0.42499310740E+03  0.50400001928E-02 0. -1.
       -1   -1    0    0    0  501  0.00000000000E+00  0.00000000000E+00 -0.21170267341E+03  0.21170267347E+03  0.50400001928E-02 0.  1.
    10030    2    1    2    0    0  0.00000000000E+00  0.00000000000E+00  0.21329043396E+03  0.63669578087E+03  0.59990724963E+03 0.  0.
        4    1    3    3  502    0  0.22187785485E+03  0.19935527051E+03  0.14017797039E+03  0.32958122312E+03  0.12699999809E+01 0.  1.
       -4    1    3    3    0  502 -0.22187785485E+03 -0.19935527051E+03  0.73112463577E+02  0.30711455775E+03  0.12699999809E+01 0. -1.
</event>
<event>
 5   0  0.9177281E-02  0.5874131E+03  0.7818609E-02  0.9931870E-01
        1   -1    0    0  501    0  0.00000000000E+00  0.00000000000E+00  0.13067115129E+03  0.13067115139E+03  0.50400001928E-02 0.  1.
       -1   -1    0    0    0  501  0.00000000000E+00  0.00000000000E+00 -0.66015741900E+03  0.66015741902E+03  0.50400001928E-02 0. -1.
    10030    2    1    2    0    0  0.00000000000E+00  0.00000000000E+00 -0.52948626771E+03  0.79082857041E+03  0.58741307449E+03 0.  0.
        1    1    3    3  502    0  0.26138170974E+03 -0.10463061006E+03 -0.37734619829E+03  0.47080581575E+03  0.50400001928E-02 0.  1.
       -1    1    3    3    0  502 -0.26138170974E+03  0.10463061006E+03 -0.15214006942E+03  0.32002275466E+03  0.50400001928E-02 0. -1.
</event>
<event>
 5   0  0.9177281E-02  0.6187298E+03  0.7818609E-02  0.9867292E-01
        1   -1    0    0  501    0  0.00000000000E+00  0.00000000000E+00  0.98986301626E+03  0.98986301628E+03  0.50400001928E-02 0.  1.
       -1   -1    0    0    0  501  0.00000000000E+00  0.00000000000E+00 -0.96686751748E+02  0.96686751879E+02  0.50400001928E-02 0. -1.
    10030    2    1    2    0    0  0.00000000000E+00  0.00000000000E+00  0.89317626452E+03  0.10865497682E+04  0.61872979497E+03 0.  0.
        1    1    3    3  502    0 -0.25844358771E+03  0.14397981833E+03  0.60544811791E+03  0.67386252279E+03  0.50400001928E-02 0.  1.
       -1    1    3    3    0  502  0.25844358771E+03 -0.14397981833E+03  0.28772814661E+03  0.41268724537E+03  0.50400001928E-02 0. -1.
</event>
<event>
 5   0  0.6170500E-02  0.6168641E+03  0.7818609E-02  0.9871023E-01
       -3   -1    0    0    0  501  0.00000000000E+00  0.00000000000E+00  0.22063715004E+03  0.22063717316E+03  0.10100000352E+00 0. -1.
        3   -1    0    0  501    0  0.00000000000E+00  0.00000000000E+00 -0.43116189280E+03  0.43116190463E+03  0.10100000352E+00 0.  1.
    10030    2    1    2    0    0  0.00000000000E+00  0.00000000000E+00 -0.21052474276E+03  0.65179907778E+03  0.61686414265E+03 0.  0.
        1    1    3    3  502    0 -0.16350504396E+03  0.25960420450E+03 -0.71813629265E+02  0.31509592153E+03  0.50400001928E-02 0.  1.
       -1    1    3    3    0  502  0.16350504396E+03 -0.25960420450E+03 -0.13871111349E+03  0.33670315625E+03  0.50400001928E-02 0. -1.
</event>
<event>
 5   0  0.9420349E-02  0.6027740E+03  0.7818609E-02  0.9899668E-01
       -1   -1    0    0    0  501  0.00000000000E+00  0.00000000000E+00  0.24851189028E+03  0.24851189033E+03  0.50400001928E-02 0.  1.
        1   -1    0    0  501    0  0.00000000000E+00  0.00000000000E+00 -0.36551214358E+03  0.36551214361E+03  0.50400001928E-02 0. -1.
    10030    2    1    2    0    0  0.00000000000E+00  0.00000000000E+00 -0.11700025330E+03  0.61402403394E+03  0.60277396674E+03 0.  0.
        2    1    3    3  502    0 -0.79136222078E+02  0.37215022788E+02  0.23530380781E+03  0.25102864685E+03  0.25500000920E-02 0.  1.
       -2    1    3    3    0  502  0.79136222078E+02 -0.37215022788E+02 -0.35230406111E+03  0.36299538709E+03  0.25500000920E-02 0. -1.
</event>
<event>
 5   0  0.9411028E-02  0.5868845E+03  0.7818609E-02  0.9932996E-01
       -1   -1    0    0    0  501  0.00000000000E+00  0.00000000000E+00  0.16014717829E+03  0.16014717837E+03  0.50400001928E-02 0.  1.
        1   -1    0    0  501    0  0.00000000000E+00  0.00000000000E+00 -0.53768256314E+03  0.53768256316E+03  0.50400001928E-02 0. -1.
    10030    2    1    2    0    0  0.00000000000E+00  0.00000000000E+00 -0.37753538485E+03  0.69782974153E+03  0.58688447019E+03 0.  0.
        4    1    3    3  502    0  0.18484738557E+03  0.11605365758E+03 -0.42198264873E+03  0.47508733525E+03  0.12699999809E+01 0. -1.
       -4    1    3    3    0  502 -0.18484738557E+03 -0.11605365758E+03  0.44447263881E+02  0.22274240628E+03  0.12699999809E+01 0.  1.
</event>
<event>
 5   0  0.8860626E-02  0.5723134E+03  0.7818609E-02  0.9964573E-01
       -1   -1    0    0    0  501  0.00000000000E+00  0.00000000000E+00  0.15474144677E+03  0.15474144685E+03  0.50400001928E-02 0. -1.
        1   -1    0    0  501    0  0.00000000000E+00  0.00000000000E+00 -0.52917719946E+03  0.52917719949E+03  0.50400001928E-02 0.  1.
    10030    2    1    2    0    0  0.00000000000E+00  0.00000000000E+00 -0.37443575269E+03  0.68391864634E+03  0.57231335989E+03 0.  0.
        3    1    3    3  502    0 -0.24739649609E+03  0.11197502371E+03 -0.29504835303E+03  0.40099497882E+03  0.10100000352E+00 0.  1.
       -3    1    3    3    0  502  0.24739649609E+03 -0.11197502371E+03 -0.79387399667E+02  0.28292366752E+03  0.10100000352E+00 0. -1.
</event>
<event>
 5   0  0.1502642E-01  0.3582454E+03  0.7818609E-02  0.1059281E+00
       -2   -1    0    0    0  501  0.00000000000E+00  0.00000000000E+00  0.61865619082E+02  0.61865619134E+02  0.25500000920E-02 0.  1.
        2   -1    0    0  501    0  0.00000000000E+00  0.00000000000E+00 -0.51862326560E+03  0.51862326561E+03  0.25500000920E-02 0. -1.
    10030    2    1    2    0    0  0.00000000000E+00  0.00000000000E+00 -0.45675764652E+03  0.58048888474E+03  0.35824544331E+03 0.  0.
        2    1    3    3  502    0 -0.37851717998E+02 -0.10608860396E+03 -0.27029926965E+01  0.11267142770E+03  0.25500000920E-02 0.  1.
       -2    1    3    3    0  502  0.37851717998E+02  0.10608860396E+03 -0.45405465383E+03  0.46781745704E+03  0.25500000920E-02 0. -1.
</event>
<event>
 5   0  0.9497860E-02  0.5857429E+03  0.7818609E-02  0.9935435E-01
       -1   -1    0    0    0  501  0.00000000000E+00  0.00000000000E+00  0.34126316846E+03  0.34126316850E+03  0.50400001928E-02 0.  1.
        1   -1    0    0  501    0  0.00000000000E+00  0.00000000000E+00 -0.25134174708E+03  0.25134174713E+03  0.50400001928E-02 0. -1.
    10030    2    1    2    0    0  0.00000000000E+00  0.00000000000E+00  0.89921421382E+02  0.59260491563E+03  0.58574288216E+03 0.  0.
        5    1    3    3  502    0  0.13734629457E+03  0.23600159919E+03  0.15198673897E+03  0.31254250634E+03  0.46999998093E+01 0.  1.
       -5    1    3    3    0  502 -0.13734629457E+03 -0.23600159919E+03 -0.62065317586E+02  0.28006240929E+03  0.46999998093E+01 0. -1.
</event>
<event>
 5   0  0.1532571E-01  0.6081653E+03  0.7818609E-02  0.9888609E-01
        2   -1    0    0  501    0  0.00000000000E+00  0.00000000000E+00  0.95098955558E+03  0.95098955558E+03  0.25500000920E-02 0.  1.
       -2   -1    0    0    0  501  0.00000000000E+00  0.00000000000E+00 -0.97231637315E+02  0.97231637348E+02  0.25500000920E-02 0. -1.
    10030    2    1    2    0    0  0.00000000000E+00  0.00000000000E+00  0.85375791826E+03  0.10482211929E+04  0.60816534455E+03 0.  0.
        1    1    3    3  502    0 -0.28866976756E+03  0.63910505948E+01  0.26250342137E+03  0.39022958177E+03  0.50400001928E-02 0. -1.
       -1    1    3    3    0  502  0.28866976756E+03 -0.63910505948E+01  0.59125449689E+03  0.65799161116E+03  0.50400001928E-02 0.  1.
</event>
<event>
 5   0  0.8860626E-02  0.7121222E+03  0.7818609E-02  0.9696723E-01
        1   -1    0    0  501    0  0.00000000000E+00  0.00000000000E+00  0.73929814017E+03  0.73929814019E+03  0.50400001928E-02 0. -1.
       -1   -1    0    0    0  501  0.00000000000E+00  0.00000000000E+00 -0.17148630084E+03  0.17148630091E+03  0.50400001928E-02 0.  1.
    10030    2    1    2    0    0  0.00000000000E+00  0.00000000000E+00  0.56781183934E+03  0.91078444110E+03  0.71212218984E+03 0.  0.
        3    1    3    3  502    0  0.18225732312E+02 -0.21344237366E+03 -0.79847942570E+02  0.22861655304E+03  0.10100000352E+00 0.  1.
       -3    1    3    3    0  502 -0.18225732312E+02  0.21344237366E+03  0.64765978191E+03  0.68216788805E+03  0.10100000352E+00 0. -1.
</event>
<event>
 5   0  0.1532571E-01  0.5627686E+03  0.7818609E-02  0.9985810E-01
        2   -1    0    0  501    0  0.00000000000E+00  0.00000000000E+00  0.34304830438E+03  0.34304830439E+03  0.25500000920E-02 0.  1.
       -2   -1    0    0    0  501  0.00000000000E+00  0.00000000000E+00 -0.23080455403E+03  0.23080455404E+03  0.25500000920E-02 0. -1.
    10030    2    1    2    0    0  0.00000000000E+00  0.00000000000E+00  0.11224375035E+03  0.57385285843E+03  0.56276855246E+03 0.  0.
        1    1    3    3  502    0  0.77950886798E+02 -0.22437239493E+03 -0.97706287330E+02  0.25683814158E+03  0.50400001928E-02 0. -1.
       -1    1    3    3    0  502 -0.77950886798E+02  0.22437239493E+03  0.20995003768E+03  0.31701471686E+03  0.50400001928E-02 0.  1.
</event>
<event>
 5   0  0.9177281E-02  0.5925558E+03  0.7818609E-02  0.9920972E-01
       -1   -1    0    0    0  501  0.00000000000E+00  0.00000000000E+00  0.14019113232E+03  0.14019113241E+03  0.50400001928E-02 0.  1.
        1   -1    0    0  501    0  0.00000000000E+00  0.00000000000E+00 -0.62614930139E+03  0.62614930141E+03  0.50400001928E-02 0. -1.
    10030    2    1    2    0    0  0.00000000000E+00  0.00000000000E+00 -0.48595816907E+03  0.76634043381E+03  0.59255575131E+03 0.  0.
        1    1    3    3  502    0 -0.27958635950E+03 -0.97924109587E+02 -0.24917008981E+03  0.38709610866E+03  0.50400001928E-02 0.  1.
       -1    1    3    3    0  502  0.27958635950E+03  0.97924109587E+02 -0.23678807926E+03  0.37924432515E+03  0.50400001928E-02 0. -1.
</event>
<event>
 5   0  0.1488510E-01  0.7191932E+03  0.7818609E-02  0.9684961E-01
        2   -1    0    0  501    0  0.00000000000E+00  0.00000000000E+00  0.10191862546E+04  0.10191862546E+04  0.25500000920E-02 0. -1.
       -2   -1    0    0    0  501  0.00000000000E+00  0.00000000000E+00 -0.12687546554E+03  0.12687546557E+03  0.25500000920E-02 0.  1.
    10030    2    1    2    0    0  0.00000000000E+00  0.00000000000E+00  0.89231078907E+03  0.11460617202E+04  0.71919324397E+03 0.  0.
        5    1    3    3  502    0 -0.31668700647E+03 -0.15504479653E+03  0.55836232407E+03  0.66039391574E+03  0.46999998093E+01 0. -1.
       -5    1    3    3    0  502  0.31668700647E+03  0.15504479653E+03  0.33394846500E+03  0.48566780445E+03  0.46999998093E+01 0.  1.
</event>
<event>
 5   0  0.6170500E-02  0.6121427E+03  0.7818609E-02  0.9880529E-01
        4   -1    0    0  501    0  0.00000000000E+00  0.00000000000E+00  0.48953114996E+03  0.48953279735E+03  0.12699999809E+01 0.  1.
       -4   -1    0    0    0  501  0.00000000000E+00  0.00000000000E+00 -0.19136201267E+03  0.19136622689E+03  0.12699999809E+01 0. -1.
    10030    2    1    2    0    0  0.00000000000E+00  0.00000000000E+00  0.29816913729E+03  0.68089902424E+03  0.61214266865E+03 0.  0.
        5    1    3    3  502    0  0.11532460932E+03  0.15539101754E+03  0.41280416752E+03  0.45593366246E+03  0.46999998093E+01 0.  1.
       -5    1    3    3    0  502 -0.11532460932E+03 -0.15539101754E+03 -0.11463503023E+03  0.22496536178E+03  0.46999998093E+01 0. -1.
</event>
<event>
 5   0  0.1513339E-01  0.6475629E+03  0.7818609E-02  0.9811363E-01
        2   -1    0    0  501    0  0.00000000000E+00  0.00000000000E+00  0.31602556065E+03  0.31602556066E+03  0.25500000920E-02 0.  1.
       -2   -1    0    0    0  501  0.00000000000E+00  0.00000000000E+00 -0.33172767401E+03  0.33172767402E+03  0.25500000920E-02 0. -1.
    10030    2    1    2    0    0  0.00000000000E+00  0.00000000000E+00 -0.15702113364E+02  0.64775323468E+03  0.64756289013E+03 0.  0.
        3    1    3    3  502    0  0.15661664397E+03 -0.24305177780E+03 -0.15360412695E+03  0.32740980114E+03  0.10100000352E+00 0.  1.
       -3    1    3    3    0  502 -0.15661664397E+03  0.24305177780E+03  0.13790201359E+03  0.32034343354E+03  0.10100000352E+00 0. -1.
</event>
<event>
 5   0  0.1502642E-01  0.5739484E+03  0.7818609E-02  0.9960979E-01
        2   -1    0    0  501    0  0.00000000000E+00  0.00000000000E+00  0.45119295785E+03  0.45119295786E+03  0.25500000920E-02 0.  1.
       -2   -1    0    0    0  501  0.00000000000E+00  0.00000000000E+00 -0.18252540605E+03  0.18252540607E+03  0.25500000920E-02 0. -1.
    10030    2    1    2    0    0  0.00000000000E+00  0.00000000000E+00  0.26866755180E+03  0.63371836393E+03  0.57394835255E+03 0.  0.
        2    1    3    3  502    0 -0.11686067580E+03  0.76863244411E+02 -0.14234002431E+03  0.19956216680E+03  0.25500000920E-02 0. -1.
       -2    1    3    3    0  502  0.11686067580E+03 -0.76863244411E+02  0.41100757610E+03  0.43415619713E+03  0.25500000920E-02 0.  1.
</event>
<event>
 5   0  0.6170500E-02  0.5885335E+03  0.7818609E-02  0.9929485E-01
        4   -1    0    0  501    0  0.00000000000E+00  0.00000000000E+00  0.69984711195E+03  0.69984826428E+03  0.12699999809E+01 0. -1.
       -4   -1    0    0    0  501  0.00000000000E+00  0.00000000000E+00 -0.12372668348E+03  0.12373320130E+03  0.12699999809E+01 0.  1.
    10030    2    1    2    0    0  0.00000000000E+00  0.00000000000E+00  0.57612042848E+03  0.82358146558E+03  0.58853350145E+03 0.  0.
        2    1    3    3  502    0  0.60698803550E+02  0.24877679522E+03  0.85180738201E+02  0.26987033323E+03  0.25500000920E-02 0.  1.
       -2    1    3    3    0  502 -0.60698803550E+02 -0.24877679522E+03  0.49093969028E+03  0.55371113235E+03  0.25500000920E-02 0. -1.
</event>
<event>
 5   0  0.1488510E-01  0.6196555E+03  0.7818609E-02  0.9865446E-01
        2   -1    0    0  501    0  0.00000000000E+00  0.00000000000E+00  0.42740895422E+03  0.42740895423E+03  0.25500000920E-02 0. -1.
       -2   -1    0    0    0  501  0.00000000000E+00  0.00000000000E+00 -0.22459343459E+03  0.22459343461E+03  0.25500000920E-02 0.  1.
    10030    2    1    2    0    0  0.00000000000E+00  0.00000000000E+00  0.20281551963E+03  0.65200238884E+03  0.61965553338E+03 0.  0.
        5    1    3    3  502    0 -0.28810946652E+03  0.25799431682E+02 -0.15279802698E+02  0.28970370682E+03  0.46999998093E+01 0.  1.
       -5    1    3    3    0  502  0.28810946652E+03 -0.25799431682E+02  0.21809532233E+03  0.36229868202E+03  0.46999998093E+01 0. -1.
</event>
<event>
 5   0  0.1488510E-01  0.5536561E+03  0.7818609E-02  0.1000651E+00
        2   -1    0    0  501    0  0.00000000000E+00  0.00000000000E+00  0.79907422388E+03  0.79907422389E+03  0.25500000920E-02 0. -1.
       -2   -1    0    0    0  501  0.00000000000E+00  0.00000000000E+00 -0.95903207535E+02  0.95903207569E+02  0.25500000920E-02 0.  1.
    10030    2    1    2    0    0  0.00000000000E+00  0.00000000000E+00  0.70317101635E+03  0.89497743146E+03  0.55365614291E+03 0.  0.
        5    1    3    3  502    0  0.80750961919E+02 -0.23317336980E+03  0.55426703024E+03  0.60673269983E+03  0.46999998093E+01 0.  1.
       -5    1    3    3    0  502 -0.80750961919E+02  0.23317336980E+03  0.14890398611E+03  0.28824473163E+03  0.46999998093E+01 0. -1.
</event>
<event>
 5   0  0.1513339E-01  0.6178384E+03  0.7818609E-02  0.9869073E-01
        2   -1    0    0  501    0  0.00000000000E+00  0.00000000000E+00  0.64279460637E+03  0.64279460638E+03  0.25500000920E-02 0. -1.
       -2   -1    0    0    0  501  0.00000000000E+00  0.00000000000E+00 -0.14846276493E+03  0.14846276495E+03  0.25500000920E-02 0.  1.
    10030    2    1    2    0    0  0.00000000000E+00  0.00000000000E+00  0.49433184144E+03  0.79125737133E+03  0.61783837549E+03 0.  0.
        3    1    3    3  502    0  0.43642034658E+02 -0.32234740713E+02 -0.14231308606E+03  0.15230472863E+03  0.10100000352E+00 0.  1.
       -3    1    3    3    0  502 -0.43642034658E+02  0.32234740713E+02  0.63664492750E+03  0.63895264270E+03  0.10100000352E+00 0. -1.
</event>
<event>
 5   0  0.1532571E-01  0.6030210E+03  0.7818609E-02  0.9899158E-01
       -2   -1    0    0    0  501  0.00000000000E+00  0.00000000000E+00  0.28205496011E+03  0.28205496012E+03  0.25500000920E-02 0.  1.
        2   -1    0    0  501    0  0.00000000000E+00  0.00000000000E+00 -0.32230808515E+03  0.32230808516E+03  0.25500000920E-02 0. -1.
    10030    2    1    2    0    0  0.00000000000E+00  0.00000000000E+00 -0.40253125041E+02  0.60436304528E+03  0.60302104144E+03 0.  0.
        1    1    3    3  502    0 -0.23234965017E+03 -0.17483895607E+03 -0.10001325980E+03  0.30750231325E+03  0.50400001928E-02 0. -1.
       -1    1    3    3    0  502  0.23234965017E+03  0.17483895607E+03  0.59760134762E+02  0.29686073203E+03  0.50400001928E-02 0.  1.
</event>
<event>
 5   0  0.9497860E-02  0.5683193E+03  0.7818609E-02  0.9973405E-01
        1   -1    0    0  501    0  0.00000000000E+00  0.00000000000E+00  0.22341970576E+03  0.22341970582E+03  0.50400001928E-02 0. -1.
       -1   -1    0    0    0  501  0.00000000000E+00  0.00000000000E+00 -0.36141268770E+03  0.36141268773E+03  0.50400001928E-02 0.  1.
    10030    2    1    2    0    0  0.00000000000E+00  0.00000000000E+00 -0.13799298193E+03  0.58483239355E+03  0.56831933408E+03 0.  0.
        5    1    3    3  502    0  0.21916041401E+03  0.14866231005E+03 -0.17490858170E+03  0.31740647670E+03  0.46999998093E+01 0. -1.
       -5    1    3    3    0  502 -0.21916041401E+03 -0.14866231005E+03  0.36915599766E+02  0.26742591685E+03  0.46999998093E+01 0.  1.
</event>
<event>
 5   0  0.9177281E-02  0.5353830E+03  0.7818609E-02  0.1004935E+00
        1   -1    0    0  501    0  0.00000000000E+00  0.00000000000E+00  0.37523672445E+03  0.37523672448E+03  0.50400001928E-02 0.  1.
       -1   -1    0    0    0  501  0.00000000000E+00  0.00000000000E+00 -0.19096938357E+03  0.19096938363E+03  0.50400001928E-02 0. -1.
    10030    2    1    2    0    0  0.00000000000E+00  0.00000000000E+00  0.18426734088E+03  0.56620610812E+03  0.53538295075E+03 0.  0.
        1    1    3    3  502    0 -0.23910860826E+03  0.78658768172E+02 -0.42075994266E+01  0.25174954275E+03  0.50400001928E-02 0.  1.
       -1    1    3    3    0  502  0.23910860826E+03 -0.78658768172E+02  0.18847494031E+03  0.31445656537E+03  0.50400001928E-02 0. -1.
</event>
<event>
 5   0  0.9497860E-02  0.6035390E+03  0.7818609E-02  0.9898091E-01
       -1   -1    0    0    0  501  0.00000000000E+00  0.00000000000E+00  0.99508359569E+02  0.99508359697E+02  0.50400001928E-02 0. -1.
        1   -1    0    0  501    0  0.00000000000E+00  0.00000000000E+00 -0.91514742528E+03  0.91514742529E+03  0.50400001928E-02 0.  1.
    10030    2    1    2    0    0  0.00000000000E+00  0.00000000000E+00 -0.81563906571E+03  0.10146557850E+04  0.60353896022E+03 0.  0.
        5    1    3    3  502    0  0.23385304454E+03 -0.17658526260E+03 -0.28690179163E+03  0.41012721130E+03  0.46999998093E+01 0.  1.
       -5    1    3    3    0  502 -0.23385304454E+03  0.17658526260E+03 -0.52873727407E+03  0.60452857368E+03  0.46999998093E+01 0. -1.
</event>
<event>
 5   0  0.1502642E-01  0.6016691E+03  0.7818609E-02  0.9901949E-01
        2   -1    0    0  501    0  0.00000000000E+00  0.00000000000E+00  0.33823736413E+03  0.33823736414E+03  0.25500000920E-02 0. -1.
       -2   -1    0    0    0  501  0.00000000000E+00  0.00000000000E+00 -0.26756782603E+03  0.26756782604E+03  0.25500000920E-02 0.  1.
    10030    2    1    2    0    0  0.00000000000E+00  0.00000000000E+00  0.70669538101E+02  0.60580519018E+03  0.60166913236E+03 0.  0.
        2    1    3    3  502    0  0.18122321455E+02  0.51338153825E+02 -0.26256633239E+03  0.26815126978E+03  0.25500000920E-02 0.  1.
       -2    1    3    3    0  502 -0.18122321455E+02 -0.51338153825E+02  0.33323587049E+03  0.33765392040E+03  0.25500000920E-02 0. -1.
</event>
<event>
 5   0  0.6170500E-02  0.6014238E+03  0.7818609E-02  0.9902456E-01
        4   -1    0    0  501    0  0.00000000000E+00  0.00000000000E+00  0.59270497284E+03  0.59270633346E+03  0.12699999809E+01 0.  1.
       -4   -1    0    0    0  501  0.00000000000E+00  0.00000000000E+00 -0.15256356225E+03  0.15256884815E+03  0.12699999809E+01 0. -1.
    10030    2    1    2    0    0  0.00000000000E+00  0.00000000000E+00  0.44014141059E+03  0.74527518161E+03  0.60142383974E+03 0.  0.
        3    1    3    3  502    0  0.75584599617E+02  0.30643786557E+01  0.58072501305E+03  0.58563126035E+03  0.10100000352E+00 0.  1.
       -3    1    3    3    0  502 -0.75584599617E+02 -0.30643786557E+01 -0.14058360246E+03  0.15964392126E+03  0.10100000352E+00 0. -1.
</event>
<event>
 5   0  0.1532571E-01  0.5941766E+03  0.7818609E-02  0.9917562E-01
        2   -1    0    0  501    0  0.00000000000E+00  0.00000000000E+00  0.40027075149E+03  0.40027075150E+03  0.25500000920E-02 0. -1.
       -2   -1    0    0    0  501  0.00000000000E+00  0.00000000000E+00 -0.22050440249E+03  0.22050440251E+03  0.25500000920E-02 0.  1.
    10030    2    1    2    0    0  0.00000000000E+00  0.00000000000E+00  0.17976634900E+03  0.62077515400E+03  0.59417661650E+03 0.  0.
        1    1    3    3  502    0  0.17971472646E+03 -0.41963403839E+02  0.33312096170E+03  0.38082526875E+03  0.50400001928E-02 0. -1.
       -1    1    3    3    0  502 -0.17971472646E+03  0.41963403839E+02 -0.15335461270E+03  0.23994988525E+03  0.50400001928E-02 0.  1.
</event>
<event>
 5   0  0.1488510E-01  0.6072959E+03  0.7818609E-02  0.9890384E-01
       -2   -1    0    0    0  501  0.00000000000E+00  0.00000000000E+00  0.69169728836E+02  0.69169728883E+02  0.25500000920E-02 0.  1.
        2   -1    0    0  501    0  0.00000000000E+00  0.00000000000E+00 -0.13329830891E+04  0.13329830891E+04  0.25500000920E-02 0. -1.
    10030    2    1    2    0    0  0.00000000000E+00  0.00000000000E+00 -0.12638133603E+04  0.14021528180E+04  0.60729590432E+03 0.  0.
        5    1    3    3  502    0  0.20310308408E+03 -0.31159245591E+02 -0.11479646715E+04  0.11662189924E+04  0.46999998093E+01 0. -1.
       -5    1    3    3    0  502 -0.20310308408E+03  0.31159245591E+02 -0.11584868878E+03  0.23593382555E+03  0.46999998093E+01 0.  1.
</event>
<event>
 5   0  0.9497860E-02  0.5802382E+03  0.7818609E-02  0.9947275E-01
        1   -1    0    0  501    0  0.00000000000E+00  0.00000000000E+00  0.10833344597E+04  0.10833344597E+04  0.50400001928E-02 0.  1.
       -1   -1    0    0    0  501  0.00000000000E+00  0.00000000000E+00 -0.77694466802E+02  0.77694466965E+02  0.50400001928E-02 0. -1.
    10030    2    1    2    0    0  0.00000000000E+00  0.00000000000E+00  0.10056399929E+04  0.11610289266E+04  0.58023820389E+03 0.  0.
        5    1    3    3  502    0 -0.21623845025E+03  0.16161444189E+03  0.71522942235E+03  0.76449559304E+03  0.46999998093E+01 0.  1.
       -5    1    3    3    0  502  0.21623845025E+03 -0.16161444189E+03  0.29041057052E+03  0.39653333360E+03  0.46999998093E+01 0. -1.
</event>
<event>
 5   0  0.8860626E-02  0.3658820E+03  0.7818609E-02  0.1056279E+00
        1   -1    0    0  501    0  0.00000000000E+00  0.00000000000E+00  0.89218809712E+03  0.89218809714E+03  0.50400001928E-02 0. -1.
       -1   -1    0    0    0  501  0.00000000000E+00  0.00000000000E+00 -0.37511601727E+02  0.37511602066E+02  0.50400001928E-02 0.  1.
    10030    2    1    2    0    0  0.00000000000E+00  0.00000000000E+00  0.85467649540E+03  0.92969969920E+03  0.36588197402E+03 0.  0.
        3    1    3    3  502    0 -0.78135533220E+02  0.15462257618E+03  0.27800083533E+03  0.32756339426E+03  0.10100000352E+00 0.  1.
       -3    1    3    3    0  502  0.78135533220E+02 -0.15462257618E+03  0.57667566007E+03  0.60213630494E+03  0.10100000352E+00 0. -1.
</event>
<event>
 5   0  0.9497860E-02  0.6012165E+03  0.7818609E-02  0.9902885E-01
       -1   -1    0    0    0  501  0.00000000000E+00  0.00000000000E+00  0.55781364941E+03  0.55781364943E+03  0.50400001928E-02 0.  1.
        1   -1    0    0  501    0  0.00000000000E+00  0.00000000000E+00 -0.16199911127E+03  0.16199911135E+03  0.50400001928E-02 0. -1.
    10030    2    1    2    0    0  0.00000000000E+00  0.00000000000E+00  0.39581453814E+03  0.71981276078E+03  0.60121648512E+03 0.  0.
        5    1    3    3  502    0  0.35255346671E+00 -0.23216983993E+03  0.42645632636E+03  0.48558217343E+03  0.46999998093E+01 0.  1.
       -5    1    3    3    0  502 -0.35255346671E+00  0.23216983993E+03 -0.30641788218E+02  0.23423058735E+03  0.46999998093E+01 0. -1.
</event>
<event>
 5   0  0.1532571E-01  0.5612937E+03  0.7818609E-02  0.9989132E-01
       -2   -1    0    0    0  501  0.00000000000E+00  0.00000000000E+00  0.74661214042E+02  0.74661214086E+02  0.25500000920E-02 0. -1.
        2   -1    0    0  501    0  0.00000000000E+00  0.00000000000E+00 -0.10549339005E+04  0.10549339005E+04  0.25500000920E-02 0.  1.
    10030    2    1    2    0    0  0.00000000000E+00  0.00000000000E+00 -0.98027268644E+03  0.11295951146E+04  0.56129366920E+03 0.  0.
        1    1    3    3  502    0  0.14196411667E+03 -0.18664551264E+03 -0.17984607666E+03  0.29552490441E+03  0.50400001928E-02 0.  1.
       -1    1    3    3    0  502 -0.14196411667E+03  0.18664551264E+03 -0.80042660978E+03  0.83407021016E+03  0.50400001928E-02 0. -1.
</event>
<event>
 5   0  0.1483942E-01  0.5960025E+03  0.7818609E-02  0.9913734E-01
        2   -1    0    0  501    0  0.00000000000E+00  0.00000000000E+00  0.85670774646E+03  0.85670774646E+03  0.25500000920E-02 0.  1.
       -2   -1    0    0    0  501  0.00000000000E+00  0.00000000000E+00 -0.10365815473E+03  0.10365815476E+03  0.25500000920E-02 0. -1.
    10030    2    1    2    0    0  0.00000000000E+00  0.00000000000E+00  0.75304959173E+03  0.96036590122E+03  0.59600249716E+03 0.  0.
        4    1    3    3  502    0  0.95530850601E+02 -0.26021846881E+03  0.20028060615E+03  0.34198498363E+03  0.12699999809E+01 0. -1.
       -4    1    3    3    0  502 -0.95530850601E+02  0.26021846881E+03  0.55276898558E+03  0.61838091759E+03  0.12699999809E+01 0.  1.
</event>
<event>
 5   0  0.1488510E-01  0.6302955E+03  0.7818609E-02  0.9844472E-01
        2   -1    0    0  501    0  0.00000000000E+00  0.00000000000E+00  0.12979669896E+04  0.12979669896E+04  0.25500000920E-02 0.  1.
       -2   -1    0    0    0  501  0.00000000000E+00  0.00000000000E+00 -0.76518202592E+02  0.76518202635E+02  0.25500000920E-02 0. -1.
    10030    2    1    2    0    0  0.00000000000E+00  0.00000000000E+00  0.12214487870E+04  0.13744851922E+04  0.63029548975E+03 0.  0.
        5    1    3    3  502    0 -0.13904321180E+03  0.21761240377E+03  0.10045073079E+04  0.10371813702E+04  0.46999998093E+01 0.  1.
       -5    1    3    3    0  502  0.13904321180E+03 -0.21761240377E+03  0.21694147912E+03  0.33730382207E+03  0.46999998093E+01 0. -1.
</event>
<event>
 5   0  0.9420349E-02  0.5998929E+03  0.7818609E-02  0.9905628E-01
        1   -1    0    0  501    0  0.00000000000E+00  0.00000000000E+00  0.44517792709E+03  0.44517792711E+03  0.50400001928E-02 0.  1.
       -1   -1    0    0    0  501  0.00000000000E+00  0.00000000000E+00 -0.20209417775E+03  0.20209417781E+03  0.50400001928E-02 0. -1.
    10030    2    1    2    0    0  0.00000000000E+00  0.00000000000E+00  0.24308374934E+03  0.64727210492E+03  0.59989288095E+03 0.  0.
        2    1    3    3  502    0 -0.29921600989E+03 -0.32409628043E+01  0.14384160928E+03  0.33201074227E+03  0.25500000920E-02 0.  1.
       -2    1    3    3    0  502  0.29921600989E+03  0.32409628043E+01  0.99242140063E+02  0.31526136266E+03  0.25500000920E-02 0. -1.
</event>
<event>
 5   0  0.1513339E-01  0.5977511E+03  0.7818609E-02  0.9910083E-01
        2   -1    0    0  501    0  0.00000000000E+00  0.00000000000E+00  0.27680015647E+03  0.27680015649E+03  0.25500000920E-02 0. -1.
       -2   -1    0    0    0  501  0.00000000000E+00  0.00000000000E+00 -0.32271152868E+03  0.32271152869E+03  0.25500000920E-02 0.  1.
    10030    2    1    2    0    0  0.00000000000E+00  0.00000000000E+00 -0.45911372210E+02  0.59951168518E+03  0.59775112427E+03 0.  0.
        3    1    3    3  502    0  0.23422424225E+03 -0.10134570242E+03  0.13304872283E+03  0.28780882527E+03  0.10100000352E+00 0. -1.
       -3    1    3    3    0  502 -0.23422424225E+03  0.10134570242E+03 -0.17896009504E+03  0.31170285991E+03  0.10100000352E+00 0.  1.
</event>
<event>
 5   0  0.9411028E-02  0.8030548E+03  0.7818609E-02  0.9555606E-01
       -1   -1    0    0    0  501  0.00000000000E+00  0.00000000000E+00  0.10470650804E+03  0.10470650816E+03  0.50400001928E-02 0. -1.
        1   -1    0    0  501    0  0.00000000000E+00  0.00000000000E+00 -0.15397728380E+04  0.15397728380E+04  0.50400001928E-02 0.  1.
    10030    2    1    2    0    0  0.00000000000E+00  0.00000000000E+00 -0.14350663299E+04  0.16444793461E+04  0.80305476063E+03 0.  0.
        4    1    3    3  502    0  0.34715512149E+03 -0.90038555980E+02 -0.34780253571E+03  0.49959166995E+03  0.12699999809E+01 0. -1.
       -4    1    3    3    0  502 -0.34715512149E+03  0.90038555980E+02 -0.10872637942E+04  0.11448876762E+04  0.12699999809E+01 0.  1.
</event>
<event>
 5   0  0.1513339E-01  0.6014757E+03  0.7818609E-02  0.9902349E-01
        2   -1    0    0  501    0  0.00000000000E+00  0.00000000000E+00  0.70426361218E+03  0.70426361219E+03  0.25500000920E-02 0.  1.
       -2   -1    0    0    0  501  0.00000000000E+00  0.00000000000E+00 -0.12842243239E+03  0.12842243241E+03  0.25500000920E-02 0. -1.
    10030    2    1    2    0    0  0.00000000000E+00  0.00000000000E+00  0.57584117980E+03  0.83268604460E+03  0.60147567242E+03 0.  0.
        3    1    3    3  502    0 -0.47864396681E+02 -0.16990608352E+03  0.62500025109E+03  0.64944930653E+03  0.10100000352E+00 0.  1.
       -3    1    3    3    0  502  0.47864396681E+02  0.16990608352E+03 -0.49159071291E+02  0.18323673807E+03  0.10100000352E+00 0. -1.
</event>
<event>
 5   0  0.9420349E-02  0.5905384E+03  0.7818609E-02  0.9925233E-01
        1   -1    0    0  501    0  0.00000000000E+00  0.00000000000E+00  0.47261924333E+03  0.47261924336E+03  0.50400001928E-02 0.  1.
       -1   -1    0    0    0  501  0.00000000000E+00  0.00000000000E+00 -0.18446960961E+03  0.18446960968E+03  0.50400001928E-02 0. -1.
    10030    2    1    2    0    0  0.00000000000E+00  0.00000000000E+00  0.28814963372E+03  0.65708885304E+03  0.59053835555E+03 0.  0.
        2    1    3    3  502    0  0.23458823153E+03  0.17931039555E+03  0.14427076673E+03  0.32863035536E+03  0.25500000920E-02 0. -1.
       -2    1    3    3    0  502 -0.23458823153E+03 -0.17931039555E+03  0.14387886699E+03  0.32845849768E+03  0.25500000920E-02 0.  1.
</event>
<event>
 5   0  0.1532571E-01  0.5821727E+03  0.7818609E-02  0.9943098E-01
        2   -1    0    0  501    0  0.00000000000E+00  0.00000000000E+00  0.51326910283E+03  0.51326910284E+03  0.25500000920E-02 0.  1.
       -2   -1    0    0    0  501  0.00000000000E+00  0.00000000000E+00 -0.16508158138E+03  0.16508158140E+03  0.25500000920E-02 0. -1.
    10030    2    1    2    0    0  0.00000000000E+00  0.00000000000E+00  0.34818752145E+03  0.67835068424E+03  0.58217274130E+03 0.  0.
        1    1    3    3  502    0 -0.38989634501E+02 -0.20768469012E+03  0.40736234317E+03  0.45890870635E+03  0.50400001928E-02 0.  1.
       -1    1    3    3    0  502  0.38989634501E+02  0.20768469012E+03 -0.59174821715E+02  0.21944197789E+03  0.50400001928E-02 0. -1.
</event>
<event>
 5   0  0.1502642E-01  0.8857314E+03  0.7818609E-02  0.9443596E-01
        2   -1    0    0  501    0  0.00000000000E+00  0.00000000000E+00  0.97261777977E+03  0.97261777977E+03  0.25500000920E-02 0.  1.
       -2   -1    0    0    0  501  0.00000000000E+00  0.00000000000E+00 -0.20165169689E+03  0.20165169691E+03  0.25500000920E-02 0. -1.
    10030    2    1    2    0    0  0.00000000000E+00  0.00000000000E+00  0.77096608287E+03  0.11742694767E+04  0.88573139434E+03 0.  0.
        2    1    3    3  502    0 -0.20208595334E+03  0.37226996467E+03  0.55684196975E+03  0.69964036363E+03  0.25500000920E-02 0.  1.
       -2    1    3    3    0  502  0.20208595334E+03 -0.37226996467E+03  0.21412411312E+03  0.47462911305E+03  0.25500000920E-02 0. -1.
</event>
<event>
 5   0  0.6170500E-02  0.6811131E+03  0.7818609E-02  0.9750088E-01
        3   -1    0    0  501    0  0.00000000000E+00  0.00000000000E+00  0.44006894194E+03  0.44006895353E+03  0.10100000352E+00 0. -1.
       -3   -1    0    0    0  501  0.00000000000E+00  0.00000000000E+00 -0.26354680517E+03  0.26354682453E+03  0.10100000352E+00 0.  1.
    10030    2    1    2    0    0  0.00000000000E+00  0.00000000000E+00  0.17652213677E+03  0.70361577806E+03  0.68111313184E+03 0.  0.
        5    1    3    3  502    0  0.13181146358E+03 -0.14070621563E+03 -0.20169742562E+03  0.27906350988E+03  0.46999998093E+01 0.  1.
       -5    1    3    3    0  502 -0.13181146358E+03  0.14070621563E+03  0.37821956239E+03  0.42455226818E+03  0.46999998093E+01 0. -1.
</event>
<event>
 5   0  0.9497860E-02  0.5958707E+03  0.7818609E-02  0.9914010E-01
       -1   -1    0    0    0  501  0.00000000000E+00  0.00000000000E+00  0.94854186830E+02  0.94854186964E+02  0.50400001928E-02 0.  1.
        1   -1    0    0  501    0  0.00000000000E+00  0.00000000000E+00 -0.93580976488E+03  0.93580976490E+03  0.50400001928E-02 0. -1.
    10030    2    1    2    0    0  0.00000000000E+00  0.00000000000E+00 -0.84095557805E+03  0.10306639519E+04  0.59587070528E+03 0.  0.
        5    1    3    3  502    0 -0.58687920651E+02  0.24760229300E+03 -0.15256080812E+03  0.29672892967E+03  0.46999998093E+01 0.  1.
       -5    1    3    3    0  502  0.58687920651E+02 -0.24760229300E+03 -0.68839476993E+03  0.73393502219E+03  0.46999998093E+01 0. -1.
</event>
<event>
 5   0  0.9411028E-02  0.5953152E+03  0.7818609E-02  0.9915173E-01
        1   -1    0    0  501    0  0.00000000000E+00  0.00000000000E+00  0.93724698531E+03  0.93724698533E+03  0.50400001928E-02 0. -1.
       -1   -1    0    0    0  501  0.00000000000E+00  0.00000000000E+00 -0.94532224733E+02  0.94532224867E+02  0.50400001928E-02 0.  1.
    10030    2    1    2    0    0  0.00000000000E+00  0.00000000000E+00  0.84271476058E+03  0.10317792102E+04  0.59531518617E+03 0.  0.
        4    1    3    3  502    0  0.66643719423E+02  0.23905291532E+03  0.13651269652E+03  0.28324019996E+03  0.12699999809E+01 0.  1.
       -4    1    3    3    0  502 -0.66643719423E+02 -0.23905291532E+03  0.70620206406E+03  0.74853901024E+03  0.12699999809E+01 0. -1.
</event>
<event>
 5   0  0.9497860E-02  0.6017134E+03  0.7818609E-02  0.9901858E-01
        1   -1    0    0  501    0  0.00000000000E+00  0.00000000000E+00  0.10113946963E+04  0.10113946963E+04  0.50400001928E-02 0. -1.
       -1   -1    0    0    0  501  0.00000000000E+00  0.00000000000E+00 -0.89494973193E+02  0.89494973334E+02  0.50400001928E-02 0.  1.
    10030    2    1    2    0    0  0.00000000000E+00  0.00000000000E+00  0.92189972312E+03  0.11008896697E+04  0.60171335806E+03 0.  0.
        5    1    3    3  502    0  0.15845856722E+03  0.29486003703E+02 -0.37595804758E+01  0.16129093708E+03  0.46999998093E+01 0.  1.
       -5    1    3    3    0  502 -0.15845856722E+03 -0.29486003703E+02  0.92565930359E+03  0.93959873258E+03  0.46999998093E+01 0. -1.
</event>
<event>
 5   0  0.1483942E-01  0.5863366E+03  0.7818609E-02  0.9934166E-01
        2   -1    0    0  501    0  0.00000000000E+00  0.00000000000E+00  0.15817708117E+04  0.15817708117E+04  0.25500000920E-02 0.  1.
       -2   -1    0    0    0  501  0.00000000000E+00  0.00000000000E+00 -0.54336358360E+02  0.54336358420E+02  0.25500000920E-02 0. -1.
    10030    2    1    2    0    0  0.00000000000E+00  0.00000000000E+00  0.15274344534E+04  0.16361071701E+04  0.58633664637E+03 0.  0.
        4    1    3    3  502    0 -0.28983170159E+03 -0.12314362702E+02  0.64559462863E+03  0.70777686893E+03  0.12699999809E+01 0. -1.
       -4    1    3    3    0  502  0.28983170159E+03  0.12314362702E+02  0.88183982472E+03  0.92833030120E+03  0.12699999809E+01 0.  1.
</event>
<event>
 5   0  0.1488510E-01  0.4701475E+03  0.7818609E-02  0.1021879E+00
        2   -1    0    0  501    0  0.00000000000E+00  0.00000000000E+00  0.55710109372E+03  0.55710109372E+03  0.25500000920E-02 0.  1.
       -2   -1    0    0    0  501  0.00000000000E+00  0.00000000000E+00 -0.99191444872E+02  0.99191444904E+02  0.25500000920E-02 0. -1.
    10030    2    1    2    0    0  0.00000000000E+00  0.00000000000E+00  0.45790964885E+03  0.65629253863E+03  0.47014747660E+03 0.  0.
        5    1    3    3  502    0  0.15125575052E+03  0.25388940600E+02  0.47755044290E+03  0.50159686591E+03  0.46999998093E+01 0.  1.
       -5    1    3    3    0  502 -0.15125575052E+03 -0.25388940600E+02 -0.19640794058E+02  0.15469567272E+03  0.46999998093E+01 0. -1.
</event>
<event>
 5   0  0.9411028E-02  0.6001786E+03  0.7818609E-02  0.9905036E-01
       -1   -1    0    0    0  501  0.00000000000E+00  0.00000000000E+00  0.26547119511E+03  0.26547119516E+03  0.50400001928E-02 0.  1.
        1   -1    0    0  501    0  0.00000000000E+00  0.00000000000E+00 -0.33922169738E+03  0.33922169742E+03  0.50400001928E-02 0. -1.
    10030    2    1    2    0    0  0.00000000000E+00  0.00000000000E+00 -0.73750502268E+02  0.60469289258E+03  0.60017860487E+03 0.  0.
        4    1    3    3  502    0 -0.15856915098E+03  0.18760861591E+03 -0.21053996565E+03  0.32352721438E+03  0.12699999809E+01 0.  1.
       -4    1    3    3    0  502  0.15856915098E+03 -0.18760861591E+03  0.13678946338E+03  0.28116567820E+03  0.12699999809E+01 0. -1.
</event>
<event>
 5   0  0.1483942E-01  0.5961594E+03  0.7818609E-02  0.9913406E-01
        2   -1    0    0  501    0  0.00000000000E+00  0.00000000000E+00  0.97459560573E+03  0.97459560573E+03  0.25500000920E-02 0. -1.
       -2   -1    0    0    0  501  0.00000000000E+00  0.00000000000E+00 -0.91167557343E+02  0.91167557379E+02  0.25500000920E-02 0.  1.
    10030    2    1    2    0    0  0.00000000000E+00  0.00000000000E+00  0.88342804838E+03  0.10657631631E+04  0.59615937732E+03 0.  0.
        4    1    3    3  502    0 -0.82078714427E+02 -0.57382482459E+02  0.94361397827E+03  0.94891444163E+03  0.12699999809E+01 0. -1.
       -4    1    3    3    0  502  0.82078714427E+02  0.57382482459E+02 -0.60185929884E+02  0.11684872148E+03  0.12699999809E+01 0.  1.
</event>
<event>
 5   0  0.9497860E-02  0.5411408E+03  0.7818609E-02  0.1003566E+00
        1   -1    0    0  501    0  0.00000000000E+00  0.00000000000E+00  0.10057715294E+04  0.10057715294E+04  0.50400001928E-02 0.  1.
       -1   -1    0    0    0  501  0.00000000000E+00  0.00000000000E+00 -0.72788249533E+02  0.72788249707E+02  0.50400001928E-02 0. -1.
    10030    2    1    2    0    0  0.00000000000E+00  0.00000000000E+00  0.93298327989E+03  0.10785597791E+04  0.54114082883E+03 0.  0.
        5    1    3    3  502    0 -0.15116949184E+03  0.71292870258E+02  0.42507328273E+02  0.17252203213E+03  0.46999998093E+01 0. -1.
       -5    1    3    3    0  502  0.15116949184E+03 -0.71292870258E+02  0.89047595161E+03  0.90603774701E+03  0.46999998093E+01 0.  1.
</event>
<event>
 5   0  0.8860626E-02  0.3776681E+03  0.7818609E-02  0.1051799E+00
        1   -1    0    0  501    0  0.00000000000E+00  0.00000000000E+00  0.23957453176E+03  0.23957453181E+03  0.50400001928E-02 0. -1.
       -1   -1    0    0    0  501  0.00000000000E+00  0.00000000000E+00 -0.14884010127E+03  0.14884010136E+03  0.50400001928E-02 0.  1.
    10030    2    1    2    0    0  0.00000000000E+00  0.00000000000E+00  0.90734430487E+02  0.38841463317E+03  0.37766809554E+03 0.  0.
        3    1    3    3  502    0  0.10065975509E+03  0.15490276568E+03  0.51253833045E+01  0.18480674464E+03  0.10100000352E+00 0.  1.
       -3    1    3    3    0  502 -0.10065975509E+03 -0.15490276568E+03  0.85609047183E+02  0.20360788853E+03  0.10100000352E+00 0. -1.
</event>
<event>
 5   0  0.9420349E-02  0.5967851E+03  0.7818609E-02  0.9912098E-01
        1   -1    0    0  501    0  0.00000000000E+00  0.00000000000E+00  0.37425763375E+03  0.37425763378E+03  0.50400001928E-02 0. -1.
       -1   -1    0    0    0  501  0.00000000000E+00  0.00000000000E+00 -0.23790597864E+03  0.23790597870E+03  0.50400001928E-02 0.  1.
    10030    2    1    2    0    0  0.00000000000E+00  0.00000000000E+00  0.13635165511E+03  0.61216361248E+03  0.59678514944E+03 0.  0.
        2    1    3    3  502    0 -0.19979104564E+03 -0.74997331756E+01 -0.15903931296E+03  0.25547252493E+03  0.25500000920E-02 0.  1.
       -2    1    3    3    0  502  0.19979104564E+03  0.74997331756E+01  0.29539096807E+03  0.35669108756E+03  0.25500000920E-02 0. -1.
</event>
<event>
 5   0  0.9420349E-02  0.6009000E+03  0.7818609E-02  0.9903541E-01
        1   -1    0    0  501    0  0.00000000000E+00  0.00000000000E+00  0.22495388672E+03  0.22495388678E+03  0.50400001928E-02 0.  1.
       -1   -1    0    0    0  501  0.00000000000E+00  0.00000000000E+00 -0.40128307717E+03  0.40128307720E+03  0.50400001928E-02 0. -1.
    10030    2    1    2    0    0  0.00000000000E+00  0.00000000000E+00 -0.17632919045E+03  0.62623696398E+03  0.60089995145E+03 0.  0.
        2    1    3    3  502    0  0.39666382007E+02 -0.25474582578E+02  0.22107551037E+03  0.22604591903E+03  0.25500000920E-02 0.  1.
       -2    1    3    3    0  502 -0.39666382007E+02  0.25474582578E+02 -0.39740470082E+03  0.40019104495E+03  0.25500000920E-02 0. -1.
</event>
<event>
 5   0  0.9177281E-02  0.5697403E+03  0.7818609E-02  0.9970254E-01
        1   -1    0    0  501    0  0.00000000000E+00  0.00000000000E+00  0.72231685515E+03  0.72231685517E+03  0.50400001928E-02 0.  1.
       -1   -1    0    0    0  501  0.00000000000E+00  0.00000000000E+00 -0.11234819154E+03  0.11234819166E+03  0.50400001928E-02 0. -1.
    10030    2    1    2    0    0  0.00000000000E+00  0.00000000000E+00  0.60996866361E+03  0.83466504682E+03  0.56974026521E+03 0.  0.
        1    1    3    3  502    0 -0.11558166195E+03  0.74471232365E+02 -0.60518473602E+02  0.15022506682E+03  0.50400001928E-02 0. -1.
       -1    1    3    3    0  502  0.11558166195E+03 -0.74471232365E+02  0.67048713721E+03  0.68443998000E+03  0.50400001928E-02 0.  1.
</event>
<event>
 5   0  0.9497860E-02  0.5860966E+03  0.7818609E-02  0.9934679E-01
        1   -1    0    0  501    0  0.00000000000E+00  0.00000000000E+00  0.23005349022E+04  0.23005349022E+04  0.50400001928E-02 0.  1.
       -1   -1    0    0    0  501  0.00000000000E+00  0.00000000000E+00 -0.37329276700E+02  0.37329277040E+02  0.50400001928E-02 0. -1.
    10030    2    1    2    0    0  0.00000000000E+00  0.00000000000E+00  0.22632056255E+04  0.23378641792E+04  0.58609659384E+03 0.  0.
        5    1    3    3  502    0 -0.27051215864E+03 -0.73596664022E+02  0.14715220407E+04  0.14979961626E+04  0.46999998093E+01 0.  1.
       -5    1    3    3    0  502  0.27051215864E+03  0.73596664022E+02  0.79168358480E+03  0.83986801663E+03  0.46999998093E+01 0. -1.
</event>
<event>
 5   0  0.9420349E-02  0.5198617E+03  0.7818609E-02  0.1008721E+00
        1   -1    0    0  501    0  0.00000000000E+00  0.00000000000E+00  0.12779241168E+04  0.12779241168E+04  0.50400001928E-02 0. -1.
       -1   -1    0    0    0  501  0.00000000000E+00  0.00000000000E+00 -0.52870146474E+02  0.52870146714E+02  0.50400001928E-02 0.  1.
    10030    2    1    2    0    0  0.00000000000E+00  0.00000000000E+00  0.12250539703E+04  0.13307942635E+04  0.51986165622E+03 0.  0.
        2    1    3    3  502    0 -0.11694420261E+03 -0.18687463980E+03  0.25998526045E+03  0.34086714888E+03  0.25500000920E-02 0. -1.
       -2    1    3    3    0  502  0.11694420261E+03  0.18687463980E+03  0.96506870985E+03  0.98992711462E+03  0.25500000920E-02 0.  1.
</event>
<event>
 5   0  0.1483942E-01  0.5725102E+03  0.7818609E-02  0.9964139E-01
       -2   -1    0    0    0  501  0.00000000000E+00  0.00000000000E+00  0.78050328358E+02  0.78050328400E+02  0.25500000920E-02 0.  1.
        2   -1    0    0  501    0  0.00000000000E+00  0.00000000000E+00 -0.10498610079E+04  0.10498610079E+04  0.25500000920E-02 0. -1.
    10030    2    1    2    0    0  0.00000000000E+00  0.00000000000E+00 -0.97181067955E+03  0.11279113363E+04  0.57251024942E+03 0.  0.
        4    1    3    3  502    0  0.24586854549E+03 -0.65613261451E+02 -0.22764775099E+03  0.34144040940E+03  0.12699999809E+01 0.  1.
       -4    1    3    3    0  502 -0.24586854549E+03  0.65613261451E+02 -0.74416292855E+03  0.78647092691E+03  0.12699999809E+01 0. -1.
</event>
<event>
 5   0  0.1483942E-01  0.5720781E+03  0.7818609E-02  0.9965091E-01
       -2   -1    0    0    0  501  0.00000000000E+00  0.00000000000E+00  0.11611321090E+03  0.11611321093E+03  0.25500000920E-02 0. -1.
        2   -1    0    0  501    0  0.00000000000E+00  0.00000000000E+00 -0.70464270147E+03  0.70464270148E+03  0.25500000920E-02 0.  1.
    10030    2    1    2    0    0  0.00000000000E+00  0.00000000000E+00 -0.58852949057E+03  0.82075591241E+03  0.57207805978E+03 0.  0.
        4    1    3    3  502    0 -0.59992373513E+02  0.16792997967E+03  0.26597192512E+02  0.18030137687E+03  0.12699999809E+01 0. -1.
       -4    1    3    3    0  502  0.59992373513E+02 -0.16792997967E+03 -0.61512668308E+03  0.64045453554E+03  0.12699999809E+01 0.  1.
</event>
<event>
 5   0  0.1483942E-01  0.6104739E+03  0.7818609E-02  0.9883911E-01
       -2   -1    0    0    0  501  0.00000000000E+00  0.00000000000E+00  0.20939172314E+03  0.20939172316E+03  0.25500000920E-02 0.  1.
        2   -1    0    0  501    0  0.00000000000E+00  0.00000000000E+00 -0.44495352475E+03  0.44495352476E+03  0.25500000920E-02 0. -1.
    10030    2    1    2    0    0  0.00000000000E+00  0.00000000000E+00 -0.23556180161E+03  0.65434524791E+03  0.61047386602E+03 0.  0.
        4    1    3    3  502    0  0.10802844171E+03 -0.20930105448E+03  0.90312405770E+02  0.25225982470E+03  0.12699999809E+01 0.  1.
       -4    1    3    3    0  502 -0.10802844171E+03  0.20930105448E+03 -0.32587420738E+03  0.40208542321E+03  0.12699999809E+01 0. -1.
</event>
<event>
 5   0  0.9411028E-02  0.6099988E+03  0.7818609E-02  0.9884876E-01
       -1   -1    0    0    0  501  0.00000000000E+00  0.00000000000E+00  0.10881629839E+03  0.10881629850E+03  0.50400001928E-02 0.  1.
        1   -1    0    0  501    0  0.00000000000E+00  0.00000000000E+00 -0.85487783902E+03  0.85487783904E+03  0.50400001928E-02 0. -1.
    10030    2    1    2    0    0  0.00000000000E+00  0.00000000000E+00 -0.74606154064E+03  0.96369413754E+03  0.60999882649E+03 0.  0.
        4    1    3    3  502    0 -0.15685780524E+03 -0.10308190106E+03 -0.75282381725E+03  0.77587084113E+03  0.12699999809E+01 0. -1.
       -4    1    3    3    0  502  0.15685780524E+03  0.10308190106E+03  0.67622766107E+01  0.18782329642E+03  0.12699999809E+01 0.  1.
</event>
<event>
 5   0  0.9411028E-02  0.5730360E+03  0.7818609E-02  0.9962983E-01
       -1   -1    0    0    0  501  0.00000000000E+00  0.00000000000E+00  0.17817641284E+03  0.17817641291E+03  0.50400001928E-02 0. -1.
        1   -1    0    0  501    0  0.00000000000E+00  0.00000000000E+00 -0.46073747585E+03  0.46073747588E+03  0.50400001928E-02 0.  1.
    10030    2    1    2    0    0  0.00000000000E+00  0.00000000000E+00 -0.28256106302E+03  0.63891388879E+03  0.57303595259E+03 0.  0.
        4    1    3    3  502    0  0.22476874159E+03 -0.46083164872E+02 -0.33260731466E+03  0.40407163219E+03  0.12699999809E+01 0.  1.
       -4    1    3    3    0  502 -0.22476874159E+03  0.46083164872E+02  0.50046251641E+02  0.23484225660E+03  0.12699999809E+01 0. -1.
</event>
<event>
 5   0  0.1488510E-01  0.5993617E+03  0.7818609E-02  0.9906731E-01
        2   -1    0    0  501    0  0.00000000000E+00  0.00000000000E+00  0.79649372552E+03  0.79649372553E+03  0.25500000920E-02 0.  1.
       -2   -1    0    0    0  501  0.00000000000E+00  0.00000000000E+00 -0.11275493949E+03  0.11275493951E+03  0.25500000920E-02 0. -1.
    10030    2    1    2    0    0  0.00000000000E+00  0.00000000000E+00  0.68373878604E+03  0.90924866504E+03  0.59936166656E+03 0.  0.
        5    1    3    3  502    0 -0.42055773951E+02 -0.29224826358E+03  0.26438537804E+03  0.39635773464E+03  0.46999998093E+01 0.  1.
       -5    1    3    3    0  502  0.42055773951E+02  0.29224826358E+03  0.41935340800E+03  0.51289093040E+03  0.46999998093E+01 0. -1.
</event>
<event>
 5   0  0.9497860E-02  0.5660270E+03  0.7818609E-02  0.9978509E-01
        1   -1    0    0  501    0  0.00000000000E+00  0.00000000000E+00  0.35334307209E+03  0.35334307213E+03  0.50400001928E-02 0.  1.
       -1   -1    0    0    0  501  0.00000000000E+00  0.00000000000E+00 -0.22668232932E+03  0.22668232937E+03  0.50400001928E-02 0. -1.
    10030    2    1    2    0    0  0.00000000000E+00  0.00000000000E+00  0.12666074277E+03  0.58002540150E+03  0.56602696281E+03 0.  0.
        5    1    3    3  502    0 -0.85873802588E+02  0.10605891894E+03  0.31735567170E+03  0.34548446654E+03  0.46999998093E+01 0.  1.
       -5    1    3    3    0  502  0.85873802588E+02 -0.10605891894E+03 -0.19069492893E+03  0.23454093497E+03  0.46999998093E+01 0. -1.
</event>
<event>
 5   0  0.9497860E-02  0.5921856E+03  0.7818609E-02  0.9921752E-01
       -1   -1    0    0    0  501  0.00000000000E+00  0.00000000000E+00  0.14635532708E+03  0.14635532717E+03  0.50400001928E-02 0.  1.
        1   -1    0    0  501    0  0.00000000000E+00  0.00000000000E+00 -0.59902812864E+03  0.59902812866E+03  0.50400001928E-02 0. -1.
    10030    2    1    2    0    0  0.00000000000E+00  0.00000000000E+00 -0.45267280156E+03  0.74538345582E+03  0.59218563892E+03 0.  0.
        5    1    3    3  502    0  0.11198264396E+03  0.28326215835E+01  0.11860391883E+03  0.16320881059E+03  0.46999998093E+01 0.  1.
       -5    1    3    3    0  502 -0.11198264396E+03 -0.28326215835E+01 -0.57127672039E+03  0.58217464523E+03  0.46999998093E+01 0. -1.
</event>
<event>
 5   0  0.1502642E-01  0.6116536E+03  0.7818609E-02  0.9881519E-01
       -2   -1    0    0    0  501  0.00000000000E+00  0.00000000000E+00  0.91129115624E+02  0.91129115660E+02  0.25500000920E-02 0. -1.
        2   -1    0    0  501    0  0.00000000000E+00  0.00000000000E+00 -0.10263462503E+04  0.10263462503E+04  0.25500000920E-02 0.  1.
    10030    2    1    2    0    0  0.00000000000E+00  0.00000000000E+00 -0.93521713469E+03  0.11174753660E+04  0.61165358214E+03 0.  0.
        2    1    3    3  502    0  0.14775463148E+03 -0.20155448516E+03 -0.14555085598E+03  0.28920700769E+03  0.25500000920E-02 0. -1.
       -2    1    3    3    0  502 -0.14775463148E+03  0.20155448516E+03 -0.78966627871E+03  0.82826835829E+03  0.25500000920E-02 0.  1.
</event>
<event>
 5   0  0.8860626E-02  0.5922964E+03  0.7818609E-02  0.9921519E-01
        1   -1    0    0  501    0  0.00000000000E+00  0.00000000000E+00  0.30629614952E+03  0.30629614956E+03  0.50400001928E-02 0.  1.
       -1   -1    0    0    0  501  0.00000000000E+00  0.00000000000E+00 -0.28633643454E+03  0.28633643458E+03  0.50400001928E-02 0. -1.
    10030    2    1    2    0    0  0.00000000000E+00  0.00000000000E+00  0.19959714984E+02  0.59263258414E+03  0.59229636971E+03 0.  0.
        3    1    3    3  502    0  0.25106876408E+03  0.10450467697E+03  0.12729395147E+03  0.30026740097E+03  0.10100000352E+00 0.  1.
       -3    1    3    3    0  502 -0.25106876408E+03 -0.10450467697E+03 -0.10733423649E+03  0.29236518317E+03  0.10100000352E+00 0. -1.
</event>
<event>
 5   0  0.1513339E-01  0.5967105E+03  0.7818609E-02  0.9912254E-01
       -2   -1    0    0    0  501  0.00000000000E+00  0.00000000000E+00  0.80640115330E+02  0.80640115370E+02  0.25500000920E-02 0.  1.
        2   -1    0    0  501    0  0.00000000000E+00  0.00000000000E+00 -0.11038656581E+04  0.11038656581E+04  0.25500000920E-02 0. -1.
    10030    2    1    2    0    0  0.00000000000E+00  0.00000000000E+00 -0.10232255428E+04  0.11845057735E+04  0.59671049598E+03 0.  0.
        3    1    3    3  502    0  0.68006650462E+02  0.12585902577E+03 -0.10313437979E+04  0.10412182474E+04  0.10100000352E+00 0. -1.
       -3    1    3    3    0  502 -0.68006650462E+02 -0.12585902577E+03  0.81182551623E+01  0.14328752613E+03  0.10100000352E+00 0.  1.
</event>
<event>
 5   0  0.9497860E-02  0.6177134E+03  0.7818609E-02  0.9869323E-01
       -1   -1    0    0    0  501  0.00000000000E+00  0.00000000000E+00  0.69798394093E+02  0.69798394275E+02  0.50400001928E-02 0. -1.
        1   -1    0    0  501    0  0.00000000000E+00  0.00000000000E+00 -0.13666857857E+04  0.13666857857E+04  0.50400001928E-02 0.  1.
    10030    2    1    2    0    0  0.00000000000E+00  0.00000000000E+00 -0.12968873916E+04  0.14364841800E+04  0.61771343909E+03 0.  0.
        5    1    3    3  502    0  0.20474873308E+03  0.14680431820E+02 -0.11190190773E+03  0.23384115491E+03  0.46999998093E+01 0. -1.
       -5    1    3    3    0  502 -0.20474873308E+03 -0.14680431820E+02 -0.11849854839E+04  0.12026430251E+04  0.46999998093E+01 0.  1.
</event>
<event>
 5   0  0.1483942E-01  0.6615913E+03  0.7818609E-02  0.9785269E-01
        2   -1    0    0  501    0  0.00000000000E+00  0.00000000000E+00  0.18685732423E+04  0.18685732423E+04  0.25500000920E-02 0. -1.
       -2   -1    0    0    0  501  0.00000000000E+00  0.00000000000E+00 -0.58561122935E+02  0.58561122990E+02  0.25500000920E-02 0.  1.
    10030    2    1    2    0    0  0.00000000000E+00  0.00000000000E+00  0.18100121193E+04  0.19271343653E+04  0.66159125571E+03 0.  0.
        4    1    3    3  502    0  0.39953227513E+02 -0.32552460963E+03  0.10306859327E+04  0.10816088187E+04  0.12699999809E+01 0.  1.
       -4    1    3    3    0  502 -0.39953227513E+02  0.32552460963E+03  0.77932618661E+03  0.84552554657E+03  0.12699999809E+01 0. -1.
</event>
<event>
 5   0  0.1483942E-01  0.6187329E+03  0.7818609E-02  0.9867286E-01
        2   -1    0    0  501    0  0.00000000000E+00  0.00000000000E+00  0.36730973966E+03  0.36730973967E+03  0.25500000920E-02 0. -1.
       -2   -1    0    0    0  501  0.00000000000E+00  0.00000000000E+00 -0.26056370027E+03  0.26056370028E+03  0.25500000920E-02 0.  1.
    10030    2    1    2    0    0  0.00000000000E+00  0.00000000000E+00  0.10674603939E+03  0.62787343996E+03  0.61873285000E+03 0.  0.
        4    1    3    3  502    0  0.10521289242E+03 -0.55684348878E+02 -0.23638951641E+03  0.26467360240E+03  0.12699999809E+01 0.  1.
       -4    1    3    3    0  502 -0.10521289242E+03  0.55684348878E+02  0.34313555580E+03  0.36319983755E+03  0.12699999809E+01 0. -1.
</event>
<event>
 5   0  0.9420349E-02  0.6055119E+03  0.7818609E-02  0.9894036E-01
       -1   -1    0    0    0  501  0.00000000000E+00  0.00000000000E+00  0.78588276896E+02  0.78588277057E+02  0.50400001928E-02 0. -1.
        1   -1    0    0  501    0  0.00000000000E+00  0.00000000000E+00 -0.11663466614E+04  0.11663466614E+04  0.50400001928E-02 0.  1.
    10030    2    1    2    0    0  0.00000000000E+00  0.00000000000E+00 -0.10877583845E+04  0.12449349384E+04  0.60551193048E+03 0.  0.
        2    1    3    3  502    0 -0.17312032389E+03  0.15224189631E+03 -0.94736405623E+03  0.97501122895E+03  0.25500000920E-02 0.  1.
       -2    1    3    3    0  502  0.17312032389E+03 -0.15224189631E+03 -0.14039432825E+03  0.26992370949E+03  0.25500000920E-02 0. -1.
</event>
<event>
 5   0  0.1532571E-01  0.6004544E+03  0.7818609E-02  0.9904464E-01
        2   -1    0    0  501    0  0.00000000000E+00  0.00000000000E+00  0.43187694378E+03  0.43187694379E+03  0.25500000920E-02 0.  1.
       -2   -1    0    0    0  501  0.00000000000E+00  0.00000000000E+00 -0.20870848468E+03  0.20870848470E+03  0.25500000920E-02 0. -1.
    10030    2    1    2    0    0  0.00000000000E+00  0.00000000000E+00  0.22316845910E+03  0.64058542849E+03  0.60045443628E+03 0.  0.
        1    1    3    3  502    0  0.75970413715E+02 -0.10721140761E+03 -0.17640294628E+03  0.21996315410E+03  0.50400001928E-02 0. -1.
       -1    1    3    3    0  502 -0.75970413715E+02  0.10721140761E+03  0.39957140538E+03  0.42062227438E+03  0.50400001928E-02 0.  1.
</event>
<event>
 5   0  0.9177281E-02  0.6025858E+03  0.7818609E-02  0.9900056E-01
       -1   -1    0    0    0  501  0.00000000000E+00  0.00000000000E+00  0.13654531037E+03  0.13654531046E+03  0.50400001928E-02 0.  1.
        1   -1    0    0  501    0  0.00000000000E+00  0.00000000000E+00 -0.66481532599E+03  0.66481532601E+03  0.50400001928E-02 0. -1.
    10030    2    1    2    0    0  0.00000000000E+00  0.00000000000E+00 -0.52827001562E+03  0.80136063647E+03  0.60258581156E+03 0.  0.
        1    1    3    3  502    0  0.61976035102E+00 -0.14555821510E+03 -0.61495312517E+03  0.63194534911E+03  0.50400001928E-02 0. -1.
       -1    1    3    3    0  502 -0.61976035102E+00  0.14555821510E+03  0.86683109551E+02  0.16941528736E+03  0.50400001928E-02 0.  1.
</event>
<event>
 5   0  0.9497860E-02  0.5985177E+03  0.7818609E-02  0.9908486E-01
        1   -1    0    0  501    0  0.00000000000E+00  0.00000000000E+00  0.20177784075E+03  0.20177784081E+03  0.50400001928E-02 0. -1.
       -1   -1    0    0    0  501  0.00000000000E+00  0.00000000000E+00 -0.44383402494E+03  0.44383402497E+03  0.50400001928E-02 0.  1.
    10030    2    1    2    0    0  0.00000000000E+00  0.00000000000E+00 -0.24205618419E+03  0.64561186578E+03  0.59851773986E+03 0.  0.
        5    1    3    3  502    0  0.18381430008E+03 -0.15857675586E+01  0.13365016237E+03  0.22732062703E+03  0.46999998093E+01 0. -1.
       -5    1    3    3    0  502 -0.18381430008E+03  0.15857675586E+01 -0.37570634656E+03  0.41829123875E+03  0.46999998093E+01 0.  1.
</event>
<event>
 5   0  0.1483942E-01  0.5912318E+03  0.7818609E-02  0.9923766E-01
       -2   -1    0    0    0  501  0.00000000000E+00  0.00000000000E+00  0.66867306045E+02  0.66867306093E+02  0.25500000920E-02 0. -1.
        2   -1    0    0  501    0  0.00000000000E+00  0.00000000000E+00 -0.13068982024E+04  0.13068982024E+04  0.25500000920E-02 0.  1.
    10030    2    1    2    0    0  0.00000000000E+00  0.00000000000E+00 -0.12400308964E+04  0.13737655085E+04  0.59123180599E+03 0.  0.
        4    1    3    3  502    0 -0.77183455606E+01  0.24439075181E+03 -0.23399069274E+03  0.33843709846E+03  0.12699999809E+01 0. -1.
       -4    1    3    3    0  502  0.77183455606E+01 -0.24439075181E+03 -0.10060402036E+04  0.10353284100E+04  0.12699999809E+01 0.  1.
</event>
<event>
 5   0  0.8860626E-02  0.5964002E+03  0.7818609E-02  0.9912903E-01
        1   -1    0    0  501    0  0.00000000000E+00  0.00000000000E+00  0.64042727197E+03  0.64042727199E+03  0.50400001928E-02 0. -1.
       -1   -1    0    0    0  501  0.00000000000E+00  0.00000000000E+00 -0.13884994979E+03  0.13884994989E+03  0.50400001928E-02 0.  1.
    10030    2    1    2    0    0  0.00000000000E+00  0.00000000000E+00  0.50157732217E+03  0.77927722187E+03  0.59640018311E+03 0.  0.
        3    1    3    3  502    0 -0.63524484456E+02  0.16409183413E+03  0.56536432685E+03  0.59211343713E+03  0.10100000352E+00 0. -1.
       -3    1    3    3    0  502  0.63524484456E+02 -0.16409183413E+03 -0.63787004678E+02  0.18716378474E+03  0.10100000352E+00 0.  1.
</event>
<event>
 5   0  0.8860626E-02  0.6012000E+03  0.7818609E-02  0.9902920E-01
       -1   -1    0    0    0  501  0.00000000000E+00  0.00000000000E+00  0.38638732055E+03  0.38638732058E+03  0.50400001928E-02 0. -1.
        1   -1    0    0  501    0  0.00000000000E+00  0.00000000000E+00 -0.23385954039E+03  0.23385954045E+03  0.50400001928E-02 0.  1.
    10030    2    1    2    0    0  0.00000000000E+00  0.00000000000E+00  0.15252778016E+03  0.62024686103E+03  0.60120000407E+03 0.  0.
        3    1    3    3  502    0 -0.14229267971E+03 -0.13181412086E+03 -0.16065963025E+03  0.25186046960E+03  0.10100000352E+00 0.  1.
       -3    1    3    3    0  502  0.14229267971E+03  0.13181412086E+03  0.31318741040E+03  0.36838639143E+03  0.10100000352E+00 0. -1.
</event>
<event>
 5   0  0.9411028E-02  0.6116991E+03  0.7818609E-02  0.9881427E-01
       -1   -1    0    0    0  501  0.00000000000E+00  0.00000000000E+00  0.21411814729E+03  0.21411814735E+03  0.50400001928E-02 0.  1.
        1   -1    0    0  501    0  0.00000000000E+00  0.00000000000E+00 -0.43688010291E+03  0.43688010293E+03  0.50400001928E-02 0. -1.
    10030    2    1    2    0    0  0.00000000000E+00  0.00000000000E+00 -0.22276195562E+03  0.65099825028E+03  0.61169913601E+03 0.  0.
        4    1    3    3  502    0 -0.13719685585E+03 -0.20649598159E+03 -0.30199325073E+03  0.39072382070E+03  0.12699999809E+01 0. -1.
       -4    1    3    3    0  502  0.13719685585E+03  0.20649598159E+03  0.79231295116E+02  0.26027442959E+03  0.12699999809E+01 0.  1.
</event>
<event>
 5   0  0.1488510E-01  0.5983535E+03  0.7818609E-02  0.9908828E-01
       -2   -1    0    0    0  501  0.00000000000E+00  0.00000000000E+00  0.80432780697E+03  0.80432780698E+03  0.25500000920E-02 0. -1.
        2   -1    0    0  501    0  0.00000000000E+00  0.00000000000E+00 -0.11128138646E+03  0.11128138649E+03  0.25500000920E-02 0.  1.
    10030    2    1    2    0    0  0.00000000000E+00  0.00000000000E+00  0.69304642051E+03  0.91560919347E+03  0.59835345256E+03 0.  0.
        5    1    3    3  502    0  0.18864096395E+03  0.79663469431E+01  0.70157173912E+03  0.72654929021E+03  0.46999998093E+01 0. -1.
       -5    1    3    3    0  502 -0.18864096395E+03 -0.79663469431E+01 -0.85253186157E+01  0.18905990326E+03  0.46999998093E+01 0.  1.
</event>
<event>
 5   0  0.1532571E-01  0.6021555E+03  0.7818609E-02  0.9900944E-01
       -2   -1    0    0    0  501  0.00000000000E+00  0.00000000000E+00  0.38292940126E+03  0.38292940127E+03  0.25500000920E-02 0.  1.
        2   -1    0    0  501    0  0.00000000000E+00  0.00000000000E+00 -0.23672195513E+03  0.23672195514E+03  0.25500000920E-02 0. -1.
    10030    2    1    2    0    0  0.00000000000E+00  0.00000000000E+00  0.14620744613E+03  0.61965135641E+03  0.60215545020E+03 0.  0.
        1    1    3    3  502    0  0.31584455082E+02  0.98942092171E+02 -0.21770356613E+03  0.24120936578E+03  0.50400001928E-02 0. -1.
       -1    1    3    3    0  502 -0.31584455082E+02 -0.98942092171E+02  0.36391101226E+03  0.37844199064E+03  0.50400001928E-02 0.  1.
</event>
<event>
 5   0  0.9420349E-02  0.5886160E+03  0.7818609E-02  0.9929310E-01
        1   -1    0    0  501    0  0.00000000000E+00  0.00000000000E+00  0.30317041109E+03  0.30317041113E+03  0.50400001928E-02 0.  1.
       -1   -1    0    0    0  501  0.00000000000E+00  0.00000000000E+00 -0.28570465217E+03  0.28570465222E+03  0.50400001928E-02 0. -1.
    10030    2    1    2    0    0  0.00000000000E+00  0.00000000000E+00  0.17465758917E+02  0.58887506335E+03  0.58861599324E+03 0.  0.
        2    1    3    3  502    0 -0.10610799726E+03 -0.21462687717E+03  0.17996192282E+03  0.29951610500E+03  0.25500000920E-02 0.  1.
       -2    1    3    3    0  502  0.10610799726E+03  0.21462687717E+03 -0.16249616390E+03  0.28935895835E+03  0.25500000920E-02 0. -1.
</event>
<event>
 5   0  0.8860626E-02  0.5862796E+03  0.7818609E-02  0.9934288E-01
       -1   -1    0    0    0  501  0.00000000000E+00  0.00000000000E+00  0.12920019115E+04  0.12920019115E+04  0.50400001928E-02 0. -1.
        1   -1    0    0  501    0  0.00000000000E+00  0.00000000000E+00 -0.66509919140E+02  0.66509919331E+02  0.50400001928E-02 0.  1.
    10030    2    1    2    0    0  0.00000000000E+00  0.00000000000E+00  0.12254919923E+04  0.13585118308E+04  0.58627960155E+03 0.  0.
        3    1    3    3  502    0  0.26130688576E+03 -0.98809467806E+02  0.81852269693E+03  0.86488381594E+03  0.10100000352E+00 0. -1.
       -3    1    3    3    0  502 -0.26130688576E+03  0.98809467806E+02  0.40696929541E+03  0.49362801488E+03  0.10100000352E+00 0.  1.
</event>
<event>
 5   0  0.1513339E-01  0.7095762E+03  0.7818609E-02  0.9700994E-01
        2   -1    0    0  501    0  0.00000000000E+00  0.00000000000E+00  0.87625519611E+03  0.87625519612E+03  0.25500000920E-02 0. -1.
       -2   -1    0    0    0  501  0.00000000000E+00  0.00000000000E+00 -0.14365060889E+03  0.14365060891E+03  0.25500000920E-02 0.  1.
    10030    2    1    2    0    0  0.00000000000E+00  0.00000000000E+00  0.73260458723E+03  0.10199058050E+04  0.70957619034E+03 0.  0.
        3    1    3    3  502    0  0.14628318708E+03  0.75238876376E+02 -0.85524828870E+02  0.18540271275E+03  0.10100000352E+00 0.  1.
       -3    1    3    3    0  502 -0.14628318708E+03 -0.75238876376E+02  0.81812941610E+03  0.83450309228E+03  0.10100000352E+00 0. -1.
</event>
<event>
 5   0  0.1532571E-01  0.5705446E+03  0.7818609E-02  0.9968474E-01
        2   -1    0    0  501    0  0.00000000000E+00  0.00000000000E+00  0.15798972743E+04  0.15798972743E+04  0.25500000920E-02 0. -1.
       -2   -1    0    0    0  501  0.00000000000E+00  0.00000000000E+00 -0.51509861950E+02  0.51509862013E+02  0.25500000920E-02 0.  1.
    10030    2    1    2    0    0  0.00000000000E+00  0.00000000000E+00  0.15283874123E+04  0.16314071363E+04  0.57054461892E+03 0.  0.
        1    1    3    3  502    0  0.19494858220E+03  0.36457318929E+02  0.17787176804E+03  0.26640655340E+03  0.50400001928E-02 0.  1.
       -1    1    3    3    0  502 -0.19494858220E+03 -0.36457318929E+02  0.13505156443E+04  0.13650005829E+04  0.50400001928E-02 0. -1.
</event>
<event>
 5   0  0.6170500E-02  0.5940580E+03  0.7818609E-02  0.9917811E-01
       -3   -1    0    0    0  501  0.00000000000E+00  0.00000000000E+00  0.14632583816E+03  0.14632587301E+03  0.10100000352E+00 0. -1.
        3   -1    0    0  501    0  0.00000000000E+00  0.00000000000E+00 -0.60294353433E+03  0.60294354279E+03  0.10100000352E+00 0.  1.
    10030    2    1    2    0    0  0.00000000000E+00  0.00000000000E+00 -0.45661769618E+03  0.74926941581E+03  0.59405802495E+03 0.  0.
        2    1    3    3  502    0  0.38080659635E+01 -0.51324331523E+02 -0.59727714584E+03  0.59949034798E+03  0.25500000920E-02 0.  1.
       -2    1    3    3    0  502 -0.38080659635E+01  0.51324331523E+02  0.14065944966E+03  0.14977906783E+03  0.25500000920E-02 0. -1.
</event>
<event>
 5   0  0.9497860E-02  0.6417630E+03  0.7818609E-02  0.9822359E-01
       -1   -1    0    0    0  501  0.00000000000E+00  0.00000000000E+00  0.31124812800E+03  0.31124812804E+03  0.50400001928E-02 0. -1.
        1   -1    0    0  501    0  0.00000000000E+00  0.00000000000E+00 -0.33081299396E+03  0.33081299400E+03  0.50400001928E-02 0.  1.
    10030    2    1    2    0    0  0.00000000000E+00  0.00000000000E+00 -0.19564865962E+02  0.64206112204E+03  0.64176296283E+03 0.  0.
        5    1    3    3  502    0 -0.26602571026E+03 -0.70301236609E+02 -0.17487695507E+03  0.32606131601E+03  0.46999998093E+01 0.  1.
       -5    1    3    3    0  502  0.26602571026E+03  0.70301236609E+02  0.15531208911E+03  0.31599980603E+03  0.46999998093E+01 0. -1.
</event>
<event>
 5   0  0.9420349E-02  0.6129197E+03  0.7818609E-02  0.9878958E-01
       -1   -1    0    0    0  501  0.00000000000E+00  0.00000000000E+00  0.14576155318E+03  0.14576155327E+03  0.50400001928E-02 0. -1.
        1   -1    0    0  501    0  0.00000000000E+00  0.00000000000E+00 -0.64432390953E+03  0.64432390955E+03  0.50400001928E-02 0.  1.
    10030    2    1    2    0    0  0.00000000000E+00  0.00000000000E+00 -0.49856235635E+03  0.79008546283E+03  0.61291974630E+03 0.  0.
        2    1    3    3  502    0 -0.75381306814E+01 -0.11564615561E+03  0.11642540704E+03  0.16427334578E+03  0.25500000920E-02 0. -1.
       -2    1    3    3    0  502  0.75381306814E+01  0.11564615561E+03 -0.61498776339E+03  0.62581211705E+03  0.25500000920E-02 0.  1.
</event>
<event>
 5   0  0.8860626E-02  0.6037797E+03  0.7818609E-02  0.9897595E-01
       -1   -1    0    0    0  501  0.00000000000E+00  0.00000000000E+00  0.16153944858E+03  0.16153944866E+03  0.50400001928E-02 0. -1.
        1   -1    0    0  501    0  0.00000000000E+00  0.00000000000E+00 -0.56418091229E+03  0.56418091231E+03  0.50400001928E-02 0.  1.
    10030    2    1    2    0    0  0.00000000000E+00  0.00000000000E+00 -0.40264146371E+03  0.72572036097E+03  0.60377967341E+03 0.  0.
        3    1    3    3  502    0 -0.14588193226E+03  0.20545176307E+03 -0.40117021531E+03  0.47373992545E+03  0.10100000352E+00 0.  1.
       -3    1    3    3    0  502  0.14588193226E+03 -0.20545176307E+03 -0.14712483964E+01  0.25198043552E+03  0.10100000352E+00 0. -1.
</event>
<event>
 5   0  0.9420349E-02  0.6053122E+03  0.7818609E-02  0.9894446E-01
       -1   -1    0    0    0  501  0.00000000000E+00  0.00000000000E+00  0.10052024733E+03  0.10052024746E+03  0.50400001928E-02 0. -1.
        1   -1    0    0  501    0  0.00000000000E+00  0.00000000000E+00 -0.91126639577E+03  0.91126639578E+03  0.50400001928E-02 0.  1.
    10030    2    1    2    0    0  0.00000000000E+00  0.00000000000E+00 -0.81074614844E+03  0.10117866432E+04  0.60531222871E+03 0.  0.
        2    1    3    3  502    0  0.13362450716E+03  0.20777149482E+03 -0.69765461999E+03  0.74009896080E+03  0.25500000920E-02 0.  1.
       -2    1    3    3    0  502 -0.13362450716E+03 -0.20777149482E+03 -0.11309152844E+03  0.27168768244E+03  0.25500000920E-02 0. -1.
</event>
<event>
 5   0  0.9497860E-02  0.5984700E+03  0.7818609E-02  0.9908585E-01
       -1   -1    0    0    0  501  0.00000000000E+00  0.00000000000E+00  0.16639892068E+03  0.16639892075E+03  0.50400001928E-02 0. -1.
        1   -1    0    0  501    0  0.00000000000E+00  0.00000000000E+00 -0.53811397127E+03  0.53811397130E+03  0.50400001928E-02 0.  1.
    10030    2    1    2    0    0  0.00000000000E+00  0.00000000000E+00 -0.37171505060E+03  0.70451289205E+03  0.59846999610E+03 0.  0.
        5    1    3    3  502    0 -0.24043934212E+03  0.17081037814E+03 -0.24509523637E+03  0.38351144365E+03  0.46999998093E+01 0.  1.
       -5    1    3    3    0  502  0.24043934212E+03 -0.17081037814E+03 -0.12661981422E+03  0.32100144840E+03  0.46999998093E+01 0. -1.
</event>
<event>
 5   0  0.6170500E-02  0.6126863E+03  0.7818609E-02  0.9879430E-01
        4   -1    0    0  501    0  0.00000000000E+00  0.00000000000E+00  0.21308487462E+03  0.21308865923E+03  0.12699999809E+01 0. -1.
       -4   -1    0    0    0  501  0.00000000000E+00  0.00000000000E+00 -0.44040810106E+03  0.44040993220E+03  0.12699999809E+01 0.  1.
    10030    2    1    2    0    0  0.00000000000E+00  0.00000000000E+00 -0.22732322644E+03  0.65349859142E+03  0.61268634693E+03 0.  0.
        2    1    3    3  502    0  0.10968680923E+03  0.18182283237E+03 -0.34917620586E+03  0.40867439513E+03  0.25500000920E-02 0.  1.
       -2    1    3    3    0  502 -0.10968680923E+03 -0.18182283237E+03  0.12185297942E+03  0.24482419629E+03  0.25500000920E-02 0. -1.
</event>
<event>
 5   0  0.1513339E-01  0.6341299E+03  0.7818609E-02  0.9837023E-01
        2   -1    0    0  501    0  0.00000000000E+00  0.00000000000E+00  0.56073712202E+03  0.56073712202E+03  0.25500000920E-02 0.  1.
       -2   -1    0    0    0  501  0.00000000000E+00  0.00000000000E+00 -0.17928218263E+03  0.17928218265E+03  0.25500000920E-02 0. -1.
    10030    2    1    2    0    0  0.00000000000E+00  0.00000000000E+00  0.38145493939E+03  0.74001930467E+03  0.63412987668E+03 0.  0.
        3    1    3    3  502    0  0.17318458225E+02  0.76279158181E+02 -0.16784571012E+03  0.18517729768E+03  0.10100000352E+00 0. -1.
       -3    1    3    3    0  502 -0.17318458225E+02 -0.76279158181E+02  0.54930064951E+03  0.55484200699E+03  0.10100000352E+00 0.  1.
</event>
<event>
 5   0  0.1502642E-01  0.5898987E+03  0.7818609E-02  0.9926588E-01
       -2   -1    0    0    0  501  0.00000000000E+00  0.00000000000E+00  0.43999179768E+02  0.43999179842E+02  0.25500000920E-02 0.  1.
        2   -1    0    0  501    0  0.00000000000E+00  0.00000000000E+00 -0.19771984855E+04  0.19771984855E+04  0.25500000920E-02 0. -1.
    10030    2    1    2    0    0  0.00000000000E+00  0.00000000000E+00 -0.19331993058E+04  0.20211976654E+04  0.58989867495E+03 0.  0.
        2    1    3    3  502    0  0.34955324746E+02  0.27158331248E+02  0.32553160903E+02  0.54946865020E+02  0.25500000920E-02 0.  1.
       -2    1    3    3    0  502 -0.34955324746E+02 -0.27158331248E+02 -0.19657524667E+04  0.19662508004E+04  0.25500000920E-02 0. -1.
</event>
<event>
 5   0  0.1532571E-01  0.6062007E+03  0.7818609E-02  0.9892624E-01
       -2   -1    0    0    0  501  0.00000000000E+00  0.00000000000E+00  0.87740712690E+02  0.87740712727E+02  0.25500000920E-02 0.  1.
        2   -1    0    0  501    0  0.00000000000E+00  0.00000000000E+00 -0.10470602817E+04  0.10470602817E+04  0.25500000920E-02 0. -1.
    10030    2    1    2    0    0  0.00000000000E+00  0.00000000000E+00 -0.95931956899E+03  0.11348009944E+04  0.60620067755E+03 0.  0.
        1    1    3    3  502    0 -0.15914928889E+03  0.71163185526E+02 -0.15507974858E+02  0.17502340540E+03  0.50400001928E-02 0.  1.
       -1    1    3    3    0  502  0.15914928889E+03 -0.71163185526E+02 -0.94381159413E+03  0.95977758901E+03  0.50400001928E-02 0. -1.
</event>
<event>
 5   0  0.9420349E-02  0.6038521E+03  0.7818609E-02  0.9897446E-01
       -1   -1    0    0    0  501  0.00000000000E+00  0.00000000000E+00  0.70717702747E+02  0.70717702927E+02  0.50400001928E-02 0.  1.
        1   -1    0    0  501    0  0.00000000000E+00  0.00000000000E+00 -0.12890598741E+04  0.12890598741E+04  0.50400001928E-02 0. -1.
    10030    2    1    2    0    0  0.00000000000E+00  0.00000000000E+00 -0.12183421713E+04  0.13597775770E+04  0.60385214458E+03 0.  0.
        2    1    3    3  502    0  0.10880258864E+03 -0.13871688227E+03 -0.11611195440E+04  0.11744270825E+04  0.25500000920E-02 0. -1.
       -2    1    3    3    0  502 -0.10880258864E+03  0.13871688227E+03 -0.57222627344E+02  0.18535049449E+03  0.25500000920E-02 0.  1.
</event>
<event>
 5   0  0.1483942E-01  0.5958263E+03  0.7818609E-02  0.9914103E-01
        2   -1    0    0  501    0  0.00000000000E+00  0.00000000000E+00  0.11395821059E+04  0.11395821059E+04  0.25500000920E-02 0.  1.
       -2   -1    0    0    0  501  0.00000000000E+00  0.00000000000E+00 -0.77881391645E+02  0.77881391687E+02  0.25500000920E-02 0. -1.
    10030    2    1    2    0    0  0.00000000000E+00  0.00000000000E+00  0.10617007142E+04  0.12174634976E+04  0.59582628450E+03 0.  0.
        4    1    3    3  502    0  0.49261276301E+02 -0.20682771255E+03  0.10445577406E+03  0.23689026501E+03  0.12699999809E+01 0. -1.
       -4    1    3    3    0  502 -0.49261276301E+02  0.20682771255E+03  0.95724494016E+03  0.98057323254E+03  0.12699999809E+01 0.  1.
</event>
<event>
 5   0  0.9411028E-02  0.6083244E+03  0.7818609E-02  0.9888285E-01
        1   -1    0    0  501    0  0.00000000000E+00  0.00000000000E+00  0.76213492368E+03  0.76213492370E+03  0.50400001928E-02 0.  1.
       -1   -1    0    0    0  501  0.00000000000E+00  0.00000000000E+00 -0.12138879427E+03  0.12138879437E+03  0.50400001928E-02 0. -1.
    10030    2    1    2    0    0  0.00000000000E+00  0.00000000000E+00  0.64074612941E+03  0.88352371807E+03  0.60832438553E+03 0.  0.
        4    1    3    3  502    0  0.12123403454E+03  0.14080495136E+03 -0.29376291653E+02  0.18811779519E+03  0.12699999809E+01 0. -1.
       -4    1    3    3    0  502 -0.12123403454E+03 -0.14080495136E+03  0.67012242107E+03  0.69540592288E+03  0.12699999809E+01 0.  1.
</event>
<event>
 5   0  0.9420349E-02  0.5763003E+03  0.7818609E-02  0.9955833E-01
        1   -1    0    0  501    0  0.00000000000E+00  0.00000000000E+00  0.10061898476E+03  0.10061898489E+03  0.50400001928E-02 0.  1.
       -1   -1    0    0    0  501  0.00000000000E+00  0.00000000000E+00 -0.82519730893E+03  0.82519730894E+03  0.50400001928E-02 0. -1.
    10030    2    1    2    0    0  0.00000000000E+00  0.00000000000E+00 -0.72457832417E+03  0.92581629383E+03  0.57630032280E+03 0.  0.
        2    1    3    3  502    0  0.55447483937E+02  0.11146313549E+03 -0.77976463036E+03  0.78964000204E+03  0.25500000920E-02 0. -1.
       -2    1    3    3    0  502 -0.55447483937E+02 -0.11146313549E+03  0.55186306195E+02  0.13617629179E+03  0.25500000920E-02 0.  1.
</event>
<event>
 5   0  0.1513339E-01  0.5989377E+03  0.7818609E-02  0.9907612E-01
       -2   -1    0    0    0  501  0.00000000000E+00  0.00000000000E+00  0.91969589126E+02  0.91969589162E+02  0.25500000920E-02 0.  1.
        2   -1    0    0  501    0  0.00000000000E+00  0.00000000000E+00 -0.97512221382E+03  0.97512221382E+03  0.25500000920E-02 0. -1.
    10030    2    1    2    0    0  0.00000000000E+00  0.00000000000E+00 -0.88315262469E+03  0.10670918030E+04  0.59893769083E+03 0.  0.
        3    1    3    3  502    0 -0.34531622444E+02  0.13772003410E+03  0.28190493302E+02  0.14475480944E+03  0.10100000352E+00 0.  1.
       -3    1    3    3    0  502  0.34531622444E+02 -0.13772003410E+03 -0.91134311799E+03  0.92233699354E+03  0.10100000352E+00 0. -1.
</event>
<event>
 5   0  0.8860626E-02  0.5913312E+03  0.7818609E-02  0.9923556E-01
       -1   -1    0    0    0  501  0.00000000000E+00  0.00000000000E+00  0.30468594350E+03  0.30468594354E+03  0.50400001928E-02 0. -1.
        1   -1    0    0  501    0  0.00000000000E+00  0.00000000000E+00 -0.28691232370E+03  0.28691232374E+03  0.50400001928E-02 0.  1.
    10030    2    1    2    0    0  0.00000000000E+00  0.00000000000E+00  0.17773619802E+02  0.59159826728E+03  0.59133121708E+03 0.  0.
        3    1    3    3  502    0 -0.14112782421E+03  0.22064572756E+03  0.14612215985E+03  0.29992214932E+03  0.10100000352E+00 0. -1.
       -3    1    3    3    0  502  0.14112782421E+03 -0.22064572756E+03 -0.12834854004E+03  0.29167611796E+03  0.10100000352E+00 0.  1.
</event>
<event>
 5   0  0.1513339E-01  0.5760197E+03  0.7818609E-02  0.9956446E-01
       -2   -1    0    0    0  501  0.00000000000E+00  0.00000000000E+00  0.60720310637E+02  0.60720310690E+02  0.25500000920E-02 0. -1.
        2   -1    0    0  501    0  0.00000000000E+00  0.00000000000E+00 -0.13660941638E+04  0.13660941638E+04  0.25500000920E-02 0.  1.
    10030    2    1    2    0    0  0.00000000000E+00  0.00000000000E+00 -0.13053738532E+04  0.14268144745E+04  0.57601965948E+03 0.  0.
        3    1    3    3  502    0 -0.28423077286E+03  0.44856066917E+02 -0.62230394380E+03  0.68561024471E+03  0.10100000352E+00 0. -1.
       -3    1    3    3    0  502  0.28423077286E+03 -0.44856066917E+02 -0.68306990940E+03  0.74120422983E+03  0.10100000352E+00 0.  1.
</event>
<event>
 5   0  0.6170500E-02  0.5690997E+03  0.7818609E-02  0.9971673E-01
        3   -1    0    0  501    0  0.00000000000E+00  0.00000000000E+00  0.17848409793E+03  0.17848412650E+03  0.10100000352E+00 0.  1.
       -3   -1    0    0    0  501  0.00000000000E+00  0.00000000000E+00 -0.45364596505E+03  0.45364597629E+03  0.10100000352E+00 0. -1.
    10030    2    1    2    0    0  0.00000000000E+00  0.00000000000E+00 -0.27516186712E+03  0.63213010280E+03  0.56909965186E+03 0.  0.
        2    1    3    3  502    0  0.17030215549E+03 -0.48203326223E+02  0.10990113870E+03  0.20833781490E+03  0.25500000920E-02 0.  1.
       -2    1    3    3    0  502 -0.17030215549E+03  0.48203326223E+02 -0.38506300582E+03  0.42379228790E+03  0.25500000920E-02 0. -1.
</event>
<event>
 5   0  0.9411028E-02  0.5980038E+03  0.7818609E-02  0.9909556E-01
       -1   -1    0    0    0  501  0.00000000000E+00  0.00000000000E+00  0.23129122613E+03  0.23129122619E+03  0.50400001928E-02 0. -1.
        1   -1    0    0  501    0  0.00000000000E+00  0.00000000000E+00 -0.38653493238E+03  0.38653493242E+03  0.50400001928E-02 0.  1.
    10030    2    1    2    0    0  0.00000000000E+00  0.00000000000E+00 -0.15524370625E+03  0.61782615860E+03  0.59800380762E+03 0.  0.
        4    1    3    3  502    0 -0.15742824438E+03  0.20068910493E+03 -0.23880861844E+03  0.34941513720E+03  0.12699999809E+01 0. -1.
       -4    1    3    3    0  502  0.15742824438E+03 -0.20068910493E+03  0.83564912186E+02  0.26841102141E+03  0.12699999809E+01 0.  1.
</event>
<event>
 5   0  0.9497860E-02  0.6068218E+03  0.7818609E-02  0.9891353E-01
       -1   -1    0    0    0  501  0.00000000000E+00  0.00000000000E+00  0.83325757052E+03  0.83325757053E+03  0.50400001928E-02 0. -1.
        1   -1    0    0  501    0  0.00000000000E+00  0.00000000000E+00 -0.11047986438E+03  0.11047986449E+03  0.50400001928E-02 0.  1.
    10030    2    1    2    0    0  0.00000000000E+00  0.00000000000E+00  0.72277770614E+03  0.94373743503E+03  0.60682183034E+03 0.  0.
        5    1    3    3  502    0  0.80648560935E+02 -0.13926436710E+02 -0.92930365039E+02  0.12392045338E+03  0.46999998093E+01 0.  1.
       -5    1    3    3    0  502 -0.80648560935E+02  0.13926436710E+02  0.81570807118E+03  0.81981698165E+03  0.46999998093E+01 0. -1.
</event>
<event>
 5   0  0.1513339E-01  0.3688508E+03  0.7818609E-02  0.1055133E+00
       -2   -1    0    0    0  501  0.00000000000E+00  0.00000000000E+00  0.18847830968E+03  0.18847830970E+03  0.25500000920E-02 0. -1.
        2   -1    0    0  501    0  0.00000000000E+00  0.00000000000E+00 -0.18045966339E+03  0.18045966340E+03  0.25500000920E-02 0.  1.
    10030    2    1    2    0    0  0.00000000000E+00  0.00000000000E+00  0.80186462982E+01  0.36893797311E+03  0.36885082257E+03 0.  0.
        3    1    3    3  502    0 -0.91487384724E+02  0.15396741376E+03  0.48028993955E+02  0.18542572778E+03  0.10100000352E+00 0. -1.
       -3    1    3    3    0  502  0.91487384724E+02 -0.15396741376E+03 -0.40010347656E+02  0.18351224532E+03  0.10100000352E+00 0.  1.
</event>
<event>
 5   0  0.9177281E-02  0.5904997E+03  0.7818609E-02  0.9925314E-01
       -1   -1    0    0    0  501  0.00000000000E+00  0.00000000000E+00  0.15434280663E+03  0.15434280672E+03  0.50400001928E-02 0.  1.
        1   -1    0    0  501    0  0.00000000000E+00  0.00000000000E+00 -0.56479783572E+03  0.56479783575E+03  0.50400001928E-02 0. -1.
    10030    2    1    2    0    0  0.00000000000E+00  0.00000000000E+00 -0.41045502909E+03  0.71914064246E+03  0.59049973136E+03 0.  0.
        1    1    3    3  502    0  0.18377708932E+03 -0.64937538958E+02  0.64854317259E+02  0.20541904736E+03  0.50400001928E-02 0.  1.
       -1    1    3    3    0  502 -0.18377708932E+03  0.64937538958E+02 -0.47530934635E+03  0.51372159510E+03  0.50400001928E-02 0. -1.
</event>
<event>
 5   0  0.1488510E-01  0.5856255E+03  0.7818609E-02  0.9935686E-01
       -2   -1    0    0    0  501  0.00000000000E+00  0.00000000000E+00  0.85475850736E+02  0.85475850774E+02  0.25500000920E-02 0.  1.
        2   -1    0    0  501    0  0.00000000000E+00  0.00000000000E+00 -0.10030823036E+04  0.10030823036E+04  0.25500000920E-02 0. -1.
    10030    2    1    2    0    0  0.00000000000E+00  0.00000000000E+00 -0.91760645290E+03  0.10885581544E+04  0.58562552296E+03 0.  0.
        5    1    3    3  502    0  0.25071250288E+03 -0.68804930045E+02 -0.20854591783E+03  0.33332321753E+03  0.46999998093E+01 0.  1.
       -5    1    3    3    0  502 -0.25071250288E+03  0.68804930045E+02 -0.70906053507E+03  0.75523493689E+03  0.46999998093E+01 0. -1.
</event>
<event>
 5   0  0.9420349E-02  0.6191999E+03  0.7818609E-02  0.9866354E-01
       -1   -1    0    0    0  501  0.00000000000E+00  0.00000000000E+00  0.49470684966E+02  0.49470685222E+02  0.50400001928E-02 0. -1.
        1   -1    0    0  501    0  0.00000000000E+00  0.00000000000E+00 -0.19375540149E+04  0.19375540149E+04  0.50400001928E-02 0.  1.
    10030    2    1    2    0    0  0.00000000000E+00  0.00000000000E+00 -0.18880833299E+04  0.19870247001E+04  0.61919988546E+03 0.  0.
        2    1    3    3  502    0 -0.11323533650E+03  0.15197900487E+02 -0.18674306723E+04  0.18709223751E+04  0.25500000920E-02 0.  1.
       -2    1    3    3    0  502  0.11323533650E+03 -0.15197900487E+02 -0.20652657611E+02  0.11610232506E+03  0.25500000920E-02 0. -1.
</event>
<event>
 5   0  0.9177281E-02  0.5926745E+03  0.7818609E-02  0.9920722E-01
        1   -1    0    0  501    0  0.00000000000E+00  0.00000000000E+00  0.46631274296E+03  0.46631274299E+03  0.50400001928E-02 0. -1.
       -1   -1    0    0    0  501  0.00000000000E+00  0.00000000000E+00 -0.18831946726E+03  0.18831946732E+03  0.50400001928E-02 0.  1.
    10030    2    1    2    0    0  0.00000000000E+00  0.00000000000E+00  0.27799327570E+03  0.65463221031E+03  0.59267450547E+03 0.  0.
        1    1    3    3  502    0  0.44636763836E+02  0.22227656716E+03  0.34977690653E+03  0.41682514003E+03  0.50400001928E-02 0. -1.
       -1    1    3    3    0  502 -0.44636763836E+02 -0.22227656716E+03 -0.71783630830E+02  0.23780707028E+03  0.50400001928E-02 0.  1.
</event>
<event>
 5   0  0.6170500E-02  0.5781650E+03  0.7818609E-02  0.9951772E-01
       -3   -1    0    0    0  501  0.00000000000E+00  0.00000000000E+00  0.91595384830E+03  0.91595385386E+03  0.10100000352E+00 0.  1.
        3   -1    0    0  501    0  0.00000000000E+00  0.00000000000E+00 -0.91236764186E+02  0.91236820090E+02  0.10100000352E+00 0. -1.
    10030    2    1    2    0    0  0.00000000000E+00  0.00000000000E+00  0.82471708411E+03  0.10071906740E+04  0.57816501527E+03 0.  0.
        2    1    3    3  502    0 -0.12772354837E+03  0.94872072789E+02  0.83281913825E+03  0.84788072984E+03  0.25500000920E-02 0.  1.
       -2    1    3    3    0  502  0.12772354837E+03 -0.94872072789E+02 -0.81020541377E+01  0.15930994411E+03  0.25500000920E-02 0. -1.
</event>
<event>
 5   0  0.8860626E-02  0.6039112E+03  0.7818609E-02  0.9897325E-01
       -1   -1    0    0    0  501  0.00000000000E+00  0.00000000000E+00  0.13151943798E+03  0.13151943807E+03  0.50400001928E-02 0.  1.
        1   -1    0    0  501    0  0.00000000000E+00  0.00000000000E+00 -0.69326004244E+03  0.69326004246E+03  0.50400001928E-02 0. -1.
    10030    2    1    2    0    0  0.00000000000E+00  0.00000000000E+00 -0.56174060446E+03  0.82477948053E+03  0.60391115639E+03 0.  0.
        3    1    3    3  502    0 -0.46333589573E+02 -0.16073568831E+03 -0.62419424039E+03  0.64622072309E+03  0.10100000352E+00 0. -1.
       -3    1    3    3    0  502  0.46333589573E+02  0.16073568831E+03  0.62453635922E+02  0.17855875744E+03  0.10100000352E+00 0.  1.
</event>
<event>
 5   0  0.1502642E-01  0.5536841E+03  0.7818609E-02  0.1000645E+00
        2   -1    0    0  501    0  0.00000000000E+00  0.00000000000E+00  0.39729950207E+03  0.39729950207E+03  0.25500000920E-02 0.  1.
       -2   -1    0    0    0  501  0.00000000000E+00  0.00000000000E+00 -0.19290613585E+03  0.19290613586E+03  0.25500000920E-02 0. -1.
    10030    2    1    2    0    0  0.00000000000E+00  0.00000000000E+00  0.20439336622E+03  0.59020563794E+03  0.55368406776E+03 0.  0.
        2    1    3    3  502    0  0.24955138816E+03 -0.10954204023E+03  0.50344961584E+02  0.27714611502E+03  0.25500000920E-02 0. -1.
       -2    1    3    3    0  502 -0.24955138816E+03  0.10954204023E+03  0.15404840464E+03  0.31305952291E+03  0.25500000920E-02 0.  1.
</event>
<event>
 5   0  0.1532571E-01  0.5992327E+03  0.7818609E-02  0.9906999E-01
       -2   -1    0    0    0  501  0.00000000000E+00  0.00000000000E+00  0.10051344102E+03  0.10051344106E+03  0.25500000920E-02 0. -1.
        2   -1    0    0  501    0  0.00000000000E+00  0.00000000000E+00 -0.89311396202E+03  0.89311396202E+03  0.25500000920E-02 0.  1.
    10030    2    1    2    0    0  0.00000000000E+00  0.00000000000E+00 -0.79260052100E+03  0.99362740308E+03  0.59923270127E+03 0.  0.
        1    1    3    3  502    0 -0.78825634501E+02 -0.16894643104E+03 -0.73778133099E+01  0.18657655096E+03  0.50400001928E-02 0. -1.
       -1    1    3    3    0  502  0.78825634501E+02  0.16894643104E+03 -0.78522270769E+03  0.80705085212E+03  0.50400001928E-02 0.  1.
</event>
<event>
 5   0  0.9411028E-02  0.6752535E+03  0.7818609E-02  0.9760514E-01
        1   -1    0    0  501    0  0.00000000000E+00  0.00000000000E+00  0.11606855266E+03  0.11606855277E+03  0.50400001928E-02 0.  1.
       -1   -1    0    0    0  501  0.00000000000E+00  0.00000000000E+00 -0.98210781397E+03  0.98210781398E+03  0.50400001928E-02 0. -1.
    10030    2    1    2    0    0  0.00000000000E+00  0.00000000000E+00 -0.86603926131E+03  0.10981763667E+04  0.67525353043E+03 0.  0.
        4    1    3    3  502    0 -0.28428113247E+03 -0.86266017680E+02 -0.69390356242E+03  0.75482538042E+03  0.12699999809E+01 0. -1.
       -4    1    3    3    0  502  0.28428113247E+03  0.86266017680E+02 -0.17213569889E+03  0.34335098633E+03  0.12699999809E+01 0.  1.
</event>
<event>
 5   0  0.9177281E-02  0.5740162E+03  0.7818609E-02  0.9960830E-01
        1   -1    0    0  501    0  0.00000000000E+00  0.00000000000E+00  0.32098263448E+03  0.32098263452E+03  0.50400001928E-02 0. -1.
       -1   -1    0    0    0  501  0.00000000000E+00  0.00000000000E+00 -0.25662965122E+03  0.25662965127E+03  0.50400001928E-02 0.  1.
    10030    2    1    2    0    0  0.00000000000E+00  0.00000000000E+00  0.64352983262E+02  0.57761228579E+03  0.57401624214E+03 0.  0.
        1    1    3    3  502    0 -0.25076038501E+02 -0.24958359221E+03  0.17252385012E+03  0.30444253331E+03  0.50400001928E-02 0.  1.
       -1    1    3    3    0  502  0.25076038501E+02  0.24958359221E+03 -0.10817086685E+03  0.27316975248E+03  0.50400001928E-02 0. -1.
</event>
<event>
 5   0  0.9177281E-02  0.5824549E+03  0.7818609E-02  0.9942490E-01
        1   -1    0    0  501    0  0.00000000000E+00  0.00000000000E+00  0.14261851740E+04  0.14261851741E+04  0.50400001928E-02 0. -1.
       -1   -1    0    0    0  501  0.00000000000E+00  0.00000000000E+00 -0.59468739929E+02  0.59468740143E+02  0.50400001928E-02 0.  1.
    10030    2    1    2    0    0  0.00000000000E+00  0.00000000000E+00  0.13667164341E+04  0.14856539142E+04  0.58245492657E+03 0.  0.
        1    1    3    3  502    0 -0.99697162300E+01  0.33082465276E+02  0.14209385821E+04  0.14213586103E+04  0.50400001928E-02 0. -1.
       -1    1    3    3    0  502  0.99697162300E+01 -0.33082465276E+02 -0.54222148002E+02  0.64295303948E+02  0.50400001928E-02 0.  1.
</event>
<event>
 5   0  0.9420349E-02  0.6100545E+03  0.7818609E-02  0.9884763E-01
        1   -1    0    0  501    0  0.00000000000E+00  0.00000000000E+00  0.14429959404E+04  0.14429959404E+04  0.50400001928E-02 0. -1.
       -1   -1    0    0    0  501  0.00000000000E+00  0.00000000000E+00 -0.64478099445E+02  0.64478099642E+02  0.50400001928E-02 0.  1.
    10030    2    1    2    0    0  0.00000000000E+00  0.00000000000E+00  0.13785178409E+04  0.15074740400E+04  0.61005454148E+03 0.  0.
        2    1    3    3  502    0  0.82730792497E+02 -0.18984316414E+03  0.12426678922E+04  0.12598048664E+04  0.25500000920E-02 0. -1.
       -2    1    3    3    0  502 -0.82730792497E+02  0.18984316414E+03  0.13584994868E+03  0.24766917362E+03  0.25500000920E-02 0.  1.
</event>
<event>
 5   0  0.1532571E-01  0.5888289E+03  0.7818609E-02  0.9928857E-01
        2   -1    0    0  501    0  0.00000000000E+00  0.00000000000E+00  0.70080120101E+03  0.70080120102E+03  0.25500000920E-02 0.  1.
       -2   -1    0    0    0  501  0.00000000000E+00  0.00000000000E+00 -0.12368681687E+03  0.12368681690E+03  0.25500000920E-02 0. -1.
    10030    2    1    2    0    0  0.00000000000E+00  0.00000000000E+00  0.57711438414E+03  0.82448801792E+03  0.58882890495E+03 0.  0.
        1    1    3    3  502    0  0.19667143392E+02  0.26020286264E+03  0.97657060756E+02  0.27862022144E+03  0.50400001928E-02 0. -1.
       -1    1    3    3    0  502 -0.19667143392E+02 -0.26020286264E+03  0.47945732338E+03  0.54586779647E+03  0.50400001928E-02 0.  1.
</event>
<event>
 5   0  0.1513339E-01  0.5269503E+03  0.7818609E-02  0.1006974E+00
        2   -1    0    0  501    0  0.00000000000E+00  0.00000000000E+00  0.12843640426E+03  0.12843640428E+03  0.25500000920E-02 0.  1.
       -2   -1    0    0    0  501  0.00000000000E+00  0.00000000000E+00 -0.54049435359E+03  0.54049435360E+03  0.25500000920E-02 0. -1.
    10030    2    1    2    0    0  0.00000000000E+00  0.00000000000E+00 -0.41205794933E+03  0.66893075788E+03  0.52695028725E+03 0.  0.
        3    1    3    3  502    0  0.75526035803E+02  0.22960784453E+03 -0.33913969160E+03  0.41646090450E+03  0.10100000352E+00 0. -1.
       -3    1    3    3    0  502 -0.75526035803E+02 -0.22960784453E+03 -0.72918257733E+02  0.25246985338E+03  0.10100000352E+00 0.  1.
</event>
<event>
 5   0  0.8860626E-02  0.6223990E+03  0.7818609E-02  0.9859995E-01
       -1   -1    0    0    0  501  0.00000000000E+00  0.00000000000E+00  0.34956575124E+03  0.34956575127E+03  0.50400001928E-02 0.  1.
        1   -1    0    0  501    0  0.00000000000E+00  0.00000000000E+00 -0.27704409190E+03  0.27704409195E+03  0.50400001928E-02 0. -1.
    10030    2    1    2    0    0  0.00000000000E+00  0.00000000000E+00  0.72521659335E+02  0.62660984322E+03  0.62239899144E+03 0.  0.
        3    1    3    3  502    0  0.92815521974E+02 -0.29340779042E+03 -0.10336900305E+02  0.30791186126E+03  0.10100000352E+00 0. -1.
       -3    1    3    3    0  502 -0.92815521974E+02  0.29340779042E+03  0.82858559639E+02  0.31869798196E+03  0.10100000352E+00 0.  1.
</event>
<event>
 5   0  0.1483942E-01  0.5937375E+03  0.7818609E-02  0.9918485E-01
        2   -1    0    0  501    0  0.00000000000E+00  0.00000000000E+00  0.83663317641E+02  0.83663317680E+02  0.25500000920E-02 0.  1.
       -2   -1    0    0    0  501  0.00000000000E+00  0.00000000000E+00 -0.10534014759E+04  0.10534014759E+04  0.25500000920E-02 0. -1.
    10030    2    1    2    0    0  0.00000000000E+00  0.00000000000E+00 -0.96973815828E+03  0.11370647936E+04  0.59373752553E+03 0.  0.
        4    1    3    3  502    0  0.63341898245E+02  0.26802736832E+03 -0.27265956904E+03  0.38755092534E+03  0.12699999809E+01 0.  1.
       -4    1    3    3    0  502 -0.63341898245E+02 -0.26802736832E+03 -0.69707858924E+03  0.74951386826E+03  0.12699999809E+01 0. -1.
</event>
<event>
 5   0  0.8860626E-02  0.5930234E+03  0.7818609E-02  0.9919987E-01
        1   -1    0    0  501    0  0.00000000000E+00  0.00000000000E+00  0.13776631395E+04  0.13776631395E+04  0.50400001928E-02 0. -1.
       -1   -1    0    0    0  501  0.00000000000E+00  0.00000000000E+00 -0.63817622144E+02  0.63817622343E+02  0.50400001928E-02 0.  1.
    10030    2    1    2    0    0  0.00000000000E+00  0.00000000000E+00  0.13138455173E+04  0.14414807618E+04  0.59302339187E+03 0.  0.
        3    1    3    3  502    0  0.28138049499E+03  0.16418501104E+02  0.88069039970E+03  0.92469462012E+03  0.10100000352E+00 0.  1.
       -3    1    3    3    0  502 -0.28138049499E+03 -0.16418501104E+02  0.43315511763E+03  0.51678614171E+03  0.10100000352E+00 0. -1.
</event>
<event>
 5   0  0.8860626E-02  0.6010129E+03  0.7818609E-02  0.9903307E-01
       -1   -1    0    0    0  501  0.00000000000E+00  0.00000000000E+00  0.28303987724E+03  0.28303987729E+03  0.50400001928E-02 0. -1.
        1   -1    0    0  501    0  0.00000000000E+00  0.00000000000E+00 -0.31905089201E+03  0.31905089205E+03  0.50400001928E-02 0.  1.
    10030    2    1    2    0    0  0.00000000000E+00  0.00000000000E+00 -0.36011014767E+02  0.60209076934E+03  0.60101289615E+03 0.  0.
        3    1    3    3  502    0 -0.25957446592E+03  0.12407253345E+03 -0.10494373738E+03  0.30624515527E+03  0.10100000352E+00 0.  1.
       -3    1    3    3    0  502  0.25957446592E+03 -0.12407253345E+03  0.68932722609E+02  0.29584561406E+03  0.10100000352E+00 0. -1.
</event>
<event>
 5   0  0.1513339E-01  0.7437107E+03  0.7818609E-02  0.9645269E-01
        2   -1    0    0  501    0  0.00000000000E+00  0.00000000000E+00  0.10104502774E+04  0.10104502774E+04  0.25500000920E-02 0.  1.
       -2   -1    0    0    0  501  0.00000000000E+00  0.00000000000E+00 -0.13684633466E+03  0.13684633469E+03  0.25500000920E-02 0. -1.
    10030    2    1    2    0    0  0.00000000000E+00  0.00000000000E+00  0.87360394271E+03  0.11472966121E+04  0.74371074171E+03 0.  0.
        3    1    3    3  502    0 -0.53050489578E+02 -0.25171533220E+03  0.85103396340E+03  0.88906342854E+03  0.10100000352E+00 0.  1.
       -3    1    3    3    0  502  0.53050489578E+02  0.25171533220E+03  0.22569979312E+02  0.25823318353E+03  0.10100000352E+00 0. -1.
</event>
<event>
 5   0  0.9411028E-02  0.6221238E+03  0.7818609E-02  0.9860540E-01
       -1   -1    0    0    0  501  0.00000000000E+00  0.00000000000E+00  0.65316953794E+02  0.65316953989E+02  0.50400001928E-02 0.  1.
        1   -1    0    0  501    0  0.00000000000E+00  0.00000000000E+00 -0.14813844623E+04  0.14813844623E+04  0.50400001928E-02 0. -1.
    10030    2    1    2    0    0  0.00000000000E+00  0.00000000000E+00 -0.14160675085E+04  0.15467014163E+04  0.62212384823E+03 0.  0.
        4    1    3    3  502    0 -0.33960640891E+02  0.25025293592E+03 -0.25655000390E+03  0.35999913120E+03  0.12699999809E+01 0.  1.
       -4    1    3    3    0  502  0.33960640891E+02 -0.25025293592E+03 -0.11595175046E+04  0.11867022851E+04  0.12699999809E+01 0. -1.
</event>
<event>
 5   0  0.8860626E-02  0.6321749E+03  0.7818609E-02  0.9840814E-01
       -1   -1    0    0    0  501  0.00000000000E+00  0.00000000000E+00  0.35894855547E+03  0.35894855550E+03  0.50400001928E-02 0. -1.
        1   -1    0    0  501    0  0.00000000000E+00  0.00000000000E+00 -0.27834424138E+03  0.27834424143E+03  0.50400001928E-02 0.  1.
    10030    2    1    2    0    0  0.00000000000E+00  0.00000000000E+00  0.80604314083E+02  0.63729279693E+03  0.63217485997E+03 0.  0.
        3    1    3    3  502    0 -0.23367931915E+03  0.18784699938E+03  0.14120611643E+03  0.33140865543E+03  0.10100000352E+00 0.  1.
       -3    1    3    3    0  502  0.23367931915E+03 -0.18784699938E+03 -0.60601802347E+02  0.30588414150E+03  0.10100000352E+00 0. -1.
</event>
<event>
 5   0  0.1502642E-01  0.6169776E+03  0.7818609E-02  0.9870796E-01
        2   -1    0    0  501    0  0.00000000000E+00  0.00000000000E+00  0.95936381284E+03  0.95936381285E+03  0.25500000920E-02 0. -1.
       -2   -1    0    0    0  501  0.00000000000E+00  0.00000000000E+00 -0.99196310176E+02  0.99196310209E+02  0.25500000920E-02 0.  1.
    10030    2    1    2    0    0  0.00000000000E+00  0.00000000000E+00  0.86016750267E+03  0.10585601231E+04  0.61697763450E+03 0.  0.
        2    1    3    3  502    0  0.70417589755E+02  0.18794487793E+03  0.83202886742E+03  0.85589365596E+03  0.25500000920E-02 0. -1.
       -2    1    3    3    0  502 -0.70417589755E+02 -0.18794487793E+03  0.28138635248E+02  0.20266646710E+03  0.25500000920E-02 0.  1.
</event>
<event>
 5   0  0.9411028E-02  0.5979471E+03  0.7818609E-02  0.9909674E-01
        1   -1    0    0  501    0  0.00000000000E+00  0.00000000000E+00  0.61309172595E+03  0.61309172597E+03  0.50400001928E-02 0.  1.
       -1   -1    0    0    0  501  0.00000000000E+00  0.00000000000E+00 -0.14579415701E+03  0.14579415710E+03  0.50400001928E-02 0. -1.
    10030    2    1    2    0    0  0.00000000000E+00  0.00000000000E+00  0.46729756894E+03  0.75888588307E+03  0.59794712608E+03 0.  0.
        4    1    3    3  502    0  0.37391798470E+02  0.29422100930E+03  0.18583307336E+03  0.34999956137E+03  0.12699999809E+01 0. -1.
       -4    1    3    3    0  502 -0.37391798470E+02 -0.29422100930E+03  0.28146449558E+03  0.40888632170E+03  0.12699999809E+01 0.  1.
</event>
<event>
 5   0  0.1532571E-01  0.6306319E+03  0.7818609E-02  0.9843816E-01
        2   -1    0    0  501    0  0.00000000000E+00  0.00000000000E+00  0.35590126812E+03  0.35590126813E+03  0.25500000920E-02 0. -1.
       -2   -1    0    0    0  501  0.00000000000E+00  0.00000000000E+00 -0.27935880419E+03  0.27935880420E+03  0.25500000920E-02 0.  1.
    10030    2    1    2    0    0  0.00000000000E+00  0.00000000000E+00  0.76542463931E+02  0.63526007233E+03  0.63063191380E+03 0.  0.
        1    1    3    3  502    0  0.10028195046E+03 -0.29023695330E+03 -0.33879793676E+02  0.30893656160E+03  0.50400001928E-02 0.  1.
       -1    1    3    3    0  502 -0.10028195046E+03  0.29023695330E+03  0.11042225761E+03  0.32632351072E+03  0.50400001928E-02 0. -1.
</event>
<event>
 5   0  0.6170500E-02  0.6002552E+03  0.7818609E-02  0.9904877E-01
        4   -1    0    0  501    0  0.00000000000E+00  0.00000000000E+00  0.14689466924E+03  0.14690015912E+03  0.12699999809E+01 0. -1.
       -4   -1    0    0    0  501  0.00000000000E+00  0.00000000000E+00 -0.61318758928E+03  0.61318890446E+03  0.12699999809E+01 0.  1.
    10030    2    1    2    0    0  0.00000000000E+00  0.00000000000E+00 -0.46629292005E+03  0.76008906358E+03  0.60025519347E+03 0.  0.
        4    1    3    3  502    0 -0.72576340742E+02  0.15599818528E+03 -0.54453774265E+03  0.57107418530E+03  0.12699999809E+01 0.  1.
       -4    1    3    3    0  502  0.72576340742E+02 -0.15599818528E+03  0.78244822602E+02  0.18901487828E+03  0.12699999809E+01 0. -1.
</event>
<event>
 5   0  0.9411028E-02  0.5973119E+03  0.7818609E-02  0.9910999E-01
       -1   -1    0    0    0  501  0.00000000000E+00  0.00000000000E+00  0.26028215174E+03  0.26028215179E+03  0.50400001928E-02 0.  1.
        1   -1    0    0  501    0  0.00000000000E+00  0.00000000000E+00 -0.34268728354E+03  0.34268728357E+03  0.50400001928E-02 0. -1.
    10030    2    1    2    0    0  0.00000000000E+00  0.00000000000E+00 -0.82405131797E+02  0.60296943536E+03  0.59731192373E+03 0.  0.
        4    1    3    3  502    0 -0.74891798620E+02 -0.63450839214E+02 -0.32593616489E+03  0.34039798322E+03  0.12699999809E+01 0. -1.
       -4    1    3    3    0  502  0.74891798620E+02  0.63450839214E+02  0.24353103310E+03  0.26257145214E+03  0.12699999809E+01 0.  1.
</event>
<event>
 5   0  0.1513339E-01  0.5544810E+03  0.7818609E-02  0.1000462E+00
        2   -1    0    0  501    0  0.00000000000E+00  0.00000000000E+00  0.14105713287E+04  0.14105713287E+04  0.25500000920E-02 0. -1.
       -2   -1    0    0    0  501  0.00000000000E+00  0.00000000000E+00 -0.54490180264E+02  0.54490180324E+02  0.25500000920E-02 0.  1.
    10030    2    1    2    0    0  0.00000000000E+00  0.00000000000E+00  0.13560811484E+04  0.14650615090E+04  0.55448096819E+03 0.  0.
        3    1    3    3  502    0  0.11658625607E+03  0.95300958275E+01  0.13906252185E+02  0.11779886197E+03  0.10100000352E+00 0.  1.
       -3    1    3    3    0  502 -0.11658625607E+03 -0.95300958275E+01  0.13421748963E+04  0.13472626471E+04  0.10100000352E+00 0. -1.
</event>
<event>
 5   0  0.8860626E-02  0.5997832E+03  0.7818609E-02  0.9905856E-01
        1   -1    0    0  501    0  0.00000000000E+00  0.00000000000E+00  0.77490252026E+03  0.77490252028E+03  0.50400001928E-02 0.  1.
       -1   -1    0    0    0  501  0.00000000000E+00  0.00000000000E+00 -0.11605971261E+03  0.11605971271E+03  0.50400001928E-02 0. -1.
    10030    2    1    2    0    0  0.00000000000E+00  0.00000000000E+00  0.65884280766E+03  0.89096223299E+03  0.59978317367E+03 0.  0.
        3    1    3    3  502    0  0.40883947626E+02 -0.43102393224E+02  0.76607401678E+03  0.76837407743E+03  0.10100000352E+00 0.  1.
       -3    1    3    3    0  502 -0.40883947626E+02  0.43102393224E+02 -0.10723120912E+03  0.12258815557E+03  0.10100000352E+00 0. -1.
</event>
<event>
 5   0  0.1502642E-01  0.5764566E+03  0.7818609E-02  0.9955492E-01
       -2   -1    0    0    0  501  0.00000000000E+00  0.00000000000E+00  0.13302986475E+03  0.13302986478E+03  0.25500000920E-02 0.  1.
        2   -1    0    0  501    0  0.00000000000E+00  0.00000000000E+00 -0.62448798853E+03  0.62448798854E+03  0.25500000920E-02 0. -1.
    10030    2    1    2    0    0  0.00000000000E+00  0.00000000000E+00 -0.49145812378E+03  0.75751785331E+03  0.57645659911E+03 0.  0.
        2    1    3    3  502    0 -0.18399747388E+03  0.21815228527E+03 -0.19267380618E+03  0.34433803966E+03  0.25500000920E-02 0. -1.
       -2    1    3    3    0  502  0.18399747388E+03 -0.21815228527E+03 -0.29878431760E+03  0.41317981365E+03  0.25500000920E-02 0.  1.
</event>
<event>
 5   0  0.1513339E-01  0.6011682E+03  0.7818609E-02  0.9902985E-01
        2   -1    0    0  501    0  0.00000000000E+00  0.00000000000E+00  0.22890525153E+03  0.22890525155E+03  0.25500000920E-02 0. -1.
       -2   -1    0    0    0  501  0.00000000000E+00  0.00000000000E+00 -0.39470835719E+03  0.39470835720E+03  0.25500000920E-02 0.  1.
    10030    2    1    2    0    0  0.00000000000E+00  0.00000000000E+00 -0.16580310566E+03  0.62361360875E+03  0.60116824864E+03 0.  0.
        3    1    3    3  502    0 -0.81556221111E+02  0.11113873497E+03 -0.35998408141E+03  0.38547604943E+03  0.10100000352E+00 0.  1.
       -3    1    3    3    0  502  0.81556221111E+02 -0.11113873497E+03  0.19418097576E+03  0.23813755932E+03  0.10100000352E+00 0. -1.
</event>
<event>
 5   0  0.1502642E-01  0.5921572E+03  0.7818609E-02  0.9921812E-01
       -2   -1    0    0    0  501  0.00000000000E+00  0.00000000000E+00  0.27212702775E+03  0.27212702776E+03  0.25500000920E-02 0.  1.
        2   -1    0    0  501    0  0.00000000000E+00  0.00000000000E+00 -0.32213825582E+03  0.32213825583E+03  0.25500000920E-02 0. -1.
    10030    2    1    2    0    0  0.00000000000E+00  0.00000000000E+00 -0.50011228070E+02  0.59426528359E+03  0.59215716187E+03 0.  0.
        2    1    3    3  502    0 -0.19686874898E+03 -0.21596321646E+03 -0.72768230340E+02  0.30115217173E+03  0.25500000920E-02 0. -1.
       -2    1    3    3    0  502  0.19686874898E+03  0.21596321646E+03  0.22757002270E+02  0.29311311186E+03  0.25500000920E-02 0.  1.
</event>
<event>
 5   0  0.1502642E-01  0.5953060E+03  0.7818609E-02  0.9915193E-01
        2   -1    0    0  501    0  0.00000000000E+00  0.00000000000E+00  0.60900469394E+03  0.60900469394E+03  0.25500000920E-02 0. -1.
       -2   -1    0    0    0  501  0.00000000000E+00  0.00000000000E+00 -0.14547886709E+03  0.14547886712E+03  0.25500000920E-02 0.  1.
    10030    2    1    2    0    0  0.00000000000E+00  0.00000000000E+00  0.46352582684E+03  0.75448356106E+03  0.59530601522E+03 0.  0.
        2    1    3    3  502    0 -0.74854005675E+02 -0.53104042755E+02  0.59062427183E+03  0.59771246600E+03  0.25500000920E-02 0. -1.
       -2    1    3    3    0  502  0.74854005675E+02  0.53104042755E+02 -0.12709844499E+03  0.15677109506E+03  0.25500000920E-02 0.  1.
</event>
<event>
 5   0  0.9497860E-02  0.6008999E+03  0.7818609E-02  0.9903541E-01
        1   -1    0    0  501    0  0.00000000000E+00  0.00000000000E+00  0.94960337499E+03  0.94960337501E+03  0.50400001928E-02 0.  1.
       -1   -1    0    0    0  501  0.00000000000E+00  0.00000000000E+00 -0.95060918843E+02  0.95060918976E+02  0.50400001928E-02 0. -1.
    10030    2    1    2    0    0  0.00000000000E+00  0.00000000000E+00  0.85454245615E+03  0.10446642940E+04  0.60089988996E+03 0.  0.
        5    1    3    3  502    0 -0.13448268060E+03 -0.16612943633E+03  0.60272748214E+02  0.22212490894E+03  0.46999998093E+01 0. -1.
       -5    1    3    3    0  502  0.13448268060E+03  0.16612943633E+03  0.79426970794E+03  0.82253938504E+03  0.46999998093E+01 0.  1.
</event>
<event>
 5   0  0.9411028E-02  0.6063152E+03  0.7818609E-02  0.9892390E-01
       -1   -1    0    0    0  501  0.00000000000E+00  0.00000000000E+00  0.12683254259E+03  0.12683254269E+03  0.50400001928E-02 0.  1.
        1   -1    0    0  501    0  0.00000000000E+00  0.00000000000E+00 -0.72461309426E+03  0.72461309428E+03  0.50400001928E-02 0. -1.
    10030    2    1    2    0    0  0.00000000000E+00  0.00000000000E+00 -0.59778055167E+03  0.85144563696E+03  0.60631516948E+03 0.  0.
        4    1    3    3  502    0  0.18390695376E+03  0.22610990813E+03 -0.18177296020E+03  0.34349742380E+03  0.12699999809E+01 0. -1.
       -4    1    3    3    0  502 -0.18390695376E+03 -0.22610990813E+03 -0.41600759147E+03  0.50794821316E+03  0.12699999809E+01 0.  1.
</event>
<event>
 5   0  0.1502642E-01  0.5370613E+03  0.7818609E-02  0.1004534E+00
       -2   -1    0    0    0  501  0.00000000000E+00  0.00000000000E+00  0.17658529457E+03  0.17658529459E+03  0.25500000920E-02 0. -1.
        2   -1    0    0  501    0  0.00000000000E+00  0.00000000000E+00 -0.40835055837E+03  0.40835055837E+03  0.25500000920E-02 0.  1.
    10030    2    1    2    0    0  0.00000000000E+00  0.00000000000E+00 -0.23176526380E+03  0.58493585296E+03  0.53706127637E+03 0.  0.
        2    1    3    3  502    0  0.36296256846E+02  0.69426129649E+02  0.16386209971E+03  0.18162652192E+03  0.25500000920E-02 0. -1.
       -2    1    3    3    0  502 -0.36296256846E+02 -0.69426129649E+02 -0.39562736351E+03  0.40330933104E+03  0.25500000920E-02 0.  1.
</event>
<event>
 5   0  0.1502642E-01  0.6038799E+03  0.7818609E-02  0.9897389E-01
       -2   -1    0    0    0  501  0.00000000000E+00  0.00000000000E+00  0.10168727822E+03  0.10168727825E+03  0.25500000920E-02 0.  1.
        2   -1    0    0  501    0  0.00000000000E+00  0.00000000000E+00 -0.89654994415E+03  0.89654994415E+03  0.25500000920E-02 0. -1.
    10030    2    1    2    0    0  0.00000000000E+00  0.00000000000E+00 -0.79486266593E+03  0.99823722241E+03  0.60387986761E+03 0.  0.
        2    1    3    3  502    0 -0.52203916484E+02 -0.29590128607E+03 -0.44660484147E+03  0.53827381919E+03  0.25500000920E-02 0. -1.
       -2    1    3    3    0  502  0.52203916484E+02  0.29590128607E+03 -0.34825782446E+03  0.45996340321E+03  0.25500000920E-02 0.  1.
</event>
<event>
 5   0  0.9497860E-02  0.5983488E+03  0.7818609E-02  0.9908838E-01
        1   -1    0    0  501    0  0.00000000000E+00  0.00000000000E+00  0.55821025342E+03  0.55821025344E+03  0.50400001928E-02 0. -1.
       -1   -1    0    0    0  501  0.00000000000E+00  0.00000000000E+00 -0.16034337718E+03  0.16034337726E+03  0.50400001928E-02 0.  1.
    10030    2    1    2    0    0  0.00000000000E+00  0.00000000000E+00  0.39786687624E+03  0.71855363070E+03  0.59834878539E+03 0.  0.
        5    1    3    3  502    0  0.13909002435E+03  0.10825438085E+03  0.48918782397E+03  0.51999217587E+03  0.46999998093E+01 0. -1.
       -5    1    3    3    0  502 -0.13909002435E+03 -0.10825438085E+03 -0.91320947736E+02  0.19856145482E+03  0.46999998093E+01 0.  1.
</event>
<event>
 5   0  0.1513339E-01  0.6085443E+03  0.7818609E-02  0.9887836E-01
        2   -1    0    0  501    0  0.00000000000E+00  0.00000000000E+00  0.29373573517E+03  0.29373573518E+03  0.25500000920E-02 0. -1.
       -2   -1    0    0    0  501  0.00000000000E+00  0.00000000000E+00 -0.31518655476E+03  0.31518655477E+03  0.25500000920E-02 0.  1.
    10030    2    1    2    0    0  0.00000000000E+00  0.00000000000E+00 -0.21450819587E+02  0.60892228995E+03  0.60854434312E+03 0.  0.
        3    1    3    3  502    0  0.17063325891E+03 -0.10382418281E+02 -0.26259197000E+03  0.31333377820E+03  0.10100000352E+00 0.  1.
       -3    1    3    3    0  502 -0.17063325891E+03  0.10382418281E+02  0.24114115041E+03  0.29558851175E+03  0.10100000352E+00 0. -1.
</event>
<event>
 5   0  0.6170500E-02  0.5550258E+03  0.7818609E-02  0.1000337E+00
       -4   -1    0    0    0  501  0.00000000000E+00  0.00000000000E+00  0.10855515239E+03  0.10856258108E+03  0.12699999809E+01 0. -1.
        4   -1    0    0  501    0  0.00000000000E+00  0.00000000000E+00 -0.70940803810E+03  0.70940917489E+03  0.12699999809E+01 0.  1.
    10030    2    1    2    0    0  0.00000000000E+00  0.00000000000E+00 -0.60085288570E+03  0.81797175597E+03  0.55502576815E+03 0.  0.
        2    1    3    3  502    0 -0.18908458178E+03 -0.19641561980E+03 -0.22411318830E+03  0.35292888227E+03  0.25500000920E-02 0. -1.
       -2    1    3    3    0  502  0.18908458178E+03  0.19641561980E+03 -0.37673969741E+03  0.46504287370E+03  0.25500000920E-02 0.  1.
</event>
<event>
 5   0  0.9411028E-02  0.6143142E+03  0.7818609E-02  0.9876146E-01
        1   -1    0    0  501    0  0.00000000000E+00  0.00000000000E+00  0.87457738355E+03  0.87457738356E+03  0.50400001928E-02 0.  1.
       -1   -1    0    0    0  501  0.00000000000E+00  0.00000000000E+00 -0.10787550966E+03  0.10787550978E+03  0.50400001928E-02 0. -1.
    10030    2    1    2    0    0  0.00000000000E+00  0.00000000000E+00  0.76670187388E+03  0.98245289334E+03  0.61431419015E+03 0.  0.
        4    1    3    3  502    0 -0.39614473938E+02  0.28634126019E+03  0.54942274402E+03  0.62082814722E+03  0.12699999809E+01 0.  1.
       -4    1    3    3    0  502  0.39614473938E+02 -0.28634126019E+03  0.21727912987E+03  0.36162474613E+03  0.12699999809E+01 0. -1.
</event>
<event>
 5   0  0.1502642E-01  0.6006081E+03  0.7818609E-02  0.9904145E-01
        2   -1    0    0  501    0  0.00000000000E+00  0.00000000000E+00  0.64206394144E+03  0.64206394145E+03  0.25500000920E-02 0. -1.
       -2   -1    0    0    0  501  0.00000000000E+00  0.00000000000E+00 -0.14045722508E+03  0.14045722510E+03  0.25500000920E-02 0.  1.
    10030    2    1    2    0    0  0.00000000000E+00  0.00000000000E+00  0.50160671637E+03  0.78252116655E+03  0.60060809035E+03 0.  0.
        2    1    3    3  502    0 -0.65253591575E+02  0.26075797700E+03  0.76344822203E+02  0.27943028767E+03  0.25500000920E-02 0. -1.
       -2    1    3    3    0  502  0.65253591575E+02 -0.26075797700E+03  0.42526189416E+03  0.50309087888E+03  0.25500000920E-02 0.  1.
</event>
<event>
 5   0  0.1513339E-01  0.5940627E+03  0.7818609E-02  0.9917801E-01
       -2   -1    0    0    0  501  0.00000000000E+00  0.00000000000E+00  0.19395450381E+03  0.19395450382E+03  0.25500000920E-02 0. -1.
        2   -1    0    0  501    0  0.00000000000E+00  0.00000000000E+00 -0.45488821934E+03  0.45488821935E+03  0.25500000920E-02 0.  1.
    10030    2    1    2    0    0  0.00000000000E+00  0.00000000000E+00 -0.26093371553E+03  0.64884272317E+03  0.59406268652E+03 0.  0.
        3    1    3    3  502    0 -0.23634428913E+03 -0.49729172881E+02 -0.31931541438E+03  0.40036727851E+03  0.10100000352E+00 0.  1.
       -3    1    3    3    0  502  0.23634428913E+03  0.49729172881E+02  0.58381698845E+02  0.24847544466E+03  0.10100000352E+00 0. -1.
</event>
<event>
 5   0  0.1488510E-01  0.6022298E+03  0.7818609E-02  0.9900791E-01
        2   -1    0    0  501    0  0.00000000000E+00  0.00000000000E+00  0.47208746057E+03  0.47208746057E+03  0.25500000920E-02 0.  1.
       -2   -1    0    0    0  501  0.00000000000E+00  0.00000000000E+00 -0.19206228762E+03  0.19206228764E+03  0.25500000920E-02 0. -1.
    10030    2    1    2    0    0  0.00000000000E+00  0.00000000000E+00  0.28002517294E+03  0.66414974822E+03  0.60222984862E+03 0.  0.
        5    1    3    3  502    0 -0.19167396168E+03 -0.99980270136E+02  0.37111315270E+03  0.42951370654E+03  0.46999998093E+01 0.  1.
       -5    1    3    3    0  502  0.19167396168E+03  0.99980270136E+02 -0.91087979754E+02  0.23463604168E+03  0.46999998093E+01 0. -1.
</event>
<event>
 5   0  0.9497860E-02  0.5415312E+03  0.7818609E-02  0.1003473E+00
       -1   -1    0    0    0  501  0.00000000000E+00  0.00000000000E+00  0.16116870773E+03  0.16116870781E+03  0.50400001928E-02 0. -1.
        1   -1    0    0  501    0  0.00000000000E+00  0.00000000000E+00 -0.45488986854E+03  0.45488986856E+03  0.50400001928E-02 0.  1.
    10030    2    1    2    0    0  0.00000000000E+00  0.00000000000E+00 -0.29372116081E+03  0.61605857637E+03  0.54153120798E+03 0.  0.
        5    1    3    3  502    0 -0.14848067302E+03  0.99149430469E+02  0.84652916818E+02  0.19764950328E+03  0.46999998093E+01 0. -1.
       -5    1    3    3    0  502  0.14848067302E+03 -0.99149430469E+02 -0.37837407763E+03  0.41840907309E+03  0.46999998093E+01 0.  1.
</event>
<event>
 5   0  0.1483942E-01  0.5887320E+03  0.7818609E-02  0.9929063E-01
        2   -1    0    0  501    0  0.00000000000E+00  0.00000000000E+00  0.30728934327E+03  0.30728934328E+03  0.25500000920E-02 0.  1.
       -2   -1    0    0    0  501  0.00000000000E+00  0.00000000000E+00 -0.28198612525E+03  0.28198612526E+03  0.25500000920E-02 0. -1.
    10030    2    1    2    0    0  0.00000000000E+00  0.00000000000E+00  0.25303218016E+02  0.58927546854E+03  0.58873196361E+03 0.  0.
        4    1    3    3  502    0 -0.21724335560E+03  0.11442887280E+03 -0.14985922234E+03  0.28765959380E+03  0.12699999809E+01 0. -1.
       -4    1    3    3    0  502  0.21724335560E+03 -0.11442887280E+03  0.17516244036E+03  0.30161587474E+03  0.12699999809E+01 0.  1.
</event>
<event>
 5   0  0.8860626E-02  0.6058694E+03  0.7818609E-02  0.9893303E-01
        1   -1    0    0  501    0  0.00000000000E+00  0.00000000000E+00  0.66608654721E+03  0.66608654723E+03  0.50400001928E-02 0.  1.
       -1   -1    0    0    0  501  0.00000000000E+00  0.00000000000E+00 -0.13777405685E+03  0.13777405695E+03  0.50400001928E-02 0. -1.
    10030    2    1    2    0    0  0.00000000000E+00  0.00000000000E+00  0.52831249035E+03  0.80386060417E+03  0.60586944425E+03 0.  0.
        3    1    3    3  502    0 -0.20845040972E+03 -0.13472288529E+03  0.33708680808E+02  0.25047577627E+03  0.10100000352E+00 0. -1.
       -3    1    3    3    0  502  0.20845040972E+03  0.13472288529E+03  0.49460380955E+03  0.55338482790E+03  0.10100000352E+00 0.  1.
</event>
<event>
 5   0  0.9420349E-02  0.5954989E+03  0.7818609E-02  0.9914789E-01
        1   -1    0    0  501    0  0.00000000000E+00  0.00000000000E+00  0.13437909434E+03  0.13437909443E+03  0.50400001928E-02 0.  1.
       -1   -1    0    0    0  501  0.00000000000E+00  0.00000000000E+00 -0.65973609911E+03  0.65973609913E+03  0.50400001928E-02 0. -1.
    10030    2    1    2    0    0  0.00000000000E+00  0.00000000000E+00 -0.52535700477E+03  0.79411519357E+03  0.59549891536E+03 0.  0.
        2    1    3    3  502    0 -0.18533782989E+03 -0.23276112106E+03 -0.24765696766E+03  0.38711990946E+03  0.25500000920E-02 0. -1.
       -2    1    3    3    0  502  0.18533782989E+03  0.23276112106E+03 -0.27770003711E+03  0.40699528410E+03  0.25500000920E-02 0.  1.
</event>
<event>
 5   0  0.1502642E-01  0.5920994E+03  0.7818609E-02  0.9921934E-01
        2   -1    0    0  501    0  0.00000000000E+00  0.00000000000E+00  0.21035304572E+03  0.21035304573E+03  0.25500000920E-02 0.  1.
       -2   -1    0    0    0  501  0.00000000000E+00  0.00000000000E+00 -0.41665865311E+03  0.41665865312E+03  0.25500000920E-02 0. -1.
    10030    2    1    2    0    0  0.00000000000E+00  0.00000000000E+00 -0.20630560740E+03  0.62701169886E+03  0.59209937245E+03 0.  0.
        2    1    3    3  502    0 -0.26761245392E+03 -0.12040508241E+03 -0.61709462314E+02  0.29986975024E+03  0.25500000920E-02 0.  1.
       -2    1    3    3    0  502  0.26761245392E+03  0.12040508241E+03 -0.14459614508E+03  0.32714194861E+03  0.25500000920E-02 0. -1.
</event>
<event>
 5   0  0.1513339E-01  0.5785690E+03  0.7818609E-02  0.9950894E-01
        2   -1    0    0  501    0  0.00000000000E+00  0.00000000000E+00  0.21130655767E+03  0.21130655768E+03  0.25500000920E-02 0. -1.
       -2   -1    0    0    0  501  0.00000000000E+00  0.00000000000E+00 -0.39603843214E+03  0.39603843215E+03  0.25500000920E-02 0.  1.
    10030    2    1    2    0    0  0.00000000000E+00  0.00000000000E+00 -0.18473187447E+03  0.60734498983E+03  0.57856898571E+03 0.  0.
        3    1    3    3  502    0 -0.24296077189E+03  0.11853985227E+03 -0.20046267565E+03  0.33655152322E+03  0.10100000352E+00 0.  1.
       -3    1    3    3    0  502  0.24296077189E+03 -0.11853985227E+03  0.15730801183E+02  0.27079346661E+03  0.10100000352E+00 0. -1.
</event>
<event>
 5   0  0.9411028E-02  0.6046653E+03  0.7818609E-02  0.9895774E-01
       -1   -1    0    0    0  501  0.00000000000E+00  0.00000000000E+00  0.42386947613E+03  0.42386947616E+03  0.50400001928E-02 0. -1.
        1   -1    0    0  501    0  0.00000000000E+00  0.00000000000E+00 -0.21564430238E+03  0.21564430244E+03  0.50400001928E-02 0.  1.
    10030    2    1    2    0    0  0.00000000000E+00  0.00000000000E+00  0.20822517375E+03  0.63951377861E+03  0.60466532069E+03 0.  0.
        4    1    3    3  502    0 -0.99446009028E+02 -0.10130000822E+03  0.38642765444E+03  0.41167844903E+03  0.12699999809E+01 0. -1.
       -4    1    3    3    0  502  0.99446009028E+02  0.10130000822E+03 -0.17820248070E+03  0.22783532958E+03  0.12699999809E+01 0.  1.
</event>
<event>
 5   0  0.1513339E-01  0.6620891E+03  0.7818609E-02  0.9784356E-01
       -2   -1    0    0    0  501  0.00000000000E+00  0.00000000000E+00  0.18372924844E+03  0.18372924846E+03  0.25500000920E-02 0. -1.
        2   -1    0    0  501    0  0.00000000000E+00  0.00000000000E+00 -0.59647822443E+03  0.59647822444E+03  0.25500000920E-02 0.  1.
    10030    2    1    2    0    0  0.00000000000E+00  0.00000000000E+00 -0.41274897599E+03  0.78020747290E+03  0.66208910547E+03 0.  0.
        3    1    3    3  502    0  0.16915746023E+03  0.17123968672E+03  0.61445087874E+02  0.24842058225E+03  0.10100000352E+00 0. -1.
       -3    1    3    3    0  502 -0.16915746023E+03 -0.17123968672E+03 -0.47419406386E+03  0.53178689065E+03  0.10100000352E+00 0.  1.
</event>
<event>
 5   0  0.6170500E-02  0.6159540E+03  0.7818609E-02  0.9872848E-01
        3   -1    0    0  501    0  0.00000000000E+00  0.00000000000E+00  0.87873952015E+03  0.87873952595E+03  0.10100000352E+00 0. -1.
       -3   -1    0    0    0  501  0.00000000000E+00  0.00000000000E+00 -0.10793847016E+03  0.10793851742E+03  0.10100000352E+00 0.  1.
    10030    2    1    2    0    0  0.00000000000E+00  0.00000000000E+00  0.77080104999E+03  0.98667804337E+03  0.61595397768E+03 0.  0.
        4    1    3    3  502    0  0.86642092513E+02 -0.54864374399E+02 -0.79779970464E+02  0.12993617033E+03  0.12699999809E+01 0.  1.
       -4    1    3    3    0  502 -0.86642092513E+02  0.54864374399E+02  0.85058102045E+03  0.85674187304E+03  0.12699999809E+01 0. -1.
</event>
<event>
 5   0  0.9177281E-02  0.5161510E+03  0.7818609E-02  0.1009647E+00
       -1   -1    0    0    0  501  0.00000000000E+00  0.00000000000E+00  0.42739081855E+02  0.42739082152E+02  0.50400001928E-02 0. -1.
        1   -1    0    0  501    0  0.00000000000E+00  0.00000000000E+00 -0.15583622918E+04  0.15583622918E+04  0.50400001928E-02 0.  1.
    10030    2    1    2    0    0  0.00000000000E+00  0.00000000000E+00 -0.15156232099E+04  0.16011013739E+04  0.51615103910E+03 0.  0.
        1    1    3    3  502    0  0.63878358562E+02 -0.94165606614E+02 -0.39275473329E+02  0.12037511783E+03  0.50400001928E-02 0. -1.
       -1    1    3    3    0  502 -0.63878358562E+02  0.94165606614E+02 -0.14763477366E+04  0.14807262561E+04  0.50400001928E-02 0.  1.
</event>
<event>
 5   0  0.1502642E-01  0.6397979E+03  0.7818609E-02  0.9826113E-01
        2   -1    0    0  501    0  0.00000000000E+00  0.00000000000E+00  0.23871575823E+03  0.23871575825E+03  0.25500000920E-02 0. -1.
       -2   -1    0    0    0  501  0.00000000000E+00  0.00000000000E+00 -0.42869116179E+03  0.42869116180E+03  0.25500000920E-02 0.  1.
    10030    2    1    2    0    0  0.00000000000E+00  0.00000000000E+00 -0.18997540356E+03  0.66740692005E+03  0.63979789228E+03 0.  0.
        2    1    3    3  502    0  0.27101167028E+03 -0.75505891759E+02 -0.25383102687E+03  0.37891774216E+03  0.25500000920E-02 0.  1.
       -2    1    3    3    0  502 -0.27101167028E+03  0.75505891759E+02  0.63855623308E+02  0.28848917788E+03  0.25500000920E-02 0. -1.
</event>
<event>
 5   0  0.1513339E-01  0.5822696E+03  0.7818609E-02  0.9942889E-01
       -2   -1    0    0    0  501  0.00000000000E+00  0.00000000000E+00  0.84242229523E+02  0.84242229561E+02  0.25500000920E-02 0. -1.
        2   -1    0    0  501    0  0.00000000000E+00  0.00000000000E+00 -0.10061399414E+04  0.10061399414E+04  0.25500000920E-02 0.  1.
    10030    2    1    2    0    0  0.00000000000E+00  0.00000000000E+00 -0.92189771186E+03  0.10903821709E+04  0.58226960043E+03 0.  0.
        3    1    3    3  502    0 -0.21165911790E+03  0.16192429208E+03 -0.68045888256E+03  0.73078270342E+03  0.10100000352E+00 0.  1.
       -3    1    3    3    0  502  0.21165911790E+03 -0.16192429208E+03 -0.24143882930E+03  0.35959946753E+03  0.10100000352E+00 0. -1.
</event>
<event>
 5   0  0.1532571E-01  0.6637938E+03  0.7818609E-02  0.9781235E-01
       -2   -1    0    0    0  501  0.00000000000E+00  0.00000000000E+00  0.95447061047E+03  0.95447061047E+03  0.25500000920E-02 0.  1.
        2   -1    0    0  501    0  0.00000000000E+00  0.00000000000E+00 -0.11541011778E+03  0.11541011781E+03  0.25500000920E-02 0. -1.
    10030    2    1    2    0    0  0.00000000000E+00  0.00000000000E+00  0.83906049268E+03  0.10698807283E+04  0.66379384025E+03 0.  0.
        1    1    3    3  502    0 -0.52667704207E+02  0.24081960532E+03  0.77771829491E+03  0.81585152794E+03  0.50400001928E-02 0.  1.
       -1    1    3    3    0  502  0.52667704207E+02 -0.24081960532E+03  0.61342197773E+02  0.25402920034E+03  0.50400001928E-02 0. -1.
</event>
<event>
 5   0  0.9411028E-02  0.5792934E+03  0.7818609E-02  0.9949322E-01
        1   -1    0    0  501    0  0.00000000000E+00  0.00000000000E+00  0.11085075778E+04  0.11085075778E+04  0.50400001928E-02 0.  1.
       -1   -1    0    0    0  501  0.00000000000E+00  0.00000000000E+00 -0.75683026702E+02  0.75683026870E+02  0.50400001928E-02 0. -1.
    10030    2    1    2    0    0  0.00000000000E+00  0.00000000000E+00  0.10328245511E+04  0.11841906046E+04  0.57929339273E+03 0.  0.
        4    1    3    3  502    0 -0.19438379516E+02 -0.12602729110E+03  0.10480330396E+04  0.10557630386E+04  0.12699999809E+01 0.  1.
       -4    1    3    3    0  502  0.19438379516E+02  0.12602729110E+03 -0.15208488519E+02  0.12842756606E+03  0.12699999809E+01 0. -1.
</event>
<event>
 5   0  0.1513339E-01  0.6290363E+03  0.7818609E-02  0.9846931E-01
       -2   -1    0    0    0  501  0.00000000000E+00  0.00000000000E+00  0.75491942990E+02  0.75491943033E+02  0.25500000920E-02 0. -1.
        2   -1    0    0  501    0  0.00000000000E+00  0.00000000000E+00 -0.13103607731E+04  0.13103607731E+04  0.25500000920E-02 0.  1.
    10030    2    1    2    0    0  0.00000000000E+00  0.00000000000E+00 -0.12348688302E+04  0.13858527162E+04  0.62903634494E+03 0.  0.
        3    1    3    3  502    0  0.29420579741E+03 -0.10854172406E+03 -0.67064430488E+03  0.74033921344E+03  0.10100000352E+00 0. -1.
       -3    1    3    3    0  502 -0.29420579741E+03  0.10854172406E+03 -0.56422452528E+03  0.64551350274E+03  0.10100000352E+00 0.  1.
</event>
<event>
 5   0  0.9411028E-02  0.6041064E+03  0.7818609E-02  0.9896923E-01
        1   -1    0    0  501    0  0.00000000000E+00  0.00000000000E+00  0.14822040943E+04  0.14822040943E+04  0.50400001928E-02 0. -1.
       -1   -1    0    0    0  501  0.00000000000E+00  0.00000000000E+00 -0.61554368169E+02  0.61554368376E+02  0.50400001928E-02 0.  1.
    10030    2    1    2    0    0  0.00000000000E+00  0.00000000000E+00  0.14206497261E+04  0.15437584626E+04  0.60410640349E+03 0.  0.
        4    1    3    3  502    0 -0.97603013722E+02  0.18710630798E+01 -0.20123238204E+02  0.99681526776E+02  0.12699999809E+01 0.  1.
       -4    1    3    3    0  502  0.97603013722E+02 -0.18710630798E+01  0.14407729643E+04  0.14440769359E+04  0.12699999809E+01 0. -1.
</event>
<event>
 5   0  0.1488510E-01  0.5704730E+03  0.7818609E-02  0.9968632E-01
       -2   -1    0    0    0  501  0.00000000000E+00  0.00000000000E+00  0.64554784483E+03  0.64554784483E+03  0.25500000920E-02 0. -1.
        2   -1    0    0  501    0  0.00000000000E+00  0.00000000000E+00 -0.12603227908E+03  0.12603227911E+03  0.25500000920E-02 0.  1.
    10030    2    1    2    0    0  0.00000000000E+00  0.00000000000E+00  0.51951556574E+03  0.77158012394E+03  0.57047301830E+03 0.  0.
        5    1    3    3  502    0  0.10632520483E+03  0.44527363378E+01 -0.98120180368E+02  0.14482588110E+03  0.46999998093E+01 0.  1.
       -5    1    3    3    0  502 -0.10632520483E+03 -0.44527363378E+01  0.61763574611E+03  0.62675424284E+03  0.46999998093E+01 0. -1.
</event>
<event>
 5   0  0.9420349E-02  0.5902771E+03  0.7818609E-02  0.9925786E-01
       -1   -1    0    0    0  501  0.00000000000E+00  0.00000000000E+00  0.21123148225E+03  0.21123148231E+03  0.50400001928E-02 0.  1.
        1   -1    0    0  501    0  0.00000000000E+00  0.00000000000E+00 -0.41237581345E+03  0.41237581348E+03  0.50400001928E-02 0. -1.
    10030    2    1    2    0    0  0.00000000000E+00  0.00000000000E+00 -0.20114433120E+03  0.62360729578E+03  0.59027706832E+03 0.  0.
        2    1    3    3  502    0  0.29185679233E+03  0.43860587589E+02 -0.98863444751E+02  0.31125250054E+03  0.25500000920E-02 0. -1.
       -2    1    3    3    0  502 -0.29185679233E+03 -0.43860587589E+02 -0.10228088645E+03  0.31235479525E+03  0.25500000920E-02 0.  1.
</event>
<event>
 5   0  0.8860626E-02  0.5834632E+03  0.7818609E-02  0.9940321E-01
       -1   -1    0    0    0  501  0.00000000000E+00  0.00000000000E+00  0.14031152955E+03  0.14031152964E+03  0.50400001928E-02 0. -1.
        1   -1    0    0  501    0  0.00000000000E+00  0.00000000000E+00 -0.60655983782E+03  0.60655983784E+03  0.50400001928E-02 0.  1.
    10030    2    1    2    0    0  0.00000000000E+00  0.00000000000E+00 -0.46624830827E+03  0.74687136747E+03  0.58346324184E+03 0.  0.
        3    1    3    3  502    0 -0.46454476697E+02 -0.20801511398E+03  0.21859764672E+02  0.21425724156E+03  0.10100000352E+00 0. -1.
       -3    1    3    3    0  502  0.46454476697E+02  0.20801511398E+03 -0.48810807294E+03  0.53261412591E+03  0.10100000352E+00 0.  1.
</event>
<event>
 5   0  0.1532571E-01  0.4725059E+03  0.7818609E-02  0.1021215E+00
       -2   -1    0    0    0  501  0.00000000000E+00  0.00000000000E+00  0.10265775402E+03  0.10265775405E+03  0.25500000920E-02 0.  1.
        2   -1    0    0  501    0  0.00000000000E+00  0.00000000000E+00 -0.54370424815E+03  0.54370424815E+03  0.25500000920E-02 0. -1.
    10030    2    1    2    0    0  0.00000000000E+00  0.00000000000E+00 -0.44104649413E+03  0.64636200220E+03  0.47250590251E+03 0.  0.
        1    1    3    3  502    0 -0.74183798418E+02 -0.21559578233E+03 -0.13585774333E+03  0.26540931362E+03  0.50400001928E-02 0. -1.
       -1    1    3    3    0  502  0.74183798418E+02  0.21559578233E+03 -0.30518875079E+03  0.38095268859E+03  0.50400001928E-02 0.  1.
</event>
<event>
 5   0  0.1483942E-01  0.6128180E+03  0.7818609E-02  0.9879164E-01
        2   -1    0    0  501    0  0.00000000000E+00  0.00000000000E+00  0.69574973014E+03  0.69574973015E+03  0.25500000920E-02 0.  1.
       -2   -1    0    0    0  501  0.00000000000E+00  0.00000000000E+00 -0.13494288747E+03  0.13494288749E+03  0.25500000920E-02 0. -1.
    10030    2    1    2    0    0  0.00000000000E+00  0.00000000000E+00  0.56080684267E+03  0.83069261764E+03  0.61281800741E+03 0.  0.
        4    1    3    3  502    0 -0.61987339798E+02 -0.94533456322E+02 -0.10563892746E+03  0.15472621160E+03  0.12699999809E+01 0. -1.
       -4    1    3    3    0  502  0.61987339798E+02  0.94533456322E+02  0.66644577014E+03  0.67596640604E+03  0.12699999809E+01 0.  1.
</event>
<event>
 5   0  0.1513339E-01  0.5992277E+03  0.7818609E-02  0.9907010E-01
        2   -1    0    0  501    0  0.00000000000E+00  0.00000000000E+00  0.40595843849E+03  0.40595843850E+03  0.25500000920E-02 0.  1.
       -2   -1    0    0    0  501  0.00000000000E+00  0.00000000000E+00 -0.22112721751E+03  0.22112721752E+03  0.25500000920E-02 0. -1.
    10030    2    1    2    0    0  0.00000000000E+00  0.00000000000E+00  0.18483122099E+03  0.62708565602E+03  0.59922770275E+03 0.  0.
        3    1    3    3  502    0  0.21341297297E+03 -0.13613721636E+02 -0.12719275145E+03  0.24881406044E+03  0.10100000352E+00 0. -1.
       -3    1    3    3    0  502 -0.21341297297E+03  0.13613721636E+02  0.31202397244E+03  0.37827159558E+03  0.10100000352E+00 0.  1.
</event>
<event>
 5   0  0.9420349E-02  0.6001408E+03  0.7818609E-02  0.9905114E-01
       -1   -1    0    0    0  501  0.00000000000E+00  0.00000000000E+00  0.15678790740E+03  0.15678790748E+03  0.50400001928E-02 0.  1.
        1   -1    0    0  501    0  0.00000000000E+00  0.00000000000E+00 -0.57429330303E+03  0.57429330305E+03  0.50400001928E-02 0. -1.
    10030    2    1    2    0    0  0.00000000000E+00  0.00000000000E+00 -0.41750539563E+03  0.73108121053E+03  0.60014080099E+03 0.  0.
        2    1    3    3  502    0 -0.22428625059E+03  0.19883947839E+03 -0.22601417534E+03  0.37539827894E+03  0.25500000920E-02 0. -1.
       -2    1    3    3    0  502  0.22428625059E+03 -0.19883947839E+03 -0.19149122029E+03  0.35568293159E+03  0.25500000920E-02 0.  1.
</event>
<event>
 5   0  0.9420349E-02  0.5717777E+03  0.7818609E-02  0.9965752E-01
       -1   -1    0    0    0  501  0.00000000000E+00  0.00000000000E+00  0.15436099181E+03  0.15436099190E+03  0.50400001928E-02 0. -1.
        1   -1    0    0  501    0  0.00000000000E+00  0.00000000000E+00 -0.52948894215E+03  0.52948894217E+03  0.50400001928E-02 0.  1.
    10030    2    1    2    0    0  0.00000000000E+00  0.00000000000E+00 -0.37512795033E+03  0.68384993407E+03  0.57177771311E+03 0.  0.
        2    1    3    3  502    0  0.53043019344E+02 -0.16407773683E+03  0.85160607668E+02  0.19232107199E+03  0.25500000920E-02 0. -1.
       -2    1    3    3    0  502 -0.53043019344E+02  0.16407773683E+03 -0.46028855800E+03  0.49152886208E+03  0.25500000920E-02 0.  1.
</event>
<event>
 5   0  0.1488510E-01  0.6030124E+03  0.7818609E-02  0.9899176E-01
       -2   -1    0    0    0  501  0.00000000000E+00  0.00000000000E+00  0.53417070833E+03  0.53417070834E+03  0.25500000920E-02 0.  1.
        2   -1    0    0  501    0  0.00000000000E+00  0.00000000000E+00 -0.17018153060E+03  0.17018153062E+03  0.25500000920E-02 0. -1.
    10030    2    1    2    0    0  0.00000000000E+00  0.00000000000E+00  0.36398917773E+03  0.70435223896E+03  0.60301240039E+03 0.  0.
        5    1    3    3  502    0 -0.22270368364E+03 -0.16555916007E+03  0.31959303353E+03  0.42328307700E+03  0.46999998093E+01 0.  1.
       -5    1    3    3    0  502  0.22270368364E+03  0.16555916007E+03  0.44396144194E+02  0.28106916196E+03  0.46999998093E+01 0. -1.
</event>
<event>
 5   0  0.9177281E-02  0.5952805E+03  0.7818609E-02  0.9915246E-01
       -1   -1    0    0    0  501  0.00000000000E+00  0.00000000000E+00  0.14873325896E+03  0.14873325904E+03  0.50400001928E-02 0. -1.
        1   -1    0    0  501    0  0.00000000000E+00  0.00000000000E+00 -0.59562815327E+03  0.59562815329E+03  0.50400001928E-02 0.  1.
    10030    2    1    2    0    0  0.00000000000E+00  0.00000000000E+00 -0.44689489431E+03  0.74436141233E+03  0.59528049322E+03 0.  0.
        1    1    3    3  502    0 -0.52984846527E+02 -0.29032950498E+03 -0.17516205934E+03  0.34319143707E+03  0.50400001928E-02 0. -1.
       -1    1    3    3    0  502  0.52984846527E+02  0.29032950498E+03 -0.27173283497E+03  0.40116997526E+03  0.50400001928E-02 0.  1.
</event>
<event>
 5   0  0.1532571E-01  0.6382158E+03  0.7818609E-02  0.9829146E-01
       -2   -1    0    0    0  501  0.00000000000E+00  0.00000000000E+00  0.77963204215E+02  0.77963204257E+02  0.25500000920E-02 0. -1.
        2   -1    0    0  501    0  0.00000000000E+00  0.00000000000E+00 -0.13061270145E+04  0.13061270145E+04  0.25500000920E-02 0.  1.
    10030    2    1    2    0    0  0.00000000000E+00  0.00000000000E+00 -0.12281638102E+04  0.13840902187E+04  0.63821578542E+03 0.  0.
        1    1    3    3  502    0  0.28925495795E+03 -0.52837930279E+02 -0.34522096638E+03  0.45347303474E+03  0.50400001928E-02 0.  1.
       -1    1    3    3    0  502 -0.28925495795E+03  0.52837930279E+02 -0.88294284386E+03  0.93061718399E+03  0.50400001928E-02 0. -1.
</event>
<event>
 5   0  0.6170500E-02  0.5885166E+03  0.7818609E-02  0.9929521E-01
        4   -1    0    0  501    0  0.00000000000E+00  0.00000000000E+00  0.32189099167E+03  0.32189349701E+03  0.12699999809E+01 0. -1.
       -4   -1    0    0    0  501  0.00000000000E+00  0.00000000000E+00 -0.26899263906E+03  0.26899563708E+03  0.12699999809E+01 0.  1.
    10030    2    1    2    0    0  0.00000000000E+00  0.00000000000E+00  0.52898352612E+02  0.59088913409E+03  0.58851655294E+03 0.  0.
        4    1    3    3  502    0 -0.14604467905E+03 -0.58800784763E+02  0.27604691391E+03  0.31778938331E+03  0.12699999809E+01 0. -1.
       -4    1    3    3    0  502  0.14604467905E+03  0.58800784763E+02 -0.22314856130E+03  0.27309975078E+03  0.12699999809E+01 0.  1.
</event>
<event>
 5   0  0.9411028E-02  0.6052147E+03  0.7818609E-02  0.9894646E-01
       -1   -1    0    0    0  501  0.00000000000E+00  0.00000000000E+00  0.21501702627E+03  0.21501702633E+03  0.50400001928E-02 0. -1.
        1   -1    0    0  501    0  0.00000000000E+00  0.00000000000E+00 -0.42587881475E+03  0.42587881478E+03  0.50400001928E-02 0.  1.
    10030    2    1    2    0    0  0.00000000000E+00  0.00000000000E+00 -0.21086178848E+03  0.64089584111E+03  0.60521466052E+03 0.  0.
        4    1    3    3  502    0 -0.84679711043E+00  0.65535234623E+02  0.20740779157E+03  0.21752054833E+03  0.12699999809E+01 0. -1.
       -4    1    3    3    0  502  0.84679711043E+00 -0.65535234623E+02 -0.41826958004E+03  0.42337529278E+03  0.12699999809E+01 0.  1.
</event>
<event>
 5   0  0.9497860E-02  0.5924617E+03  0.7818609E-02  0.9921170E-01
       -1   -1    0    0    0  501  0.00000000000E+00  0.00000000000E+00  0.68131616776E+02  0.68131616963E+02  0.50400001928E-02 0.  1.
        1   -1    0    0  501    0  0.00000000000E+00  0.00000000000E+00 -0.12879881810E+04  0.12879881810E+04  0.50400001928E-02 0. -1.
    10030    2    1    2    0    0  0.00000000000E+00  0.00000000000E+00 -0.12198565643E+04  0.13561197980E+04  0.59246170271E+03 0.  0.
        5    1    3    3  502    0  0.56417208393E+02  0.14428056522E+03 -0.11877749459E+04  0.11978443952E+04  0.46999998093E+01 0. -1.
       -5    1    3    3    0  502 -0.56417208393E+02 -0.14428056522E+03 -0.32081618314E+02  0.15827540281E+03  0.46999998093E+01 0.  1.
</event>
<event>
 5   0  0.1483942E-01  0.5845027E+03  0.7818609E-02  0.9938090E-01
       -2   -1    0    0    0  501  0.00000000000E+00  0.00000000000E+00  0.68922068124E+02  0.68922068171E+02  0.25500000920E-02 0. -1.
        2   -1    0    0  501    0  0.00000000000E+00  0.00000000000E+00 -0.12392382578E+04  0.12392382578E+04  0.25500000920E-02 0.  1.
    10030    2    1    2    0    0  0.00000000000E+00  0.00000000000E+00 -0.11703161897E+04  0.13081603260E+04  0.58450274135E+03 0.  0.
        4    1    3    3  502    0 -0.19550977354E+02  0.77518618445E+02 -0.12142833090E+04  0.12169128746E+04  0.12699999809E+01 0.  1.
       -4    1    3    3    0  502  0.19550977354E+02 -0.77518618445E+02  0.43967119256E+02  0.91247451453E+02  0.12699999809E+01 0. -1.
</event>
<event>
 5   0  0.8860626E-02  0.5990330E+03  0.7818609E-02  0.9907414E-01
        1   -1    0    0  501    0  0.00000000000E+00  0.00000000000E+00  0.13972943689E+03  0.13972943698E+03  0.50400001928E-02 0.  1.
       -1   -1    0    0    0  501  0.00000000000E+00  0.00000000000E+00 -0.64202752714E+03  0.64202752716E+03  0.50400001928E-02 0. -1.
    10030    2    1    2    0    0  0.00000000000E+00  0.00000000000E+00 -0.50229809025E+03  0.78175696414E+03  0.59903303708E+03 0.  0.
        3    1    3    3  502    0 -0.27315457274E+03 -0.73704321946E+02 -0.12285451510E+03  0.30844608891E+03  0.10100000352E+00 0.  1.
       -3    1    3    3    0  502  0.27315457274E+03  0.73704321946E+02 -0.37944357515E+03  0.47331087522E+03  0.10100000352E+00 0. -1.
</event>
<event>
 5   0  0.1502642E-01  0.6035176E+03  0.7818609E-02  0.9898135E-01
        2   -1    0    0  501    0  0.00000000000E+00  0.00000000000E+00  0.10990810395E+04  0.10990810395E+04  0.25500000920E-02 0.  1.
       -2   -1    0    0    0  501  0.00000000000E+00  0.00000000000E+00 -0.82849563147E+02  0.82849563187E+02  0.25500000920E-02 0. -1.
    10030    2    1    2    0    0  0.00000000000E+00  0.00000000000E+00  0.10162314763E+04  0.11819306027E+04  0.60351763523E+03 0.  0.
        2    1    3    3  502    0 -0.27391678985E+03 -0.12477886394E+03  0.55003705696E+03  0.62700951881E+03  0.25500000920E-02 0.  1.
       -2    1    3    3    0  502  0.27391678985E+03  0.12477886394E+03  0.46619441936E+03  0.55492108385E+03  0.25500000920E-02 0. -1.
</event>
<event>
 5   0  0.9420349E-02  0.6010879E+03  0.7818609E-02  0.9903152E-01
       -1   -1    0    0    0  501  0.00000000000E+00  0.00000000000E+00  0.21855979843E+03  0.21855979849E+03  0.50400001928E-02 0.  1.
        1   -1    0    0  501    0  0.00000000000E+00  0.00000000000E+00 -0.41328119560E+03  0.41328119563E+03  0.50400001928E-02 0. -1.
    10030    2    1    2    0    0  0.00000000000E+00  0.00000000000E+00 -0.19472139717E+03  0.63184099412E+03  0.60108786324E+03 0.  0.
        2    1    3    3  502    0 -0.17562703902E+03 -0.19790063502E+03  0.52470099018E+02  0.26974549018E+03  0.25500000920E-02 0.  1.
       -2    1    3    3    0  502  0.17562703902E+03  0.19790063502E+03 -0.24719149619E+03  0.36209550394E+03  0.25500000920E-02 0. -1.
</event>
<event>
 5   0  0.9411028E-02  0.5887241E+03  0.7818609E-02  0.9929080E-01
        1   -1    0    0  501    0  0.00000000000E+00  0.00000000000E+00  0.41565411635E+03  0.41565411638E+03  0.50400001928E-02 0.  1.
       -1   -1    0    0    0  501  0.00000000000E+00  0.00000000000E+00 -0.20846423604E+03  0.20846423610E+03  0.50400001928E-02 0. -1.
    10030    2    1    2    0    0  0.00000000000E+00  0.00000000000E+00  0.20718988031E+03  0.62411835247E+03  0.58872410465E+03 0.  0.
        4    1    3    3  502    0 -0.21277267651E+02  0.22229187058E+03 -0.99718900214E+02  0.24456465363E+03  0.12699999809E+01 0. -1.
       -4    1    3    3    0  502  0.21277267651E+02 -0.22229187058E+03  0.30690878052E+03  0.37955369884E+03  0.12699999809E+01 0.  1.
</event>
<event>
 5   0  0.1502642E-01  0.5860840E+03  0.7818609E-02  0.9934706E-01
        2   -1    0    0  501    0  0.00000000000E+00  0.00000000000E+00  0.25890486359E+04  0.25890486359E+04  0.25500000920E-02 0.  1.
       -2   -1    0    0    0  501  0.00000000000E+00  0.00000000000E+00 -0.33168014066E+02  0.33168014165E+02  0.25500000920E-02 0. -1.
    10030    2    1    2    0    0  0.00000000000E+00  0.00000000000E+00  0.25558806219E+04  0.26222166501E+04  0.58608395885E+03 0.  0.
        2    1    3    3  502    0 -0.27260903795E+03  0.56361207680E+02  0.16875452309E+04  0.17103511861E+04  0.25500000920E-02 0.  1.
       -2    1    3    3    0  502  0.27260903795E+03 -0.56361207680E+02  0.86833539093E+03  0.91186546400E+03  0.25500000920E-02 0. -1.
</event>
<event>
 5   0  0.1483942E-01  0.5989255E+03  0.7818609E-02  0.9907638E-01
       -2   -1    0    0    0  501  0.00000000000E+00  0.00000000000E+00  0.34473013909E+03  0.34473013910E+03  0.25500000920E-02 0. -1.
        2   -1    0    0  501    0  0.00000000000E+00  0.00000000000E+00 -0.26013954361E+03  0.26013954362E+03  0.25500000920E-02 0.  1.
    10030    2    1    2    0    0  0.00000000000E+00  0.00000000000E+00  0.84590595481E+02  0.60486968272E+03  0.59892550808E+03 0.  0.
        4    1    3    3  502    0  0.13372683343E+03 -0.21822891636E+03 -0.11471341718E+03  0.28047728410E+03  0.12699999809E+01 0.  1.
       -4    1    3    3    0  502 -0.13372683343E+03  0.21822891636E+03  0.19930401266E+03  0.32439239861E+03  0.12699999809E+01 0. -1.
</event>
<event>
 5   0  0.6170500E-02  0.6026543E+03  0.7818609E-02  0.9899915E-01
       -3   -1    0    0    0  501  0.00000000000E+00  0.00000000000E+00  0.26020834945E+03  0.26020836905E+03  0.10100000352E+00 0.  1.
        3   -1    0    0  501    0  0.00000000000E+00  0.00000000000E+00 -0.34894356198E+03  0.34894357659E+03  0.10100000352E+00 0. -1.
    10030    2    1    2    0    0  0.00000000000E+00  0.00000000000E+00 -0.88735212523E+02  0.60915194565E+03  0.60265425822E+03 0.  0.
        1    1    3    3  502    0  0.19081085580E+03 -0.22902215281E+03  0.13101612535E+00  0.29809385495E+03  0.50400001928E-02 0. -1.
       -1    1    3    3    0  502 -0.19081085580E+03  0.22902215281E+03 -0.88866228649E+02  0.31105809070E+03  0.50400001928E-02 0.  1.
</event>
<event>
 5   0  0.6170500E-02  0.5945508E+03  0.7818609E-02  0.9916776E-01
        4   -1    0    0  501    0  0.00000000000E+00  0.00000000000E+00  0.47713967723E+03  0.47714136740E+03  0.12699999809E+01 0. -1.
       -4   -1    0    0    0  501  0.00000000000E+00  0.00000000000E+00 -0.18520919750E+03  0.18521355172E+03  0.12699999809E+01 0.  1.
    10030    2    1    2    0    0  0.00000000000E+00  0.00000000000E+00  0.29193047972E+03  0.66235491912E+03  0.59455078327E+03 0.  0.
        5    1    3    3  502    0  0.17044547013E+03 -0.78158286764E+02 -0.11096640135E+03  0.21793578941E+03  0.46999998093E+01 0.  1.
       -5    1    3    3    0  502 -0.17044547013E+03  0.78158286764E+02  0.40289688107E+03  0.44441912971E+03  0.46999998093E+01 0. -1.
</event>
<event>
 5   0  0.9177281E-02  0.5995101E+03  0.7818609E-02  0.9906423E-01
       -1   -1    0    0    0  501  0.00000000000E+00  0.00000000000E+00  0.57759624172E+03  0.57759624174E+03  0.50400001928E-02 0.  1.
        1   -1    0    0  501    0  0.00000000000E+00  0.00000000000E+00 -0.15556381774E+03  0.15556381782E+03  0.50400001928E-02 0. -1.
    10030    2    1    2    0    0  0.00000000000E+00  0.00000000000E+00  0.42203242398E+03  0.73316005956E+03  0.59951005500E+03 0.  0.
        1    1    3    3  502    0 -0.16610602867E+03 -0.10099036657E+03  0.49005599590E+03  0.52720503227E+03  0.50400001928E-02 0.  1.
       -1    1    3    3    0  502  0.16610602867E+03  0.10099036657E+03 -0.68023571927E+02  0.20595502729E+03  0.50400001928E-02 0. -1.
</event>
<event>
 5   0  0.9411028E-02  0.5863614E+03  0.7818609E-02  0.9934113E-01
        1   -1    0    0  501    0  0.00000000000E+00  0.00000000000E+00  0.30099169622E+03  0.30099169626E+03  0.50400001928E-02 0.  1.
       -1   -1    0    0    0  501  0.00000000000E+00  0.00000000000E+00 -0.28557236605E+03  0.28557236609E+03  0.50400001928E-02 0. -1.
    10030    2    1    2    0    0  0.00000000000E+00  0.00000000000E+00  0.15419330169E+02  0.58656406235E+03  0.58636135914E+03 0.  0.
        4    1    3    3  502    0 -0.21609401089E+02  0.20587328966E+03  0.21539290060E+03  0.29874151392E+03  0.12699999809E+01 0.  1.
       -4    1    3    3    0  502  0.21609401089E+02 -0.20587328966E+03 -0.19997357043E+03  0.28782254843E+03  0.12699999809E+01 0. -1.
</event>
<event>
 5   0  0.1483942E-01  0.5930671E+03  0.7818609E-02  0.9919895E-01
        2   -1    0    0  501    0  0.00000000000E+00  0.00000000000E+00  0.92325416201E+03  0.92325416201E+03  0.25500000920E-02 0. -1.
       -2   -1    0    0    0  501  0.00000000000E+00  0.00000000000E+00 -0.95241546581E+02  0.95241546615E+02  0.25500000920E-02 0.  1.
    10030    2    1    2    0    0  0.00000000000E+00  0.00000000000E+00  0.82801261543E+03  0.10184957086E+04  0.59306712705E+03 0.  0.
        4    1    3    3  502    0  0.21277330533E+03  0.13440812514E+03  0.14469359859E+03  0.29030307256E+03  0.12699999809E+01 0.  1.
       -4    1    3    3    0  502 -0.21277330533E+03 -0.13440812514E+03  0.68331901683E+03  0.72819263607E+03  0.12699999809E+01 0. -1.
</event>
<event>
 5   0  0.8860626E-02  0.5044389E+03  0.7818609E-02  0.1012627E+00
       -1   -1    0    0    0  501  0.00000000000E+00  0.00000000000E+00  0.14952717236E+03  0.14952717244E+03  0.50400001928E-02 0. -1.
        1   -1    0    0  501    0  0.00000000000E+00  0.00000000000E+00 -0.42543867523E+03  0.42543867526E+03  0.50400001928E-02 0.  1.
    10030    2    1    2    0    0  0.00000000000E+00  0.00000000000E+00 -0.27591150287E+03  0.57496584771E+03  0.50443886509E+03 0.  0.
        3    1    3    3  502    0  0.13461718448E+03 -0.17097963359E+03  0.73818181842E+01  0.21773911660E+03  0.10100000352E+00 0. -1.
       -3    1    3    3    0  502 -0.13461718448E+03  0.17097963359E+03 -0.28329332106E+03  0.35722673110E+03  0.10100000352E+00 0.  1.
</event>
<event>
 5   0  0.9177281E-02  0.6092623E+03  0.7818609E-02  0.9886374E-01
        1   -1    0    0  501    0  0.00000000000E+00  0.00000000000E+00  0.70730073069E+03  0.70730073071E+03  0.50400001928E-02 0.  1.
       -1   -1    0    0    0  501  0.00000000000E+00  0.00000000000E+00 -0.13120321174E+03  0.13120321184E+03  0.50400001928E-02 0. -1.
    10030    2    1    2    0    0  0.00000000000E+00  0.00000000000E+00  0.57609751894E+03  0.83850394255E+03  0.60926226728E+03 0.  0.
        1    1    3    3  502    0 -0.90331797132E+02  0.16343745111E+03 -0.43194419540E+02  0.19167000783E+03  0.50400001928E-02 0. -1.
       -1    1    3    3    0  502  0.90331797132E+02 -0.16343745111E+03  0.61929193848E+03  0.64683393471E+03  0.50400001928E-02 0.  1.
</event>
<event>
 5   0  0.9177281E-02  0.6225013E+03  0.7818609E-02  0.9859792E-01
        1   -1    0    0  501    0  0.00000000000E+00  0.00000000000E+00  0.74066520220E+03  0.74066520222E+03  0.50400001928E-02 0. -1.
       -1   -1    0    0    0  501  0.00000000000E+00  0.00000000000E+00 -0.13079725631E+03  0.13079725640E+03  0.50400001928E-02 0.  1.
    10030    2    1    2    0    0  0.00000000000E+00  0.00000000000E+00  0.60986794590E+03  0.87146245862E+03  0.62250132960E+03 0.  0.
        1    1    3    3  502    0 -0.13710714497E+02  0.17366811985E+03 -0.56153035538E+02  0.18303486818E+03  0.50400001928E-02 0.  1.
       -1    1    3    3    0  502  0.13710714497E+02 -0.17366811985E+03  0.66602098143E+03  0.68842759044E+03  0.50400001928E-02 0. -1.
</event>
<event>
 5   0  0.1483942E-01  0.6065080E+03  0.7818609E-02  0.9891995E-01
       -2   -1    0    0    0  501  0.00000000000E+00  0.00000000000E+00  0.72928217990E+02  0.72928218034E+02  0.25500000920E-02 0. -1.
        2   -1    0    0  501    0  0.00000000000E+00  0.00000000000E+00 -0.12610070515E+04  0.12610070515E+04  0.25500000920E-02 0.  1.
    10030    2    1    2    0    0  0.00000000000E+00  0.00000000000E+00 -0.11880788335E+04  0.13339352696E+04  0.60650802855E+03 0.  0.
        4    1    3    3  502    0 -0.14790630957E+03 -0.86545954144E+02 -0.11442991029E+04  0.11570602959E+04  0.12699999809E+01 0.  1.
       -4    1    3    3    0  502  0.14790630957E+03  0.86545954144E+02 -0.43779730644E+02  0.17687497365E+03  0.12699999809E+01 0. -1.
</event>
<event>
 5   0  0.1513339E-01  0.5997793E+03  0.7818609E-02  0.9905864E-01
        2   -1    0    0  501    0  0.00000000000E+00  0.00000000000E+00  0.16564328905E+04  0.16564328905E+04  0.25500000920E-02 0. -1.
       -2   -1    0    0    0  501  0.00000000000E+00  0.00000000000E+00 -0.54293653687E+02  0.54293653746E+02  0.25500000920E-02 0.  1.
    10030    2    1    2    0    0  0.00000000000E+00  0.00000000000E+00  0.16021392369E+04  0.17107265443E+04  0.59977927196E+03 0.  0.
        3    1    3    3  502    0  0.53612341209E+02  0.17676840311E+03  0.12723298896E+03  0.22429800522E+03  0.10100000352E+00 0.  1.
       -3    1    3    3    0  502 -0.53612341209E+02 -0.17676840311E+03  0.14749062479E+04  0.14864285391E+04  0.10100000352E+00 0. -1.
</event>
<event>
 5   0  0.6170500E-02  0.6037226E+03  0.7818609E-02  0.9897713E-01
       -3   -1    0    0    0  501  0.00000000000E+00  0.00000000000E+00  0.12388216729E+04  0.12388216770E+04  0.10100000352E+00 0. -1.
        3   -1    0    0  501    0  0.00000000000E+00  0.00000000000E+00 -0.73553928738E+02  0.73553998082E+02  0.10100000352E+00 0.  1.
    10030    2    1    2    0    0  0.00000000000E+00  0.00000000000E+00  0.11652677442E+04  0.13123756751E+04  0.60372261595E+03 0.  0.
        4    1    3    3  502    0 -0.24063882812E+03  0.10937490298E+03  0.89950825260E+03  0.93754286536E+03  0.12699999809E+01 0. -1.
       -4    1    3    3    0  502  0.24063882812E+03 -0.10937490298E+03  0.26575949158E+03  0.37483280975E+03  0.12699999809E+01 0.  1.
</event>
<event>
 5   0  0.1488510E-01  0.6079249E+03  0.7818609E-02  0.9889100E-01
       -2   -1    0    0    0  501  0.00000000000E+00  0.00000000000E+00  0.14619854725E+03  0.14619854727E+03  0.25500000920E-02 0. -1.
        2   -1    0    0  501    0  0.00000000000E+00  0.00000000000E+00 -0.63197043425E+03  0.63197043425E+03  0.25500000920E-02 0.  1.
    10030    2    1    2    0    0  0.00000000000E+00  0.00000000000E+00 -0.48577188700E+03  0.77816898152E+03  0.60792486181E+03 0.  0.
        5    1    3    3  502    0  0.13540877843E+03 -0.26721698688E+03 -0.30853864154E+03  0.43006817910E+03  0.46999998093E+01 0.  1.
       -5    1    3    3    0  502 -0.13540877843E+03  0.26721698688E+03 -0.17723324546E+03  0.34810080242E+03  0.46999998093E+01 0. -1.
</event>
<event>
 5   0  0.1513339E-01  0.5982721E+03  0.7818609E-02  0.9908997E-01
        2   -1    0    0  501    0  0.00000000000E+00  0.00000000000E+00  0.44773466138E+03  0.44773466139E+03  0.25500000920E-02 0. -1.
       -2   -1    0    0    0  501  0.00000000000E+00  0.00000000000E+00 -0.19985579953E+03  0.19985579955E+03  0.25500000920E-02 0.  1.
    10030    2    1    2    0    0  0.00000000000E+00  0.00000000000E+00  0.24787886185E+03  0.64759046094E+03  0.59827207435E+03 0.  0.
        3    1    3    3  502    0 -0.11958267829E+03 -0.12863546685E+03 -0.13816908560E+03  0.22346768602E+03  0.10100000352E+00 0.  1.
       -3    1    3    3    0  502  0.11958267829E+03  0.12863546685E+03  0.38604794744E+03  0.42412277492E+03  0.10100000352E+00 0. -1.
</event>
<event>
 5   0  0.8860626E-02  0.5721815E+03  0.7818609E-02  0.9964863E-01
       -1   -1    0    0    0  501  0.00000000000E+00  0.00000000000E+00  0.61541054386E+02  0.61541054592E+02  0.50400001928E-02 0.  1.
        1   -1    0    0  501    0  0.00000000000E+00  0.00000000000E+00 -0.13299725573E+04  0.13299725573E+04  0.50400001928E-02 0. -1.
    10030    2    1    2    0    0  0.00000000000E+00  0.00000000000E+00 -0.12684315029E+04  0.13915136119E+04  0.57218148740E+03 0.  0.
        3    1    3    3  502    0  0.18861526462E+03  0.14640256033E+03 -0.25093577877E+03  0.34637869880E+03  0.10100000352E+00 0.  1.
       -3    1    3    3    0  502 -0.18861526462E+03 -0.14640256033E+03 -0.10174957241E+04  0.10451349131E+04  0.10100000352E+00 0. -1.
</event>
<event>
 5   0  0.1488510E-01  0.6083747E+03  0.7818609E-02  0.9888182E-01
       -2   -1    0    0    0  501  0.00000000000E+00  0.00000000000E+00  0.10193375997E+03  0.10193376000E+03  0.25500000920E-02 0. -1.
        2   -1    0    0  501    0  0.00000000000E+00  0.00000000000E+00 -0.90774570316E+03  0.90774570317E+03  0.25500000920E-02 0.  1.
    10030    2    1    2    0    0  0.00000000000E+00  0.00000000000E+00 -0.80581194319E+03  0.10096794632E+04  0.60837466298E+03 0.  0.
        5    1    3    3  502    0 -0.24176365846E+03  0.15273339984E+03 -0.57482585995E+03  0.64204674070E+03  0.46999998093E+01 0.  1.
       -5    1    3    3    0  502  0.24176365846E+03 -0.15273339984E+03 -0.23098608324E+03  0.36763272247E+03  0.46999998093E+01 0. -1.
</event>
<event>
 5   0  0.1502642E-01  0.6070498E+03  0.7818609E-02  0.9890887E-01
        2   -1    0    0  501    0  0.00000000000E+00  0.00000000000E+00  0.73274182751E+03  0.73274182751E+03  0.25500000920E-02 0. -1.
       -2   -1    0    0    0  501  0.00000000000E+00  0.00000000000E+00 -0.12572962738E+03  0.12572962740E+03  0.25500000920E-02 0.  1.
    10030    2    1    2    0    0  0.00000000000E+00  0.00000000000E+00  0.60701220013E+03  0.85847145492E+03  0.60704977374E+03 0.  0.
        2    1    3    3  502    0  0.19450751929E+02  0.28554437283E+03  0.16058791234E+03  0.32818043544E+03  0.25500000920E-02 0.  1.
       -2    1    3    3    0  502 -0.19450751929E+02 -0.28554437283E+03  0.44642428779E+03  0.53029101948E+03  0.25500000920E-02 0. -1.
</event>
<event>
 5   0  0.1488510E-01  0.6029311E+03  0.7818609E-02  0.9899344E-01
       -2   -1    0    0    0  501  0.00000000000E+00  0.00000000000E+00  0.20067843054E+03  0.20067843055E+03  0.25500000920E-02 0. -1.
        2   -1    0    0  501    0  0.00000000000E+00  0.00000000000E+00 -0.45287121541E+03  0.45287121542E+03  0.25500000920E-02 0.  1.
    10030    2    1    2    0    0  0.00000000000E+00  0.00000000000E+00 -0.25219278488E+03  0.65354964597E+03  0.60293112294E+03 0.  0.
        5    1    3    3  502    0 -0.25881801569E+03  0.10093694399E+03 -0.25289753647E+03  0.37570505168E+03  0.46999998093E+01 0. -1.
       -5    1    3    3    0  502  0.25881801569E+03 -0.10093694399E+03  0.70475159336E+00  0.27784459429E+03  0.46999998093E+01 0.  1.
</event>
<event>
 5   0  0.9411028E-02  0.5769250E+03  0.7818609E-02  0.9954471E-01
        1   -1    0    0  501    0  0.00000000000E+00  0.00000000000E+00  0.89408640396E+03  0.89408640397E+03  0.50400001928E-02 0. -1.
       -1   -1    0    0    0  501  0.00000000000E+00  0.00000000000E+00 -0.93067759852E+02  0.93067759988E+02  0.50400001928E-02 0.  1.
    10030    2    1    2    0    0  0.00000000000E+00  0.00000000000E+00  0.80101864410E+03  0.98715416396E+03  0.57692501698E+03 0.  0.
        4    1    3    3  502    0 -0.10382089563E+03  0.11720409045E+03 -0.14024862616E+02  0.15720651023E+03  0.12699999809E+01 0.  1.
       -4    1    3    3    0  502  0.10382089563E+03 -0.11720409045E+03  0.81504350672E+03  0.82994765373E+03  0.12699999809E+01 0. -1.
</event>
<event>
 5   0  0.6170500E-02  0.6052014E+03  0.7818609E-02  0.9894673E-01
       -3   -1    0    0    0  501  0.00000000000E+00  0.00000000000E+00  0.11126490797E+03  0.11126495381E+03  0.10100000352E+00 0.  1.
        3   -1    0    0  501    0  0.00000000000E+00  0.00000000000E+00 -0.82296538626E+03  0.82296539246E+03  0.10100000352E+00 0. -1.
    10030    2    1    2    0    0  0.00000000000E+00  0.00000000000E+00 -0.71170047829E+03  0.93423034627E+03  0.60520142852E+03 0.  0.
        4    1    3    3  502    0 -0.16634750977E+03  0.21337942540E+03 -0.14666575739E+03  0.30775758395E+03  0.12699999809E+01 0.  1.
       -4    1    3    3    0  502  0.16634750977E+03 -0.21337942540E+03 -0.56503472090E+03  0.62647276231E+03  0.12699999809E+01 0. -1.
</event>
<event>
 5   0  0.1502642E-01  0.5747882E+03  0.7818609E-02  0.9959139E-01
       -2   -1    0    0    0  501  0.00000000000E+00  0.00000000000E+00  0.46958915631E+02  0.46958915701E+02  0.25500000920E-02 0. -1.
        2   -1    0    0  501    0  0.00000000000E+00  0.00000000000E+00 -0.17588855811E+04  0.17588855811E+04  0.25500000920E-02 0.  1.
    10030    2    1    2    0    0  0.00000000000E+00  0.00000000000E+00 -0.17119266654E+04  0.18058444968E+04  0.57478816853E+03 0.  0.
        2    1    3    3  502    0  0.11591552860E+03 -0.26013526866E+03 -0.73474721939E+03  0.78801030715E+03  0.25500000920E-02 0.  1.
       -2    1    3    3    0  502 -0.11591552860E+03  0.26013526866E+03 -0.97717944603E+03  0.10178341896E+04  0.25500000920E-02 0. -1.
</event>
<event>
 5   0  0.9497860E-02  0.6049438E+03  0.7818609E-02  0.9895202E-01
       -1   -1    0    0    0  501  0.00000000000E+00  0.00000000000E+00  0.22832151373E+03  0.22832151378E+03  0.50400001928E-02 0.  1.
        1   -1    0    0  501    0  0.00000000000E+00  0.00000000000E+00 -0.40070355183E+03  0.40070355186E+03  0.50400001928E-02 0. -1.
    10030    2    1    2    0    0  0.00000000000E+00  0.00000000000E+00 -0.17238203810E+03  0.62902506565E+03  0.60494377107E+03 0.  0.
        5    1    3    3  502    0  0.20880712964E+03  0.68144001370E+01  0.14119255159E+03  0.25219888989E+03  0.46999998093E+01 0.  1.
       -5    1    3    3    0  502 -0.20880712964E+03 -0.68144001370E+01 -0.31357458969E+03  0.37682617576E+03  0.46999998093E+01 0. -1.
</event>
<event>
 5   0  0.8860626E-02  0.6038889E+03  0.7818609E-02  0.9897371E-01
        1   -1    0    0  501    0  0.00000000000E+00  0.00000000000E+00  0.43777379589E+03  0.43777379592E+03  0.50400001928E-02 0.  1.
       -1   -1    0    0    0  501  0.00000000000E+00  0.00000000000E+00 -0.20825926705E+03  0.20825926711E+03  0.50400001928E-02 0. -1.
    10030    2    1    2    0    0  0.00000000000E+00  0.00000000000E+00  0.22951452884E+03  0.64603306304E+03  0.60388889673E+03 0.  0.
        3    1    3    3  502    0  0.14989061965E+03  0.13057688055E+03 -0.12837642471E+03  0.23663904204E+03  0.10100000352E+00 0. -1.
       -3    1    3    3    0  502 -0.14989061965E+03 -0.13057688055E+03  0.35789095355E+03  0.40939402100E+03  0.10100000352E+00 0.  1.
</event>
<event>
 5   0  0.1483942E-01  0.6377562E+03  0.7818609E-02  0.9830029E-01
       -2   -1    0    0    0  501  0.00000000000E+00  0.00000000000E+00  0.24489152691E+03  0.24489152692E+03  0.25500000920E-02 0. -1.
        2   -1    0    0  501    0  0.00000000000E+00  0.00000000000E+00 -0.41521749302E+03  0.41521749303E+03  0.25500000920E-02 0.  1.
    10030    2    1    2    0    0  0.00000000000E+00  0.00000000000E+00 -0.17032596612E+03  0.66010901995E+03  0.63775621007E+03 0.  0.
        4    1    3    3  502    0  0.24922209230E+03  0.70017802984E+02  0.10755496541E+03  0.28032807121E+03  0.12699999809E+01 0. -1.
       -4    1    3    3    0  502 -0.24922209230E+03 -0.70017802984E+02 -0.27788093152E+03  0.37978094874E+03  0.12699999809E+01 0.  1.
</event>
<event>
 5   0  0.8860626E-02  0.5984828E+03  0.7818609E-02  0.9908559E-01
        1   -1    0    0  501    0  0.00000000000E+00  0.00000000000E+00  0.48700645289E+03  0.48700645291E+03  0.50400001928E-02 0. -1.
       -1   -1    0    0    0  501  0.00000000000E+00  0.00000000000E+00 -0.18386907757E+03  0.18386907764E+03  0.50400001928E-02 0.  1.
    10030    2    1    2    0    0  0.00000000000E+00  0.00000000000E+00  0.30313737532E+03  0.67087553056E+03  0.59848283951E+03 0.  0.
        3    1    3    3  502    0  0.86353773333E+02 -0.93462208660E+02  0.45516742070E+03  0.47261987864E+03  0.10100000352E+00 0. -1.
       -3    1    3    3    0  502 -0.86353773333E+02  0.93462208660E+02 -0.15203004538E+03  0.19825565192E+03  0.10100000352E+00 0.  1.
</event>
<event>
 5   0  0.9411028E-02  0.6204553E+03  0.7818609E-02  0.9863854E-01
        1   -1    0    0  501    0  0.00000000000E+00  0.00000000000E+00  0.70532936061E+03  0.70532936063E+03  0.50400001928E-02 0.  1.
       -1   -1    0    0    0  501  0.00000000000E+00  0.00000000000E+00 -0.13644857571E+03  0.13644857580E+03  0.50400001928E-02 0. -1.
    10030    2    1    2    0    0  0.00000000000E+00  0.00000000000E+00  0.56888078490E+03  0.84177793643E+03  0.62045527384E+03 0.  0.
        4    1    3    3  502    0 -0.17763359525E+03  0.20820086251E+03  0.86257223785E+02  0.28695507465E+03  0.12699999809E+01 0. -1.
       -4    1    3    3    0  502  0.17763359525E+03 -0.20820086251E+03  0.48262356111E+03  0.55482286178E+03  0.12699999809E+01 0.  1.
</event>
<event>
 5   0  0.8860626E-02  0.5872813E+03  0.7818609E-02  0.9932150E-01
       -1   -1    0    0    0  501  0.00000000000E+00  0.00000000000E+00  0.14921418358E+03  0.14921418367E+03  0.50400001928E-02 0.  1.
        1   -1    0    0  501    0  0.00000000000E+00  0.00000000000E+00 -0.57785957320E+03  0.57785957322E+03  0.50400001928E-02 0. -1.
    10030    2    1    2    0    0  0.00000000000E+00  0.00000000000E+00 -0.42864538961E+03  0.72707375689E+03  0.58728134477E+03 0.  0.
        3    1    3    3  502    0  0.60306007804E+02  0.18145873529E+03 -0.49021455554E+03  0.52618856683E+03  0.10100000352E+00 0. -1.
       -3    1    3    3    0  502 -0.60306007804E+02 -0.18145873529E+03  0.61569165934E+02  0.20088519006E+03  0.10100000352E+00 0.  1.
</event>
<event>
 5   0  0.1513339E-01  0.5383545E+03  0.7818609E-02  0.1004226E+00
       -2   -1    0    0    0  501  0.00000000000E+00  0.00000000000E+00  0.65609852409E+02  0.65609852459E+02  0.25500000920E-02 0.  1.
        2   -1    0    0  501    0  0.00000000000E+00  0.00000000000E+00 -0.11043521149E+04  0.11043521149E+04  0.25500000920E-02 0. -1.
    10030    2    1    2    0    0  0.00000000000E+00  0.00000000000E+00 -0.10387422625E+04  0.11699619674E+04  0.53835445311E+03 0.  0.
        3    1    3    3  502    0 -0.17059124516E+03 -0.20652059369E+03 -0.57704299007E+03  0.63618452601E+03  0.10100000352E+00 0. -1.
       -3    1    3    3    0  502  0.17059124516E+03  0.20652059369E+03 -0.46169927241E+03  0.53377744134E+03  0.10100000352E+00 0.  1.
</event>
<event>
 5   0  0.9411028E-02  0.5960797E+03  0.7818609E-02  0.9913573E-01
        1   -1    0    0  501    0  0.00000000000E+00  0.00000000000E+00  0.45183759976E+03  0.45183759979E+03  0.50400001928E-02 0. -1.
       -1   -1    0    0    0  501  0.00000000000E+00  0.00000000000E+00 -0.19659221797E+03  0.19659221803E+03  0.50400001928E-02 0.  1.
    10030    2    1    2    0    0  0.00000000000E+00  0.00000000000E+00  0.25524538179E+03  0.64842981783E+03  0.59607971255E+03 0.  0.
        4    1    3    3  502    0  0.98063348030E+02  0.27641230810E+03  0.18524614355E+03  0.34689757983E+03  0.12699999809E+01 0.  1.
       -4    1    3    3    0  502 -0.98063348030E+02 -0.27641230810E+03  0.69999238239E+02  0.30153223799E+03  0.12699999809E+01 0. -1.
</event>
<event>
 5   0  0.9497860E-02  0.6013350E+03  0.7818609E-02  0.9902640E-01
       -1   -1    0    0    0  501  0.00000000000E+00  0.00000000000E+00  0.32752389523E+03  0.32752389527E+03  0.50400001928E-02 0. -1.
        1   -1    0    0  501    0  0.00000000000E+00  0.00000000000E+00 -0.27601327898E+03  0.27601327902E+03  0.50400001928E-02 0.  1.
    10030    2    1    2    0    0  0.00000000000E+00  0.00000000000E+00  0.51510616256E+02  0.60353717429E+03  0.60133499579E+03 0.  0.
        5    1    3    3  502    0 -0.32746822784E+01  0.28493772486E+03  0.12191129481E+03  0.30997529643E+03  0.46999998093E+01 0. -1.
       -5    1    3    3    0  502  0.32746822784E+01 -0.28493772486E+03 -0.70400678558E+02  0.29356187786E+03  0.46999998093E+01 0.  1.
</event>
<event>
 5   0  0.1488510E-01  0.5918881E+03  0.7818609E-02  0.9922380E-01
       -2   -1    0    0    0  501  0.00000000000E+00  0.00000000000E+00  0.43790956698E+02  0.43790956772E+02  0.25500000920E-02 0.  1.
        2   -1    0    0  501    0  0.00000000000E+00  0.00000000000E+00 -0.20000220498E+04  0.20000220498E+04  0.25500000920E-02 0. -1.
    10030    2    1    2    0    0  0.00000000000E+00  0.00000000000E+00 -0.19562310931E+04  0.20438130066E+04  0.59188809433E+03 0.  0.
        5    1    3    3  502    0  0.22362779561E+03 -0.18674429280E+03 -0.11568071642E+04  0.11929407894E+04  0.46999998093E+01 0. -1.
       -5    1    3    3    0  502 -0.22362779561E+03  0.18674429280E+03 -0.79942392891E+03  0.85087221718E+03  0.46999998093E+01 0.  1.
</event>
<event>
 5   0  0.9497860E-02  0.5850335E+03  0.7818609E-02  0.9936953E-01
       -1   -1    0    0    0  501  0.00000000000E+00  0.00000000000E+00  0.10488932623E+03  0.10488932635E+03  0.50400001928E-02 0.  1.
        1   -1    0    0  501    0  0.00000000000E+00  0.00000000000E+00 -0.81577466554E+03  0.81577466555E+03  0.50400001928E-02 0. -1.
    10030    2    1    2    0    0  0.00000000000E+00  0.00000000000E+00 -0.71088533931E+03  0.92066399191E+03  0.58503352071E+03 0.  0.
        5    1    3    3  502    0 -0.51770994377E+02 -0.95578198239E+01 -0.80819753042E+03  0.80992402480E+03  0.46999998093E+01 0. -1.
       -5    1    3    3    0  502  0.51770994377E+02  0.95578198239E+01  0.97312191109E+02  0.11073996711E+03  0.46999998093E+01 0.  1.
</event>
<event>
 5   0  0.1483942E-01  0.6742880E+03  0.7818609E-02  0.9762242E-01
        2   -1    0    0  501    0  0.00000000000E+00  0.00000000000E+00  0.13517821451E+04  0.13517821451E+04  0.25500000920E-02 0. -1.
       -2   -1    0    0    0  501  0.00000000000E+00  0.00000000000E+00 -0.84086080617E+02  0.84086080656E+02  0.25500000920E-02 0.  1.
    10030    2    1    2    0    0  0.00000000000E+00  0.00000000000E+00  0.12676960645E+04  0.14358682258E+04  0.67428795766E+03 0.  0.
        4    1    3    3  502    0  0.32541327895E+03  0.37731583955E+02  0.80349752912E+03  0.86771387378E+03  0.12699999809E+01 0. -1.
       -4    1    3    3    0  502 -0.32541327895E+03 -0.37731583955E+02  0.46419853539E+03  0.56815435201E+03  0.12699999809E+01 0.  1.
</event>
<event>
 5   0  0.9420349E-02  0.6118579E+03  0.7818609E-02  0.9881105E-01
       -1   -1    0    0    0  501  0.00000000000E+00  0.00000000000E+00  0.19755529601E+03  0.19755529607E+03  0.50400001928E-02 0.  1.
        1   -1    0    0  501    0  0.00000000000E+00  0.00000000000E+00 -0.47375362451E+03  0.47375362453E+03  0.50400001928E-02 0. -1.
    10030    2    1    2    0    0  0.00000000000E+00  0.00000000000E+00 -0.27619832850E+03  0.67130892060E+03  0.61185794938E+03 0.  0.
        2    1    3    3  502    0  0.17415400765E+03 -0.24076175208E+03 -0.21794907098E+03  0.36850730955E+03  0.25500000920E-02 0. -1.
       -2    1    3    3    0  502 -0.17415400765E+03  0.24076175208E+03 -0.58249257521E+02  0.30280161105E+03  0.25500000920E-02 0.  1.
</event>
<event>
 5   0  0.6170500E-02  0.5738899E+03  0.7818609E-02  0.9961108E-01
       -4   -1    0    0    0  501  0.00000000000E+00  0.00000000000E+00  0.56822551548E+03  0.56822693472E+03  0.12699999809E+01 0. -1.
        4   -1    0    0  501    0  0.00000000000E+00  0.00000000000E+00 -0.14489828810E+03  0.14490385362E+03  0.12699999809E+01 0.  1.
    10030    2    1    2    0    0  0.00000000000E+00  0.00000000000E+00  0.42332722738E+03  0.71313078834E+03  0.57388986734E+03 0.  0.
        5    1    3    3  502    0 -0.22902555485E+03 -0.10652768363E+03  0.38074510531E+03  0.45693520041E+03  0.46999998093E+01 0. -1.
       -5    1    3    3    0  502  0.22902555485E+03  0.10652768363E+03  0.42582122067E+02  0.25619558793E+03  0.46999998093E+01 0.  1.
</event>
<event>
 5   0  0.9177281E-02  0.6038291E+03  0.7818609E-02  0.9897494E-01
       -1   -1    0    0    0  501  0.00000000000E+00  0.00000000000E+00  0.67041793705E+02  0.67041793894E+02  0.50400001928E-02 0. -1.
        1   -1    0    0  501    0  0.00000000000E+00  0.00000000000E+00 -0.13596355033E+04  0.13596355033E+04  0.50400001928E-02 0.  1.
    10030    2    1    2    0    0  0.00000000000E+00  0.00000000000E+00 -0.12925937096E+04  0.14266772972E+04  0.60382912506E+03 0.  0.
        1    1    3    3  502    0  0.57228095323E+02  0.15928621622E+03 -0.55592816544E+02  0.17815082051E+03  0.50400001928E-02 0. -1.
       -1    1    3    3    0  502 -0.57228095323E+02 -0.15928621622E+03 -0.12370008930E+04  0.12485264767E+04  0.50400001928E-02 0.  1.
</event>
<event>
 5   0  0.1513339E-01  0.5964033E+03  0.7818609E-02  0.9912896E-01
       -2   -1    0    0    0  501  0.00000000000E+00  0.00000000000E+00  0.43214716568E+02  0.43214716643E+02  0.25500000920E-02 0.  1.
        2   -1    0    0  501    0  0.00000000000E+00  0.00000000000E+00 -0.20577300836E+04  0.20577300836E+04  0.25500000920E-02 0. -1.
    10030    2    1    2    0    0  0.00000000000E+00  0.00000000000E+00 -0.20145153670E+04  0.21009448002E+04  0.59640329447E+03 0.  0.
        3    1    3    3  502    0 -0.58448984445E+02 -0.28671394534E+03 -0.80480121603E+03  0.85634466061E+03  0.10100000352E+00 0. -1.
       -3    1    3    3    0  502  0.58448984445E+02  0.28671394534E+03 -0.12097141510E+04  0.12446001396E+04  0.10100000352E+00 0.  1.
</event>
<event>
 5   0  0.9420349E-02  0.6067383E+03  0.7818609E-02  0.9891524E-01
       -1   -1    0    0    0  501  0.00000000000E+00  0.00000000000E+00  0.11141576464E+03  0.11141576476E+03  0.50400001928E-02 0.  1.
        1   -1    0    0  501    0  0.00000000000E+00  0.00000000000E+00 -0.82603068969E+03  0.82603068971E+03  0.50400001928E-02 0. -1.
    10030    2    1    2    0    0  0.00000000000E+00  0.00000000000E+00 -0.71461492505E+03  0.93744645447E+03  0.60673829934E+03 0.  0.
        2    1    3    3  502    0  0.22972089005E+03  0.14860914964E+03 -0.55980142210E+03  0.62308426306E+03  0.25500000920E-02 0. -1.
       -2    1    3    3    0  502 -0.22972089005E+03 -0.14860914964E+03 -0.15481350294E+03  0.31436219140E+03  0.25500000920E-02 0.  1.
</event>
<event>
 5   0  0.9497860E-02  0.5443858E+03  0.7818609E-02  0.1002802E+00
       -1   -1    0    0    0  501  0.00000000000E+00  0.00000000000E+00  0.39425387106E+03  0.39425387109E+03  0.50400001928E-02 0.  1.
        1   -1    0    0  501    0  0.00000000000E+00  0.00000000000E+00 -0.18792197919E+03  0.18792197925E+03  0.50400001928E-02 0. -1.
    10030    2    1    2    0    0  0.00000000000E+00  0.00000000000E+00  0.20633189187E+03  0.58217585034E+03  0.54438577417E+03 0.  0.
        5    1    3    3  502    0 -0.54586861369E+02 -0.33394734232E+02  0.38605060010E+03  0.39134650828E+03  0.46999998093E+01 0.  1.
       -5    1    3    3    0  502  0.54586861369E+02  0.33394734232E+02 -0.17971870822E+03  0.19082934206E+03  0.46999998093E+01 0. -1.
</event>
<event>
 5   0  0.9420349E-02  0.5795284E+03  0.7818609E-02  0.9948813E-01
        1   -1    0    0  501    0  0.00000000000E+00  0.00000000000E+00  0.65732357113E+03  0.65732357115E+03  0.50400001928E-02 0.  1.
       -1   -1    0    0    0  501  0.00000000000E+00  0.00000000000E+00 -0.12773510126E+03  0.12773510136E+03  0.50400001928E-02 0. -1.
    10030    2    1    2    0    0  0.00000000000E+00  0.00000000000E+00  0.52958846988E+03  0.78505867251E+03  0.57952840471E+03 0.  0.
        2    1    3    3  502    0  0.68109019609E+02  0.13923474235E+03 -0.66855017538E+02  0.16880386668E+03  0.25500000920E-02 0. -1.
       -2    1    3    3    0  502 -0.68109019609E+02 -0.13923474235E+03  0.59644348741E+03  0.61625480583E+03  0.25500000920E-02 0.  1.
</event>
<event>
 5   0  0.1488510E-01  0.5641394E+03  0.7818609E-02  0.9982732E-01
       -2   -1    0    0    0  501  0.00000000000E+00  0.00000000000E+00  0.11935871672E+03  0.11935871675E+03  0.25500000920E-02 0. -1.
        2   -1    0    0  501    0  0.00000000000E+00  0.00000000000E+00 -0.66659001555E+03  0.66659001556E+03  0.25500000920E-02 0.  1.
    10030    2    1    2    0    0  0.00000000000E+00  0.00000000000E+00 -0.54723129883E+03  0.78594873230E+03  0.56413944676E+03 0.  0.
        5    1    3    3  502    0  0.47948268668E+02  0.25521282915E+02  0.11194814085E+03  0.12451846686E+03  0.46999998093E+01 0. -1.
       -5    1    3    3    0  502 -0.47948268668E+02 -0.25521282915E+02 -0.65917943968E+03  0.66143026545E+03  0.46999998093E+01 0.  1.
</event>
<event>
 5   0  0.1483942E-01  0.6350168E+03  0.7818609E-02  0.9835308E-01
        2   -1    0    0  501    0  0.00000000000E+00  0.00000000000E+00  0.47878961471E+03  0.47878961472E+03  0.25500000920E-02 0.  1.
       -2   -1    0    0    0  501  0.00000000000E+00  0.00000000000E+00 -0.21055507206E+03  0.21055507208E+03  0.25500000920E-02 0. -1.
    10030    2    1    2    0    0  0.00000000000E+00  0.00000000000E+00  0.26823454265E+03  0.68934468679E+03  0.63501679296E+03 0.  0.
        4    1    3    3  502    0 -0.14801460766E+03  0.24084132091E+03 -0.22808497070E+02  0.28361013095E+03  0.12699999809E+01 0. -1.
       -4    1    3    3    0  502  0.14801460766E+03 -0.24084132091E+03  0.29104303972E+03  0.40573455585E+03  0.12699999809E+01 0.  1.
</event>
<event>
 5   0  0.9420349E-02  0.3849520E+03  0.7818609E-02  0.1049119E+00
       -1   -1    0    0    0  501  0.00000000000E+00  0.00000000000E+00  0.16455873276E+03  0.16455873283E+03  0.50400001928E-02 0.  1.
        1   -1    0    0  501    0  0.00000000000E+00  0.00000000000E+00 -0.22512935668E+03  0.22512935673E+03  0.50400001928E-02 0. -1.
    10030    2    1    2    0    0  0.00000000000E+00  0.00000000000E+00 -0.60570623918E+02  0.38968808957E+03  0.38495195371E+03 0.  0.
        2    1    3    3  502    0  0.18511324447E+03 -0.44844675278E+02 -0.22124912517E+01  0.19048058511E+03  0.25500000920E-02 0. -1.
       -2    1    3    3    0  502 -0.18511324447E+03  0.44844675278E+02 -0.58358132666E+02  0.19920750446E+03  0.25500000920E-02 0.  1.
</event>
<event>
 5   0  0.9177281E-02  0.5936624E+03  0.7818609E-02  0.9918643E-01
       -1   -1    0    0    0  501  0.00000000000E+00  0.00000000000E+00  0.57922499083E+02  0.57922499303E+02  0.50400001928E-02 0.  1.
        1   -1    0    0  501    0  0.00000000000E+00  0.00000000000E+00 -0.15211491118E+04  0.15211491118E+04  0.50400001928E-02 0. -1.
    10030    2    1    2    0    0  0.00000000000E+00  0.00000000000E+00 -0.14632266127E+04  0.15790716111E+04  0.59366238962E+03 0.  0.
        1    1    3    3  502    0  0.13219797045E+03 -0.25848721092E+03 -0.89594182311E+03  0.94180873431E+03  0.50400001928E-02 0.  1.
       -1    1    3    3    0  502 -0.13219797045E+03  0.25848721092E+03 -0.56728478958E+03  0.63726287677E+03  0.50400001928E-02 0. -1.
</event>
<event>
 5   0  0.8860626E-02  0.5935417E+03  0.7818609E-02  0.9918896E-01
       -1   -1    0    0    0  501  0.00000000000E+00  0.00000000000E+00  0.81496443369E+02  0.81496443524E+02  0.50400001928E-02 0.  1.
        1   -1    0    0  501    0  0.00000000000E+00  0.00000000000E+00 -0.10806967088E+04  0.10806967088E+04  0.50400001928E-02 0. -1.
    10030    2    1    2    0    0  0.00000000000E+00  0.00000000000E+00 -0.99920026547E+03  0.11621931524E+04  0.59354170276E+03 0.  0.
        3    1    3    3  502    0 -0.19410841590E+02 -0.14428270645E+03  0.67731880987E+01  0.14574006460E+03  0.10100000352E+00 0.  1.
       -3    1    3    3    0  502  0.19410841590E+02  0.14428270645E+03 -0.10059734536E+04  0.10164530878E+04  0.10100000352E+00 0. -1.
</event>
<event>
 5   0  0.1502642E-01  0.6037132E+03  0.7818609E-02  0.9897732E-01
        2   -1    0    0  501    0  0.00000000000E+00  0.00000000000E+00  0.22968036199E+04  0.22968036199E+04  0.25500000920E-02 0.  1.
       -2   -1    0    0    0  501  0.00000000000E+00  0.00000000000E+00 -0.39671399774E+02  0.39671399856E+02  0.25500000920E-02 0. -1.
    10030    2    1    2    0    0  0.00000000000E+00  0.00000000000E+00  0.22571322201E+04  0.23364750197E+04  0.60371322564E+03 0.  0.
        2    1    3    3  502    0  0.78138779887E+02  0.23139018143E+03  0.44200199765E+03  0.50498797106E+03  0.25500000920E-02 0. -1.
       -2    1    3    3    0  502 -0.78138779887E+02 -0.23139018143E+03  0.18151302225E+04  0.18314870487E+04  0.25500000920E-02 0.  1.
</event>
<event>
 5   0  0.9177281E-02  0.6118771E+03  0.7818609E-02  0.9881067E-01
       -1   -1    0    0    0  501  0.00000000000E+00  0.00000000000E+00  0.28210089394E+03  0.28210089398E+03  0.50400001928E-02 0.  1.
        1   -1    0    0  501    0  0.00000000000E+00  0.00000000000E+00 -0.33179046747E+03  0.33179046751E+03  0.50400001928E-02 0. -1.
    10030    2    1    2    0    0  0.00000000000E+00  0.00000000000E+00 -0.49689573535E+02  0.61389136149E+03  0.61187707098E+03 0.  0.
        1    1    3    3  502    0  0.23805276783E+03 -0.11039987720E+03 -0.18265574125E+03  0.31971920961E+03  0.50400001928E-02 0. -1.
       -1    1    3    3    0  502 -0.23805276783E+03  0.11039987720E+03  0.13296616772E+03  0.29417215188E+03  0.50400001928E-02 0.  1.
</event>
<event>
 5   0  0.1488510E-01  0.5933252E+03  0.7818609E-02  0.9919352E-01
        2   -1    0    0  501    0  0.00000000000E+00  0.00000000000E+00  0.67579543002E+03  0.67579543003E+03  0.25500000920E-02 0.  1.
       -2   -1    0    0    0  501  0.00000000000E+00  0.00000000000E+00 -0.13022978633E+03  0.13022978636E+03  0.25500000920E-02 0. -1.
    10030    2    1    2    0    0  0.00000000000E+00  0.00000000000E+00  0.54556564369E+03  0.80602521638E+03  0.59332518729E+03 0.  0.
        5    1    3    3  502    0 -0.66444747256E+02 -0.76971164694E+02  0.65132874678E+03  0.65923492854E+03  0.46999998093E+01 0.  1.
       -5    1    3    3    0  502  0.66444747256E+02  0.76971164694E+02 -0.10576310309E+03  0.14679028784E+03  0.46999998093E+01 0. -1.
</event>
<event>
 5   0  0.9177281E-02  0.5930642E+03  0.7818609E-02  0.9919901E-01
       -1   -1    0    0    0  501  0.00000000000E+00  0.00000000000E+00  0.13229375341E+03  0.13229375351E+03  0.50400001928E-02 0. -1.
        1   -1    0    0  501    0  0.00000000000E+00  0.00000000000E+00 -0.66466693427E+03  0.66466693429E+03  0.50400001928E-02 0.  1.
    10030    2    1    2    0    0  0.00000000000E+00  0.00000000000E+00 -0.53237318085E+03  0.79696068780E+03  0.59306419062E+03 0.  0.
        1    1    3    3  502    0  0.14582062724E+03  0.82145712933E+02  0.62755954981E+02  0.17874530314E+03  0.50400001928E-02 0. -1.
       -1    1    3    3    0  502 -0.14582062724E+03 -0.82145712933E+02 -0.59512913583E+03  0.61821538466E+03  0.50400001928E-02 0.  1.
</event>
<event>
 5   0  0.1502642E-01  0.5902888E+03  0.7818609E-02  0.9925761E-01
        2   -1    0    0  501    0  0.00000000000E+00  0.00000000000E+00  0.48988155554E+03  0.48988155555E+03  0.25500000920E-02 0. -1.
       -2   -1    0    0    0  501  0.00000000000E+00  0.00000000000E+00 -0.17781893256E+03  0.17781893258E+03  0.25500000920E-02 0.  1.
    10030    2    1    2    0    0  0.00000000000E+00  0.00000000000E+00  0.31206262298E+03  0.66770048812E+03  0.59028879472E+03 0.  0.
        2    1    3    3  502    0 -0.69832935836E+02  0.46251767027E+02  0.47615520933E+03  0.48346628451E+03  0.25500000920E-02 0. -1.
       -2    1    3    3    0  502  0.69832935836E+02 -0.46251767027E+02 -0.16409258635E+03  0.18423420361E+03  0.25500000920E-02 0.  1.
</event>
<event>
 5   0  0.9497860E-02  0.5819555E+03  0.7818609E-02  0.9943566E-01
       -1   -1    0    0    0  501  0.00000000000E+00  0.00000000000E+00  0.46473202287E+02  0.46473202561E+02  0.50400001928E-02 0. -1.
        1   -1    0    0  501    0  0.00000000000E+00  0.00000000000E+00 -0.18218683330E+04  0.18218683330E+04  0.50400001928E-02 0.  1.
    10030    2    1    2    0    0  0.00000000000E+00  0.00000000000E+00 -0.17753951307E+04  0.18683415356E+04  0.58195551666E+03 0.  0.
        5    1    3    3  502    0 -0.15907130271E+03 -0.24333573006E+03 -0.92430363856E+03  0.96895575911E+03  0.46999998093E+01 0.  1.
       -5    1    3    3    0  502  0.15907130271E+03  0.24333573006E+03 -0.85109149217E+03  0.89938577647E+03  0.46999998093E+01 0. -1.
</event>
<event>
 5   0  0.1513339E-01  0.6018369E+03  0.7818609E-02  0.9901602E-01
        2   -1    0    0  501    0  0.00000000000E+00  0.00000000000E+00  0.29827321480E+03  0.29827321481E+03  0.25500000920E-02 0.  1.
       -2   -1    0    0    0  501  0.00000000000E+00  0.00000000000E+00 -0.30358716161E+03  0.30358716162E+03  0.25500000920E-02 0. -1.
    10030    2    1    2    0    0  0.00000000000E+00  0.00000000000E+00 -0.53139468084E+01  0.60186037642E+03  0.60183691701E+03 0.  0.
        3    1    3    3  502    0  0.15550479242E+03 -0.25636710805E+03 -0.28075948225E+02  0.30115461747E+03  0.10100000352E+00 0.  1.
       -3    1    3    3    0  502 -0.15550479242E+03  0.25636710805E+03  0.22762001416E+02  0.30070575895E+03  0.10100000352E+00 0. -1.
</event>
<event>
 5   0  0.9177281E-02  0.6046075E+03  0.7818609E-02  0.9895893E-01
        1   -1    0    0  501    0  0.00000000000E+00  0.00000000000E+00  0.77115235059E+03  0.77115235061E+03  0.50400001928E-02 0.  1.
       -1   -1    0    0    0  501  0.00000000000E+00  0.00000000000E+00 -0.11850780446E+03  0.11850780457E+03  0.50400001928E-02 0. -1.
    10030    2    1    2    0    0  0.00000000000E+00  0.00000000000E+00  0.65264454613E+03  0.88966015518E+03  0.60460754885E+03 0.  0.
        1    1    3    3  502    0  0.84986424106E+02  0.11747069161E+03  0.71665099951E+03  0.73117078087E+03  0.50400001928E-02 0.  1.
       -1    1    3    3    0  502 -0.84986424106E+02 -0.11747069161E+03 -0.64006453382E+02  0.15848937431E+03  0.50400001928E-02 0. -1.
</event>
<event>
 5   0  0.9420349E-02  0.6393624E+03  0.7818609E-02  0.9826947E-01
        1   -1    0    0  501    0  0.00000000000E+00  0.00000000000E+00  0.29609305909E+03  0.29609305913E+03  0.50400001928E-02 0. -1.
       -1   -1    0    0    0  501  0.00000000000E+00  0.00000000000E+00 -0.34514852032E+03  0.34514852036E+03  0.50400001928E-02 0.  1.
    10030    2    1    2    0    0  0.00000000000E+00  0.00000000000E+00 -0.49055461234E+02  0.64124157950E+03  0.63936243634E+03 0.  0.
        2    1    3    3  502    0 -0.44735642922E+02 -0.72261356768E+02  0.28455508841E+03  0.29697572254E+03  0.25500000920E-02 0. -1.
       -2    1    3    3    0  502  0.44735642922E+02  0.72261356768E+02 -0.33361054964E+03  0.34426585696E+03  0.25500000920E-02 0.  1.
</event>
<event>
 5   0  0.1513339E-01  0.6137799E+03  0.7818609E-02  0.9877223E-01
        2   -1    0    0  501    0  0.00000000000E+00  0.00000000000E+00  0.37758622493E+03  0.37758622494E+03  0.25500000920E-02 0.  1.
       -2   -1    0    0    0  501  0.00000000000E+00  0.00000000000E+00 -0.24943026429E+03  0.24943026430E+03  0.25500000920E-02 0. -1.
    10030    2    1    2    0    0  0.00000000000E+00  0.00000000000E+00  0.12815596064E+03  0.62701648924E+03  0.61377986896E+03 0.  0.
        3    1    3    3  502    0 -0.28278580219E+03 -0.11674715571E+03  0.39396787018E+02  0.30846365314E+03  0.10100000352E+00 0. -1.
       -3    1    3    3    0  502  0.28278580219E+03  0.11674715571E+03  0.88759173621E+02  0.31855283610E+03  0.10100000352E+00 0.  1.
</event>
<event>
 5   0  0.8860626E-02  0.5993289E+03  0.7818609E-02  0.9906799E-01
        1   -1    0    0  501    0  0.00000000000E+00  0.00000000000E+00  0.20892043540E+03  0.20892043546E+03  0.50400001928E-02 0.  1.
       -1   -1    0    0    0  501  0.00000000000E+00  0.00000000000E+00 -0.42982281200E+03  0.42982281203E+03  0.50400001928E-02 0. -1.
    10030    2    1    2    0    0  0.00000000000E+00  0.00000000000E+00 -0.22090237660E+03  0.63874324749E+03  0.59932885483E+03 0.  0.
        3    1    3    3  502    0 -0.10128959885E+03  0.26179205272E+02  0.18882524374E+03  0.21587013804E+03  0.10100000352E+00 0.  1.
       -3    1    3    3    0  502  0.10128959885E+03 -0.26179205272E+02 -0.40972762034E+03  0.42287310945E+03  0.10100000352E+00 0. -1.
</event>
<event>
 5   0  0.6170500E-02  0.6016378E+03  0.7818609E-02  0.9902014E-01
       -3   -1    0    0    0  501  0.00000000000E+00  0.00000000000E+00  0.44711929509E+03  0.44711930650E+03  0.10100000352E+00 0. -1.
        3   -1    0    0  501    0  0.00000000000E+00  0.00000000000E+00 -0.20238896520E+03  0.20238899040E+03  0.10100000352E+00 0.  1.
    10030    2    1    2    0    0  0.00000000000E+00  0.00000000000E+00  0.24473032989E+03  0.64950829690E+03  0.60163784237E+03 0.  0.
        3    1    3    3  502    0  0.28627044374E+03  0.16890016668E+02  0.22045719077E+03  0.36171455982E+03  0.10100000352E+00 0. -1.
       -3    1    3    3    0  502 -0.28627044374E+03 -0.16890016668E+02  0.24273139119E+02  0.28779373708E+03  0.10100000352E+00 0.  1.
</event>
<event>
 5   0  0.1532571E-01  0.6076852E+03  0.7818609E-02  0.9889589E-01
       -2   -1    0    0    0  501  0.00000000000E+00  0.00000000000E+00  0.18339612502E+03  0.18339612504E+03  0.25500000920E-02 0. -1.
        2   -1    0    0  501    0  0.00000000000E+00  0.00000000000E+00 -0.50339301043E+03  0.50339301044E+03  0.25500000920E-02 0.  1.
    10030    2    1    2    0    0  0.00000000000E+00  0.00000000000E+00 -0.31999688541E+03  0.68678913547E+03  0.60768520628E+03 0.  0.
        1    1    3    3  502    0 -0.19656646060E+03 -0.18123299408E+03 -0.32313741421E+03  0.41940619936E+03  0.50400001928E-02 0.  1.
       -1    1    3    3    0  502  0.19656646060E+03  0.18123299408E+03  0.31405288003E+01  0.26738293611E+03  0.50400001928E-02 0. -1.
</event>
<event>
 5   0  0.9411028E-02  0.3720948E+03  0.7818609E-02  0.1053895E+00
       -1   -1    0    0    0  501  0.00000000000E+00  0.00000000000E+00  0.96190481061E+02  0.96190481193E+02  0.50400001928E-02 0.  1.
        1   -1    0    0  501    0  0.00000000000E+00  0.00000000000E+00 -0.35984467877E+03  0.35984467881E+03  0.50400001928E-02 0. -1.
    10030    2    1    2    0    0  0.00000000000E+00  0.00000000000E+00 -0.26365419771E+03  0.45603516000E+03  0.37209478790E+03 0.  0.
        4    1    3    3  502    0  0.14885519548E+03 -0.23192063002E+02  0.19602569866E+01  0.15066916246E+03  0.12699999809E+01 0.  1.
       -4    1    3    3    0  502 -0.14885519548E+03  0.23192063002E+02 -0.26561445470E+03  0.30536599754E+03  0.12699999809E+01 0. -1.
</event>
<event>
 5   0  0.1502642E-01  0.5856483E+03  0.7818609E-02  0.9935637E-01
        2   -1    0    0  501    0  0.00000000000E+00  0.00000000000E+00  0.71622367240E+03  0.71622367240E+03  0.25500000920E-02 0. -1.
       -2   -1    0    0    0  501  0.00000000000E+00  0.00000000000E+00 -0.11971955782E+03  0.11971955785E+03  0.25500000920E-02 0.  1.
    10030    2    1    2    0    0  0.00000000000E+00  0.00000000000E+00  0.59650411457E+03  0.83594323025E+03  0.58564829505E+03 0.  0.
        2    1    3    3  502    0 -0.13410984486E+03  0.15713910055E+03  0.59447344815E+03  0.62934634977E+03  0.25500000920E-02 0. -1.
       -2    1    3    3    0  502  0.13410984486E+03 -0.15713910055E+03  0.20306664225E+01  0.20659688048E+03  0.25500000920E-02 0.  1.
</event>
<event>
 5   0  0.9177281E-02  0.4768760E+03  0.7818609E-02  0.1019997E+00
        1   -1    0    0  501    0  0.00000000000E+00  0.00000000000E+00  0.50953367569E+03  0.50953367572E+03  0.50400001928E-02 0. -1.
       -1   -1    0    0    0  501  0.00000000000E+00  0.00000000000E+00 -0.11157788031E+03  0.11157788042E+03  0.50400001928E-02 0.  1.
    10030    2    1    2    0    0  0.00000000000E+00  0.00000000000E+00  0.39795579539E+03  0.62111155614E+03  0.47687603220E+03 0.  0.
        1    1    3    3  502    0  0.70008407482E+02  0.13049207313E+03 -0.44422864218E+02  0.15460513950E+03  0.50400001928E-02 0.  1.
       -1    1    3    3    0  502 -0.70008407482E+02 -0.13049207313E+03  0.44237865961E+03  0.46650641664E+03  0.50400001928E-02 0. -1.
</event>
<event>
 5   0  0.1483942E-01  0.6129603E+03  0.7818609E-02  0.9878876E-01
       -2   -1    0    0    0  501  0.00000000000E+00  0.00000000000E+00  0.17020866402E+03  0.17020866404E+03  0.25500000920E-02 0. -1.
        2   -1    0    0  501    0  0.00000000000E+00  0.00000000000E+00 -0.55185259784E+03  0.55185259785E+03  0.25500000920E-02 0.  1.
    10030    2    1    2    0    0  0.00000000000E+00  0.00000000000E+00 -0.38164393383E+03  0.72206126189E+03  0.61296033615E+03 0.  0.
        4    1    3    3  502    0 -0.23467318483E+03 -0.19339457427E+03 -0.14588020563E+03  0.33727675925E+03  0.12699999809E+01 0. -1.
       -4    1    3    3    0  502  0.23467318483E+03  0.19339457427E+03 -0.23576372819E+03  0.38478450263E+03  0.12699999809E+01 0.  1.
</event>
<event>
 5   0  0.1532571E-01  0.5951823E+03  0.7818609E-02  0.9915452E-01
       -2   -1    0    0    0  501  0.00000000000E+00  0.00000000000E+00  0.54323159894E+02  0.54323159954E+02  0.25500000920E-02 0.  1.
        2   -1    0    0  501    0  0.00000000000E+00  0.00000000000E+00 -0.16302528111E+04  0.16302528111E+04  0.25500000920E-02 0. -1.
    10030    2    1    2    0    0  0.00000000000E+00  0.00000000000E+00 -0.15759296512E+04  0.16845759711E+04  0.59518227184E+03 0.  0.
        1    1    3    3  502    0 -0.80890119590E+02 -0.25055967676E+03 -0.39540065938E+03  0.47504215026E+03  0.50400001928E-02 0.  1.
       -1    1    3    3    0  502  0.80890119590E+02  0.25055967676E+03 -0.11805289919E+04  0.12095338208E+04  0.50400001928E-02 0. -1.
</event>
<event>
 5   0  0.8860626E-02  0.6077270E+03  0.7818609E-02  0.9889503E-01
       -1   -1    0    0    0  501  0.00000000000E+00  0.00000000000E+00  0.15452039927E+03  0.15452039936E+03  0.50400001928E-02 0.  1.
        1   -1    0    0  501    0  0.00000000000E+00  0.00000000000E+00 -0.59754580326E+03  0.59754580328E+03  0.50400001928E-02 0. -1.
    10030    2    1    2    0    0  0.00000000000E+00  0.00000000000E+00 -0.44302540398E+03  0.75206620263E+03  0.60772696548E+03 0.  0.
        3    1    3    3  502    0 -0.16001528644E+03 -0.26736984152E+02  0.96440435746E+02  0.18873400877E+03  0.10100000352E+00 0.  1.
       -3    1    3    3    0  502  0.16001528644E+03  0.26736984152E+02 -0.53946583973E+03  0.56333219387E+03  0.10100000352E+00 0. -1.
</event>
<event>
 5   0  0.9497860E-02  0.6046395E+03  0.7818609E-02  0.9895827E-01
       -1   -1    0    0    0  501  0.00000000000E+00  0.00000000000E+00  0.61315517935E+02  0.61315518142E+02  0.50400001928E-02 0. -1.
        1   -1    0    0  501    0  0.00000000000E+00  0.00000000000E+00 -0.14906054148E+04  0.14906054148E+04  0.50400001928E-02 0.  1.
    10030    2    1    2    0    0  0.00000000000E+00  0.00000000000E+00 -0.14292898969E+04  0.15519209329E+04  0.60463953960E+03 0.  0.
        5    1    3    3  502    0 -0.37175912739E+01  0.25996197232E+03 -0.11104570504E+04  0.11404959440E+04  0.46999998093E+01 0.  1.
       -5    1    3    3    0  502  0.37175912739E+01 -0.25996197232E+03 -0.31883284646E+03  0.41142498893E+03  0.46999998093E+01 0. -1.
</event>
<event>
 5   0  0.8860626E-02  0.6025517E+03  0.7818609E-02  0.9900126E-01
        1   -1    0    0  501    0  0.00000000000E+00  0.00000000000E+00  0.62533598899E+03  0.62533598901E+03  0.50400001928E-02 0.  1.
       -1   -1    0    0    0  501  0.00000000000E+00  0.00000000000E+00 -0.14514940734E+03  0.14514940743E+03  0.50400001928E-02 0. -1.
    10030    2    1    2    0    0  0.00000000000E+00  0.00000000000E+00  0.48018658165E+03  0.77048539644E+03  0.60255173465E+03 0.  0.
        3    1    3    3  502    0  0.30917200044E+02 -0.94920869300E+02 -0.12338562733E+03  0.15871316240E+03  0.10100000352E+00 0. -1.
       -3    1    3    3    0  502 -0.30917200044E+02  0.94920869300E+02  0.60357220898E+03  0.61177223403E+03  0.10100000352E+00 0.  1.
</event>
<event>
 5   0  0.9497860E-02  0.5865848E+03  0.7818609E-02  0.9933636E-01
       -1   -1    0    0    0  501  0.00000000000E+00  0.00000000000E+00  0.57557007818E+03  0.57557007820E+03  0.50400001928E-02 0. -1.
        1   -1    0    0  501    0  0.00000000000E+00  0.00000000000E+00 -0.14945258409E+03  0.14945258418E+03  0.50400001928E-02 0.  1.
    10030    2    1    2    0    0  0.00000000000E+00  0.00000000000E+00  0.42611749408E+03  0.72502266238E+03  0.58658481245E+03 0.  0.
        5    1    3    3  502    0  0.10235000105E+03  0.16918891299E+03  0.48072746919E+03  0.51982824147E+03  0.46999998093E+01 0. -1.
       -5    1    3    3    0  502 -0.10235000105E+03 -0.16918891299E+03 -0.54609975111E+02  0.20519442091E+03  0.46999998093E+01 0.  1.
</event>
<event>
 5   0  0.1502642E-01  0.5928305E+03  0.7818609E-02  0.9920393E-01
        2   -1    0    0  501    0  0.00000000000E+00  0.00000000000E+00  0.12129352219E+03  0.12129352222E+03  0.25500000920E-02 0.  1.
       -2   -1    0    0    0  501  0.00000000000E+00  0.00000000000E+00 -0.72437498166E+03  0.72437498166E+03  0.25500000920E-02 0. -1.
    10030    2    1    2    0    0  0.00000000000E+00  0.00000000000E+00 -0.60308145946E+03  0.84566850388E+03  0.59283047468E+03 0.  0.
        2    1    3    3  502    0 -0.19861842245E+03 -0.25010244440E+02 -0.61337614790E+03  0.64521708663E+03  0.25500000920E-02 0. -1.
       -2    1    3    3    0  502  0.19861842245E+03  0.25010244440E+02  0.10294688433E+02  0.20045141725E+03  0.25500000920E-02 0.  1.
</event>
<event>
 5   0  0.9177281E-02  0.6001632E+03  0.7818609E-02  0.9905068E-01
       -1   -1    0    0    0  501  0.00000000000E+00  0.00000000000E+00  0.17344200248E+03  0.17344200255E+03  0.50400001928E-02 0. -1.
        1   -1    0    0  501    0  0.00000000000E+00  0.00000000000E+00 -0.51918772922E+03  0.51918772924E+03  0.50400001928E-02 0.  1.
    10030    2    1    2    0    0  0.00000000000E+00  0.00000000000E+00 -0.34574572673E+03  0.69262973179E+03  0.60016317599E+03 0.  0.
        1    1    3    3  502    0 -0.26675825134E+03 -0.13369781374E+03 -0.20962030171E+03  0.36465838941E+03  0.50400001928E-02 0. -1.
       -1    1    3    3    0  502  0.26675825134E+03  0.13369781374E+03 -0.13612542503E+03  0.32797134238E+03  0.50400001928E-02 0.  1.
</event>
<event>
 5   0  0.1532571E-01  0.6164968E+03  0.7818609E-02  0.9871760E-01
       -2   -1    0    0    0  501  0.00000000000E+00  0.00000000000E+00  0.21378237084E+03  0.21378237086E+03  0.25500000920E-02 0. -1.
        2   -1    0    0  501    0  0.00000000000E+00  0.00000000000E+00 -0.44445695564E+03  0.44445695565E+03  0.25500000920E-02 0.  1.
    10030    2    1    2    0    0  0.00000000000E+00  0.00000000000E+00 -0.23067458480E+03  0.65823932651E+03  0.61649675335E+03 0.  0.
        1    1    3    3  502    0  0.11331932767E+03 -0.72567834560E+02  0.18076624348E+03  0.22535260248E+03  0.50400001928E-02 0. -1.
       -1    1    3    3    0  502 -0.11331932767E+03  0.72567834560E+02 -0.41144082828E+03  0.43288672403E+03  0.50400001928E-02 0.  1.
</event>
<event>
 5   0  0.1483942E-01  0.5739297E+03  0.7818609E-02  0.9961020E-01
        2   -1    0    0  501    0  0.00000000000E+00  0.00000000000E+00  0.42499574715E+03  0.42499574716E+03  0.25500000920E-02 0. -1.
       -2   -1    0    0    0  501  0.00000000000E+00  0.00000000000E+00 -0.19376390862E+03  0.19376390864E+03  0.25500000920E-02 0.  1.
    10030    2    1    2    0    0  0.00000000000E+00  0.00000000000E+00  0.23123183853E+03  0.61875965579E+03  0.57392974177E+03 0.  0.
        4    1    3    3  502    0 -0.26906361114E+03 -0.85983421523E+01  0.22276765676E+03  0.34942266687E+03  0.12699999809E+01 0. -1.
       -4    1    3    3    0  502  0.26906361114E+03  0.85983421523E+01  0.84641817667E+01  0.26933698892E+03  0.12699999809E+01 0.  1.
</event>
<event>
 5   0  0.8860626E-02  0.6295123E+03  0.7818609E-02  0.9846001E-01
       -1   -1    0    0    0  501  0.00000000000E+00  0.00000000000E+00  0.92200034808E+02  0.92200034946E+02  0.50400001928E-02 0.  1.
        1   -1    0    0  501    0  0.00000000000E+00  0.00000000000E+00 -0.10745271366E+04  0.10745271366E+04  0.50400001928E-02 0. -1.
    10030    2    1    2    0    0  0.00000000000E+00  0.00000000000E+00 -0.98232710177E+03  0.11667271715E+04  0.62951231753E+03 0.  0.
        3    1    3    3  502    0 -0.55562870312E+02  0.27331533775E+03 -0.76154738081E+03  0.81101352013E+03  0.10100000352E+00 0. -1.
       -3    1    3    3    0  502  0.55562870312E+02 -0.27331533775E+03 -0.22077972096E+03  0.35571365141E+03  0.10100000352E+00 0.  1.
</event>
<event>
 5   0  0.1513339E-01  0.5799955E+03  0.7818609E-02  0.9947801E-01
       -2   -1    0    0    0  501  0.00000000000E+00  0.00000000000E+00  0.77580189651E+03  0.77580189652E+03  0.25500000920E-02 0.  1.
        2   -1    0    0  501    0  0.00000000000E+00  0.00000000000E+00 -0.10840229181E+03  0.10840229184E+03  0.25500000920E-02 0. -1.
    10030    2    1    2    0    0  0.00000000000E+00  0.00000000000E+00  0.66739960470E+03  0.88420418835E+03  0.57999552959E+03 0.  0.
        3    1    3    3  502    0  0.18559972123E+02  0.32558628884E+02 -0.10469493535E+03  0.11120061407E+03  0.10100000352E+00 0. -1.
       -3    1    3    3    0  502 -0.18559972123E+02 -0.32558628884E+02  0.77209454005E+03  0.77300357429E+03  0.10100000352E+00 0.  1.
</event>
<event>
 5   0  0.1532571E-01  0.5961021E+03  0.7818609E-02  0.9913526E-01
       -2   -1    0    0    0  501  0.00000000000E+00  0.00000000000E+00  0.98223793198E+02  0.98223793231E+02  0.25500000920E-02 0. -1.
        2   -1    0    0  501    0  0.00000000000E+00  0.00000000000E+00 -0.90440859037E+03  0.90440859038E+03  0.25500000920E-02 0.  1.
    10030    2    1    2    0    0  0.00000000000E+00  0.00000000000E+00 -0.80618479718E+03  0.10026323836E+04  0.59610214684E+03 0.  0.
        1    1    3    3  502    0 -0.29026540606E+02 -0.29409663233E+03 -0.33796969058E+03  0.44895309442E+03  0.50400001928E-02 0. -1.
       -1    1    3    3    0  502  0.29026540606E+02  0.29409663233E+03 -0.46821510660E+03  0.55367928919E+03  0.50400001928E-02 0.  1.
</event>
<event>
 5   0  0.9420349E-02  0.6035931E+03  0.7818609E-02  0.9897979E-01
       -1   -1    0    0    0  501  0.00000000000E+00  0.00000000000E+00  0.90122915603E+02  0.90122915744E+02  0.50400001928E-02 0. -1.
        1   -1    0    0  501    0  0.00000000000E+00  0.00000000000E+00 -0.10106327196E+04  0.10106327196E+04  0.50400001928E-02 0.  1.
    10030    2    1    2    0    0  0.00000000000E+00  0.00000000000E+00 -0.92050980395E+03  0.11007556353E+04  0.60359313242E+03 0.  0.
        2    1    3    3  502    0  0.13702448426E+03 -0.20742169300E+03 -0.14819011487E+03  0.28941281617E+03  0.25500000920E-02 0. -1.
       -2    1    3    3    0  502 -0.13702448426E+03  0.20742169300E+03 -0.77231968909E+03  0.81134281914E+03  0.25500000920E-02 0.  1.
</event>
<event>
 5   0  0.8860626E-02  0.6108532E+03  0.7818609E-02  0.9883141E-01
        1   -1    0    0  501    0  0.00000000000E+00  0.00000000000E+00  0.11966611795E+04  0.11966611795E+04  0.50400001928E-02 0.  1.
       -1   -1    0    0    0  501  0.00000000000E+00  0.00000000000E+00 -0.77954746691E+02  0.77954746854E+02  0.50400001928E-02 0. -1.
    10030    2    1    2    0    0  0.00000000000E+00  0.00000000000E+00  0.11187064328E+04  0.12746159264E+04  0.61085323683E+03 0.  0.
        3    1    3    3  502    0  0.44913813657E+02 -0.18060555081E+02 -0.69898851395E+02  0.85025254686E+02  0.10100000352E+00 0. -1.
       -3    1    3    3    0  502 -0.44913813657E+02  0.18060555081E+02  0.11886052842E+04  0.11895906717E+04  0.10100000352E+00 0.  1.
</event>
<event>
 5   0  0.9411028E-02  0.3914443E+03  0.7818609E-02  0.1046783E+00
       -1   -1    0    0    0  501  0.00000000000E+00  0.00000000000E+00  0.36816934332E+02  0.36816934677E+02  0.50400001928E-02 0. -1.
        1   -1    0    0  501    0  0.00000000000E+00  0.00000000000E+00 -0.10404768947E+04  0.10404768947E+04  0.50400001928E-02 0.  1.
    10030    2    1    2    0    0  0.00000000000E+00  0.00000000000E+00 -0.10036599604E+04  0.10772938294E+04  0.39144434955E+03 0.  0.
        4    1    3    3  502    0  0.18374773287E+03 -0.34357184401E+01 -0.68707149683E+03  0.71122702996E+03  0.12699999809E+01 0. -1.
       -4    1    3    3    0  502 -0.18374773287E+03  0.34357184401E+01 -0.31658846355E+03  0.36606679944E+03  0.12699999809E+01 0.  1.
</event>
<event>
 5   0  0.1488510E-01  0.5915482E+03  0.7818609E-02  0.9923098E-01
        2   -1    0    0  501    0  0.00000000000E+00  0.00000000000E+00  0.18057839851E+04  0.18057839851E+04  0.25500000920E-02 0.  1.
       -2   -1    0    0    0  501  0.00000000000E+00  0.00000000000E+00 -0.48445622353E+02  0.48445622420E+02  0.25500000920E-02 0. -1.
    10030    2    1    2    0    0  0.00000000000E+00  0.00000000000E+00  0.17573383628E+04  0.18542296075E+04  0.59154823661E+03 0.  0.
        5    1    3    3  502    0  0.59234843356E+02 -0.27709384316E+03  0.61324083929E+03  0.67555620162E+03  0.46999998093E+01 0. -1.
       -5    1    3    3    0  502 -0.59234843356E+02  0.27709384316E+03  0.11440975235E+04  0.11786734059E+04  0.46999998093E+01 0.  1.
</event>
<event>
 5   0  0.1513339E-01  0.6057872E+03  0.7818609E-02  0.9893472E-01
       -2   -1    0    0    0  501  0.00000000000E+00  0.00000000000E+00  0.82071282803E+02  0.82071282842E+02  0.25500000920E-02 0. -1.
        2   -1    0    0  501    0  0.00000000000E+00  0.00000000000E+00 -0.11178638608E+04  0.11178638608E+04  0.25500000920E-02 0.  1.
    10030    2    1    2    0    0  0.00000000000E+00  0.00000000000E+00 -0.10357925780E+04  0.11999351437E+04  0.60578716092E+03 0.  0.
        3    1    3    3  502    0 -0.81117503097E+02  0.18100455560E+03 -0.97132692789E+03  0.99137213472E+03  0.10100000352E+00 0.  1.
       -3    1    3    3    0  502  0.81117503097E+02 -0.18100455560E+03 -0.64465650147E+02  0.20856300896E+03  0.10100000352E+00 0. -1.
</event>
<event>
 5   0  0.1483942E-01  0.5966051E+03  0.7818609E-02  0.9912475E-01
       -2   -1    0    0    0  501  0.00000000000E+00  0.00000000000E+00  0.33720720010E+03  0.33720720011E+03  0.25500000920E-02 0.  1.
        2   -1    0    0  501    0  0.00000000000E+00  0.00000000000E+00 -0.26388640844E+03  0.26388640845E+03  0.25500000920E-02 0. -1.
    10030    2    1    2    0    0  0.00000000000E+00  0.00000000000E+00  0.73320791666E+02  0.60109360856E+03  0.59660505174E+03 0.  0.
        4    1    3    3  502    0  0.20574597027E+02  0.28957075543E+03 -0.32472512979E+02  0.29211404184E+03  0.12699999809E+01 0. -1.
       -4    1    3    3    0  502 -0.20574597027E+02 -0.28957075543E+03  0.10579330465E+03  0.30897956672E+03  0.12699999809E+01 0.  1.
</event>
<event>
 5   0  0.1513339E-01  0.6662274E+03  0.7818609E-02  0.9776797E-01
        2   -1    0    0  501    0  0.00000000000E+00  0.00000000000E+00  0.18122544365E+04  0.18122544365E+04  0.25500000920E-02 0. -1.
       -2   -1    0    0    0  501  0.00000000000E+00  0.00000000000E+00 -0.61230217943E+02  0.61230217996E+02  0.25500000920E-02 0.  1.
    10030    2    1    2    0    0  0.00000000000E+00  0.00000000000E+00  0.17510242185E+04  0.18734846545E+04  0.66622739110E+03 0.  0.
        3    1    3    3  502    0  0.80212701860E+02  0.10894872899E+03  0.17315159782E+04  0.17367934524E+04  0.10100000352E+00 0. -1.
       -3    1    3    3    0  502 -0.80212701860E+02 -0.10894872899E+03  0.19508240272E+02  0.13669120208E+03  0.10100000352E+00 0.  1.
</event>
<event>
 5   0  0.9497860E-02  0.6539605E+03  0.7818609E-02  0.9799376E-01
        1   -1    0    0  501    0  0.00000000000E+00  0.00000000000E+00  0.45826235309E+03  0.45826235312E+03  0.50400001928E-02 0. -1.
       -1   -1    0    0    0  501  0.00000000000E+00  0.00000000000E+00 -0.23330757129E+03  0.23330757134E+03  0.50400001928E-02 0.  1.
    10030    2    1    2    0    0  0.00000000000E+00  0.00000000000E+00  0.22495478180E+03  0.69156992446E+03  0.65396047783E+03 0.  0.
        5    1    3    3  502    0  0.19576894176E+03  0.23755272277E+03  0.22898225679E+03  0.38368181945E+03  0.46999998093E+01 0. -1.
       -5    1    3    3    0  502 -0.19576894176E+03 -0.23755272277E+03 -0.40274749893E+01  0.30788810501E+03  0.46999998093E+01 0.  1.
</event>
<event>
 5   0  0.9411028E-02  0.6356089E+03  0.7818609E-02  0.9834164E-01
       -1   -1    0    0    0  501  0.00000000000E+00  0.00000000000E+00  0.12120744675E+03  0.12120744685E+03  0.50400001928E-02 0.  1.
        1   -1    0    0  501    0  0.00000000000E+00  0.00000000000E+00 -0.83327937085E+03  0.83327937087E+03  0.50400001928E-02 0. -1.
    10030    2    1    2    0    0  0.00000000000E+00  0.00000000000E+00 -0.71207192411E+03  0.95448681772E+03  0.63560888925E+03 0.  0.
        4    1    3    3  502    0  0.26984712082E+03 -0.11780619172E+03 -0.17644574231E+03  0.34326444661E+03  0.12699999809E+01 0.  1.
       -4    1    3    3    0  502 -0.26984712082E+03  0.11780619172E+03 -0.53562618179E+03  0.61122237111E+03  0.12699999809E+01 0. -1.
</event>
<event>
 5   0  0.9497860E-02  0.6032584E+03  0.7818609E-02  0.9898669E-01
       -1   -1    0    0    0  501  0.00000000000E+00  0.00000000000E+00  0.74764668525E+02  0.74764668695E+02  0.50400001928E-02 0.  1.
        1   -1    0    0  501    0  0.00000000000E+00  0.00000000000E+00 -0.12168874641E+04  0.12168874642E+04  0.50400001928E-02 0. -1.
    10030    2    1    2    0    0  0.00000000000E+00  0.00000000000E+00 -0.11421227956E+04  0.12916521329E+04  0.60325844546E+03 0.  0.
        5    1    3    3  502    0  0.13323189233E+03 -0.92069580820E+02 -0.11158108648E+04  0.11275120934E+04  0.46999998093E+01 0. -1.
       -5    1    3    3    0  502 -0.13323189233E+03  0.92069580820E+02 -0.26311930859E+02  0.16414003945E+03  0.46999998093E+01 0.  1.
</event>
<event>
 5   0  0.9411028E-02  0.3374555E+03  0.7818609E-02  0.1067885E+00
        1   -1    0    0  501    0  0.00000000000E+00  0.00000000000E+00  0.31269979197E+03  0.31269979201E+03  0.50400001928E-02 0.  1.
       -1   -1    0    0    0  501  0.00000000000E+00  0.00000000000E+00 -0.91042782290E+02  0.91042782430E+02  0.50400001928E-02 0. -1.
    10030    2    1    2    0    0  0.00000000000E+00  0.00000000000E+00  0.22165700967E+03  0.40374257444E+03  0.33745553259E+03 0.  0.
        4    1    3    3  502    0 -0.17897219234E+02  0.10190656094E+03 -0.48625794559E+02  0.11432995415E+03  0.12699999809E+01 0. -1.
       -4    1    3    3    0  502  0.17897219234E+02 -0.10190656094E+03  0.27028280423E+03  0.28941262029E+03  0.12699999809E+01 0.  1.
</event>
<event>
 5   0  0.1513339E-01  0.6292208E+03  0.7818609E-02  0.9846570E-01
        2   -1    0    0  501    0  0.00000000000E+00  0.00000000000E+00  0.65908975322E+03  0.65908975323E+03  0.25500000920E-02 0.  1.
       -2   -1    0    0    0  501  0.00000000000E+00  0.00000000000E+00 -0.15017638534E+03  0.15017638536E+03  0.25500000920E-02 0. -1.
    10030    2    1    2    0    0  0.00000000000E+00  0.00000000000E+00  0.50891336788E+03  0.80926613859E+03  0.62922084125E+03 0.  0.
        3    1    3    3  502    0 -0.74663863592E+02 -0.17705933152E+03  0.57484501118E+03  0.60611178547E+03  0.10100000352E+00 0.  1.
       -3    1    3    3    0  502  0.74663863592E+02  0.17705933152E+03 -0.65931643296E+02  0.20315435313E+03  0.10100000352E+00 0. -1.
</event>
<event>
 5   0  0.9177281E-02  0.6074734E+03  0.7818609E-02  0.9890021E-01
        1   -1    0    0  501    0  0.00000000000E+00  0.00000000000E+00  0.65362858359E+03  0.65362858361E+03  0.50400001928E-02 0. -1.
       -1   -1    0    0    0  501  0.00000000000E+00  0.00000000000E+00 -0.14114434842E+03  0.14114434851E+03  0.50400001928E-02 0.  1.
    10030    2    1    2    0    0  0.00000000000E+00  0.00000000000E+00  0.51248423516E+03  0.79477293212E+03  0.60747339229E+03 0.  0.
        1    1    3    3  502    0  0.42980902482E+02  0.44357430826E+02  0.64532554252E+03  0.64827462969E+03  0.50400001928E-02 0. -1.
       -1    1    3    3    0  502 -0.42980902482E+02 -0.44357430826E+02 -0.13284130736E+03  0.14649830243E+03  0.50400001928E-02 0.  1.
</event>
<event>
 5   0  0.1488510E-01  0.5717602E+03  0.7818609E-02  0.9965791E-01
       -2   -1    0    0    0  501  0.00000000000E+00  0.00000000000E+00  0.53524132705E+02  0.53524132765E+02  0.25500000920E-02 0.  1.
        2   -1    0    0  501    0  0.00000000000E+00  0.00000000000E+00 -0.15269268749E+04  0.15269268749E+04  0.25500000920E-02 0. -1.
    10030    2    1    2    0    0  0.00000000000E+00  0.00000000000E+00 -0.14734027422E+04  0.15804510077E+04  0.57176021803E+03 0.  0.
        5    1    3    3  502    0  0.12839323666E+03  0.14304014455E+03 -0.15189467228E+03  0.24502936077E+03  0.46999998093E+01 0.  1.
       -5    1    3    3    0  502 -0.12839323666E+03 -0.14304014455E+03 -0.13215080699E+04  0.13354216469E+04  0.46999998093E+01 0. -1.
</event>
<event>
 5   0  0.1513339E-01  0.6046372E+03  0.7818609E-02  0.9895832E-01
        2   -1    0    0  501    0  0.00000000000E+00  0.00000000000E+00  0.22743949241E+03  0.22743949243E+03  0.25500000920E-02 0. -1.
       -2   -1    0    0    0  501  0.00000000000E+00  0.00000000000E+00 -0.40184994503E+03  0.40184994503E+03  0.25500000920E-02 0.  1.
    10030    2    1    2    0    0  0.00000000000E+00  0.00000000000E+00 -0.17441045261E+03  0.62928943746E+03  0.60463723845E+03 0.  0.
        3    1    3    3  502    0  0.22842254836E+03 -0.13452420613E+03  0.64057691583E+02  0.27272150756E+03  0.10100000352E+00 0. -1.
       -3    1    3    3    0  502 -0.22842254836E+03  0.13452420613E+03 -0.23846814420E+03  0.35656792990E+03  0.10100000352E+00 0.  1.
</event>
<event>
 5   0  0.8860626E-02  0.5849599E+03  0.7818609E-02  0.9937110E-01
       -1   -1    0    0    0  501  0.00000000000E+00  0.00000000000E+00  0.51827059256E+02  0.51827059501E+02  0.50400001928E-02 0.  1.
        1   -1    0    0  501    0  0.00000000000E+00  0.00000000000E+00 -0.16505761944E+04  0.16505761944E+04  0.50400001928E-02 0. -1.
    10030    2    1    2    0    0  0.00000000000E+00  0.00000000000E+00 -0.15987491351E+04  0.17024032539E+04  0.58495986340E+03 0.  0.
        3    1    3    3  502    0  0.16550403388E+03  0.22183278422E+03 -0.10745953120E+04  0.11096650234E+04  0.10100000352E+00 0. -1.
       -3    1    3    3    0  502 -0.16550403388E+03 -0.22183278422E+03 -0.52415382309E+03  0.59273823046E+03  0.10100000352E+00 0.  1.
</event>
<event>
 5   0  0.1483942E-01  0.6034395E+03  0.7818609E-02  0.9898296E-01
       -2   -1    0    0    0  501  0.00000000000E+00  0.00000000000E+00  0.92786361254E+02  0.92786361289E+02  0.25500000920E-02 0.  1.
        2   -1    0    0  501    0  0.00000000000E+00  0.00000000000E+00 -0.98112265773E+03  0.98112265773E+03  0.25500000920E-02 0. -1.
    10030    2    1    2    0    0  0.00000000000E+00  0.00000000000E+00 -0.88833629648E+03  0.10739090190E+04  0.60343947957E+03 0.  0.
        4    1    3    3  502    0 -0.28212530142E+03 -0.36124547952E+02 -0.62331695917E+03  0.68514619838E+03  0.12699999809E+01 0. -1.
       -4    1    3    3    0  502  0.28212530142E+03  0.36124547952E+02 -0.26501933731E+03  0.38876282065E+03  0.12699999809E+01 0.  1.
</event>
<event>
 5   0  0.1488510E-01  0.5119835E+03  0.7818609E-02  0.1010698E+00
       -2   -1    0    0    0  501  0.00000000000E+00  0.00000000000E+00  0.64333113708E+03  0.64333113708E+03  0.25500000920E-02 0. -1.
        2   -1    0    0  501    0  0.00000000000E+00  0.00000000000E+00 -0.10186321582E+03  0.10186321586E+03  0.25500000920E-02 0.  1.
    10030    2    1    2    0    0  0.00000000000E+00  0.00000000000E+00  0.54146792125E+03  0.74519435294E+03  0.51198350941E+03 0.  0.
        5    1    3    3  502    0  0.33043376557E+01 -0.10663760525E+03 -0.67892839601E+02  0.12654653361E+03  0.46999998093E+01 0.  1.
       -5    1    3    3    0  502 -0.33043376557E+01  0.10663760525E+03  0.60936076085E+03  0.61864781933E+03  0.46999998093E+01 0. -1.
</event>
<event>
 5   0  0.9420349E-02  0.6016689E+03  0.7818609E-02  0.9901950E-01
       -1   -1    0    0    0  501  0.00000000000E+00  0.00000000000E+00  0.44069699869E+03  0.44069699872E+03  0.50400001928E-02 0.  1.
        1   -1    0    0  501    0  0.00000000000E+00  0.00000000000E+00 -0.20535960402E+03  0.20535960408E+03  0.50400001928E-02 0. -1.
    10030    2    1    2    0    0  0.00000000000E+00  0.00000000000E+00  0.23533739467E+03  0.64605660280E+03  0.60166888293E+03 0.  0.
        2    1    3    3  502    0 -0.18137516864E+03 -0.58951180871E+02  0.36748955359E+03  0.41402990898E+03  0.25500000920E-02 0.  1.
       -2    1    3    3    0  502  0.18137516864E+03  0.58951180871E+02 -0.13215215892E+03  0.23202669381E+03  0.25500000920E-02 0. -1.
</event>
<event>
 5   0  0.9411028E-02  0.5836891E+03  0.7818609E-02  0.9939836E-01
        1   -1    0    0  501    0  0.00000000000E+00  0.00000000000E+00  0.19147216818E+03  0.19147216825E+03  0.50400001928E-02 0.  1.
       -1   -1    0    0    0  501  0.00000000000E+00  0.00000000000E+00 -0.44483353139E+03  0.44483353142E+03  0.50400001928E-02 0. -1.
    10030    2    1    2    0    0  0.00000000000E+00  0.00000000000E+00 -0.25336136321E+03  0.63630569967E+03  0.58368909795E+03 0.  0.
        4    1    3    3  502    0  0.18635202383E+03 -0.22402131074E+03 -0.14422501923E+03  0.32513857588E+03  0.12699999809E+01 0.  1.
       -4    1    3    3    0  502 -0.18635202383E+03  0.22402131074E+03 -0.10913634398E+03  0.31116712379E+03  0.12699999809E+01 0. -1.
</event>
<event>
 5   0  0.9177281E-02  0.6144548E+03  0.7818609E-02  0.9875863E-01
        1   -1    0    0  501    0  0.00000000000E+00  0.00000000000E+00  0.29963079519E+03  0.29963079523E+03  0.50400001928E-02 0.  1.
       -1   -1    0    0    0  501  0.00000000000E+00  0.00000000000E+00 -0.31501659878E+03  0.31501659882E+03  0.50400001928E-02 0. -1.
    10030    2    1    2    0    0  0.00000000000E+00  0.00000000000E+00 -0.15385803593E+02  0.61464739405E+03  0.61445479579E+03 0.  0.
        1    1    3    3  502    0 -0.26580863062E+03  0.14273173786E+03 -0.65694668033E+02  0.30877559252E+03  0.50400001928E-02 0. -1.
       -1    1    3    3    0  502  0.26580863062E+03 -0.14273173786E+03  0.50308864439E+02  0.30587180153E+03  0.50400001928E-02 0.  1.
</event>
<event>
 5   0  0.9497860E-02  0.5748225E+03  0.7818609E-02  0.9959064E-01
        1   -1    0    0  501    0  0.00000000000E+00  0.00000000000E+00  0.20349515127E+03  0.20349515134E+03  0.50400001928E-02 0. -1.
       -1   -1    0    0    0  501  0.00000000000E+00  0.00000000000E+00 -0.40593218481E+03  0.40593218484E+03  0.50400001928E-02 0.  1.
    10030    2    1    2    0    0  0.00000000000E+00  0.00000000000E+00 -0.20243703354E+03  0.60942733618E+03  0.57482251655E+03 0.  0.
        5    1    3    3  502    0 -0.79315260918E+01 -0.28413250738E+03 -0.56376274086E+02  0.28981815874E+03  0.46999998093E+01 0. -1.
       -5    1    3    3    0  502  0.79315260918E+01  0.28413250738E+03 -0.14606075945E+03  0.31960917744E+03  0.46999998093E+01 0.  1.
</event>
<event>
 5   0  0.1532571E-01  0.6103876E+03  0.7818609E-02  0.9884086E-01
        2   -1    0    0  501    0  0.00000000000E+00  0.00000000000E+00  0.38868530191E+03  0.38868530192E+03  0.25500000920E-02 0.  1.
       -2   -1    0    0    0  501  0.00000000000E+00  0.00000000000E+00 -0.23963665442E+03  0.23963665444E+03  0.25500000920E-02 0. -1.
    10030    2    1    2    0    0  0.00000000000E+00  0.00000000000E+00  0.14904864748E+03  0.62832195635E+03  0.61038756665E+03 0.  0.
        1    1    3    3  502    0 -0.51011664811E+02  0.98005810519E+02 -0.21832700712E+03  0.24469166497E+03  0.50400001928E-02 0. -1.
       -1    1    3    3    0  502  0.51011664811E+02 -0.98005810519E+02  0.36737565461E+03  0.38363029138E+03  0.50400001928E-02 0.  1.
</event>
<event>
 5   0  0.9411028E-02  0.6106680E+03  0.7818609E-02  0.9883517E-01
        1   -1    0    0  501    0  0.00000000000E+00  0.00000000000E+00  0.60446874895E+03  0.60446874897E+03  0.50400001928E-02 0.  1.
       -1   -1    0    0    0  501  0.00000000000E+00  0.00000000000E+00 -0.15423272342E+03  0.15423272350E+03  0.50400001928E-02 0. -1.
    10030    2    1    2    0    0  0.00000000000E+00  0.00000000000E+00  0.45023602553E+03  0.75870147247E+03  0.61066803228E+03 0.  0.
        4    1    3    3  502    0  0.28587222085E+02 -0.17522845091E+03  0.53373935232E+03  0.56249582078E+03  0.12699999809E+01 0.  1.
       -4    1    3    3    0  502 -0.28587222085E+02  0.17522845091E+03 -0.83503326788E+02  0.19620565170E+03  0.12699999809E+01 0. -1.
</event>
<event>
 5   0  0.1532571E-01  0.5776879E+03  0.7818609E-02  0.9952809E-01
       -2   -1    0    0    0  501  0.00000000000E+00  0.00000000000E+00  0.35434483642E+03  0.35434483643E+03  0.25500000920E-02 0. -1.
        2   -1    0    0  501    0  0.00000000000E+00  0.00000000000E+00 -0.23545093478E+03  0.23545093479E+03  0.25500000920E-02 0.  1.
    10030    2    1    2    0    0  0.00000000000E+00  0.00000000000E+00  0.11889390165E+03  0.58979577122E+03  0.57768788451E+03 0.  0.
        1    1    3    3  502    0  0.17734646761E+03  0.21219620456E+03  0.14457207996E+03  0.31205782338E+03  0.50400001928E-02 0. -1.
       -1    1    3    3    0  502 -0.17734646761E+03 -0.21219620456E+03 -0.25678178319E+02  0.27773794784E+03  0.50400001928E-02 0.  1.
</event>
<event>
 5   0  0.8860626E-02  0.7161236E+03  0.7818609E-02  0.9690049E-01
       -1   -1    0    0    0  501  0.00000000000E+00  0.00000000000E+00  0.15112696458E+03  0.15112696466E+03  0.50400001928E-02 0. -1.
        1   -1    0    0  501    0  0.00000000000E+00  0.00000000000E+00 -0.84834792163E+03  0.84834792165E+03  0.50400001928E-02 0.  1.
    10030    2    1    2    0    0  0.00000000000E+00  0.00000000000E+00 -0.69722095706E+03  0.99947488631E+03  0.71612358250E+03 0.  0.
        3    1    3    3  502    0 -0.72069487073E+01  0.31533099959E+02  0.14908364919E+03  0.15255235547E+03  0.10100000352E+00 0. -1.
       -3    1    3    3    0  502  0.72069487073E+01 -0.31533099959E+02 -0.84630460624E+03  0.84692253084E+03  0.10100000352E+00 0.  1.
</event>
<event>
 5   0  0.9420349E-02  0.5833726E+03  0.7818609E-02  0.9940516E-01
        1   -1    0    0  501    0  0.00000000000E+00  0.00000000000E+00  0.47009883321E+03  0.47009883323E+03  0.50400001928E-02 0.  1.
       -1   -1    0    0    0  501  0.00000000000E+00  0.00000000000E+00 -0.18098512722E+03  0.18098512729E+03  0.50400001928E-02 0. -1.
    10030    2    1    2    0    0  0.00000000000E+00  0.00000000000E+00  0.28911370599E+03  0.65108396052E+03  0.58337259848E+03 0.  0.
        2    1    3    3  502    0 -0.70715789953E+02  0.11248343671E+03 -0.14525089000E+03  0.19685290837E+03  0.25500000920E-02 0. -1.
       -2    1    3    3    0  502  0.70715789953E+02 -0.11248343671E+03  0.43436459599E+03  0.45423105215E+03  0.25500000920E-02 0.  1.
</event>
<event>
 5   0  0.9497860E-02  0.3845242E+03  0.7818609E-02  0.1049274E+00
        1   -1    0    0  501    0  0.00000000000E+00  0.00000000000E+00  0.44285867580E+03  0.44285867583E+03  0.50400001928E-02 0.  1.
       -1   -1    0    0    0  501  0.00000000000E+00  0.00000000000E+00 -0.83468408368E+02  0.83468408520E+02  0.50400001928E-02 0. -1.
    10030    2    1    2    0    0  0.00000000000E+00  0.00000000000E+00  0.35939026743E+03  0.52632708435E+03  0.38452416750E+03 0.  0.
        5    1    3    3  502    0 -0.15182387537E+03  0.68380434618E+02  0.31109929082E+03  0.35288982943E+03  0.46999998093E+01 0.  1.
       -5    1    3    3    0  502  0.15182387537E+03 -0.68380434618E+02  0.48290976613E+02  0.17343725491E+03  0.46999998093E+01 0. -1.
</event>
<event>
 5   0  0.1488510E-01  0.6100998E+03  0.7818609E-02  0.9884671E-01
        2   -1    0    0  501    0  0.00000000000E+00  0.00000000000E+00  0.14842610910E+04  0.14842610910E+04  0.25500000920E-02 0. -1.
       -2   -1    0    0    0  501  0.00000000000E+00  0.00000000000E+00 -0.62694798285E+02  0.62694798337E+02  0.25500000920E-02 0.  1.
    10030    2    1    2    0    0  0.00000000000E+00  0.00000000000E+00  0.14215662927E+04  0.15469558894E+04  0.61009982706E+03 0.  0.
        5    1    3    3  502    0  0.15746598860E+03 -0.85140723499E+01  0.13727843939E+04  0.13818202159E+04  0.46999998093E+01 0. -1.
       -5    1    3    3    0  502 -0.15746598860E+03  0.85140723499E+01  0.48781898849E+02  0.16513567345E+03  0.46999998093E+01 0.  1.
</event>
<event>
 5   0  0.1488510E-01  0.3581765E+03  0.7818609E-02  0.1059308E+00
        2   -1    0    0  501    0  0.00000000000E+00  0.00000000000E+00  0.10131588809E+04  0.10131588809E+04  0.25500000920E-02 0. -1.
       -2   -1    0    0    0  501  0.00000000000E+00  0.00000000000E+00 -0.31656048215E+02  0.31656048318E+02  0.25500000920E-02 0.  1.
    10030    2    1    2    0    0  0.00000000000E+00  0.00000000000E+00  0.98150283273E+03  0.10448149293E+04  0.35817652877E+03 0.  0.
        5    1    3    3  502    0 -0.76749221396E+02 -0.43208991443E+02  0.94540783496E+03  0.94951330919E+03  0.46999998093E+01 0. -1.
       -5    1    3    3    0  502  0.76749221396E+02  0.43208991443E+02  0.36094997765E+02  0.95301620071E+02  0.46999998093E+01 0.  1.
</event>
<event>
 5   0  0.1488510E-01  0.6738279E+03  0.7818609E-02  0.9763067E-01
        2   -1    0    0  501    0  0.00000000000E+00  0.00000000000E+00  0.24357998591E+03  0.24357998593E+03  0.25500000920E-02 0. -1.
       -2   -1    0    0    0  501  0.00000000000E+00  0.00000000000E+00 -0.46601117229E+03  0.46601117230E+03  0.25500000920E-02 0.  1.
    10030    2    1    2    0    0  0.00000000000E+00  0.00000000000E+00 -0.22243118638E+03  0.70959115822E+03  0.67382785573E+03 0.  0.
        5    1    3    3  502    0 -0.10730899980E+02 -0.33670857109E+03 -0.11011578090E+03  0.35445082770E+03  0.46999998093E+01 0. -1.
       -5    1    3    3    0  502  0.10730899980E+02  0.33670857109E+03 -0.11231540548E+03  0.35514033052E+03  0.46999998093E+01 0.  1.
</event>
<event>
 5   0  0.9411028E-02  0.6137317E+03  0.7818609E-02  0.9877320E-01
       -1   -1    0    0    0  501  0.00000000000E+00  0.00000000000E+00  0.11079956321E+03  0.11079956333E+03  0.50400001928E-02 0. -1.
        1   -1    0    0  501    0  0.00000000000E+00  0.00000000000E+00 -0.84988289416E+03  0.84988289418E+03  0.50400001928E-02 0.  1.
    10030    2    1    2    0    0  0.00000000000E+00  0.00000000000E+00 -0.73908333095E+03  0.96068245750E+03  0.61373171180E+03 0.  0.
        4    1    3    3  502    0 -0.27026385596E+03 -0.26192681441E+02 -0.14577064837E+03  0.30818712372E+03  0.12699999809E+01 0. -1.
       -4    1    3    3    0  502  0.27026385596E+03  0.26192681441E+02 -0.59331268258E+03  0.65249533379E+03  0.12699999809E+01 0.  1.
</event>
<event>
 5   0  0.6170500E-02  0.5976610E+03  0.7818609E-02  0.9910271E-01
       -3   -1    0    0    0  501  0.00000000000E+00  0.00000000000E+00  0.16440951103E+03  0.16440954206E+03  0.10100000352E+00 0.  1.
        3   -1    0    0  501    0  0.00000000000E+00  0.00000000000E+00 -0.54315384854E+03  0.54315385793E+03  0.10100000352E+00 0. -1.
    10030    2    1    2    0    0  0.00000000000E+00  0.00000000000E+00 -0.37874433751E+03  0.70756339999E+03  0.59766101747E+03 0.  0.
        5    1    3    3  502    0  0.19732704727E+03  0.17045078377E+03 -0.36209867404E+03  0.44623869511E+03  0.46999998093E+01 0. -1.
       -5    1    3    3    0  502 -0.19732704727E+03 -0.17045078377E+03 -0.16645663474E+02  0.26132470488E+03  0.46999998093E+01 0.  1.
</event>
<event>
 5   0  0.1502642E-01  0.5957938E+03  0.7818609E-02  0.9914171E-01
       -2   -1    0    0    0  501  0.00000000000E+00  0.00000000000E+00  0.27940971537E+03  0.27940971538E+03  0.25500000920E-02 0.  1.
        2   -1    0    0  501    0  0.00000000000E+00  0.00000000000E+00 -0.31760725961E+03  0.31760725962E+03  0.25500000920E-02 0. -1.
    10030    2    1    2    0    0  0.00000000000E+00  0.00000000000E+00 -0.38197544233E+02  0.59701697500E+03  0.59579376973E+03 0.  0.
        2    1    3    3  502    0 -0.24271624877E+03  0.17075878269E+03  0.68931541386E+01  0.29684550672E+03  0.25500000920E-02 0.  1.
       -2    1    3    3    0  502  0.24271624877E+03 -0.17075878269E+03 -0.45090698372E+02  0.30017146828E+03  0.25500000920E-02 0. -1.
</event>
<event>
 5   0  0.1513339E-01  0.5724904E+03  0.7818609E-02  0.9964183E-01
       -2   -1    0    0    0  501  0.00000000000E+00  0.00000000000E+00  0.10837766022E+03  0.10837766025E+03  0.25500000920E-02 0.  1.
        2   -1    0    0  501    0  0.00000000000E+00  0.00000000000E+00 -0.75602576158E+03  0.75602576159E+03  0.25500000920E-02 0. -1.
    10030    2    1    2    0    0  0.00000000000E+00  0.00000000000E+00 -0.64764810136E+03  0.86440342184E+03  0.57249036017E+03 0.  0.
        3    1    3    3  502    0 -0.21664778540E+03 -0.34595976642E+02 -0.46219312006E+02  0.22420833955E+03  0.10100000352E+00 0.  1.
       -3    1    3    3    0  502  0.21664778540E+03  0.34595976642E+02 -0.60142878935E+03  0.64019508229E+03  0.10100000352E+00 0. -1.
</event>
<event>
 5   0  0.9177281E-02  0.6039211E+03  0.7818609E-02  0.9897304E-01
       -1   -1    0    0    0  501  0.00000000000E+00  0.00000000000E+00  0.85357676729E+03  0.85357676731E+03  0.50400001928E-02 0. -1.
        1   -1    0    0  501    0  0.00000000000E+00  0.00000000000E+00 -0.10682127701E+03  0.10682127713E+03  0.50400001928E-02 0.  1.
    10030    2    1    2    0    0  0.00000000000E+00  0.00000000000E+00  0.74675549028E+03  0.96039804443E+03  0.60392105567E+03 0.  0.
        1    1    3    3  502    0 -0.22012602461E+03  0.27797068046E+02  0.69910006308E+03  0.73346372911E+03  0.50400001928E-02 0. -1.
       -1    1    3    3    0  502  0.22012602461E+03 -0.27797068046E+02  0.47655427208E+02  0.22693431532E+03  0.50400001928E-02 0.  1.
</event>
<event>
 5   0  0.1513339E-01  0.5973914E+03  0.7818609E-02  0.9910833E-01
        2   -1    0    0  501    0  0.00000000000E+00  0.00000000000E+00  0.34042411105E+03  0.34042411106E+03  0.25500000920E-02 0. -1.
       -2   -1    0    0    0  501  0.00000000000E+00  0.00000000000E+00 -0.26208225233E+03  0.26208225234E+03  0.25500000920E-02 0.  1.
    10030    2    1    2    0    0  0.00000000000E+00  0.00000000000E+00  0.78341858723E+02  0.60250636341E+03  0.59739138855E+03 0.  0.
        3    1    3    3  502    0 -0.23326701858E+03 -0.24103188015E+02  0.22575395736E+03  0.32551393994E+03  0.10100000352E+00 0. -1.
       -3    1    3    3    0  502  0.23326701858E+03  0.24103188015E+02 -0.14741209864E+03  0.27699242347E+03  0.10100000352E+00 0.  1.
</event>
<event>
 5   0  0.9411028E-02  0.5958572E+03  0.7818609E-02  0.9914039E-01
        1   -1    0    0  501    0  0.00000000000E+00  0.00000000000E+00  0.58389280357E+03  0.58389280359E+03  0.50400001928E-02 0.  1.
       -1   -1    0    0    0  501  0.00000000000E+00  0.00000000000E+00 -0.15201667513E+03  0.15201667521E+03  0.50400001928E-02 0. -1.
    10030    2    1    2    0    0  0.00000000000E+00  0.00000000000E+00  0.43187612844E+03  0.73590947881E+03  0.59585717305E+03 0.  0.
        4    1    3    3  502    0 -0.42572421474E+02  0.29227032845E+03  0.26417554319E+03  0.39626340543E+03  0.12699999809E+01 0. -1.
       -4    1    3    3    0  502  0.42572421474E+02 -0.29227032845E+03  0.16770058525E+03  0.33964607337E+03  0.12699999809E+01 0.  1.
</event>
<event>
 5   0  0.1488510E-01  0.6083642E+03  0.7818609E-02  0.9888203E-01
        2   -1    0    0  501    0  0.00000000000E+00  0.00000000000E+00  0.66044862515E+03  0.66044862516E+03  0.25500000920E-02 0. -1.
       -2   -1    0    0    0  501  0.00000000000E+00  0.00000000000E+00 -0.14009680604E+03  0.14009680607E+03  0.25500000920E-02 0.  1.
    10030    2    1    2    0    0  0.00000000000E+00  0.00000000000E+00  0.52035181911E+03  0.80054543123E+03  0.60836417696E+03 0.  0.
        5    1    3    3  502    0  0.87961452353E+02 -0.25907702964E+03  0.43498016143E+03  0.51389488732E+03  0.46999998093E+01 0. -1.
       -5    1    3    3    0  502 -0.87961452353E+02  0.25907702964E+03  0.85371657681E+02  0.28665054390E+03  0.46999998093E+01 0.  1.
</event>
<event>
 5   0  0.8860626E-02  0.5637580E+03  0.7818609E-02  0.9983587E-01
       -1   -1    0    0    0  501  0.00000000000E+00  0.00000000000E+00  0.36025884546E+02  0.36025884899E+02  0.50400001928E-02 0.  1.
        1   -1    0    0  501    0  0.00000000000E+00  0.00000000000E+00 -0.22055185460E+04  0.22055185460E+04  0.50400001928E-02 0. -1.
    10030    2    1    2    0    0  0.00000000000E+00  0.00000000000E+00 -0.21694926614E+04  0.22415444309E+04  0.56375795126E+03 0.  0.
        3    1    3    3  502    0  0.19845082593E+03 -0.12429145988E+03 -0.17086818349E+04  0.17246520578E+04  0.10100000352E+00 0. -1.
       -3    1    3    3    0  502 -0.19845082593E+03  0.12429145988E+03 -0.46081082647E+03  0.51689237304E+03  0.10100000352E+00 0.  1.
</event>
<event>
 5   0  0.1502642E-01  0.6049533E+03  0.7818609E-02  0.9895182E-01
       -2   -1    0    0    0  501  0.00000000000E+00  0.00000000000E+00  0.13223418871E+03  0.13223418874E+03  0.25500000920E-02 0. -1.
        2   -1    0    0  501    0  0.00000000000E+00  0.00000000000E+00 -0.69189469291E+03  0.69189469291E+03  0.25500000920E-02 0.  1.
    10030    2    1    2    0    0  0.00000000000E+00  0.00000000000E+00 -0.55966050420E+03  0.82412888165E+03  0.60495333176E+03 0.  0.
        2    1    3    3  502    0 -0.88463286835E+02 -0.21902239588E+03 -0.53721358738E+03  0.58685177131E+03  0.25500000920E-02 0.  1.
       -2    1    3    3    0  502  0.88463286835E+02  0.21902239588E+03 -0.22446916819E+02  0.23727711035E+03  0.25500000920E-02 0. -1.
</event>
<event>
 5   0  0.9497860E-02  0.6025921E+03  0.7818609E-02  0.9900043E-01
        1   -1    0    0  501    0  0.00000000000E+00  0.00000000000E+00  0.11591055819E+04  0.11591055819E+04  0.50400001928E-02 0.  1.
       -1   -1    0    0    0  501  0.00000000000E+00  0.00000000000E+00 -0.78318403308E+02  0.78318403470E+02  0.50400001928E-02 0. -1.
    10030    2    1    2    0    0  0.00000000000E+00  0.00000000000E+00  0.10807871786E+04  0.12374239854E+04  0.60259206283E+03 0.  0.
        5    1    3    3  502    0 -0.22249307843E+03 -0.17865635542E+03  0.34197869437E+03  0.44541304503E+03  0.46999998093E+01 0. -1.
       -5    1    3    3    0  502  0.22249307843E+03  0.17865635542E+03  0.73880848421E+03  0.79201094034E+03  0.46999998093E+01 0.  1.
</event>
<event>
 5   0  0.9420349E-02  0.6047767E+03  0.7818609E-02  0.9895545E-01
        1   -1    0    0  501    0  0.00000000000E+00  0.00000000000E+00  0.30943966679E+03  0.30943966683E+03  0.50400001928E-02 0. -1.
       -1   -1    0    0    0  501  0.00000000000E+00  0.00000000000E+00 -0.29549767197E+03  0.29549767201E+03  0.50400001928E-02 0.  1.
    10030    2    1    2    0    0  0.00000000000E+00  0.00000000000E+00  0.13941994823E+02  0.60493733885E+03  0.60477665688E+03 0.  0.
        2    1    3    3  502    0 -0.20117910970E+03 -0.21021803044E+02 -0.21786361175E+03  0.29728690471E+03  0.25500000920E-02 0.  1.
       -2    1    3    3    0  502  0.20117910970E+03  0.21021803044E+02  0.23180560657E+03  0.30765043414E+03  0.25500000920E-02 0. -1.
</event>
<event>
 5   0  0.9497860E-02  0.5907115E+03  0.7818609E-02  0.9924866E-01
       -1   -1    0    0    0  501  0.00000000000E+00  0.00000000000E+00  0.51155168141E+02  0.51155168389E+02  0.50400001928E-02 0.  1.
        1   -1    0    0  501    0  0.00000000000E+00  0.00000000000E+00 -0.17053020600E+04  0.17053020600E+04  0.50400001928E-02 0. -1.
    10030    2    1    2    0    0  0.00000000000E+00  0.00000000000E+00 -0.16541468918E+04  0.17564572284E+04  0.59071148231E+03 0.  0.
        5    1    3    3  502    0  0.26644412951E+03 -0.47349485826E+02 -0.47551941935E+03  0.54715194977E+03  0.46999998093E+01 0.  1.
       -5    1    3    3    0  502 -0.26644412951E+03  0.47349485826E+02 -0.11786274725E+04  0.12093052786E+04  0.46999998093E+01 0. -1.
</event>
<event>
 5   0  0.1513339E-01  0.8031515E+03  0.7818609E-02  0.9555467E-01
        2   -1    0    0  501    0  0.00000000000E+00  0.00000000000E+00  0.11294232675E+04  0.11294232675E+04  0.25500000920E-02 0.  1.
       -2   -1    0    0    0  501  0.00000000000E+00  0.00000000000E+00 -0.14278355402E+03  0.14278355404E+03  0.25500000920E-02 0. -1.
    10030    2    1    2    0    0  0.00000000000E+00  0.00000000000E+00  0.98663971348E+03  0.12722068215E+04  0.80315146303E+03 0.  0.
        3    1    3    3  502    0 -0.30009220872E+03 -0.75297587083E+02  0.87804926078E+02  0.32161277275E+03  0.10100000352E+00 0. -1.
       -3    1    3    3    0  502  0.30009220872E+03  0.75297587083E+02  0.89883478740E+03  0.95059404879E+03  0.10100000352E+00 0.  1.
</event>
<event>
 5   0  0.9497860E-02  0.5990008E+03  0.7818609E-02  0.9907481E-01
        1   -1    0    0  501    0  0.00000000000E+00  0.00000000000E+00  0.97539540268E+03  0.97539540270E+03  0.50400001928E-02 0. -1.
       -1   -1    0    0    0  501  0.00000000000E+00  0.00000000000E+00 -0.91963215273E+02  0.91963215411E+02  0.50400001928E-02 0.  1.
    10030    2    1    2    0    0  0.00000000000E+00  0.00000000000E+00  0.88343218741E+03  0.10673586181E+04  0.59900082629E+03 0.  0.
        5    1    3    3  502    0  0.22144576881E+03  0.18851773915E+03  0.31444761307E+03  0.42834163685E+03  0.46999998093E+01 0.  1.
       -5    1    3    3    0  502 -0.22144576881E+03 -0.18851773915E+03  0.56898457434E+03  0.63901698126E+03  0.46999998093E+01 0. -1.
</event>
<event>
 5   0  0.1532571E-01  0.6018298E+03  0.7818609E-02  0.9901617E-01
        2   -1    0    0  501    0  0.00000000000E+00  0.00000000000E+00  0.66767129438E+03  0.66767129439E+03  0.25500000920E-02 0. -1.
       -2   -1    0    0    0  501  0.00000000000E+00  0.00000000000E+00 -0.13562029844E+03  0.13562029847E+03  0.25500000920E-02 0.  1.
    10030    2    1    2    0    0  0.00000000000E+00  0.00000000000E+00  0.53205099594E+03  0.80329159285E+03  0.60182981055E+03 0.  0.
        1    1    3    3  502    0  0.57533263113E+02  0.56268022687E+02 -0.12099091429E+03  0.14530990368E+03  0.50400001928E-02 0.  1.
       -1    1    3    3    0  502 -0.57533263113E+02 -0.56268022687E+02  0.65304191023E+03  0.65798168917E+03  0.50400001928E-02 0. -1.
</event>
<event>
 5   0  0.1488510E-01  0.5984717E+03  0.7818609E-02  0.9908582E-01
        2   -1    0    0  501    0  0.00000000000E+00  0.00000000000E+00  0.65963117636E+03  0.65963117636E+03  0.25500000920E-02 0.  1.
       -2   -1    0    0    0  501  0.00000000000E+00  0.00000000000E+00 -0.13574571002E+03  0.13574571004E+03  0.25500000920E-02 0. -1.
    10030    2    1    2    0    0  0.00000000000E+00  0.00000000000E+00  0.52388546634E+03  0.79537688641E+03  0.59847172831E+03 0.  0.
        5    1    3    3  502    0  0.23125354383E+03  0.23906748607E+02  0.51224317984E+03  0.56255213043E+03  0.46999998093E+01 0.  1.
       -5    1    3    3    0  502 -0.23125354383E+03 -0.23906748607E+02  0.11642286505E+02  0.23282475598E+03  0.46999998093E+01 0. -1.
</event>
<event>
 5   0  0.1488510E-01  0.6306235E+03  0.7818609E-02  0.9843833E-01
        2   -1    0    0  501    0  0.00000000000E+00  0.00000000000E+00  0.59659803918E+03  0.59659803918E+03  0.25500000920E-02 0.  1.
       -2   -1    0    0    0  501  0.00000000000E+00  0.00000000000E+00 -0.16664736425E+03  0.16664736427E+03  0.25500000920E-02 0. -1.
    10030    2    1    2    0    0  0.00000000000E+00  0.00000000000E+00  0.42995067493E+03  0.76324540346E+03  0.63062347168E+03 0.  0.
        5    1    3    3  502    0 -0.26341532216E+03 -0.97982430902E+02  0.42062011819E+02  0.28421733154E+03  0.46999998093E+01 0. -1.
       -5    1    3    3    0  502  0.26341532216E+03  0.97982430902E+02  0.38788866311E+03  0.47902807191E+03  0.46999998093E+01 0.  1.
</event>
<event>
 5   0  0.8860626E-02  0.5957996E+03  0.7818609E-02  0.9914159E-01
       -1   -1    0    0    0  501  0.00000000000E+00  0.00000000000E+00  0.54022253332E+03  0.54022253334E+03  0.50400001928E-02 0. -1.
        1   -1    0    0  501    0  0.00000000000E+00  0.00000000000E+00 -0.16427355959E+03  0.16427355967E+03  0.50400001928E-02 0.  1.
    10030    2    1    2    0    0  0.00000000000E+00  0.00000000000E+00  0.37594897373E+03  0.70449609301E+03  0.59579955876E+03 0.  0.
        3    1    3    3  502    0 -0.54376853772E+02  0.12764370771E+02  0.53397554603E+03  0.53688887616E+03  0.10100000352E+00 0. -1.
       -3    1    3    3    0  502  0.54376853772E+02 -0.12764370771E+02 -0.15802657230E+03  0.16760721685E+03  0.10100000352E+00 0.  1.
</event>
<event>
 5   0  0.9497860E-02  0.6251099E+03  0.7818609E-02  0.9854638E-01
       -1   -1    0    0    0  501  0.00000000000E+00  0.00000000000E+00  0.29700672345E+03  0.29700672349E+03  0.50400001928E-02 0.  1.
        1   -1    0    0  501    0  0.00000000000E+00  0.00000000000E+00 -0.32891712080E+03  0.32891712084E+03  0.50400001928E-02 0. -1.
    10030    2    1    2    0    0  0.00000000000E+00  0.00000000000E+00 -0.31910397355E+02  0.62592384434E+03  0.62510989870E+03 0.  0.
        5    1    3    3  502    0  0.25494334893E+02 -0.11535557958E+03  0.27375116406E+03  0.29819232162E+03  0.46999998093E+01 0.  1.
       -5    1    3    3    0  502 -0.25494334893E+02  0.11535557958E+03 -0.30566156142E+03  0.32773152271E+03  0.46999998093E+01 0. -1.
</event>
<event>
 5   0  0.1488510E-01  0.6096227E+03  0.7818609E-02  0.9885641E-01
       -2   -1    0    0    0  501  0.00000000000E+00  0.00000000000E+00  0.19115689119E+03  0.19115689121E+03  0.25500000920E-02 0. -1.
        2   -1    0    0  501    0  0.00000000000E+00  0.00000000000E+00 -0.48604033363E+03  0.48604033363E+03  0.25500000920E-02 0.  1.
    10030    2    1    2    0    0  0.00000000000E+00  0.00000000000E+00 -0.29488344244E+03  0.67719722484E+03  0.60962270029E+03 0.  0.
        5    1    3    3  502    0 -0.24912989808E+03  0.37228306519E+02  0.43146050223E+02  0.25560775530E+03  0.46999998093E+01 0. -1.
       -5    1    3    3    0  502  0.24912989808E+03 -0.37228306519E+02 -0.33802949266E+03  0.42158946954E+03  0.46999998093E+01 0.  1.
</event>
<event>
 5   0  0.9420349E-02  0.6089544E+03  0.7818609E-02  0.9887001E-01
        1   -1    0    0  501    0  0.00000000000E+00  0.00000000000E+00  0.19743396124E+03  0.19743396130E+03  0.50400001928E-02 0.  1.
       -1   -1    0    0    0  501  0.00000000000E+00  0.00000000000E+00 -0.46955638803E+03  0.46955638806E+03  0.50400001928E-02 0. -1.
    10030    2    1    2    0    0  0.00000000000E+00  0.00000000000E+00 -0.27212242679E+03  0.66699034936E+03  0.60895444081E+03 0.  0.
        2    1    3    3  502    0  0.19520934995E+02 -0.45689508749E+02  0.19296382507E+03  0.19925771228E+03  0.25500000920E-02 0.  1.
       -2    1    3    3    0  502 -0.19520934995E+02  0.45689508749E+02 -0.46508625186E+03  0.46773263708E+03  0.25500000920E-02 0. -1.
</event>
<event>
 5   0  0.1532571E-01  0.5784220E+03  0.7818609E-02  0.9951213E-01
        2   -1    0    0  501    0  0.00000000000E+00  0.00000000000E+00  0.10880996830E+03  0.10880996833E+03  0.25500000920E-02 0. -1.
       -2   -1    0    0    0  501  0.00000000000E+00  0.00000000000E+00 -0.76870727602E+03  0.76870727602E+03  0.25500000920E-02 0.  1.
    10030    2    1    2    0    0  0.00000000000E+00  0.00000000000E+00 -0.65989730772E+03  0.87751724435E+03  0.57842204089E+03 0.  0.
        1    1    3    3  502    0  0.14923634012E+02 -0.11934486574E+03 -0.72896621510E+03  0.73882180166E+03  0.50400001928E-02 0.  1.
       -1    1    3    3    0  502 -0.14923634012E+02  0.11934486574E+03  0.69068907373E+02  0.13869544269E+03  0.50400001928E-02 0. -1.
</event>
<event>
 5   0  0.9497860E-02  0.5670439E+03  0.7818609E-02  0.9976241E-01
       -1   -1    0    0    0  501  0.00000000000E+00  0.00000000000E+00  0.95180760749E+02  0.95180760882E+02  0.50400001928E-02 0. -1.
        1   -1    0    0  501    0  0.00000000000E+00  0.00000000000E+00 -0.84454784486E+03  0.84454784488E+03  0.50400001928E-02 0.  1.
    10030    2    1    2    0    0  0.00000000000E+00  0.00000000000E+00 -0.74936708412E+03  0.93972860576E+03  0.56704393633E+03 0.  0.
        5    1    3    3  502    0  0.43487457525E+02  0.15971994783E+03  0.67016329601E+01  0.16573660604E+03  0.46999998093E+01 0. -1.
       -5    1    3    3    0  502 -0.43487457525E+02 -0.15971994783E+03 -0.75606871708E+03  0.77399199972E+03  0.46999998093E+01 0.  1.
</event>
<event>
 5   0  0.9177281E-02  0.6034547E+03  0.7818609E-02  0.9898265E-01
       -1   -1    0    0    0  501  0.00000000000E+00  0.00000000000E+00  0.86128284354E+02  0.86128284501E+02  0.50400001928E-02 0. -1.
        1   -1    0    0  501    0  0.00000000000E+00  0.00000000000E+00 -0.10570208005E+04  0.10570208005E+04  0.50400001928E-02 0.  1.
    10030    2    1    2    0    0  0.00000000000E+00  0.00000000000E+00 -0.97089251618E+03  0.11431490850E+04  0.60345468154E+03 0.  0.
        1    1    3    3  502    0 -0.88242381203E+02  0.38846836092E+02 -0.10270542640E+04  0.10315698017E+04  0.50400001928E-02 0.  1.
       -1    1    3    3    0  502  0.88242381203E+02 -0.38846836092E+02  0.56161747874E+02  0.11157928331E+03  0.50400001928E-02 0. -1.
</event>
<event>
 5   0  0.9177281E-02  0.6677470E+03  0.7818609E-02  0.9774037E-01
        1   -1    0    0  501    0  0.00000000000E+00  0.00000000000E+00  0.48556827281E+03  0.48556827284E+03  0.50400001928E-02 0.  1.
       -1   -1    0    0    0  501  0.00000000000E+00  0.00000000000E+00 -0.22956917240E+03  0.22956917246E+03  0.50400001928E-02 0. -1.
    10030    2    1    2    0    0  0.00000000000E+00  0.00000000000E+00  0.25599910041E+03  0.71513744530E+03  0.66774697772E+03 0.  0.
        1    1    3    3  502    0 -0.84087933121E+02 -0.13768204510E+03 -0.18505450967E+03  0.24550417026E+03  0.50400001928E-02 0. -1.
       -1    1    3    3    0  502  0.84087933121E+02  0.13768204510E+03  0.44105361008E+03  0.46963327504E+03  0.50400001928E-02 0.  1.
</event>
<event>
 5   0  0.9420349E-02  0.5962587E+03  0.7818609E-02  0.9913199E-01
        1   -1    0    0  501    0  0.00000000000E+00  0.00000000000E+00  0.71530269270E+03  0.71530269272E+03  0.50400001928E-02 0. -1.
       -1   -1    0    0    0  501  0.00000000000E+00  0.00000000000E+00 -0.12425665677E+03  0.12425665687E+03  0.50400001928E-02 0.  1.
    10030    2    1    2    0    0  0.00000000000E+00  0.00000000000E+00  0.59104603593E+03  0.83955934959E+03  0.59625873989E+03 0.  0.
        2    1    3    3  502    0 -0.18522357605E+02  0.14312216134E+03  0.66284232927E+03  0.67837083095E+03  0.25500000920E-02 0. -1.
       -2    1    3    3    0  502  0.18522357605E+02 -0.14312216134E+03 -0.71796293340E+02  0.16118851864E+03  0.25500000920E-02 0.  1.
</event>
<event>
 5   0  0.1483942E-01  0.5914300E+03  0.7818609E-02  0.9923347E-01
        2   -1    0    0  501    0  0.00000000000E+00  0.00000000000E+00  0.57807249238E+03  0.57807249238E+03  0.25500000920E-02 0. -1.
       -2   -1    0    0    0  501  0.00000000000E+00  0.00000000000E+00 -0.15127405469E+03  0.15127405471E+03  0.25500000920E-02 0.  1.
    10030    2    1    2    0    0  0.00000000000E+00  0.00000000000E+00  0.42679843769E+03  0.72934654709E+03  0.59143002912E+03 0.  0.
        4    1    3    3  502    0 -0.82030474397E+02  0.28042119137E+02  0.56204671194E+03  0.56869453882E+03  0.12699999809E+01 0. -1.
       -4    1    3    3    0  502  0.82030474397E+02 -0.28042119137E+02 -0.13524827425E+03  0.16065200828E+03  0.12699999809E+01 0.  1.
</event>
<event>
 5   0  0.1532571E-01  0.5579286E+03  0.7818609E-02  0.9996753E-01
       -2   -1    0    0    0  501  0.00000000000E+00  0.00000000000E+00  0.51020208854E+02  0.51020208918E+02  0.25500000920E-02 0.  1.
        2   -1    0    0  501    0  0.00000000000E+00  0.00000000000E+00 -0.15252990504E+04  0.15252990504E+04  0.25500000920E-02 0. -1.
    10030    2    1    2    0    0  0.00000000000E+00  0.00000000000E+00 -0.14742788416E+04  0.15763192593E+04  0.55792858385E+03 0.  0.
        1    1    3    3  502    0  0.99531925683E+02  0.12694887570E+03 -0.13801586678E+04  0.13895540902E+04  0.50400001928E-02 0. -1.
       -1    1    3    3    0  502 -0.99531925683E+02 -0.12694887570E+03 -0.94120173788E+02  0.18676516916E+03  0.50400001928E-02 0.  1.
</event>
<event>
 5   0  0.9411028E-02  0.5792895E+03  0.7818609E-02  0.9949330E-01
       -1   -1    0    0    0  501  0.00000000000E+00  0.00000000000E+00  0.25059834984E+03  0.25059834989E+03  0.50400001928E-02 0.  1.
        1   -1    0    0  501    0  0.00000000000E+00  0.00000000000E+00 -0.33477504058E+03  0.33477504062E+03  0.50400001928E-02 0. -1.
    10030    2    1    2    0    0  0.00000000000E+00  0.00000000000E+00 -0.84176690736E+02  0.58537339051E+03  0.57928947087E+03 0.  0.
        4    1    3    3  502    0  0.26300479504E+03 -0.12018366163E+03 -0.58901147312E+02  0.29510437610E+03  0.12699999809E+01 0.  1.
       -4    1    3    3    0  502 -0.26300479504E+03  0.12018366163E+03 -0.25275543424E+02  0.29026901442E+03  0.12699999809E+01 0. -1.
</event>
<event>
 5   0  0.1488510E-01  0.6032403E+03  0.7818609E-02  0.9898706E-01
        2   -1    0    0  501    0  0.00000000000E+00  0.00000000000E+00  0.34652959849E+03  0.34652959850E+03  0.25500000920E-02 0. -1.
       -2   -1    0    0    0  501  0.00000000000E+00  0.00000000000E+00 -0.26253088895E+03  0.26253088896E+03  0.25500000920E-02 0.  1.
    10030    2    1    2    0    0  0.00000000000E+00  0.00000000000E+00  0.83998709546E+02  0.60906048746E+03  0.60324032871E+03 0.  0.
        5    1    3    3  502    0  0.13370310096E+03  0.84373054104E+02  0.30129874728E+03  0.34029157582E+03  0.46999998093E+01 0. -1.
       -5    1    3    3    0  502 -0.13370310096E+03 -0.84373054104E+02 -0.21730003774E+03  0.26876891164E+03  0.46999998093E+01 0.  1.
</event>
<event>
 5   0  0.1513339E-01  0.5964553E+03  0.7818609E-02  0.9912788E-01
        2   -1    0    0  501    0  0.00000000000E+00  0.00000000000E+00  0.21164312879E+03  0.21164312881E+03  0.25500000920E-02 0. -1.
       -2   -1    0    0    0  501  0.00000000000E+00  0.00000000000E+00 -0.42023446279E+03  0.42023446280E+03  0.25500000920E-02 0.  1.
    10030    2    1    2    0    0  0.00000000000E+00  0.00000000000E+00 -0.20859133400E+03  0.63187759161E+03  0.59645531782E+03 0.  0.
        3    1    3    3  502    0  0.16264056376E+03 -0.68878642826E+02  0.15027397601E+03  0.23190191566E+03  0.10100000352E+00 0. -1.
       -3    1    3    3    0  502 -0.16264056376E+03  0.68878642826E+02 -0.35886531001E+03  0.39997567595E+03  0.10100000352E+00 0.  1.
</event>
<event>
 5   0  0.1483942E-01  0.6318196E+03  0.7818609E-02  0.9841504E-01
        2   -1    0    0  501    0  0.00000000000E+00  0.00000000000E+00  0.11345052976E+04  0.11345052976E+04  0.25500000920E-02 0.  1.
       -2   -1    0    0    0  501  0.00000000000E+00  0.00000000000E+00 -0.87966979862E+02  0.87966979899E+02  0.25500000920E-02 0. -1.
    10030    2    1    2    0    0  0.00000000000E+00  0.00000000000E+00  0.10465383177E+04  0.12224722775E+04  0.63181960935E+03 0.  0.
        4    1    3    3  502    0  0.10296720878E+03  0.51798042560E+02 -0.45825313084E+02  0.12404376452E+03  0.12699999809E+01 0. -1.
       -4    1    3    3    0  502 -0.10296720878E+03 -0.51798042560E+02  0.10923636308E+04  0.10984285130E+04  0.12699999809E+01 0.  1.
</event>
<event>
 5   0  0.1502642E-01  0.5907108E+03  0.7818609E-02  0.9924868E-01
        2   -1    0    0  501    0  0.00000000000E+00  0.00000000000E+00  0.69425367568E+03  0.69425367569E+03  0.25500000920E-02 0. -1.
       -2   -1    0    0    0  501  0.00000000000E+00  0.00000000000E+00 -0.12565264015E+03  0.12565264017E+03  0.25500000920E-02 0.  1.
    10030    2    1    2    0    0  0.00000000000E+00  0.00000000000E+00  0.56860103553E+03  0.81990631586E+03  0.59071078302E+03 0.  0.
        2    1    3    3  502    0  0.10968439773E+03 -0.12101068108E+03  0.62587408659E+03  0.64683276379E+03  0.25500000920E-02 0. -1.
       -2    1    3    3    0  502 -0.10968439773E+03  0.12101068108E+03 -0.57273051055E+02  0.17307355207E+03  0.25500000920E-02 0.  1.
</event>
<event>
 5   0  0.1502642E-01  0.6264117E+03  0.7818609E-02  0.9852076E-01
        2   -1    0    0  501    0  0.00000000000E+00  0.00000000000E+00  0.11072522075E+04  0.11072522075E+04  0.25500000920E-02 0. -1.
       -2   -1    0    0    0  501  0.00000000000E+00  0.00000000000E+00 -0.88595815724E+02  0.88595815760E+02  0.25500000920E-02 0.  1.
    10030    2    1    2    0    0  0.00000000000E+00  0.00000000000E+00  0.10186563918E+04  0.11958480233E+04  0.62641172582E+03 0.  0.
        2    1    3    3  502    0 -0.13701781466E+03 -0.46686841795E+02  0.10395629978E+04  0.10495926682E+04  0.25500000920E-02 0. -1.
       -2    1    3    3    0  502  0.13701781466E+03  0.46686841795E+02 -0.20906605946E+02  0.14625535514E+03  0.25500000920E-02 0.  1.
</event>
<event>
 5   0  0.1502642E-01  0.6066062E+03  0.7818609E-02  0.9891794E-01
       -2   -1    0    0    0  501  0.00000000000E+00  0.00000000000E+00  0.27497922766E+03  0.27497922767E+03  0.25500000920E-02 0.  1.
        2   -1    0    0  501    0  0.00000000000E+00  0.00000000000E+00 -0.33454443696E+03  0.33454443697E+03  0.25500000920E-02 0. -1.
    10030    2    1    2    0    0  0.00000000000E+00  0.00000000000E+00 -0.59565209305E+02  0.60952366464E+03  0.60660620142E+03 0.  0.
        2    1    3    3  502    0  0.24444217300E+03  0.16406760540E+03 -0.10308974622E+03  0.31192571370E+03  0.25500000920E-02 0. -1.
       -2    1    3    3    0  502 -0.24444217300E+03 -0.16406760540E+03  0.43524536916E+02  0.29759795094E+03  0.25500000920E-02 0.  1.
</event>
<event>
 5   0  0.1513339E-01  0.5715213E+03  0.7818609E-02  0.9966318E-01
        2   -1    0    0  501    0  0.00000000000E+00  0.00000000000E+00  0.10440436861E+03  0.10440436864E+03  0.25500000920E-02 0.  1.
       -2   -1    0    0    0  501  0.00000000000E+00  0.00000000000E+00 -0.78214299757E+03  0.78214299757E+03  0.25500000920E-02 0. -1.
    10030    2    1    2    0    0  0.00000000000E+00  0.00000000000E+00 -0.67773862896E+03  0.88654736622E+03  0.57152128863E+03 0.  0.
        3    1    3    3  502    0 -0.63417801043E+02  0.15277951829E+03 -0.70032278405E+03  0.71959392073E+03  0.10100000352E+00 0. -1.
       -3    1    3    3    0  502  0.63417801043E+02 -0.15277951829E+03  0.22584155087E+02  0.16695344549E+03  0.10100000352E+00 0.  1.
</event>
<event>
 5   0  0.1483942E-01  0.5674185E+03  0.7818609E-02  0.9975407E-01
       -2   -1    0    0    0  501  0.00000000000E+00  0.00000000000E+00  0.79458873832E+02  0.79458873873E+02  0.25500000920E-02 0. -1.
        2   -1    0    0  501    0  0.00000000000E+00  0.00000000000E+00 -0.10129885915E+04  0.10129885916E+04  0.25500000920E-02 0.  1.
    10030    2    1    2    0    0  0.00000000000E+00  0.00000000000E+00 -0.93352971772E+03  0.10924474654E+04  0.56741847948E+03 0.  0.
        4    1    3    3  502    0  0.18997128048E+03  0.44913130550E+02 -0.70401816077E+02  0.20751940948E+03  0.12699999809E+01 0. -1.
       -4    1    3    3    0  502 -0.18997128048E+03 -0.44913130550E+02 -0.86312790164E+03  0.88492805594E+03  0.12699999809E+01 0.  1.
</event>
<event>
 5   0  0.1532571E-01  0.6084532E+03  0.7818609E-02  0.9888022E-01
       -2   -1    0    0    0  501  0.00000000000E+00  0.00000000000E+00  0.13610960179E+03  0.13610960181E+03  0.25500000920E-02 0. -1.
        2   -1    0    0  501    0  0.00000000000E+00  0.00000000000E+00 -0.67999482768E+03  0.67999482769E+03  0.25500000920E-02 0.  1.
    10030    2    1    2    0    0  0.00000000000E+00  0.00000000000E+00 -0.54388522589E+03  0.81610442950E+03  0.60845320355E+03 0.  0.
        1    1    3    3  502    0  0.17642963090E+03 -0.11555855209E+03 -0.56602397518E+03  0.60404001036E+03  0.50400001928E-02 0.  1.
       -1    1    3    3    0  502 -0.17642963090E+03  0.11555855209E+03  0.22138749281E+02  0.21206441914E+03  0.50400001928E-02 0. -1.
</event>
<event>
 5   0  0.9411028E-02  0.4518415E+03  0.7818609E-02  0.1027174E+00
        1   -1    0    0  501    0  0.00000000000E+00  0.00000000000E+00  0.25332139695E+02  0.25332140196E+02  0.50400001928E-02 0.  1.
       -1   -1    0    0    0  501  0.00000000000E+00  0.00000000000E+00 -0.20148388284E+04  0.20148388284E+04  0.50400001928E-02 0. -1.
    10030    2    1    2    0    0  0.00000000000E+00  0.00000000000E+00 -0.19895066887E+04  0.20401709686E+04  0.45184147300E+03 0.  0.
        4    1    3    3  502    0 -0.71109927616E+02 -0.15715433615E+03 -0.16534899255E+04  0.16624634293E+04  0.12699999809E+01 0. -1.
       -4    1    3    3    0  502  0.71109927616E+02  0.15715433615E+03 -0.33601676317E+03  0.37770753926E+03  0.12699999809E+01 0.  1.
</event>
<event>
 5   0  0.8860626E-02  0.6042425E+03  0.7818609E-02  0.9896643E-01
        1   -1    0    0  501    0  0.00000000000E+00  0.00000000000E+00  0.12421817152E+04  0.12421817153E+04  0.50400001928E-02 0. -1.
       -1   -1    0    0    0  501  0.00000000000E+00  0.00000000000E+00 -0.73481397460E+02  0.73481397633E+02  0.50400001928E-02 0.  1.
    10030    2    1    2    0    0  0.00000000000E+00  0.00000000000E+00  0.11687003178E+04  0.13156631129E+04  0.60424249588E+03 0.  0.
        3    1    3    3  502    0  0.10542290762E+03 -0.12930169758E+03  0.11327910222E+04  0.11450102308E+04  0.10100000352E+00 0. -1.
       -3    1    3    3    0  502 -0.10542290762E+03  0.12930169758E+03  0.35909295551E+02  0.17065288206E+03  0.10100000352E+00 0.  1.
</event>
<event>
 5   0  0.9411028E-02  0.6030750E+03  0.7818609E-02  0.9899047E-01
       -1   -1    0    0    0  501  0.00000000000E+00  0.00000000000E+00  0.26918837360E+03  0.26918837364E+03  0.50400001928E-02 0.  1.
        1   -1    0    0  501    0  0.00000000000E+00  0.00000000000E+00 -0.33777405749E+03  0.33777405753E+03  0.50400001928E-02 0. -1.
    10030    2    1    2    0    0  0.00000000000E+00  0.00000000000E+00 -0.68585683899E+02  0.60696243118E+03  0.60307495125E+03 0.  0.
        4    1    3    3  502    0 -0.16491245505E+03 -0.12091106864E+02  0.21948513818E+03  0.27480475156E+03  0.12699999809E+01 0.  1.
       -4    1    3    3    0  502  0.16491245505E+03  0.12091106864E+02 -0.28807082208E+03  0.33215767962E+03  0.12699999809E+01 0. -1.
</event>
<event>
 5   0  0.1483942E-01  0.6226690E+03  0.7818609E-02  0.9859460E-01
        2   -1    0    0  501    0  0.00000000000E+00  0.00000000000E+00  0.12974193750E+04  0.12974193750E+04  0.25500000920E-02 0. -1.
       -2   -1    0    0    0  501  0.00000000000E+00  0.00000000000E+00 -0.74709199071E+02  0.74709199114E+02  0.25500000920E-02 0.  1.
    10030    2    1    2    0    0  0.00000000000E+00  0.00000000000E+00  0.12227101760E+04  0.13721285741E+04  0.62266897273E+03 0.  0.
        4    1    3    3  502    0 -0.16506681537E+03  0.44652192758E+02  0.11846646452E+04  0.11969431091E+04  0.12699999809E+01 0. -1.
       -4    1    3    3    0  502  0.16506681537E+03 -0.44652192758E+02  0.38045530716E+02  0.17518546504E+03  0.12699999809E+01 0.  1.
</event>
<event>
 5   0  0.1502642E-01  0.5935949E+03  0.7818609E-02  0.9918784E-01
        2   -1    0    0  501    0  0.00000000000E+00  0.00000000000E+00  0.17940177264E+03  0.17940177266E+03  0.25500000920E-02 0. -1.
       -2   -1    0    0    0  501  0.00000000000E+00  0.00000000000E+00 -0.49101363827E+03  0.49101363828E+03  0.25500000920E-02 0.  1.
    10030    2    1    2    0    0  0.00000000000E+00  0.00000000000E+00 -0.31161186564E+03  0.67041541094E+03  0.59359486893E+03 0.  0.
        2    1    3    3  502    0  0.21387184465E+03 -0.94292031734E+02 -0.36238890360E+03  0.43122832773E+03  0.25500000920E-02 0.  1.
       -2    1    3    3    0  502 -0.21387184465E+03  0.94292031734E+02  0.50777037961E+02  0.23918708320E+03  0.25500000920E-02 0. -1.
</event>
<event>
 5   0  0.1502642E-01  0.5799586E+03  0.7818609E-02  0.9947881E-01
       -2   -1    0    0    0  501  0.00000000000E+00  0.00000000000E+00  0.28024911501E+03  0.28024911502E+03  0.25500000920E-02 0.  1.
        2   -1    0    0  501    0  0.00000000000E+00  0.00000000000E+00 -0.30004727217E+03  0.30004727218E+03  0.25500000920E-02 0. -1.
    10030    2    1    2    0    0  0.00000000000E+00  0.00000000000E+00 -0.19798157155E+02  0.58029638720E+03  0.57995855884E+03 0.  0.
        2    1    3    3  502    0 -0.22463825900E+02  0.23622126829E+03  0.15687996127E+03  0.28445813984E+03  0.25500000920E-02 0.  1.
       -2    1    3    3    0  502  0.22463825900E+02 -0.23622126829E+03 -0.17667811843E+03  0.29583824736E+03  0.25500000920E-02 0. -1.
</event>
<event>
 5   0  0.1532571E-01  0.6065394E+03  0.7818609E-02  0.9891931E-01
       -2   -1    0    0    0  501  0.00000000000E+00  0.00000000000E+00  0.54943555715E+03  0.54943555716E+03  0.25500000920E-02 0.  1.
        2   -1    0    0  501    0  0.00000000000E+00  0.00000000000E+00 -0.16739451309E+03  0.16739451311E+03  0.25500000920E-02 0. -1.
    10030    2    1    2    0    0  0.00000000000E+00  0.00000000000E+00  0.38204104406E+03  0.71683007027E+03  0.60653935594E+03 0.  0.
        1    1    3    3  502    0  0.26591575480E+03 -0.15885213050E+02  0.36232140383E+03  0.44971138339E+03  0.50400001928E-02 0. -1.
       -1    1    3    3    0  502 -0.26591575480E+03  0.15885213050E+02  0.19719640225E+02  0.26711868688E+03  0.50400001928E-02 0.  1.
</event>
<event>
 5   0  0.1488510E-01  0.4739744E+03  0.7818609E-02  0.1020804E+00
       -2   -1    0    0    0  501  0.00000000000E+00  0.00000000000E+00  0.21795368414E+03  0.21795368416E+03  0.25500000920E-02 0. -1.
        2   -1    0    0  501    0  0.00000000000E+00  0.00000000000E+00 -0.25768285359E+03  0.25768285360E+03  0.25500000920E-02 0.  1.
    10030    2    1    2    0    0  0.00000000000E+00  0.00000000000E+00 -0.39729169445E+02  0.47563653776E+03  0.47397437604E+03 0.  0.
        5    1    3    3  502    0 -0.14681107126E+03 -0.15787236469E+03  0.78784085710E+02  0.22957830111E+03  0.46999998093E+01 0. -1.
       -5    1    3    3    0  502  0.14681107126E+03  0.15787236469E+03 -0.11851325516E+03  0.24605823665E+03  0.46999998093E+01 0.  1.
</event>
<event>
 5   0  0.9420349E-02  0.6070734E+03  0.7818609E-02  0.9890839E-01
        1   -1    0    0  501    0  0.00000000000E+00  0.00000000000E+00  0.25213947109E+03  0.25213947114E+03  0.50400001928E-02 0.  1.
       -1   -1    0    0    0  501  0.00000000000E+00  0.00000000000E+00 -0.36541094022E+03  0.36541094025E+03  0.50400001928E-02 0. -1.
    10030    2    1    2    0    0  0.00000000000E+00  0.00000000000E+00 -0.11327146913E+03  0.61755041139E+03  0.60707337686E+03 0.  0.
        2    1    3    3  502    0 -0.21141412685E+03 -0.21638843971E+03 -0.31416112113E+02  0.30414940733E+03  0.25500000920E-02 0.  1.
       -2    1    3    3    0  502  0.21141412685E+03  0.21638843971E+03 -0.81855357018E+02  0.31340100407E+03  0.25500000920E-02 0. -1.
</event>
<event>
 5   0  0.8860626E-02  0.5733337E+03  0.7818609E-02  0.9962329E-01
        1   -1    0    0  501    0  0.00000000000E+00  0.00000000000E+00  0.12558988547E+03  0.12558988557E+03  0.50400001928E-02 0.  1.
       -1   -1    0    0    0  501  0.00000000000E+00  0.00000000000E+00 -0.65433520625E+03  0.65433520627E+03  0.50400001928E-02 0. -1.
    10030    2    1    2    0    0  0.00000000000E+00  0.00000000000E+00 -0.52874532078E+03  0.77992509183E+03  0.57333370268E+03 0.  0.
        3    1    3    3  502    0  0.14684720109E+03  0.16902094339E+03 -0.50789020679E+03  0.55505373805E+03  0.10100000352E+00 0. -1.
       -3    1    3    3    0  502 -0.14684720109E+03 -0.16902094339E+03 -0.20855113995E+02  0.22487135378E+03  0.10100000352E+00 0.  1.
</event>
<event>
 5   0  0.9177281E-02  0.5959437E+03  0.7818609E-02  0.9913857E-01
       -1   -1    0    0    0  501  0.00000000000E+00  0.00000000000E+00  0.11606876107E+03  0.11606876118E+03  0.50400001928E-02 0. -1.
        1   -1    0    0  501    0  0.00000000000E+00  0.00000000000E+00 -0.76495370825E+03  0.76495370827E+03  0.50400001928E-02 0.  1.
    10030    2    1    2    0    0  0.00000000000E+00  0.00000000000E+00 -0.64888494718E+03  0.88102246944E+03  0.59594371965E+03 0.  0.
        1    1    3    3  502    0  0.74989603022E+01 -0.13252822434E+03 -0.71882882249E+03  0.73098210697E+03  0.50400001928E-02 0.  1.
       -1    1    3    3    0  502 -0.74989603022E+01  0.13252822434E+03  0.69943875309E+02  0.15004036247E+03  0.50400001928E-02 0. -1.
</event>
<event>
 5   0  0.9420349E-02  0.5953670E+03  0.7818609E-02  0.9915065E-01
        1   -1    0    0  501    0  0.00000000000E+00  0.00000000000E+00  0.17651777056E+03  0.17651777063E+03  0.50400001928E-02 0.  1.
       -1   -1    0    0    0  501  0.00000000000E+00  0.00000000000E+00 -0.50202011059E+03  0.50202011061E+03  0.50400001928E-02 0. -1.
    10030    2    1    2    0    0  0.00000000000E+00  0.00000000000E+00 -0.32550234003E+03  0.67853788125E+03  0.59536701531E+03 0.  0.
        2    1    3    3  502    0  0.35328228762E+02  0.16087631680E+03  0.11985272727E+03  0.20370063646E+03  0.25500000920E-02 0.  1.
       -2    1    3    3    0  502 -0.35328228762E+02 -0.16087631680E+03 -0.44535506730E+03  0.47483724478E+03  0.25500000920E-02 0. -1.
</event>
<event>
 5   0  0.1513339E-01  0.3479912E+03  0.7818609E-02  0.1063443E+00
        2   -1    0    0  501    0  0.00000000000E+00  0.00000000000E+00  0.72311549531E+02  0.72311549576E+02  0.25500000920E-02 0.  1.
       -2   -1    0    0    0  501  0.00000000000E+00  0.00000000000E+00 -0.41866716266E+03  0.41866716267E+03  0.25500000920E-02 0. -1.
    10030    2    1    2    0    0  0.00000000000E+00  0.00000000000E+00 -0.34635561313E+03  0.49097871225E+03  0.34799121416E+03 0.  0.
        3    1    3    3  502    0  0.12392162477E+03  0.11895123670E+03 -0.13406535967E+03  0.21789790422E+03  0.10100000352E+00 0.  1.
       -3    1    3    3    0  502 -0.12392162477E+03 -0.11895123670E+03 -0.21229025346E+03  0.27308080803E+03  0.10100000352E+00 0. -1.
</event>
<event>
 5   0  0.9420349E-02  0.6075391E+03  0.7818609E-02  0.9889887E-01
       -1   -1    0    0    0  501  0.00000000000E+00  0.00000000000E+00  0.74026816274E+02  0.74026816445E+02  0.50400001928E-02 0. -1.
        1   -1    0    0  501    0  0.00000000000E+00  0.00000000000E+00 -0.12465205251E+04  0.12465205251E+04  0.50400001928E-02 0.  1.
    10030    2    1    2    0    0  0.00000000000E+00  0.00000000000E+00 -0.11724937088E+04  0.13205473415E+04  0.60753912141E+03 0.  0.
        2    1    3    3  502    0 -0.13459639362E+03  0.27101618131E+03 -0.52833003416E+03  0.60885021533E+03  0.25500000920E-02 0. -1.
       -2    1    3    3    0  502  0.13459639362E+03 -0.27101618131E+03 -0.64416367463E+03  0.71169712619E+03  0.25500000920E-02 0.  1.
</event>
<event>
 5   0  0.1488510E-01  0.3369497E+03  0.7818609E-02  0.1068103E+00
       -2   -1    0    0    0  501  0.00000000000E+00  0.00000000000E+00  0.44716266153E+02  0.44716266226E+02  0.25500000920E-02 0. -1.
        2   -1    0    0  501    0  0.00000000000E+00  0.00000000000E+00 -0.63475297935E+03  0.63475297936E+03  0.25500000920E-02 0.  1.
    10030    2    1    2    0    0  0.00000000000E+00  0.00000000000E+00 -0.59003671320E+03  0.67946924558E+03  0.33694974814E+03 0.  0.
        5    1    3    3  502    0 -0.76749443290E+02 -0.14990232723E+03 -0.29645624317E+03  0.34098325306E+03  0.46999998093E+01 0. -1.
       -5    1    3    3    0  502  0.76749443290E+02  0.14990232723E+03 -0.29358047003E+03  0.33848599252E+03  0.46999998093E+01 0.  1.
</event>
<event>
 5   0  0.1483942E-01  0.5506701E+03  0.7818609E-02  0.1001339E+00
        2   -1    0    0  501    0  0.00000000000E+00  0.00000000000E+00  0.21948223688E+04  0.21948223688E+04  0.25500000920E-02 0.  1.
       -2   -1    0    0    0  501  0.00000000000E+00  0.00000000000E+00 -0.34540105002E+02  0.34540105096E+02  0.25500000920E-02 0. -1.
    10030    2    1    2    0    0  0.00000000000E+00  0.00000000000E+00  0.21602822638E+04  0.22293624739E+04  0.55067011970E+03 0.  0.
        4    1    3    3  502    0  0.10311981356E+03  0.46108729263E+02  0.63599714017E+02  0.12963891154E+03  0.12699999809E+01 0. -1.
       -4    1    3    3    0  502 -0.10311981356E+03 -0.46108729263E+02  0.20966825497E+04  0.20997235623E+04  0.12699999809E+01 0.  1.
</event>
<event>
 5   0  0.9497860E-02  0.6044169E+03  0.7818609E-02  0.9896285E-01
        1   -1    0    0  501    0  0.00000000000E+00  0.00000000000E+00  0.95879164107E+03  0.95879164108E+03  0.50400001928E-02 0.  1.
       -1   -1    0    0    0  501  0.00000000000E+00  0.00000000000E+00 -0.95255249844E+02  0.95255249978E+02  0.50400001928E-02 0. -1.
    10030    2    1    2    0    0  0.00000000000E+00  0.00000000000E+00  0.86353639123E+03  0.10540468911E+04  0.60441686739E+03 0.  0.
        5    1    3    3  502    0  0.20369782376E+03  0.11535028789E+03  0.98552510221E+02  0.25403381584E+03  0.46999998093E+01 0. -1.
       -5    1    3    3    0  502 -0.20369782376E+03 -0.11535028789E+03  0.76498388101E+03  0.80001307522E+03  0.46999998093E+01 0.  1.
</event>
<event>
 5   0  0.8860626E-02  0.5716474E+03  0.7818609E-02  0.9966040E-01
        1   -1    0    0  501    0  0.00000000000E+00  0.00000000000E+00  0.22906639424E+03  0.22906639430E+03  0.50400001928E-02 0.  1.
       -1   -1    0    0    0  501  0.00000000000E+00  0.00000000000E+00 -0.35664411486E+03  0.35664411489E+03  0.50400001928E-02 0. -1.
    10030    2    1    2    0    0  0.00000000000E+00  0.00000000000E+00 -0.12757772061E+03  0.58571050919E+03  0.57164737888E+03 0.  0.
        3    1    3    3  502    0 -0.23955954051E+03  0.45673982127E+02  0.88942990272E+02  0.25958765728E+03  0.10100000352E+00 0.  1.
       -3    1    3    3    0  502  0.23955954051E+03 -0.45673982127E+02 -0.21652071089E+03  0.32612285191E+03  0.10100000352E+00 0. -1.
</event>
<event>
 5   0  0.9411028E-02  0.3890226E+03  0.7818609E-02  0.1047648E+00
        1   -1    0    0  501    0  0.00000000000E+00  0.00000000000E+00  0.10311882994E+03  0.10311883006E+03  0.50400001928E-02 0.  1.
       -1   -1    0    0    0  501  0.00000000000E+00  0.00000000000E+00 -0.36690337347E+03  0.36690337351E+03  0.50400001928E-02 0. -1.
    10030    2    1    2    0    0  0.00000000000E+00  0.00000000000E+00 -0.26378454353E+03  0.47002220357E+03  0.38902260403E+03 0.  0.
        4    1    3    3  502    0  0.61001824133E+02  0.11561085884E+03 -0.30591665428E+03  0.33267657792E+03  0.12699999809E+01 0. -1.
       -4    1    3    3    0  502 -0.61001824133E+02 -0.11561085884E+03  0.42132110746E+02  0.13734562565E+03  0.12699999809E+01 0.  1.
</event>
<event>
 5   0  0.9497860E-02  0.5984584E+03  0.7818609E-02  0.9908610E-01
       -1   -1    0    0    0  501  0.00000000000E+00  0.00000000000E+00  0.42436472722E+03  0.42436472725E+03  0.50400001928E-02 0.  1.
        1   -1    0    0  501    0  0.00000000000E+00  0.00000000000E+00 -0.21099331652E+03  0.21099331658E+03  0.50400001928E-02 0. -1.
    10030    2    1    2    0    0  0.00000000000E+00  0.00000000000E+00  0.21337141070E+03  0.63535804383E+03  0.59845842375E+03 0.  0.
        5    1    3    3  502    0 -0.13512904102E+03  0.88031998486E+02  0.37422881882E+03  0.40752765467E+03  0.46999998093E+01 0.  1.
       -5    1    3    3    0  502  0.13512904102E+03 -0.88031998486E+02 -0.16085740812E+03  0.22783038917E+03  0.46999998093E+01 0. -1.
</event>
<event>
 5   0  0.1502642E-01  0.5964427E+03  0.7818609E-02  0.9912814E-01
        2   -1    0    0  501    0  0.00000000000E+00  0.00000000000E+00  0.29909108572E+03  0.29909108573E+03  0.25500000920E-02 0. -1.
       -2   -1    0    0    0  501  0.00000000000E+00  0.00000000000E+00 -0.29735409852E+03  0.29735409853E+03  0.25500000920E-02 0.  1.
    10030    2    1    2    0    0  0.00000000000E+00  0.00000000000E+00  0.17369871951E+01  0.59644518426E+03  0.59644265500E+03 0.  0.
        2    1    3    3  502    0  0.15392829511E+03 -0.14569347396E+02  0.25587893609E+03  0.29896524189E+03  0.25500000920E-02 0. -1.
       -2    1    3    3    0  502 -0.15392829511E+03  0.14569347396E+02 -0.25414194889E+03  0.29747994237E+03  0.25500000920E-02 0.  1.
</event>
<event>
 5   0  0.9420349E-02  0.5953009E+03  0.7818609E-02  0.9915203E-01
        1   -1    0    0  501    0  0.00000000000E+00  0.00000000000E+00  0.13788115203E+04  0.13788115203E+04  0.50400001928E-02 0.  1.
       -1   -1    0    0    0  501  0.00000000000E+00  0.00000000000E+00 -0.64255193798E+02  0.64255193995E+02  0.50400001928E-02 0. -1.
    10030    2    1    2    0    0  0.00000000000E+00  0.00000000000E+00  0.13145563265E+04  0.14430667143E+04  0.59530093766E+03 0.  0.
        2    1    3    3  502    0  0.22363485406E+03  0.16787339372E+03  0.41004676857E+03  0.49631882565E+03  0.25500000920E-02 0. -1.
       -2    1    3    3    0  502 -0.22363485406E+03 -0.16787339372E+03  0.90450955789E+03  0.94674788861E+03  0.25500000920E-02 0.  1.
</event>
<event>
 5   0  0.1488510E-01  0.6115753E+03  0.7818609E-02  0.9881678E-01
        2   -1    0    0  501    0  0.00000000000E+00  0.00000000000E+00  0.15333302983E+04  0.15333302983E+04  0.25500000920E-02 0. -1.
       -2   -1    0    0    0  501  0.00000000000E+00  0.00000000000E+00 -0.60982359784E+02  0.60982359838E+02  0.25500000920E-02 0.  1.
    10030    2    1    2    0    0  0.00000000000E+00  0.00000000000E+00  0.14723479385E+04  0.15943126581E+04  0.61157534274E+03 0.  0.
        5    1    3    3  502    0 -0.26520337185E+02  0.30412390803E+02  0.15262642939E+04  0.15268048424E+04  0.46999998093E+01 0. -1.
       -5    1    3    3    0  502  0.26520337185E+02 -0.30412390803E+02 -0.53916355456E+02  0.67507815715E+02  0.46999998093E+01 0.  1.
</event>
<event>
 5   0  0.9177281E-02  0.6994601E+03  0.7818609E-02  0.9718156E-01
       -1   -1    0    0    0  501  0.00000000000E+00  0.00000000000E+00  0.20073938324E+03  0.20073938330E+03  0.50400001928E-02 0.  1.
        1   -1    0    0  501    0  0.00000000000E+00  0.00000000000E+00 -0.60930304549E+03  0.60930304551E+03  0.50400001928E-02 0. -1.
    10030    2    1    2    0    0  0.00000000000E+00  0.00000000000E+00 -0.40856366225E+03  0.81004242881E+03  0.69946012778E+03 0.  0.
        1    1    3    3  502    0 -0.16286360579E+03 -0.13810079028E+03  0.11648111922E+03  0.24323699046E+03  0.50400001928E-02 0.  1.
       -1    1    3    3    0  502  0.16286360579E+03  0.13810079028E+03 -0.52504478147E+03  0.56680543835E+03  0.50400001928E-02 0. -1.
</event>
<event>
 5   0  0.1513339E-01  0.5985639E+03  0.7818609E-02  0.9908390E-01
       -2   -1    0    0    0  501  0.00000000000E+00  0.00000000000E+00  0.83504411827E+02  0.83504411866E+02  0.25500000920E-02 0.  1.
        2   -1    0    0  501    0  0.00000000000E+00  0.00000000000E+00 -0.10726341865E+04  0.10726341865E+04  0.25500000920E-02 0. -1.
    10030    2    1    2    0    0  0.00000000000E+00  0.00000000000E+00 -0.98912977467E+03  0.11561385984E+04  0.59856390427E+03 0.  0.
        3    1    3    3  502    0  0.50219214571E+02  0.27305978941E+03 -0.71039501160E+03  0.76272190267E+03  0.10100000352E+00 0. -1.
       -3    1    3    3    0  502 -0.50219214571E+02 -0.27305978941E+03 -0.27873476307E+03  0.39341669570E+03  0.10100000352E+00 0.  1.
</event>
<event>
 5   0  0.1488510E-01  0.6004567E+03  0.7818609E-02  0.9904459E-01
        2   -1    0    0  501    0  0.00000000000E+00  0.00000000000E+00  0.10441899456E+04  0.10441899456E+04  0.25500000920E-02 0.  1.
       -2   -1    0    0    0  501  0.00000000000E+00  0.00000000000E+00 -0.86322468180E+02  0.86322468218E+02  0.25500000920E-02 0. -1.
    10030    2    1    2    0    0  0.00000000000E+00  0.00000000000E+00  0.95786747746E+03  0.11305124139E+04  0.60045667081E+03 0.  0.
        5    1    3    3  502    0 -0.17792568344E+03  0.41889101348E+02  0.92726146600E+03  0.94511806774E+03  0.46999998093E+01 0.  1.
       -5    1    3    3    0  502  0.17792568344E+03 -0.41889101348E+02  0.30606011467E+02  0.18539434613E+03  0.46999998093E+01 0. -1.
</event>
<event>
 5   0  0.1488510E-01  0.6459929E+03  0.7818609E-02  0.9814327E-01
        2   -1    0    0  501    0  0.00000000000E+00  0.00000000000E+00  0.12185190145E+04  0.12185190145E+04  0.25500000920E-02 0. -1.
       -2   -1    0    0    0  501  0.00000000000E+00  0.00000000000E+00 -0.85617638732E+02  0.85617638770E+02  0.25500000920E-02 0.  1.
    10030    2    1    2    0    0  0.00000000000E+00  0.00000000000E+00  0.11329013757E+04  0.13041366532E+04  0.64599294360E+03 0.  0.
        5    1    3    3  502    0 -0.19056561416E+03 -0.16406122075E+03  0.97559365509E+03  0.10074901525E+04  0.46999998093E+01 0. -1.
       -5    1    3    3    0  502  0.19056561416E+03  0.16406122075E+03  0.15730772064E+03  0.29664650078E+03  0.46999998093E+01 0.  1.
</event>
<event>
 5   0  0.1513339E-01  0.6614199E+03  0.7818609E-02  0.9785583E-01
        2   -1    0    0  501    0  0.00000000000E+00  0.00000000000E+00  0.97331655212E+03  0.97331655212E+03  0.25500000920E-02 0. -1.
       -2   -1    0    0    0  501  0.00000000000E+00  0.00000000000E+00 -0.11236740914E+03  0.11236740917E+03  0.25500000920E-02 0.  1.
    10030    2    1    2    0    0  0.00000000000E+00  0.00000000000E+00  0.86094914298E+03  0.10856839613E+04  0.66141986438E+03 0.  0.
        3    1    3    3  502    0 -0.29350731041E+03  0.15235043849E+03  0.43612545087E+03  0.54732313716E+03  0.10100000352E+00 0. -1.
       -3    1    3    3    0  502  0.29350731041E+03 -0.15235043849E+03  0.42482369212E+03  0.53836082413E+03  0.10100000352E+00 0.  1.
</event>
<event>
 5   0  0.9177281E-02  0.5949121E+03  0.7818609E-02  0.9916019E-01
       -1   -1    0    0    0  501  0.00000000000E+00  0.00000000000E+00  0.78269466072E+02  0.78269466234E+02  0.50400001928E-02 0. -1.
        1   -1    0    0  501    0  0.00000000000E+00  0.00000000000E+00 -0.11304547199E+04  0.11304547200E+04  0.50400001928E-02 0.  1.
    10030    2    1    2    0    0  0.00000000000E+00  0.00000000000E+00 -0.10521852539E+04  0.12087241862E+04  0.59491205217E+03 0.  0.
        1    1    3    3  502    0  0.65232519559E+02 -0.29019306180E+03 -0.51882562007E+03  0.59803621863E+03  0.50400001928E-02 0.  1.
       -1    1    3    3    0  502 -0.65232519559E+02  0.29019306180E+03 -0.53335963380E+03  0.61068796756E+03  0.50400001928E-02 0. -1.
</event>
<event>
 5   0  0.9420349E-02  0.6296225E+03  0.7818609E-02  0.9845786E-01
       -1   -1    0    0    0  501  0.00000000000E+00  0.00000000000E+00  0.97590757651E+02  0.97590757782E+02  0.50400001928E-02 0. -1.
        1   -1    0    0  501    0  0.00000000000E+00  0.00000000000E+00 -0.10155277132E+04  0.10155277133E+04  0.50400001928E-02 0.  1.
    10030    2    1    2    0    0  0.00000000000E+00  0.00000000000E+00 -0.91793695559E+03  0.11131184710E+04  0.62962248699E+03 0.  0.
        2    1    3    3  502    0 -0.36308401447E+02 -0.23653102309E+02 -0.10102299192E+04  0.10111588692E+04  0.25500000920E-02 0.  1.
       -2    1    3    3    0  502  0.36308401447E+02  0.23653102309E+02  0.92292963579E+02  0.10195960179E+03  0.25500000920E-02 0. -1.
</event>
<event>
 5   0  0.9497860E-02  0.5762702E+03  0.7818609E-02  0.9955899E-01
       -1   -1    0    0    0  501  0.00000000000E+00  0.00000000000E+00  0.99600123013E+02  0.99600123141E+02  0.50400001928E-02 0.  1.
        1   -1    0    0  501    0  0.00000000000E+00  0.00000000000E+00 -0.83355147840E+03  0.83355147842E+03  0.50400001928E-02 0. -1.
    10030    2    1    2    0    0  0.00000000000E+00  0.00000000000E+00 -0.73395135539E+03  0.93315160156E+03  0.57627017918E+03 0.  0.
        5    1    3    3  502    0 -0.77528230174E+02 -0.11157581954E+03 -0.77835302309E+03  0.79013625947E+03  0.46999998093E+01 0. -1.
       -5    1    3    3    0  502  0.77528230174E+02  0.11157581954E+03  0.44401667697E+02  0.14301534209E+03  0.46999998093E+01 0.  1.
</event>
<event>
 5   0  0.1502642E-01  0.6074623E+03  0.7818609E-02  0.9890044E-01
       -2   -1    0    0    0  501  0.00000000000E+00  0.00000000000E+00  0.18252021750E+03  0.18252021752E+03  0.25500000920E-02 0. -1.
        2   -1    0    0  501    0  0.00000000000E+00  0.00000000000E+00 -0.50543770447E+03  0.50543770448E+03  0.25500000920E-02 0.  1.
    10030    2    1    2    0    0  0.00000000000E+00  0.00000000000E+00 -0.32291748697E+03  0.68795792200E+03  0.60746226142E+03 0.  0.
        2    1    3    3  502    0  0.92856028376E+02 -0.24505644615E+03 -0.33535621000E+03  0.42560391375E+03  0.25500000920E-02 0.  1.
       -2    1    3    3    0  502 -0.92856028376E+02  0.24505644615E+03  0.12438723035E+02  0.26235400825E+03  0.25500000920E-02 0. -1.
</event>
<event>
 5   0  0.8860626E-02  0.6261210E+03  0.7818609E-02  0.9852648E-01
        1   -1    0    0  501    0  0.00000000000E+00  0.00000000000E+00  0.31965139880E+04  0.31965139880E+04  0.50400001928E-02 0.  1.
       -1   -1    0    0    0  501  0.00000000000E+00  0.00000000000E+00 -0.30660548020E+02  0.30660548434E+02  0.50400001928E-02 0. -1.
    10030    2    1    2    0    0  0.00000000000E+00  0.00000000000E+00  0.31658534400E+04  0.32271745365E+04  0.62612098288E+03 0.  0.
        3    1    3    3  502    0 -0.18011759292E+03  0.82829650478E+02  0.28317390146E+04  0.28386702794E+04  0.10100000352E+00 0. -1.
       -3    1    3    3    0  502  0.18011759292E+03 -0.82829650478E+02  0.33411442545E+03  0.38850425708E+03  0.10100000352E+00 0.  1.
</event>
<event>
 5   0  0.9411028E-02  0.5938935E+03  0.7818609E-02  0.9918157E-01
        1   -1    0    0  501    0  0.00000000000E+00  0.00000000000E+00  0.79574515271E+03  0.79574515273E+03  0.50400001928E-02 0.  1.
       -1   -1    0    0    0  501  0.00000000000E+00  0.00000000000E+00 -0.11081107079E+03  0.11081107090E+03  0.50400001928E-02 0. -1.
    10030    2    1    2    0    0  0.00000000000E+00  0.00000000000E+00  0.68493408193E+03  0.90655622363E+03  0.59389350057E+03 0.  0.
        4    1    3    3  502    0  0.71449323004E+02  0.28142905401E+03  0.43740812424E+03  0.52500933159E+03  0.12699999809E+01 0.  1.
       -4    1    3    3    0  502 -0.71449323004E+02 -0.28142905401E+03  0.24752595768E+03  0.38154689204E+03  0.12699999809E+01 0. -1.
</event>
<event>
 5   0  0.1483942E-01  0.6045428E+03  0.7818609E-02  0.9896026E-01
        2   -1    0    0  501    0  0.00000000000E+00  0.00000000000E+00  0.17852105327E+04  0.17852105327E+04  0.25500000920E-02 0. -1.
       -2   -1    0    0    0  501  0.00000000000E+00  0.00000000000E+00 -0.51180511479E+02  0.51180511542E+02  0.25500000920E-02 0.  1.
    10030    2    1    2    0    0  0.00000000000E+00  0.00000000000E+00  0.17340300212E+04  0.18363910442E+04  0.60454276349E+03 0.  0.
        4    1    3    3  502    0 -0.15421513575E+03  0.23531667760E+03  0.53135604192E+03  0.60124629149E+03  0.12699999809E+01 0.  1.
       -4    1    3    3    0  502  0.15421513575E+03 -0.23531667760E+03  0.12026739793E+04  0.12351447527E+04  0.12699999809E+01 0. -1.
</event>
<event>
 5   0  0.6170500E-02  0.5892244E+03  0.7818609E-02  0.9928018E-01
       -3   -1    0    0    0  501  0.00000000000E+00  0.00000000000E+00  0.15451859066E+03  0.15451862367E+03  0.10100000352E+00 0.  1.
        3   -1    0    0  501    0  0.00000000000E+00  0.00000000000E+00 -0.56172097177E+03  0.56172098085E+03  0.10100000352E+00 0. -1.
    10030    2    1    2    0    0  0.00000000000E+00  0.00000000000E+00 -0.40720238112E+03  0.71623960452E+03  0.58922439859E+03 0.  0.
        2    1    3    3  502    0 -0.56273804489E+02  0.26561451293E+03 -0.64587619623E+02  0.27908667321E+03  0.25500000920E-02 0.  1.
       -2    1    3    3    0  502  0.56273804489E+02 -0.26561451293E+03 -0.34261476149E+03  0.43715293131E+03  0.25500000920E-02 0. -1.
</event>
<event>
 5   0  0.9411028E-02  0.7078954E+03  0.7818609E-02  0.9703824E-01
        1   -1    0    0  501    0  0.00000000000E+00  0.00000000000E+00  0.98141659617E+03  0.98141659618E+03  0.50400001928E-02 0. -1.
       -1   -1    0    0    0  501  0.00000000000E+00  0.00000000000E+00 -0.12765117209E+03  0.12765117219E+03  0.50400001928E-02 0.  1.
    10030    2    1    2    0    0  0.00000000000E+00  0.00000000000E+00  0.85376542408E+03  0.11090677684E+04  0.70789541283E+03 0.  0.
        4    1    3    3  502    0 -0.54378344216E+02  0.22205161599E+03  0.35416493411E+01  0.22864400421E+03  0.12699999809E+01 0.  1.
       -4    1    3    3    0  502  0.54378344216E+02 -0.22205161599E+03  0.85022377473E+03  0.88042376417E+03  0.12699999809E+01 0. -1.
</event>
<event>
 5   0  0.6170500E-02  0.6015553E+03  0.7818609E-02  0.9902184E-01
       -3   -1    0    0    0  501  0.00000000000E+00  0.00000000000E+00  0.96255973557E+02  0.96256026546E+02  0.10100000352E+00 0.  1.
        3   -1    0    0  501    0  0.00000000000E+00  0.00000000000E+00 -0.93986034498E+03  0.93986035041E+03  0.10100000352E+00 0. -1.
    10030    2    1    2    0    0  0.00000000000E+00  0.00000000000E+00 -0.84360437142E+03  0.10361163770E+04  0.60155532672E+03 0.  0.
        1    1    3    3  502    0 -0.12806692176E+02 -0.22890193949E+03 -0.75714824298E+03  0.79109643605E+03  0.50400001928E-02 0. -1.
       -1    1    3    3    0  502  0.12806692176E+02  0.22890193949E+03 -0.86456128447E+02  0.24501994090E+03  0.50400001928E-02 0.  1.
</event>
<event>
 5   0  0.9411028E-02  0.4959072E+03  0.7818609E-02  0.1014853E+00
       -1   -1    0    0    0  501  0.00000000000E+00  0.00000000000E+00  0.48088788140E+02  0.48088788404E+02  0.50400001928E-02 0.  1.
        1   -1    0    0  501    0  0.00000000000E+00  0.00000000000E+00 -0.12784888251E+04  0.12784888251E+04  0.50400001928E-02 0. -1.
    10030    2    1    2    0    0  0.00000000000E+00  0.00000000000E+00 -0.12304000369E+04  0.13265776135E+04  0.49590716240E+03 0.  0.
        4    1    3    3  502    0 -0.21639079299E+03 -0.11652634892E+03 -0.52745176740E+03  0.58190235015E+03  0.12699999809E+01 0.  1.
       -4    1    3    3    0  502  0.21639079299E+03  0.11652634892E+03 -0.70294826955E+03  0.74467526335E+03  0.12699999809E+01 0. -1.
</event>
<event>
 5   0  0.9177281E-02  0.5913388E+03  0.7818609E-02  0.9923540E-01
       -1   -1    0    0    0  501  0.00000000000E+00  0.00000000000E+00  0.14299774368E+03  0.14299774376E+03  0.50400001928E-02 0.  1.
        1   -1    0    0  501    0  0.00000000000E+00  0.00000000000E+00 -0.61134115369E+03  0.61134115371E+03  0.50400001928E-02 0. -1.
    10030    2    1    2    0    0  0.00000000000E+00  0.00000000000E+00 -0.46834341002E+03  0.75433889748E+03  0.59133883903E+03 0.  0.
        1    1    3    3  502    0  0.76745545651E+02  0.15753903549E+03  0.69614116363E+02  0.18855914643E+03  0.50400001928E-02 0.  1.
       -1    1    3    3    0  502 -0.76745545651E+02 -0.15753903549E+03 -0.53795752638E+03  0.56577975105E+03  0.50400001928E-02 0. -1.
</event>
<event>
 5   0  0.1532571E-01  0.5950065E+03  0.7818609E-02  0.9915820E-01
        2   -1    0    0  501    0  0.00000000000E+00  0.00000000000E+00  0.27697854841E+03  0.27697854842E+03  0.25500000920E-02 0. -1.
       -2   -1    0    0    0  501  0.00000000000E+00  0.00000000000E+00 -0.31954889779E+03  0.31954889780E+03  0.25500000920E-02 0.  1.
    10030    2    1    2    0    0  0.00000000000E+00  0.00000000000E+00 -0.42570349387E+02  0.59652744622E+03  0.59500652051E+03 0.  0.
        1    1    3    3  502    0  0.84133555808E+02 -0.24748305400E+03 -0.16371122655E+03  0.30842775970E+03  0.50400001928E-02 0.  1.
       -1    1    3    3    0  502 -0.84133555808E+02  0.24748305400E+03  0.12114087717E+03  0.28809968652E+03  0.50400001928E-02 0. -1.
</event>
<event>
 5   0  0.8860626E-02  0.6011684E+03  0.7818609E-02  0.9902985E-01
       -1   -1    0    0    0  501  0.00000000000E+00  0.00000000000E+00  0.51363373717E+02  0.51363373964E+02  0.50400001928E-02 0. -1.
        1   -1    0    0  501    0  0.00000000000E+00  0.00000000000E+00 -0.17590523410E+04  0.17590523411E+04  0.50400001928E-02 0.  1.
    10030    2    1    2    0    0  0.00000000000E+00  0.00000000000E+00 -0.17076889673E+04  0.18104157150E+04  0.60116840573E+03 0.  0.
        3    1    3    3  502    0  0.18207180316E+03 -0.97622630653E+02 -0.15113617589E+04  0.15254162370E+04  0.10100000352E+00 0.  1.
       -3    1    3    3    0  502 -0.18207180316E+03  0.97622630653E+02 -0.19632720844E+03  0.28499947806E+03  0.10100000352E+00 0. -1.
</event>
<event>
 5   0  0.1502642E-01  0.6078504E+03  0.7818609E-02  0.9889251E-01
       -2   -1    0    0    0  501  0.00000000000E+00  0.00000000000E+00  0.22087143850E+03  0.22087143852E+03  0.25500000920E-02 0. -1.
        2   -1    0    0  501    0  0.00000000000E+00  0.00000000000E+00 -0.41820953755E+03  0.41820953756E+03  0.25500000920E-02 0.  1.
    10030    2    1    2    0    0  0.00000000000E+00  0.00000000000E+00 -0.19733809905E+03  0.63908097608E+03  0.60785044924E+03 0.  0.
        2    1    3    3  502    0  0.15166706801E+03 -0.32106156854E+02 -0.37351325524E+03  0.40440803241E+03  0.25500000920E-02 0.  1.
       -2    1    3    3    0  502 -0.15166706801E+03  0.32106156854E+02  0.17617515619E+03  0.23467294367E+03  0.25500000920E-02 0. -1.
</event>
<event>
 5   0  0.1513339E-01  0.6164131E+03  0.7818609E-02  0.9871927E-01
       -2   -1    0    0    0  501  0.00000000000E+00  0.00000000000E+00  0.11341444805E+03  0.11341444808E+03  0.25500000920E-02 0.  1.
        2   -1    0    0  501    0  0.00000000000E+00  0.00000000000E+00 -0.83755883634E+03  0.83755883634E+03  0.25500000920E-02 0. -1.
    10030    2    1    2    0    0  0.00000000000E+00  0.00000000000E+00 -0.72414438829E+03  0.95097328442E+03  0.61641308600E+03 0.  0.
        3    1    3    3  502    0  0.26029296244E+02 -0.23441150762E+03 -0.66816386006E+03  0.70856843936E+03  0.10100000352E+00 0. -1.
       -3    1    3    3    0  502 -0.26029296244E+02  0.23441150762E+03 -0.55980528234E+02  0.24240484506E+03  0.10100000352E+00 0.  1.
</event>
<event>
 5   0  0.9497860E-02  0.5738883E+03  0.7818609E-02  0.9961111E-01
        1   -1    0    0  501    0  0.00000000000E+00  0.00000000000E+00  0.91249714966E+03  0.91249714967E+03  0.50400001928E-02 0.  1.
       -1   -1    0    0    0  501  0.00000000000E+00  0.00000000000E+00 -0.90232564762E+02  0.90232564903E+02  0.50400001928E-02 0. -1.
    10030    2    1    2    0    0  0.00000000000E+00  0.00000000000E+00  0.82226458489E+03  0.10027297146E+04  0.57388834534E+03 0.  0.
        5    1    3    3  502    0  0.19690696394E+03 -0.17975101407E+03  0.59630916388E+03  0.65321473379E+03  0.46999998093E+01 0.  1.
       -5    1    3    3    0  502 -0.19690696394E+03  0.17975101407E+03  0.22595542101E+03  0.34951498079E+03  0.46999998093E+01 0. -1.
</event>
<event>
 5   0  0.9497860E-02  0.5875820E+03  0.7818609E-02  0.9931510E-01
       -1   -1    0    0    0  501  0.00000000000E+00  0.00000000000E+00  0.96680389245E+02  0.96680389377E+02  0.50400001928E-02 0.  1.
        1   -1    0    0  501    0  0.00000000000E+00  0.00000000000E+00 -0.89276795039E+03  0.89276795040E+03  0.50400001928E-02 0. -1.
    10030    2    1    2    0    0  0.00000000000E+00  0.00000000000E+00 -0.79608756114E+03  0.98944833978E+03  0.58758200456E+03 0.  0.
        5    1    3    3  502    0 -0.15108402500E+02 -0.29274727004E+03 -0.36601208168E+03  0.46895219573E+03  0.46999998093E+01 0. -1.
       -5    1    3    3    0  502  0.15108402500E+02  0.29274727004E+03 -0.43007547946E+03  0.52049614405E+03  0.46999998093E+01 0.  1.
</event>
<event>
 5   0  0.1483942E-01  0.6211557E+03  0.7818609E-02  0.9862461E-01
       -2   -1    0    0    0  501  0.00000000000E+00  0.00000000000E+00  0.22914226332E+03  0.22914226334E+03  0.25500000920E-02 0.  1.
        2   -1    0    0  501    0  0.00000000000E+00  0.00000000000E+00 -0.42095504317E+03  0.42095504317E+03  0.25500000920E-02 0. -1.
    10030    2    1    2    0    0  0.00000000000E+00  0.00000000000E+00 -0.19181277984E+03  0.65009730651E+03  0.62115566924E+03 0.  0.
        4    1    3    3  502    0 -0.15392533314E+03 -0.20172941549E+03  0.91516256471E+02  0.26974914894E+03  0.12699999809E+01 0.  1.
       -4    1    3    3    0  502  0.15392533314E+03  0.20172941549E+03 -0.28332903631E+03  0.38034815758E+03  0.12699999809E+01 0. -1.
</event>
<event>
 5   0  0.1483942E-01  0.6003920E+03  0.7818609E-02  0.9904593E-01
        2   -1    0    0  501    0  0.00000000000E+00  0.00000000000E+00  0.61693625340E+03  0.61693625341E+03  0.25500000920E-02 0. -1.
       -2   -1    0    0    0  501  0.00000000000E+00  0.00000000000E+00 -0.14607285914E+03  0.14607285916E+03  0.25500000920E-02 0.  1.
    10030    2    1    2    0    0  0.00000000000E+00  0.00000000000E+00  0.47086339427E+03  0.76300911256E+03  0.60039201343E+03 0.  0.
        4    1    3    3  502    0 -0.25641449480E+03  0.15515571188E+03  0.21362848155E+03  0.36804949274E+03  0.12699999809E+01 0.  1.
       -4    1    3    3    0  502  0.25641449480E+03 -0.15515571188E+03  0.25723491272E+03  0.39495961983E+03  0.12699999809E+01 0. -1.
</event>
<event>
 5   0  0.1502642E-01  0.6089006E+03  0.7818609E-02  0.9887110E-01
       -2   -1    0    0    0  501  0.00000000000E+00  0.00000000000E+00  0.15204745877E+03  0.15204745880E+03  0.25500000920E-02 0.  1.
        2   -1    0    0  501    0  0.00000000000E+00  0.00000000000E+00 -0.60961213382E+03  0.60961213383E+03  0.25500000920E-02 0. -1.
    10030    2    1    2    0    0  0.00000000000E+00  0.00000000000E+00 -0.45756467505E+03  0.76165959263E+03  0.60890056921E+03 0.  0.
        2    1    3    3  502    0 -0.44258877322E+02  0.26800783551E+03 -0.56801890934E+02  0.27751306805E+03  0.25500000920E-02 0.  1.
       -2    1    3    3    0  502  0.44258877322E+02 -0.26800783551E+03 -0.40076278412E+03  0.48414652457E+03  0.25500000920E-02 0. -1.
</event>
<event>
 5   0  0.8860626E-02  0.6022653E+03  0.7818609E-02  0.9900717E-01
       -1   -1    0    0    0  501  0.00000000000E+00  0.00000000000E+00  0.63724171787E+02  0.63724171986E+02  0.50400001928E-02 0. -1.
        1   -1    0    0  501    0  0.00000000000E+00  0.00000000000E+00 -0.14230217272E+04  0.14230217272E+04  0.50400001928E-02 0.  1.
    10030    2    1    2    0    0  0.00000000000E+00  0.00000000000E+00 -0.13592975554E+04  0.14867458992E+04  0.60226532742E+03 0.  0.
        3    1    3    3  502    0 -0.36955358608E+02  0.25486661192E+03 -0.10649242205E+04  0.10956214191E+04  0.10100000352E+00 0.  1.
       -3    1    3    3    0  502  0.36955358608E+02 -0.25486661192E+03 -0.29437333485E+03  0.39112448002E+03  0.10100000352E+00 0. -1.
</event>
<event>
 5   0  0.1513339E-01  0.6004130E+03  0.7818609E-02  0.9904549E-01
        2   -1    0    0  501    0  0.00000000000E+00  0.00000000000E+00  0.71125269432E+03  0.71125269432E+03  0.25500000920E-02 0.  1.
       -2   -1    0    0    0  501  0.00000000000E+00  0.00000000000E+00 -0.12671158571E+03  0.12671158573E+03  0.25500000920E-02 0. -1.
    10030    2    1    2    0    0  0.00000000000E+00  0.00000000000E+00  0.58454110861E+03  0.83796428005E+03  0.60041304698E+03 0.  0.
        3    1    3    3  502    0 -0.30099935701E+02 -0.26589535434E+03  0.48218926179E+03  0.55146426899E+03  0.10100000352E+00 0. -1.
       -3    1    3    3    0  502  0.30099935701E+02  0.26589535434E+03  0.10235184682E+03  0.28650001106E+03  0.10100000352E+00 0.  1.
</event>
<event>
 5   0  0.9497860E-02  0.6057690E+03  0.7818609E-02  0.9893509E-01
       -1   -1    0    0    0  501  0.00000000000E+00  0.00000000000E+00  0.27425477695E+03  0.27425477699E+03  0.50400001928E-02 0. -1.
        1   -1    0    0  501    0  0.00000000000E+00  0.00000000000E+00 -0.33450287820E+03  0.33450287824E+03  0.50400001928E-02 0.  1.
    10030    2    1    2    0    0  0.00000000000E+00  0.00000000000E+00 -0.60248101255E+02  0.60875765523E+03  0.60576897337E+03 0.  0.
        5    1    3    3  502    0 -0.25648725947E+03 -0.56591907958E+02  0.12137970839E+03  0.28938466083E+03  0.46999998093E+01 0. -1.
       -5    1    3    3    0  502  0.25648725947E+03  0.56591907958E+02 -0.18162780965E+03  0.31937299440E+03  0.46999998093E+01 0.  1.
</event>
<event>
 5   0  0.8860626E-02  0.6173463E+03  0.7818609E-02  0.9870057E-01
        1   -1    0    0  501    0  0.00000000000E+00  0.00000000000E+00  0.17294483932E+04  0.17294483932E+04  0.50400001928E-02 0. -1.
       -1   -1    0    0    0  501  0.00000000000E+00  0.00000000000E+00 -0.55092202182E+02  0.55092202413E+02  0.50400001928E-02 0.  1.
    10030    2    1    2    0    0  0.00000000000E+00  0.00000000000E+00  0.16743561910E+04  0.17845405956E+04  0.61734632339E+03 0.  0.
        3    1    3    3  502    0 -0.13648526653E+03 -0.17295880335E+03  0.14620974314E+04  0.14786047087E+04  0.10100000352E+00 0. -1.
       -3    1    3    3    0  502  0.13648526653E+03  0.17295880335E+03  0.21225875962E+03  0.30593588686E+03  0.10100000352E+00 0.  1.
</event>
<event>
 5   0  0.9497860E-02  0.5891063E+03  0.7818609E-02  0.9928268E-01
        1   -1    0    0  501    0  0.00000000000E+00  0.00000000000E+00  0.43955830782E+03  0.43955830785E+03  0.50400001928E-02 0.  1.
       -1   -1    0    0    0  501  0.00000000000E+00  0.00000000000E+00 -0.19738350382E+03  0.19738350388E+03  0.50400001928E-02 0. -1.
    10030    2    1    2    0    0  0.00000000000E+00  0.00000000000E+00  0.24217480400E+03  0.63694181173E+03  0.58910630266E+03 0.  0.
        5    1    3    3  502    0 -0.10655473751E+03  0.22225333382E+03  0.29538884340E+03  0.38474292103E+03  0.46999998093E+01 0. -1.
       -5    1    3    3    0  502  0.10655473751E+03 -0.22225333382E+03 -0.53214039399E+02  0.25219889070E+03  0.46999998093E+01 0.  1.
</event>
<event>
 5   0  0.1483942E-01  0.6308875E+03  0.7818609E-02  0.9843318E-01
       -2   -1    0    0    0  501  0.00000000000E+00  0.00000000000E+00  0.13831858904E+03  0.13831858906E+03  0.25500000920E-02 0. -1.
        2   -1    0    0  501    0  0.00000000000E+00  0.00000000000E+00 -0.71938828851E+03  0.71938828851E+03  0.25500000920E-02 0.  1.
    10030    2    1    2    0    0  0.00000000000E+00  0.00000000000E+00 -0.58106969947E+03  0.85770687757E+03  0.63088754323E+03 0.  0.
        4    1    3    3  502    0 -0.82974631248E+02  0.29942761396E+03 -0.21655031364E+03  0.37873121956E+03  0.12699999809E+01 0.  1.
       -4    1    3    3    0  502  0.82974631248E+02 -0.29942761396E+03 -0.36451938583E+03  0.47897565802E+03  0.12699999809E+01 0. -1.
</event>
<event>
 5   0  0.9420349E-02  0.5997655E+03  0.7818609E-02  0.9905893E-01
       -1   -1    0    0    0  501  0.00000000000E+00  0.00000000000E+00  0.19441769768E+03  0.19441769774E+03  0.50400001928E-02 0.  1.
        1   -1    0    0  501    0  0.00000000000E+00  0.00000000000E+00 -0.46255910573E+03  0.46255910576E+03  0.50400001928E-02 0. -1.
    10030    2    1    2    0    0  0.00000000000E+00  0.00000000000E+00 -0.26814140805E+03  0.65697680350E+03  0.59976554222E+03 0.  0.
        2    1    3    3  502    0 -0.17232375014E+03  0.21204368967E+03  0.12960030213E+01  0.27323923734E+03  0.25500000920E-02 0.  1.
       -2    1    3    3    0  502  0.17232375014E+03 -0.21204368967E+03 -0.26943741108E+03  0.38373756616E+03  0.25500000920E-02 0. -1.
</event>
<event>
 5   0  0.8860626E-02  0.6015417E+03  0.7818609E-02  0.9902213E-01
        1   -1    0    0  501    0  0.00000000000E+00  0.00000000000E+00  0.97082303483E+03  0.97082303484E+03  0.50400001928E-02 0.  1.
       -1   -1    0    0    0  501  0.00000000000E+00  0.00000000000E+00 -0.93181854444E+02  0.93181854580E+02  0.50400001928E-02 0. -1.
    10030    2    1    2    0    0  0.00000000000E+00  0.00000000000E+00  0.87764118039E+03  0.10640048894E+04  0.60154165542E+03 0.  0.
        3    1    3    3  502    0  0.26528102856E+03  0.10195663823E+03  0.26466910049E+03  0.38835412081E+03  0.10100000352E+00 0. -1.
       -3    1    3    3    0  502 -0.26528102856E+03 -0.10195663823E+03  0.61297207990E+03  0.67565076862E+03  0.10100000352E+00 0.  1.
</event>
<event>
 5   0  0.1502642E-01  0.5974752E+03  0.7818609E-02  0.9910658E-01
        2   -1    0    0  501    0  0.00000000000E+00  0.00000000000E+00  0.72904768563E+03  0.72904768563E+03  0.25500000920E-02 0. -1.
       -2   -1    0    0    0  501  0.00000000000E+00  0.00000000000E+00 -0.12241195398E+03  0.12241195401E+03  0.25500000920E-02 0.  1.
    10030    2    1    2    0    0  0.00000000000E+00  0.00000000000E+00  0.60663573165E+03  0.85145963964E+03  0.59747519365E+03 0.  0.
        2    1    3    3  502    0  0.31619146837E+02  0.12312093639E+03  0.68858338757E+03  0.70021826388E+03  0.25500000920E-02 0. -1.
       -2    1    3    3    0  502 -0.31619146837E+02 -0.12312093639E+03 -0.81947655926E+02  0.15124137576E+03  0.25500000920E-02 0.  1.
</event>
<event>
 5   0  0.8860626E-02  0.6087167E+03  0.7818609E-02  0.9887485E-01
       -1   -1    0    0    0  501  0.00000000000E+00  0.00000000000E+00  0.32963304721E+03  0.32963304725E+03  0.50400001928E-02 0. -1.
        1   -1    0    0  501    0  0.00000000000E+00  0.00000000000E+00 -0.28102155753E+03  0.28102155758E+03  0.50400001928E-02 0.  1.
    10030    2    1    2    0    0  0.00000000000E+00  0.00000000000E+00  0.48611489681E+02  0.61065460483E+03  0.60871665779E+03 0.  0.
        3    1    3    3  502    0  0.19086712972E+03  0.19590259865E+03  0.15824444967E+03  0.31598956536E+03  0.10100000352E+00 0.  1.
       -3    1    3    3    0  502 -0.19086712972E+03 -0.19590259865E+03 -0.10963295999E+03  0.29466503947E+03  0.10100000352E+00 0. -1.
</event>
<event>
 5   0  0.1483942E-01  0.6570521E+03  0.7818609E-02  0.9793636E-01
       -2   -1    0    0    0  501  0.00000000000E+00  0.00000000000E+00  0.21366388353E+03  0.21366388354E+03  0.25500000920E-02 0. -1.
        2   -1    0    0  501    0  0.00000000000E+00  0.00000000000E+00 -0.50513623793E+03  0.50513623793E+03  0.25500000920E-02 0.  1.
    10030    2    1    2    0    0  0.00000000000E+00  0.00000000000E+00 -0.29147235440E+03  0.71880012148E+03  0.65705211457E+03 0.  0.
        4    1    3    3  502    0  0.18871504674E+03  0.25272117142E+03 -0.24627738475E+03  0.40016936726E+03  0.12699999809E+01 0.  1.
       -4    1    3    3    0  502 -0.18871504674E+03 -0.25272117142E+03 -0.45194969644E+02  0.31863075422E+03  0.12699999809E+01 0. -1.
</event>
<event>
 5   0  0.1532571E-01  0.6566589E+03  0.7818609E-02  0.9794364E-01
       -2   -1    0    0    0  501  0.00000000000E+00  0.00000000000E+00  0.69787215161E+02  0.69787215208E+02  0.25500000920E-02 0. -1.
        2   -1    0    0  501    0  0.00000000000E+00  0.00000000000E+00 -0.15446987421E+04  0.15446987421E+04  0.25500000920E-02 0.  1.
    10030    2    1    2    0    0  0.00000000000E+00  0.00000000000E+00 -0.14749115269E+04  0.16144859573E+04  0.65665888713E+03 0.  0.
        1    1    3    3  502    0  0.26441357448E+03  0.17448929018E+03 -0.52539673525E+03  0.61351673180E+03  0.50400001928E-02 0. -1.
       -1    1    3    3    0  502 -0.26441357448E+03 -0.17448929018E+03 -0.94951479167E+03  0.10009692255E+04  0.50400001928E-02 0.  1.
</event>
<event>
 5   0  0.1532571E-01  0.5896978E+03  0.7818609E-02  0.9927013E-01
       -2   -1    0    0    0  501  0.00000000000E+00  0.00000000000E+00  0.16044257165E+03  0.16044257167E+03  0.25500000920E-02 0.  1.
        2   -1    0    0  501    0  0.00000000000E+00  0.00000000000E+00 -0.54185043614E+03  0.54185043614E+03  0.25500000920E-02 0. -1.
    10030    2    1    2    0    0  0.00000000000E+00  0.00000000000E+00 -0.38140786449E+03  0.70229300781E+03  0.58969781222E+03 0.  0.
        1    1    3    3  502    0 -0.29354453321E+03  0.83987947207E+01 -0.15926353819E+03  0.33407156023E+03  0.50400001928E-02 0.  1.
       -1    1    3    3    0  502  0.29354453321E+03 -0.83987947207E+01 -0.22214432629E+03  0.36822144758E+03  0.50400001928E-02 0. -1.
</event>
<event>
 5   0  0.1513339E-01  0.6447206E+03  0.7818609E-02  0.9816736E-01
        2   -1    0    0  501    0  0.00000000000E+00  0.00000000000E+00  0.80593974784E+03  0.80593974784E+03  0.25500000920E-02 0. -1.
       -2   -1    0    0    0  501  0.00000000000E+00  0.00000000000E+00 -0.12893789290E+03  0.12893789293E+03  0.25500000920E-02 0.  1.
    10030    2    1    2    0    0  0.00000000000E+00  0.00000000000E+00  0.67700185494E+03  0.93487764077E+03  0.64472063068E+03 0.  0.
        3    1    3    3  502    0 -0.24695228809E+03 -0.12578131208E+03  0.57725252999E+03  0.64033340116E+03  0.10100000352E+00 0. -1.
       -3    1    3    3    0  502  0.24695228809E+03  0.12578131208E+03  0.99749324953E+02  0.29454423961E+03  0.10100000352E+00 0.  1.
</event>
<event>
 5   0  0.1488510E-01  0.5965855E+03  0.7818609E-02  0.9912515E-01
        2   -1    0    0  501    0  0.00000000000E+00  0.00000000000E+00  0.18063592046E+03  0.18063592047E+03  0.25500000920E-02 0.  1.
       -2   -1    0    0    0  501  0.00000000000E+00  0.00000000000E+00 -0.49258513379E+03  0.49258513380E+03  0.25500000920E-02 0. -1.
    10030    2    1    2    0    0  0.00000000000E+00  0.00000000000E+00 -0.31194921334E+03  0.67322105427E+03  0.59658551459E+03 0.  0.
        5    1    3    3  502    0 -0.13998459600E+03 -0.24613667404E+01  0.14120776163E+03  0.19890567459E+03  0.46999998093E+01 0.  1.
       -5    1    3    3    0  502  0.13998459600E+03  0.24613667404E+01 -0.45315697497E+03  0.47431537968E+03  0.46999998093E+01 0. -1.
</event>
<event>
 5   0  0.6170500E-02  0.5961755E+03  0.7818609E-02  0.9913373E-01
       -3   -1    0    0    0  501  0.00000000000E+00  0.00000000000E+00  0.74283845385E+03  0.74283846072E+03  0.10100000352E+00 0.  1.
        3   -1    0    0  501    0  0.00000000000E+00  0.00000000000E+00 -0.11961725443E+03  0.11961729707E+03  0.10100000352E+00 0. -1.
    10030    2    1    2    0    0  0.00000000000E+00  0.00000000000E+00  0.62322119942E+03  0.86245575778E+03  0.59617553684E+03 0.  0.
        5    1    3    3  502    0 -0.22506535690E+03 -0.17225119603E+03  0.44505813862E+03  0.52765872129E+03  0.46999998093E+01 0.  1.
       -5    1    3    3    0  502  0.22506535690E+03  0.17225119603E+03  0.17816306081E+03  0.33479703649E+03  0.46999998093E+01 0. -1.
</event>
<event>
 5   0  0.8860626E-02  0.6411740E+03  0.7818609E-02  0.9823483E-01
        1   -1    0    0  501    0  0.00000000000E+00  0.00000000000E+00  0.54630643504E+03  0.54630643506E+03  0.50400001928E-02 0.  1.
       -1   -1    0    0    0  501  0.00000000000E+00  0.00000000000E+00 -0.18812888523E+03  0.18812888529E+03  0.50400001928E-02 0. -1.
    10030    2    1    2    0    0  0.00000000000E+00  0.00000000000E+00  0.35817754982E+03  0.73443532036E+03  0.64117398777E+03 0.  0.
        3    1    3    3  502    0  0.30903375185E+03 -0.68618597154E+02  0.12106908328E+03  0.33892197448E+03  0.10100000352E+00 0. -1.
       -3    1    3    3    0  502 -0.30903375185E+03  0.68618597154E+02  0.23710846653E+03  0.39551334587E+03  0.10100000352E+00 0.  1.
</event>
<event>
 5   0  0.9411028E-02  0.5891445E+03  0.7818609E-02  0.9928187E-01
        1   -1    0    0  501    0  0.00000000000E+00  0.00000000000E+00  0.63182962952E+03  0.63182962954E+03  0.50400001928E-02 0. -1.
       -1   -1    0    0    0  501  0.00000000000E+00  0.00000000000E+00 -0.13733575917E+03  0.13733575926E+03  0.50400001928E-02 0.  1.
    10030    2    1    2    0    0  0.00000000000E+00  0.00000000000E+00  0.49449387035E+03  0.76916538880E+03  0.58914447084E+03 0.  0.
        4    1    3    3  502    0  0.11368607612E+03 -0.20637616140E+03  0.47806057299E+03  0.53297201450E+03  0.12699999809E+01 0. -1.
       -4    1    3    3    0  502 -0.11368607612E+03  0.20637616140E+03  0.16433297357E+02  0.23619337429E+03  0.12699999809E+01 0.  1.
</event>
<event>
 5   0  0.1483942E-01  0.6047812E+03  0.7818609E-02  0.9895536E-01
       -2   -1    0    0    0  501  0.00000000000E+00  0.00000000000E+00  0.33810968387E+03  0.33810968388E+03  0.25500000920E-02 0.  1.
        2   -1    0    0  501    0  0.00000000000E+00  0.00000000000E+00 -0.27044500853E+03  0.27044500854E+03  0.25500000920E-02 0. -1.
    10030    2    1    2    0    0  0.00000000000E+00  0.00000000000E+00  0.67664675338E+02  0.60855469242E+03  0.60478120455E+03 0.  0.
        4    1    3    3  502    0  0.47832166327E+02 -0.84996488033E+02 -0.25418099199E+03  0.27225339062E+03  0.12699999809E+01 0. -1.
       -4    1    3    3    0  502 -0.47832166327E+02  0.84996488033E+02  0.32184566733E+03  0.33630130180E+03  0.12699999809E+01 0.  1.
</event>
<event>
 5   0  0.9177281E-02  0.6094766E+03  0.7818609E-02  0.9885938E-01
        1   -1    0    0  501    0  0.00000000000E+00  0.00000000000E+00  0.10251352319E+04  0.10251352319E+04  0.50400001928E-02 0. -1.
       -1   -1    0    0    0  501  0.00000000000E+00  0.00000000000E+00 -0.90588473024E+02  0.90588473165E+02  0.50400001928E-02 0.  1.
    10030    2    1    2    0    0  0.00000000000E+00  0.00000000000E+00  0.93454675885E+03  0.11157237050E+04  0.60947661279E+03 0.  0.
        1    1    3    3  502    0 -0.11131373177E+03  0.17597053887E+03  0.59947553906E+02  0.21667968681E+03  0.50400001928E-02 0.  1.
       -1    1    3    3    0  502  0.11131373177E+03 -0.17597053887E+03  0.87459920494E+03  0.89904401824E+03  0.50400001928E-02 0. -1.
</event>
<event>
 5   0  0.9420349E-02  0.5796149E+03  0.7818609E-02  0.9948625E-01
        1   -1    0    0  501    0  0.00000000000E+00  0.00000000000E+00  0.53709852825E+03  0.53709852827E+03  0.50400001928E-02 0.  1.
       -1   -1    0    0    0  501  0.00000000000E+00  0.00000000000E+00 -0.15637419595E+03  0.15637419603E+03  0.50400001928E-02 0. -1.
    10030    2    1    2    0    0  0.00000000000E+00  0.00000000000E+00  0.38072433230E+03  0.69347272431E+03  0.57961487399E+03 0.  0.
        2    1    3    3  502    0 -0.10719587700E+03 -0.26808813392E+03  0.16042380713E+03  0.33029986603E+03  0.25500000920E-02 0. -1.
       -2    1    3    3    0  502  0.10719587700E+03  0.26808813392E+03  0.22030052517E+03  0.36317285828E+03  0.25500000920E-02 0.  1.
</event>
<event>
 5   0  0.8860626E-02  0.6044364E+03  0.7818609E-02  0.9896244E-01
       -1   -1    0    0    0  501  0.00000000000E+00  0.00000000000E+00  0.98089896571E+02  0.98089896701E+02  0.50400001928E-02 0. -1.
        1   -1    0    0  501    0  0.00000000000E+00  0.00000000000E+00 -0.93114431303E+03  0.93114431304E+03  0.50400001928E-02 0.  1.
    10030    2    1    2    0    0  0.00000000000E+00  0.00000000000E+00 -0.83305441646E+03  0.10292342097E+04  0.60443642985E+03 0.  0.
        3    1    3    3  502    0 -0.48945016367E+02  0.23627932950E+02  0.89699855444E+02  0.10488073279E+03  0.10100000352E+00 0. -1.
       -3    1    3    3    0  502  0.48945016367E+02 -0.23627932950E+02 -0.92275427190E+03  0.92435347695E+03  0.10100000352E+00 0.  1.
</event>
<event>
 5   0  0.9177281E-02  0.5961579E+03  0.7818609E-02  0.9913409E-01
        1   -1    0    0  501    0  0.00000000000E+00  0.00000000000E+00  0.17837390988E+04  0.17837390988E+04  0.50400001928E-02 0. -1.
       -1   -1    0    0    0  501  0.00000000000E+00  0.00000000000E+00 -0.49811687845E+02  0.49811688100E+02  0.50400001928E-02 0.  1.
    10030    2    1    2    0    0  0.00000000000E+00  0.00000000000E+00  0.17339274110E+04  0.18335507869E+04  0.59615788321E+03 0.  0.
        1    1    3    3  502    0  0.10356478606E+03 -0.20777303549E+03  0.14419943684E+04  0.14605625826E+04  0.50400001928E-02 0. -1.
       -1    1    3    3    0  502 -0.10356478606E+03  0.20777303549E+03  0.29193304257E+03  0.37298820431E+03  0.50400001928E-02 0.  1.
</event>
<event>
 5   0  0.9497860E-02  0.6098021E+03  0.7818609E-02  0.9885276E-01
       -1   -1    0    0    0  501  0.00000000000E+00  0.00000000000E+00  0.66077950311E+03  0.66077950313E+03  0.50400001928E-02 0.  1.
        1   -1    0    0  501    0  0.00000000000E+00  0.00000000000E+00 -0.14068935982E+03  0.14068935992E+03  0.50400001928E-02 0. -1.
    10030    2    1    2    0    0  0.00000000000E+00  0.00000000000E+00  0.52009014328E+03  0.80146886304E+03  0.60980208370E+03 0.  0.
        5    1    3    3  502    0  0.11809862544E+03  0.23704930047E+03  0.61576024858E+02  0.27194365781E+03  0.46999998093E+01 0.  1.
       -5    1    3    3    0  502 -0.11809862544E+03 -0.23704930047E+03  0.45851411842E+03  0.52952520523E+03  0.46999998093E+01 0. -1.
</event>
<event>
 5   0  0.6170500E-02  0.6470355E+03  0.7818609E-02  0.9812358E-01
       -4   -1    0    0    0  501  0.00000000000E+00  0.00000000000E+00  0.23054621580E+03  0.23054971377E+03  0.12699999809E+01 0.  1.
        4   -1    0    0  501    0  0.00000000000E+00  0.00000000000E+00 -0.45397377601E+03  0.45397555243E+03  0.12699999809E+01 0. -1.
    10030    2    1    2    0    0  0.00000000000E+00  0.00000000000E+00 -0.22342756021E+03  0.68452526620E+03  0.64703552097E+03 0.  0.
        1    1    3    3  502    0 -0.90598988448E+02  0.21421429301E+03  0.12618838524E+03  0.26461188301E+03  0.50400001928E-02 0.  1.
       -1    1    3    3    0  502  0.90598988448E+02 -0.21421429301E+03 -0.34961594545E+03  0.41991338318E+03  0.50400001928E-02 0. -1.
</event>
<event>
 5   0  0.9497860E-02  0.5619193E+03  0.7818609E-02  0.9987721E-01
        1   -1    0    0  501    0  0.00000000000E+00  0.00000000000E+00  0.73882652578E+03  0.73882652580E+03  0.50400001928E-02 0.  1.
       -1   -1    0    0    0  501  0.00000000000E+00  0.00000000000E+00 -0.10684284356E+03  0.10684284368E+03  0.50400001928E-02 0. -1.
    10030    2    1    2    0    0  0.00000000000E+00  0.00000000000E+00  0.63198368222E+03  0.84566936949E+03  0.56191930728E+03 0.  0.
        5    1    3    3  502    0  0.17291712432E+03  0.21565409422E+03  0.39137871493E+03  0.47917262937E+03  0.46999998093E+01 0.  1.
       -5    1    3    3    0  502 -0.17291712432E+03 -0.21565409422E+03  0.24060496729E+03  0.36649674012E+03  0.46999998093E+01 0. -1.
</event>
<event>
 5   0  0.6170500E-02  0.5989393E+03  0.7818609E-02  0.9907609E-01
       -4   -1    0    0    0  501  0.00000000000E+00  0.00000000000E+00  0.66597300103E+03  0.66597421197E+03  0.12699999809E+01 0. -1.
        4   -1    0    0  501    0  0.00000000000E+00  0.00000000000E+00 -0.13465890202E+03  0.13466489072E+03  0.12699999809E+01 0.  1.
    10030    2    1    2    0    0  0.00000000000E+00  0.00000000000E+00  0.53131409901E+03  0.80063910269E+03  0.59893931324E+03 0.  0.
        2    1    3    3  502    0 -0.61908512275E+02  0.24632232759E+03  0.53559172874E+02  0.25956875383E+03  0.25500000920E-02 0.  1.
       -2    1    3    3    0  502  0.61908512275E+02 -0.24632232759E+03  0.47775492614E+03  0.54107034886E+03  0.25500000920E-02 0. -1.
</event>
<event>
 5   0  0.1488510E-01  0.6008771E+03  0.7818609E-02  0.9903588E-01
       -2   -1    0    0    0  501  0.00000000000E+00  0.00000000000E+00  0.39124691651E+02  0.39124691734E+02  0.25500000920E-02 0. -1.
        2   -1    0    0  501    0  0.00000000000E+00  0.00000000000E+00 -0.23070679865E+04  0.23070679865E+04  0.25500000920E-02 0.  1.
    10030    2    1    2    0    0  0.00000000000E+00  0.00000000000E+00 -0.22679432948E+04  0.23461926782E+04  0.60087710453E+03 0.  0.
        5    1    3    3  502    0 -0.11283009093E+03  0.24696221118E+03 -0.63210700898E+03  0.68796971152E+03  0.46999998093E+01 0. -1.
       -5    1    3    3    0  502  0.11283009093E+03 -0.24696221118E+03 -0.16358362858E+04  0.16582229667E+04  0.46999998093E+01 0.  1.
</event>
<event>
 5   0  0.9177281E-02  0.6018335E+03  0.7818609E-02  0.9901609E-01
       -1   -1    0    0    0  501  0.00000000000E+00  0.00000000000E+00  0.28951096474E+03  0.28951096479E+03  0.50400001928E-02 0.  1.
        1   -1    0    0  501    0  0.00000000000E+00  0.00000000000E+00 -0.31277187484E+03  0.31277187489E+03  0.50400001928E-02 0. -1.
    10030    2    1    2    0    0  0.00000000000E+00  0.00000000000E+00 -0.23260910103E+02  0.60228283967E+03  0.60183348945E+03 0.  0.
        1    1    3    3  502    0 -0.78141657794E+02 -0.10027940775E+03 -0.28457721367E+03  0.31168296211E+03  0.50400001928E-02 0. -1.
       -1    1    3    3    0  502  0.78141657794E+02  0.10027940775E+03  0.26131630357E+03  0.29059987756E+03  0.50400001928E-02 0.  1.
</event>
<event>
 5   0  0.1488510E-01  0.6095601E+03  0.7818609E-02  0.9885768E-01
       -2   -1    0    0    0  501  0.00000000000E+00  0.00000000000E+00  0.24217360239E+03  0.24217360241E+03  0.25500000920E-02 0.  1.
        2   -1    0    0  501    0  0.00000000000E+00  0.00000000000E+00 -0.38357148366E+03  0.38357148367E+03  0.25500000920E-02 0. -1.
    10030    2    1    2    0    0  0.00000000000E+00  0.00000000000E+00 -0.14139788126E+03  0.62574508607E+03  0.60956012986E+03 0.  0.
        5    1    3    3  502    0 -0.56277388326E+02 -0.28279780771E+03 -0.17194346562E+03  0.33575048749E+03  0.46999998093E+01 0.  1.
       -5    1    3    3    0  502  0.56277388326E+02  0.28279780771E+03  0.30545584355E+02  0.28999459858E+03  0.46999998093E+01 0. -1.
</event>
<event>
 5   0  0.8860626E-02  0.5798480E+03  0.7818609E-02  0.9948120E-01
        1   -1    0    0  501    0  0.00000000000E+00  0.00000000000E+00  0.38597064871E+03  0.38597064875E+03  0.50400001928E-02 0. -1.
       -1   -1    0    0    0  501  0.00000000000E+00  0.00000000000E+00 -0.21777806071E+03  0.21777806077E+03  0.50400001928E-02 0.  1.
    10030    2    1    2    0    0  0.00000000000E+00  0.00000000000E+00  0.16819258800E+03  0.60374870952E+03  0.57984804698E+03 0.  0.
        3    1    3    3  502    0  0.54273712438E+02  0.21897765665E+03  0.27369843972E+03  0.35469380609E+03  0.10100000352E+00 0. -1.
       -3    1    3    3    0  502 -0.54273712438E+02 -0.21897765665E+03 -0.10550585172E+03  0.24905490343E+03  0.10100000352E+00 0.  1.
</event>
<event>
 5   0  0.1483942E-01  0.7376200E+03  0.7818609E-02  0.9654975E-01
        2   -1    0    0  501    0  0.00000000000E+00  0.00000000000E+00  0.51452983210E+03  0.51452983211E+03  0.25500000920E-02 0.  1.
       -2   -1    0    0    0  501  0.00000000000E+00  0.00000000000E+00 -0.26435941887E+03  0.26435941888E+03  0.25500000920E-02 0. -1.
    10030    2    1    2    0    0  0.00000000000E+00  0.00000000000E+00  0.25017041323E+03  0.77888925099E+03  0.73761997644E+03 0.  0.
        4    1    3    3  502    0 -0.19798094713E+03  0.25967147985E+03 -0.55952236927E+02  0.33129744731E+03  0.12699999809E+01 0. -1.
       -4    1    3    3    0  502  0.19798094713E+03 -0.25967147985E+03  0.30612265016E+03  0.44759180368E+03  0.12699999809E+01 0.  1.
</event>
<event>
 5   0  0.9411028E-02  0.5515905E+03  0.7818609E-02  0.1001126E+00
        1   -1    0    0  501    0  0.00000000000E+00  0.00000000000E+00  0.16299106259E+03  0.16299106267E+03  0.50400001928E-02 0. -1.
       -1   -1    0    0    0  501  0.00000000000E+00  0.00000000000E+00 -0.46666990448E+03  0.46666990450E+03  0.50400001928E-02 0.  1.
    10030    2    1    2    0    0  0.00000000000E+00  0.00000000000E+00 -0.30367884189E+03  0.62966096717E+03  0.55159051349E+03 0.  0.
        4    1    3    3  502    0  0.16343698149E+03 -0.36448927744E+02  0.98314126800E+02  0.19418406649E+03  0.12699999809E+01 0. -1.
       -4    1    3    3    0  502 -0.16343698149E+03  0.36448927744E+02 -0.40199296869E+03  0.43547690068E+03  0.12699999809E+01 0.  1.
</event>
<event>
 5   0  0.1483942E-01  0.5856019E+03  0.7818609E-02  0.9935736E-01
       -2   -1    0    0    0  501  0.00000000000E+00  0.00000000000E+00  0.65787457573E+02  0.65787457622E+02  0.25500000920E-02 0.  1.
        2   -1    0    0  501    0  0.00000000000E+00  0.00000000000E+00 -0.13031723451E+04  0.13031723451E+04  0.25500000920E-02 0. -1.
    10030    2    1    2    0    0  0.00000000000E+00  0.00000000000E+00 -0.12373848875E+04  0.13689598027E+04  0.58560189685E+03 0.  0.
        4    1    3    3  502    0  0.79148977002E+02  0.69710841836E+02 -0.12572159725E+04  0.12616329801E+04  0.12699999809E+01 0. -1.
       -4    1    3    3    0  502 -0.79148977002E+02 -0.69710841836E+02  0.19831084960E+02  0.10732682265E+03  0.12699999809E+01 0.  1.
</event>
<event>
 5   0  0.1502642E-01  0.5991606E+03  0.7818609E-02  0.9907149E-01
       -2   -1    0    0    0  501  0.00000000000E+00  0.00000000000E+00  0.54486780651E+02  0.54486780710E+02  0.25500000920E-02 0.  1.
        2   -1    0    0  501    0  0.00000000000E+00  0.00000000000E+00 -0.16471585002E+04  0.16471585002E+04  0.25500000920E-02 0. -1.
    10030    2    1    2    0    0  0.00000000000E+00  0.00000000000E+00 -0.15926717195E+04  0.17016452809E+04  0.59916062603E+03 0.  0.
        2    1    3    3  502    0 -0.23005538790E+02  0.14981283511E+03 -0.15302300389E+04  0.15377181511E+04  0.25500000920E-02 0. -1.
       -2    1    3    3    0  502  0.23005538790E+02 -0.14981283511E+03 -0.62441680604E+02  0.16392712973E+03  0.25500000920E-02 0.  1.
</event>
<event>
 5   0  0.9177281E-02  0.6145847E+03  0.7818609E-02  0.9875601E-01
       -1   -1    0    0    0  501  0.00000000000E+00  0.00000000000E+00  0.70934071432E+02  0.70934071611E+02  0.50400001928E-02 0.  1.
        1   -1    0    0  501    0  0.00000000000E+00  0.00000000000E+00 -0.13312162992E+04  0.13312162992E+04  0.50400001928E-02 0. -1.
    10030    2    1    2    0    0  0.00000000000E+00  0.00000000000E+00 -0.12602822277E+04  0.14021503708E+04  0.61458471243E+03 0.  0.
        1    1    3    3  502    0  0.84165184366E+02 -0.29298892916E+03 -0.71856943079E+03  0.78055641549E+03  0.50400001928E-02 0.  1.
       -1    1    3    3    0  502 -0.84165184366E+02  0.29298892916E+03 -0.54171279695E+03  0.62159395531E+03  0.50400001928E-02 0. -1.
</event>
<event>
 5   0  0.9497860E-02  0.5991673E+03  0.7818609E-02  0.9907135E-01
        1   -1    0    0  501    0  0.00000000000E+00  0.00000000000E+00  0.10263451477E+04  0.10263451477E+04  0.50400001928E-02 0.  1.
       -1   -1    0    0    0  501  0.00000000000E+00  0.00000000000E+00 -0.87446579789E+02  0.87446579934E+02  0.50400001928E-02 0. -1.
    10030    2    1    2    0    0  0.00000000000E+00  0.00000000000E+00  0.93889856790E+03  0.11137917276E+04  0.59916733201E+03 0.  0.
        5    1    3    3  502    0 -0.80778063175E+02 -0.18030655457E+02  0.10045995057E+04  0.10080141154E+04  0.46999998093E+01 0.  1.
       -5    1    3    3    0  502  0.80778063175E+02  0.18030655457E+02 -0.65700937784E+02  0.10577761224E+03  0.46999998093E+01 0. -1.
</event>
<event>
 5   0  0.9177281E-02  0.5984894E+03  0.7818609E-02  0.9908545E-01
       -1   -1    0    0    0  501  0.00000000000E+00  0.00000000000E+00  0.24524700694E+03  0.24524700699E+03  0.50400001928E-02 0.  1.
        1   -1    0    0  501    0  0.00000000000E+00  0.00000000000E+00 -0.36513141622E+03  0.36513141626E+03  0.50400001928E-02 0. -1.
    10030    2    1    2    0    0  0.00000000000E+00  0.00000000000E+00 -0.11988440928E+03  0.61037842325E+03  0.59848938836E+03 0.  0.
        1    1    3    3  502    0  0.61330700183E+02  0.19385142401E+03  0.16398160949E+03  0.26120834146E+03  0.50400001928E-02 0.  1.
       -1    1    3    3    0  502 -0.61330700183E+02 -0.19385142401E+03 -0.28386601877E+03  0.34917008178E+03  0.50400001928E-02 0. -1.
</event>
<event>
 5   0  0.1488510E-01  0.6036262E+03  0.7818609E-02  0.9897911E-01
        2   -1    0    0  501    0  0.00000000000E+00  0.00000000000E+00  0.47167490364E+03  0.47167490365E+03  0.25500000920E-02 0. -1.
       -2   -1    0    0    0  501  0.00000000000E+00  0.00000000000E+00 -0.19312271057E+03  0.19312271059E+03  0.25500000920E-02 0.  1.
    10030    2    1    2    0    0  0.00000000000E+00  0.00000000000E+00  0.27855219308E+03  0.66479761424E+03  0.60362616215E+03 0.  0.
        5    1    3    3  502    0  0.16042925629E+03  0.17727657267E+03 -0.63515602978E+02  0.24742847716E+03  0.46999998093E+01 0.  1.
       -5    1    3    3    0  502 -0.16042925629E+03 -0.17727657267E+03  0.34206779605E+03  0.41736913708E+03  0.46999998093E+01 0. -1.
</event>
<event>
 5   0  0.1513339E-01  0.6060393E+03  0.7818609E-02  0.9892955E-01
       -2   -1    0    0    0  501  0.00000000000E+00  0.00000000000E+00  0.88391874397E+02  0.88391874434E+02  0.25500000920E-02 0.  1.
        2   -1    0    0  501    0  0.00000000000E+00  0.00000000000E+00 -0.10387934049E+04  0.10387934049E+04  0.25500000920E-02 0. -1.
    10030    2    1    2    0    0  0.00000000000E+00  0.00000000000E+00 -0.95040153054E+03  0.11271852794E+04  0.60603926010E+03 0.  0.
        3    1    3    3  502    0 -0.29762568505E+03  0.52800703995E+02 -0.51473987545E+03  0.59693057580E+03  0.10100000352E+00 0.  1.
       -3    1    3    3    0  502  0.29762568505E+03 -0.52800703995E+02 -0.43566165509E+03  0.53025470357E+03  0.10100000352E+00 0. -1.
</event>
<event>
 5   0  0.1513339E-01  0.5977982E+03  0.7818609E-02  0.9909985E-01
        2   -1    0    0  501    0  0.00000000000E+00  0.00000000000E+00  0.62022361486E+03  0.62022361486E+03  0.25500000920E-02 0. -1.
       -2   -1    0    0    0  501  0.00000000000E+00  0.00000000000E+00 -0.14404591558E+03  0.14404591560E+03  0.25500000920E-02 0.  1.
    10030    2    1    2    0    0  0.00000000000E+00  0.00000000000E+00  0.47617769928E+03  0.76426953046E+03  0.59779822173E+03 0.  0.
        3    1    3    3  502    0 -0.55687164213E+02  0.23967861260E+03  0.45502962979E+03  0.51729959577E+03  0.10100000352E+00 0. -1.
       -3    1    3    3    0  502  0.55687164213E+02 -0.23967861260E+03  0.21148069487E+02  0.24696993469E+03  0.10100000352E+00 0.  1.
</event>
<event>
 5   0  0.9420349E-02  0.6119574E+03  0.7818609E-02  0.9880904E-01
       -1   -1    0    0    0  501  0.00000000000E+00  0.00000000000E+00  0.70246841494E+03  0.70246841495E+03  0.50400001928E-02 0. -1.
        1   -1    0    0  501    0  0.00000000000E+00  0.00000000000E+00 -0.13327710574E+03  0.13327710583E+03  0.50400001928E-02 0.  1.
    10030    2    1    2    0    0  0.00000000000E+00  0.00000000000E+00  0.56919130920E+03  0.83574552079E+03  0.61195737519E+03 0.  0.
        2    1    3    3  502    0 -0.27550061373E+03 -0.80452750869E+02  0.13974388085E+03  0.31922027744E+03  0.25500000920E-02 0.  1.
       -2    1    3    3    0  502  0.27550061373E+03  0.80452750869E+02  0.42944742835E+03  0.51652524334E+03  0.25500000920E-02 0. -1.
</event>
<event>
 5   0  0.1483942E-01  0.5913995E+03  0.7818609E-02  0.9923412E-01
       -2   -1    0    0    0  501  0.00000000000E+00  0.00000000000E+00  0.10167399353E+03  0.10167399356E+03  0.25500000920E-02 0. -1.
        2   -1    0    0  501    0  0.00000000000E+00  0.00000000000E+00 -0.85998722853E+03  0.85998722853E+03  0.25500000920E-02 0.  1.
    10030    2    1    2    0    0  0.00000000000E+00  0.00000000000E+00 -0.75831323500E+03  0.96166122209E+03  0.59139947895E+03 0.  0.
        4    1    3    3  502    0  0.15891270671E+03 -0.39589862510E+02  0.21189134181E+02  0.16513993422E+03  0.12699999809E+01 0. -1.
       -4    1    3    3    0  502 -0.15891270671E+03  0.39589862510E+02 -0.77950236918E+03  0.79652128787E+03  0.12699999809E+01 0.  1.
</event>
<event>
 5   0  0.9177281E-02  0.5566883E+03  0.7818609E-02  0.9999576E-01
        1   -1    0    0  501    0  0.00000000000E+00  0.00000000000E+00  0.13135537305E+04  0.13135537305E+04  0.50400001928E-02 0.  1.
       -1   -1    0    0    0  501  0.00000000000E+00  0.00000000000E+00 -0.58981581342E+02  0.58981581557E+02  0.50400001928E-02 0. -1.
    10030    2    1    2    0    0  0.00000000000E+00  0.00000000000E+00  0.12545721492E+04  0.13725353121E+04  0.55668833778E+03 0.  0.
        1    1    3    3  502    0  0.12802947119E+02  0.58166619474E+02 -0.43086880033E+02  0.73510205634E+02  0.50400001928E-02 0. -1.
       -1    1    3    3    0  502 -0.12802947119E+02 -0.58166619474E+02  0.12976590292E+04  0.12990251064E+04  0.50400001928E-02 0.  1.
</event>
<event>
 5   0  0.1513339E-01  0.6085519E+03  0.7818609E-02  0.9887821E-01
       -2   -1    0    0    0  501  0.00000000000E+00  0.00000000000E+00  0.55216993689E+02  0.55216993748E+02  0.25500000920E-02 0.  1.
        2   -1    0    0  501    0  0.00000000000E+00  0.00000000000E+00 -0.16767275401E+04  0.16767275401E+04  0.25500000920E-02 0. -1.
    10030    2    1    2    0    0  0.00000000000E+00  0.00000000000E+00 -0.16215105464E+04  0.17319445338E+04  0.60855190100E+03 0.  0.
        3    1    3    3  502    0  0.21978051773E+03 -0.14756975168E+03 -0.12376902548E+04  0.12656845913E+04  0.10100000352E+00 0. -1.
       -3    1    3    3    0  502 -0.21978051773E+03  0.14756975168E+03 -0.38382029157E+03  0.46625994252E+03  0.10100000352E+00 0.  1.
</event>
<event>
 5   0  0.9177281E-02  0.6126079E+03  0.7818609E-02  0.9879588E-01
        1   -1    0    0  501    0  0.00000000000E+00  0.00000000000E+00  0.22280617714E+03  0.22280617720E+03  0.50400001928E-02 0. -1.
       -1   -1    0    0    0  501  0.00000000000E+00  0.00000000000E+00 -0.42109295342E+03  0.42109295345E+03  0.50400001928E-02 0.  1.
    10030    2    1    2    0    0  0.00000000000E+00  0.00000000000E+00 -0.19828677628E+03  0.64389913065E+03  0.61260790462E+03 0.  0.
        1    1    3    3  502    0 -0.29071321114E+03  0.23063546974E+02 -0.67793869719E+00  0.29162743005E+03  0.50400001928E-02 0. -1.
       -1    1    3    3    0  502  0.29071321114E+03 -0.23063546974E+02 -0.19760883758E+03  0.35227170060E+03  0.50400001928E-02 0.  1.
</event>
<event>
 5   0  0.6170500E-02  0.6264743E+03  0.7818609E-02  0.9851953E-01
       -3   -1    0    0    0  501  0.00000000000E+00  0.00000000000E+00  0.93664769747E+03  0.93664770292E+03  0.10100000352E+00 0. -1.
        3   -1    0    0  501    0  0.00000000000E+00  0.00000000000E+00 -0.10475386950E+03  0.10475391819E+03  0.10100000352E+00 0.  1.
    10030    2    1    2    0    0  0.00000000000E+00  0.00000000000E+00  0.83189382797E+03  0.10414016211E+04  0.62647425760E+03 0.  0.
        3    1    3    3  502    0 -0.14794978463E+03 -0.41829599793E+02 -0.37713486641E+02  0.15830720599E+03  0.10100000352E+00 0.  1.
       -3    1    3    3    0  502  0.14794978463E+03  0.41829599793E+02  0.86960731461E+03  0.88309441512E+03  0.10100000352E+00 0. -1.
</event>
<event>
 5   0  0.1488510E-01  0.5683393E+03  0.7818609E-02  0.9973360E-01
       -2   -1    0    0    0  501  0.00000000000E+00  0.00000000000E+00  0.97174403443E+02  0.97174403476E+02  0.25500000920E-02 0. -1.
        2   -1    0    0  501    0  0.00000000000E+00  0.00000000000E+00 -0.83100485376E+03  0.83100485376E+03  0.25500000920E-02 0.  1.
    10030    2    1    2    0    0  0.00000000000E+00  0.00000000000E+00 -0.73383045032E+03  0.92817925724E+03  0.56833933856E+03 0.  0.
        5    1    3    3  502    0  0.13876909814E+01  0.14992858766E+03 -0.76107415924E+03  0.77571674789E+03  0.46999998093E+01 0.  1.
       -5    1    3    3    0  502 -0.13876909814E+01 -0.14992858766E+03  0.27243708924E+02  0.15246250936E+03  0.46999998093E+01 0. -1.
</event>
<event>
 5   0  0.9497860E-02  0.5936368E+03  0.7818609E-02  0.9918696E-01
        1   -1    0    0  501    0  0.00000000000E+00  0.00000000000E+00  0.38895531049E+03  0.38895531053E+03  0.50400001928E-02 0.  1.
       -1   -1    0    0    0  501  0.00000000000E+00  0.00000000000E+00 -0.22650713226E+03  0.22650713232E+03  0.50400001928E-02 0. -1.
    10030    2    1    2    0    0  0.00000000000E+00  0.00000000000E+00  0.16244817823E+03  0.61546244284E+03  0.59363676431E+03 0.  0.
        5    1    3    3  502    0 -0.63022806628E+01  0.12485325003E+03  0.36028755690E+03  0.38138860292E+03  0.46999998093E+01 0.  1.
       -5    1    3    3    0  502  0.63022806628E+01 -0.12485325003E+03 -0.19783937867E+03  0.23407383992E+03  0.46999998093E+01 0. -1.
</event>
<event>
 5   0  0.9420349E-02  0.6055061E+03  0.7818609E-02  0.9894048E-01
        1   -1    0    0  501    0  0.00000000000E+00  0.00000000000E+00  0.10885050019E+04  0.10885050019E+04  0.50400001928E-02 0. -1.
       -1   -1    0    0    0  501  0.00000000000E+00  0.00000000000E+00 -0.84206705959E+02  0.84206706110E+02  0.50400001928E-02 0.  1.
    10030    2    1    2    0    0  0.00000000000E+00  0.00000000000E+00  0.10042982959E+04  0.11727117080E+04  0.60550613778E+03 0.  0.
        2    1    3    3  502    0  0.15282530657E+03 -0.72402045879E+02  0.98850691820E+03  0.10028676672E+04  0.25500000920E-02 0. -1.
       -2    1    3    3    0  502 -0.15282530657E+03  0.72402045879E+02  0.15791377710E+02  0.16984404079E+03  0.25500000920E-02 0.  1.
</event>
<event>
 5   0  0.1502642E-01  0.6007632E+03  0.7818609E-02  0.9903824E-01
        2   -1    0    0  501    0  0.00000000000E+00  0.00000000000E+00  0.36370630768E+03  0.36370630769E+03  0.25500000920E-02 0.  1.
       -2   -1    0    0    0  501  0.00000000000E+00  0.00000000000E+00 -0.24808233134E+03  0.24808233135E+03  0.25500000920E-02 0. -1.
    10030    2    1    2    0    0  0.00000000000E+00  0.00000000000E+00  0.11562397634E+03  0.61178863904E+03  0.60076321038E+03 0.  0.
        2    1    3    3  502    0 -0.21771207744E+03  0.18545365790E-01 -0.15294158834E+03  0.26606329784E+03  0.25500000920E-02 0. -1.
       -2    1    3    3    0  502  0.21771207744E+03 -0.18545365790E-01  0.26856556468E+03  0.34572534120E+03  0.25500000920E-02 0.  1.
</event>
<event>
 5   0  0.1513339E-01  0.5946352E+03  0.7818609E-02  0.9916599E-01
        2   -1    0    0  501    0  0.00000000000E+00  0.00000000000E+00  0.25389457631E+03  0.25389457632E+03  0.25500000920E-02 0.  1.
       -2   -1    0    0    0  501  0.00000000000E+00  0.00000000000E+00 -0.34816721847E+03  0.34816721848E+03  0.25500000920E-02 0. -1.
    10030    2    1    2    0    0  0.00000000000E+00  0.00000000000E+00 -0.94272642166E+02  0.60206179480E+03  0.59463524425E+03 0.  0.
        3    1    3    3  502    0  0.70304122182E+02 -0.28854366690E+03 -0.32902258961E+02  0.29880208525E+03  0.10100000352E+00 0.  1.
       -3    1    3    3    0  502 -0.70304122182E+02  0.28854366690E+03 -0.61370383205E+02  0.30325970955E+03  0.10100000352E+00 0. -1.
</event>
<event>
 5   0  0.8860626E-02  0.6007063E+03  0.7818609E-02  0.9903942E-01
        1   -1    0    0  501    0  0.00000000000E+00  0.00000000000E+00  0.74507511768E+02  0.74507511939E+02  0.50400001928E-02 0. -1.
       -1   -1    0    0    0  501  0.00000000000E+00  0.00000000000E+00 -0.12107773809E+04  0.12107773809E+04  0.50400001928E-02 0.  1.
    10030    2    1    2    0    0  0.00000000000E+00  0.00000000000E+00 -0.11362698691E+04  0.12852848928E+04  0.60070628454E+03 0.  0.
        3    1    3    3  502    0 -0.10041618931E+03  0.19217766160E+03 -0.12344153997E+03  0.24950649027E+03  0.10100000352E+00 0. -1.
       -3    1    3    3    0  502  0.10041618931E+03 -0.19217766160E+03 -0.10128283291E+04  0.10357784026E+04  0.10100000352E+00 0.  1.
</event>
<event>
 5   0  0.1488510E-01  0.5916535E+03  0.7818609E-02  0.9922875E-01
        2   -1    0    0  501    0  0.00000000000E+00  0.00000000000E+00  0.22310289089E+04  0.22310289089E+04  0.25500000920E-02 0.  1.
       -2   -1    0    0    0  501  0.00000000000E+00  0.00000000000E+00 -0.39225611869E+02  0.39225611952E+02  0.25500000920E-02 0. -1.
    10030    2    1    2    0    0  0.00000000000E+00  0.00000000000E+00  0.21918032970E+04  0.22702545208E+04  0.59165352748E+03 0.  0.
        5    1    3    3  502    0 -0.17420423414E+02  0.21329771714E+03  0.31241168200E+03  0.37871167970E+03  0.46999998093E+01 0. -1.
       -5    1    3    3    0  502  0.17420423414E+02 -0.21329771714E+03  0.18793916150E+04  0.18915428411E+04  0.46999998093E+01 0.  1.
</event>
<event>
 5   0  0.1483942E-01  0.6021134E+03  0.7818609E-02  0.9901031E-01
       -2   -1    0    0    0  501  0.00000000000E+00  0.00000000000E+00  0.29223960385E+03  0.29223960386E+03  0.25500000920E-02 0.  1.
        2   -1    0    0  501    0  0.00000000000E+00  0.00000000000E+00 -0.31013985341E+03  0.31013985342E+03  0.25500000920E-02 0. -1.
    10030    2    1    2    0    0  0.00000000000E+00  0.00000000000E+00 -0.17900249568E+02  0.60237945728E+03  0.60211343750E+03 0.  0.
        4    1    3    3  502    0  0.97013565669E+02  0.18259900049E+03 -0.22786066529E+03  0.30769485304E+03  0.12699999809E+01 0. -1.
       -4    1    3    3    0  502 -0.97013565669E+02 -0.18259900049E+03  0.20996041572E+03  0.29468460424E+03  0.12699999809E+01 0.  1.
</event>
<event>
 5   0  0.1502642E-01  0.6067000E+03  0.7818609E-02  0.9891602E-01
        2   -1    0    0  501    0  0.00000000000E+00  0.00000000000E+00  0.46125853932E+03  0.46125853932E+03  0.25500000920E-02 0.  1.
       -2   -1    0    0    0  501  0.00000000000E+00  0.00000000000E+00 -0.19950029431E+03  0.19950029433E+03  0.25500000920E-02 0. -1.
    10030    2    1    2    0    0  0.00000000000E+00  0.00000000000E+00  0.26175824501E+03  0.66075883365E+03  0.60669997315E+03 0.  0.
        2    1    3    3  502    0  0.16790547088E+03  0.18403359342E+03 -0.57635169838E+02  0.25569986990E+03  0.25500000920E-02 0. -1.
       -2    1    3    3    0  502 -0.16790547088E+03 -0.18403359342E+03  0.31939341485E+03  0.40505896375E+03  0.25500000920E-02 0.  1.
</event>
<event>
 5   0  0.6170500E-02  0.5992579E+03  0.7818609E-02  0.9906947E-01
        4   -1    0    0  501    0  0.00000000000E+00  0.00000000000E+00  0.56741410680E+03  0.56741552807E+03  0.12699999809E+01 0.  1.
       -4   -1    0    0    0  501  0.00000000000E+00  0.00000000000E+00 -0.15821800624E+03  0.15822310324E+03  0.12699999809E+01 0. -1.
    10030    2    1    2    0    0  0.00000000000E+00  0.00000000000E+00  0.40919610056E+03  0.72563863132E+03  0.59925785314E+03 0.  0.
        4    1    3    3  502    0  0.10364301655E+03  0.12470648046E+03  0.50969157237E+03  0.53486511664E+03  0.12699999809E+01 0.  1.
       -4    1    3    3    0  502 -0.10364301655E+03 -0.12470648046E+03 -0.10049547181E+03  0.19077351468E+03  0.12699999809E+01 0. -1.
</event>
<event>
 5   0  0.1502642E-01  0.5704525E+03  0.7818609E-02  0.9968678E-01
       -2   -1    0    0    0  501  0.00000000000E+00  0.00000000000E+00  0.31585520411E+03  0.31585520412E+03  0.25500000920E-02 0.  1.
        2   -1    0    0  501    0  0.00000000000E+00  0.00000000000E+00 -0.25756745601E+03  0.25756745603E+03  0.25500000920E-02 0. -1.
    10030    2    1    2    0    0  0.00000000000E+00  0.00000000000E+00  0.58287748093E+02  0.57342266014E+03  0.57045252702E+03 0.  0.
        2    1    3    3  502    0  0.77396460349E+01  0.14472057334E+03 -0.21779772132E+03  0.26161000341E+03  0.25500000920E-02 0. -1.
       -2    1    3    3    0  502 -0.77396460349E+01 -0.14472057334E+03  0.27608546941E+03  0.31181265673E+03  0.25500000920E-02 0.  1.
</event>
<event>
 5   0  0.1488510E-01  0.5953397E+03  0.7818609E-02  0.9915122E-01
       -2   -1    0    0    0  501  0.00000000000E+00  0.00000000000E+00  0.22924663641E+03  0.22924663643E+03  0.25500000920E-02 0.  1.
        2   -1    0    0  501    0  0.00000000000E+00  0.00000000000E+00 -0.38651535588E+03  0.38651535589E+03  0.25500000920E-02 0. -1.
    10030    2    1    2    0    0  0.00000000000E+00  0.00000000000E+00 -0.15726871947E+03  0.61576199232E+03  0.59533971903E+03 0.  0.
        5    1    3    3  502    0  0.17681334033E+02  0.25950596592E+03 -0.22826659300E+03  0.34609782346E+03  0.46999998093E+01 0. -1.
       -5    1    3    3    0  502 -0.17681334033E+02 -0.25950596592E+03  0.70997873538E+02  0.26966416886E+03  0.46999998093E+01 0.  1.
</event>
<event>
 5   0  0.6170500E-02  0.6062833E+03  0.7818609E-02  0.9892455E-01
        3   -1    0    0  501    0  0.00000000000E+00  0.00000000000E+00  0.35271145320E+03  0.35271146766E+03  0.10100000352E+00 0.  1.
       -3   -1    0    0    0  501  0.00000000000E+00  0.00000000000E+00 -0.26053829708E+03  0.26053831665E+03  0.10100000352E+00 0. -1.
    10030    2    1    2    0    0  0.00000000000E+00  0.00000000000E+00  0.92173156127E+02  0.61324978432E+03  0.60628327311E+03 0.  0.
        5    1    3    3  502    0 -0.18223487535E+03 -0.48103899559E+02  0.28619411818E+03  0.34271372635E+03  0.46999998093E+01 0.  1.
       -5    1    3    3    0  502  0.18223487535E+03  0.48103899559E+02 -0.19402096205E+03  0.27053605797E+03  0.46999998093E+01 0. -1.
</event>
<event>
 5   0  0.1483942E-01  0.5919256E+03  0.7818609E-02  0.9922301E-01
        2   -1    0    0  501    0  0.00000000000E+00  0.00000000000E+00  0.91835657298E+03  0.91835657299E+03  0.25500000920E-02 0. -1.
       -2   -1    0    0    0  501  0.00000000000E+00  0.00000000000E+00 -0.95381220922E+02  0.95381220956E+02  0.25500000920E-02 0.  1.
    10030    2    1    2    0    0  0.00000000000E+00  0.00000000000E+00  0.82297535206E+03  0.10137377939E+04  0.59192557367E+03 0.  0.
        4    1    3    3  502    0 -0.24136431926E+03  0.85945811477E+02  0.15776147229E+03  0.30088820542E+03  0.12699999809E+01 0.  1.
       -4    1    3    3    0  502  0.24136431926E+03 -0.85945811477E+02  0.66521387977E+03  0.71284958853E+03  0.12699999809E+01 0. -1.
</event>
<event>
 5   0  0.1502642E-01  0.5765804E+03  0.7818609E-02  0.9955222E-01
       -2   -1    0    0    0  501  0.00000000000E+00  0.00000000000E+00  0.11674842603E+03  0.11674842606E+03  0.25500000920E-02 0. -1.
        2   -1    0    0  501    0  0.00000000000E+00  0.00000000000E+00 -0.71188324831E+03  0.71188324832E+03  0.25500000920E-02 0.  1.
    10030    2    1    2    0    0  0.00000000000E+00  0.00000000000E+00 -0.59513482228E+03  0.82863167437E+03  0.57658043245E+03 0.  0.
        2    1    3    3  502    0  0.10505419845E+03  0.26129902014E+03 -0.20900260623E+03  0.35070735942E+03  0.25500000920E-02 0. -1.
       -2    1    3    3    0  502 -0.10505419845E+03 -0.26129902014E+03 -0.38613221606E+03  0.47792431495E+03  0.25500000920E-02 0.  1.
</event>
<event>
 5   0  0.1488510E-01  0.6148568E+03  0.7818609E-02  0.9875053E-01
        2   -1    0    0  501    0  0.00000000000E+00  0.00000000000E+00  0.15990890226E+04  0.15990890226E+04  0.25500000920E-02 0. -1.
       -2   -1    0    0    0  501  0.00000000000E+00  0.00000000000E+00 -0.59103790483E+02  0.59103790538E+02  0.25500000920E-02 0.  1.
    10030    2    1    2    0    0  0.00000000000E+00  0.00000000000E+00  0.15399852321E+04  0.16581928132E+04  0.61485680481E+03 0.  0.
        5    1    3    3  502    0  0.24262809702E+03  0.16419004891E+03  0.10210103475E+04  0.10622198385E+04  0.46999998093E+01 0.  1.
       -5    1    3    3    0  502 -0.24262809702E+03 -0.16419004891E+03  0.51897488462E+03  0.59597297463E+03  0.46999998093E+01 0. -1.
</event>
<event>
 5   0  0.9411028E-02  0.6216138E+03  0.7818609E-02  0.9861552E-01
        1   -1    0    0  501    0  0.00000000000E+00  0.00000000000E+00  0.85861777556E+03  0.85861777558E+03  0.50400001928E-02 0. -1.
       -1   -1    0    0    0  501  0.00000000000E+00  0.00000000000E+00 -0.11250749985E+03  0.11250749997E+03  0.50400001928E-02 0.  1.
    10030    2    1    2    0    0  0.00000000000E+00  0.00000000000E+00  0.74611027571E+03  0.97112527554E+03  0.62161383292E+03 0.  0.
        4    1    3    3  502    0 -0.13660522314E+03 -0.15839254022E+03  0.73220662511E+03  0.76149677513E+03  0.12699999809E+01 0. -1.
       -4    1    3    3    0  502  0.13660522314E+03  0.15839254022E+03  0.13903650600E+02  0.20962850041E+03  0.12699999809E+01 0.  1.
</event>
<event>
 5   0  0.1513339E-01  0.6382046E+03  0.7818609E-02  0.9829168E-01
        2   -1    0    0  501    0  0.00000000000E+00  0.00000000000E+00  0.34715689794E+03  0.34715689795E+03  0.25500000920E-02 0. -1.
       -2   -1    0    0    0  501  0.00000000000E+00  0.00000000000E+00 -0.29331486581E+03  0.29331486582E+03  0.25500000920E-02 0.  1.
    10030    2    1    2    0    0  0.00000000000E+00  0.00000000000E+00  0.53842032133E+02  0.64047176377E+03  0.63820460337E+03 0.  0.
        3    1    3    3  502    0  0.11223875878E+03  0.29870828200E+03  0.25469491811E+02  0.32011385775E+03  0.10100000352E+00 0.  1.
       -3    1    3    3    0  502 -0.11223875878E+03 -0.29870828200E+03  0.28372540321E+02  0.32035790603E+03  0.10100000352E+00 0. -1.
</event>
<event>
 5   0  0.9411028E-02  0.5230112E+03  0.7818609E-02  0.1007941E+00
        1   -1    0    0  501    0  0.00000000000E+00  0.00000000000E+00  0.47320751923E+03  0.47320751926E+03  0.50400001928E-02 0. -1.
       -1   -1    0    0    0  501  0.00000000000E+00  0.00000000000E+00 -0.14451415732E+03  0.14451415741E+03  0.50400001928E-02 0.  1.
    10030    2    1    2    0    0  0.00000000000E+00  0.00000000000E+00  0.32869336191E+03  0.61772167667E+03  0.52301122710E+03 0.  0.
        4    1    3    3  502    0  0.25808539445E+03  0.32621401354E+02  0.19584753923E+03  0.32562263155E+03  0.12699999809E+01 0.  1.
       -4    1    3    3    0  502 -0.25808539445E+03 -0.32621401354E+02  0.13284582268E+03  0.29209904512E+03  0.12699999809E+01 0. -1.
</event>
<event>
 5   0  0.1502642E-01  0.6183148E+03  0.7818609E-02  0.9868121E-01
        2   -1    0    0  501    0  0.00000000000E+00  0.00000000000E+00  0.29631821501E+03  0.29631821502E+03  0.25500000920E-02 0.  1.
       -2   -1    0    0    0  501  0.00000000000E+00  0.00000000000E+00 -0.32255294014E+03  0.32255294015E+03  0.25500000920E-02 0. -1.
    10030    2    1    2    0    0  0.00000000000E+00  0.00000000000E+00 -0.26234725130E+02  0.61887115516E+03  0.61831484366E+03 0.  0.
        2    1    3    3  502    0  0.86038022592E+02  0.41221469683E+02  0.28121619025E+03  0.29695840880E+03  0.25500000920E-02 0.  1.
       -2    1    3    3    0  502 -0.86038022592E+02 -0.41221469683E+02 -0.30745091538E+03  0.32191274636E+03  0.25500000920E-02 0. -1.
</event>
<event>
 5   0  0.1488510E-01  0.6196446E+03  0.7818609E-02  0.9865468E-01
        2   -1    0    0  501    0  0.00000000000E+00  0.00000000000E+00  0.88652366152E+03  0.88652366153E+03  0.25500000920E-02 0. -1.
       -2   -1    0    0    0  501  0.00000000000E+00  0.00000000000E+00 -0.10827669651E+03  0.10827669654E+03  0.25500000920E-02 0.  1.
    10030    2    1    2    0    0  0.00000000000E+00  0.00000000000E+00  0.77824696501E+03  0.99480035807E+03  0.61964458674E+03 0.  0.
        5    1    3    3  502    0  0.15753126806E+03 -0.24484168027E+03  0.21918803354E+03  0.36445717561E+03  0.46999998093E+01 0. -1.
       -5    1    3    3    0  502 -0.15753126806E+03  0.24484168027E+03  0.55905893147E+03  0.63034318246E+03  0.46999998093E+01 0.  1.
</event>
<event>
 5   0  0.9177281E-02  0.5910830E+03  0.7818609E-02  0.9924081E-01
        1   -1    0    0  501    0  0.00000000000E+00  0.00000000000E+00  0.37704508574E+03  0.37704508577E+03  0.50400001928E-02 0.  1.
       -1   -1    0    0    0  501  0.00000000000E+00  0.00000000000E+00 -0.23165608240E+03  0.23165608245E+03  0.50400001928E-02 0. -1.
    10030    2    1    2    0    0  0.00000000000E+00  0.00000000000E+00  0.14538900334E+03  0.60870116822E+03  0.59108303131E+03 0.  0.
        1    1    3    3  502    0 -0.15364274829E+03 -0.47089226344E+02 -0.18273343116E+03  0.24334131632E+03  0.50400001928E-02 0. -1.
       -1    1    3    3    0  502  0.15364274829E+03  0.47089226344E+02  0.32812243449E+03  0.36535985190E+03  0.50400001928E-02 0.  1.
</event>
<event>
 5   0  0.9411028E-02  0.6024577E+03  0.7818609E-02  0.9900320E-01
        1   -1    0    0  501    0  0.00000000000E+00  0.00000000000E+00  0.67228126133E+03  0.67228126135E+03  0.50400001928E-02 0. -1.
       -1   -1    0    0    0  501  0.00000000000E+00  0.00000000000E+00 -0.13497153020E+03  0.13497153029E+03  0.50400001928E-02 0.  1.
    10030    2    1    2    0    0  0.00000000000E+00  0.00000000000E+00  0.53730973114E+03  0.80725279164E+03  0.60245773498E+03 0.  0.
        4    1    3    3  502    0 -0.13808699265E+03  0.18904217415E+03  0.14659836658E+02  0.23456658939E+03  0.12699999809E+01 0.  1.
       -4    1    3    3    0  502  0.13808699265E+03 -0.18904217415E+03  0.52264989448E+03  0.57268620225E+03  0.12699999809E+01 0. -1.
</event>
<event>
 5   0  0.8860626E-02  0.6022456E+03  0.7818609E-02  0.9900758E-01
       -1   -1    0    0    0  501  0.00000000000E+00  0.00000000000E+00  0.90500873469E+03  0.90500873470E+03  0.50400001928E-02 0.  1.
        1   -1    0    0  501    0  0.00000000000E+00  0.00000000000E+00 -0.10019232360E+03  0.10019232372E+03  0.50400001928E-02 0. -1.
    10030    2    1    2    0    0  0.00000000000E+00  0.00000000000E+00  0.80481641109E+03  0.10052010584E+04  0.60224555814E+03 0.  0.
        3    1    3    3  502    0  0.28210735871E+03  0.96981136697E+02  0.33389390344E+03  0.44774440440E+03  0.10100000352E+00 0.  1.
       -3    1    3    3    0  502 -0.28210735871E+03 -0.96981136697E+02  0.47092250765E+03  0.55745665403E+03  0.10100000352E+00 0. -1.
</event>
<event>
 5   0  0.9497860E-02  0.5692262E+03  0.7818609E-02  0.9971392E-01
       -1   -1    0    0    0  501  0.00000000000E+00  0.00000000000E+00  0.73602720599E+02  0.73602720772E+02  0.50400001928E-02 0. -1.
        1   -1    0    0  501    0  0.00000000000E+00  0.00000000000E+00 -0.11005656692E+04  0.11005656692E+04  0.50400001928E-02 0.  1.
    10030    2    1    2    0    0  0.00000000000E+00  0.00000000000E+00 -0.10269629486E+04  0.11741683899E+04  0.56922623817E+03 0.  0.
        5    1    3    3  502    0 -0.11597580753E+03 -0.13418969947E+03 -0.54432608896E+02  0.18558626642E+03  0.46999998093E+01 0. -1.
       -5    1    3    3    0  502  0.11597580753E+03  0.13418969947E+03 -0.97253033966E+03  0.98858212351E+03  0.46999998093E+01 0.  1.
</event>
<event>
 5   0  0.9497860E-02  0.5899049E+03  0.7818609E-02  0.9926574E-01
       -1   -1    0    0    0  501  0.00000000000E+00  0.00000000000E+00  0.84560411203E+03  0.84560411205E+03  0.50400001928E-02 0. -1.
        1   -1    0    0  501    0  0.00000000000E+00  0.00000000000E+00 -0.10288140495E+03  0.10288140507E+03  0.50400001928E-02 0.  1.
    10030    2    1    2    0    0  0.00000000000E+00  0.00000000000E+00  0.74272270708E+03  0.94848551712E+03  0.58990487078E+03 0.  0.
        5    1    3    3  502    0  0.18218388804E+03  0.12691670689E+03  0.59270323634E+02  0.22985621769E+03  0.46999998093E+01 0.  1.
       -5    1    3    3    0  502 -0.18218388804E+03 -0.12691670689E+03  0.68345238345E+03  0.71862929942E+03  0.46999998093E+01 0. -1.
</event>
<event>
 5   0  0.9177281E-02  0.5965302E+03  0.7818609E-02  0.9912631E-01
       -1   -1    0    0    0  501  0.00000000000E+00  0.00000000000E+00  0.16083436480E+03  0.16083436488E+03  0.50400001928E-02 0. -1.
        1   -1    0    0  501    0  0.00000000000E+00  0.00000000000E+00 -0.55312842551E+03  0.55312842553E+03  0.50400001928E-02 0.  1.
    10030    2    1    2    0    0  0.00000000000E+00  0.00000000000E+00 -0.39229406071E+03  0.71396279041E+03  0.59653016355E+03 0.  0.
        1    1    3    3  502    0 -0.39546728402E+02 -0.29558935538E+03 -0.20213709908E+03  0.36027269892E+03  0.50400001928E-02 0. -1.
       -1    1    3    3    0  502  0.39546728402E+02  0.29558935538E+03 -0.19015696163E+03  0.35369009149E+03  0.50400001928E-02 0.  1.
</event>
<event>
 5   0  0.1488510E-01  0.6039261E+03  0.7818609E-02  0.9897294E-01
       -2   -1    0    0    0  501  0.00000000000E+00  0.00000000000E+00  0.58426342163E+02  0.58426342219E+02  0.25500000920E-02 0.  1.
        2   -1    0    0  501    0  0.00000000000E+00  0.00000000000E+00 -0.15606260369E+04  0.15606260369E+04  0.25500000920E-02 0. -1.
    10030    2    1    2    0    0  0.00000000000E+00  0.00000000000E+00 -0.15021996947E+04  0.16190523791E+04  0.60392605795E+03 0.  0.
        5    1    3    3  502    0 -0.18408474770E+03 -0.23796579140E+03 -0.68303146829E+03  0.74637054396E+03  0.46999998093E+01 0.  1.
       -5    1    3    3    0  502  0.18408474770E+03  0.23796579140E+03 -0.81916822643E+03  0.87268183515E+03  0.46999998093E+01 0. -1.
</event>
<event>
 5   0  0.6170500E-02  0.6975824E+03  0.7818609E-02  0.9721376E-01
        3   -1    0    0  501    0  0.00000000000E+00  0.00000000000E+00  0.31238160274E+03  0.31238161907E+03  0.10100000352E+00 0.  1.
       -3   -1    0    0    0  501  0.00000000000E+00  0.00000000000E+00 -0.38944450660E+03  0.38944451970E+03  0.10100000352E+00 0. -1.
    10030    2    1    2    0    0  0.00000000000E+00  0.00000000000E+00 -0.77062903857E+02  0.70182613877E+03  0.69758242374E+03 0.  0.
        4    1    3    3  502    0 -0.14257085854E+03 -0.30965421694E+03  0.35683914697E+02  0.34276396899E+03  0.12699999809E+01 0. -1.
       -4    1    3    3    0  502  0.14257085854E+03  0.30965421694E+03 -0.11274681855E+03  0.35906216978E+03  0.12699999809E+01 0.  1.
</event>
<event>
 5   0  0.9497860E-02  0.6579854E+03  0.7818609E-02  0.9791909E-01
       -1   -1    0    0    0  501  0.00000000000E+00  0.00000000000E+00  0.75636180545E+02  0.75636180712E+02  0.50400001928E-02 0.  1.
        1   -1    0    0  501    0  0.00000000000E+00  0.00000000000E+00 -0.14310108346E+04  0.14310108346E+04  0.50400001928E-02 0. -1.
    10030    2    1    2    0    0  0.00000000000E+00  0.00000000000E+00 -0.13553746540E+04  0.15066470153E+04  0.65798539187E+03 0.  0.
        5    1    3    3  502    0 -0.29752121398E+02 -0.26541706173E+03 -0.11174380970E+04  0.11489218407E+04  0.46999998093E+01 0. -1.
       -5    1    3    3    0  502  0.29752121398E+02  0.26541706173E+03 -0.23793655705E+03  0.35772517463E+03  0.46999998093E+01 0.  1.
</event>
<event>
 5   0  0.1488510E-01  0.5985636E+03  0.7818609E-02  0.9908391E-01
        2   -1    0    0  501    0  0.00000000000E+00  0.00000000000E+00  0.22137497322E+04  0.22137497322E+04  0.25500000920E-02 0.  1.
       -2   -1    0    0    0  501  0.00000000000E+00  0.00000000000E+00 -0.40460583454E+02  0.40460583535E+02  0.25500000920E-02 0. -1.
    10030    2    1    2    0    0  0.00000000000E+00  0.00000000000E+00  0.21732891487E+04  0.22542103157E+04  0.59856363364E+03 0.  0.
        5    1    3    3  502    0  0.26278766632E+02 -0.41352952224E+02 -0.25112793694E+02  0.55257421571E+02  0.46999998093E+01 0. -1.
       -5    1    3    3    0  502 -0.26278766632E+02  0.41352952224E+02  0.21984019424E+04  0.21989528941E+04  0.46999998093E+01 0.  1.
</event>
<event>
 5   0  0.9411028E-02  0.6038744E+03  0.7818609E-02  0.9897400E-01
       -1   -1    0    0    0  501  0.00000000000E+00  0.00000000000E+00  0.25328342462E+03  0.25328342467E+03  0.50400001928E-02 0. -1.
        1   -1    0    0  501    0  0.00000000000E+00  0.00000000000E+00 -0.35993702193E+03  0.35993702197E+03  0.50400001928E-02 0.  1.
    10030    2    1    2    0    0  0.00000000000E+00  0.00000000000E+00 -0.10665359731E+03  0.61322044664E+03  0.60387442930E+03 0.  0.
        4    1    3    3  502    0 -0.86039606777E+02  0.38991153392E+02  0.23788910488E+03  0.25596086243E+03  0.12699999809E+01 0. -1.
       -4    1    3    3    0  502  0.86039606777E+02 -0.38991153392E+02 -0.34454270219E+03  0.35725958421E+03  0.12699999809E+01 0.  1.
</event>
<event>
 5   0  0.9497860E-02  0.6321075E+03  0.7818609E-02  0.9840945E-01
        1   -1    0    0  501    0  0.00000000000E+00  0.00000000000E+00  0.54170695401E+03  0.54170695403E+03  0.50400001928E-02 0.  1.
       -1   -1    0    0    0  501  0.00000000000E+00  0.00000000000E+00 -0.18439853974E+03  0.18439853981E+03  0.50400001928E-02 0. -1.
    10030    2    1    2    0    0  0.00000000000E+00  0.00000000000E+00  0.35730841427E+03  0.72610549384E+03  0.63210749503E+03 0.  0.
        5    1    3    3  502    0 -0.27216445489E+03  0.10717497872E+03  0.31605744118E+03  0.43066734574E+03  0.46999998093E+01 0.  1.
       -5    1    3    3    0  502  0.27216445489E+03 -0.10717497872E+03  0.41250973094E+02  0.29543814809E+03  0.46999998093E+01 0. -1.
</event>
<event>
 5   0  0.1513339E-01  0.6499520E+03  0.7818609E-02  0.9806869E-01
        2   -1    0    0  501    0  0.00000000000E+00  0.00000000000E+00  0.16837160273E+03  0.16837160275E+03  0.25500000920E-02 0. -1.
       -2   -1    0    0    0  501  0.00000000000E+00  0.00000000000E+00 -0.62724005824E+03  0.62724005825E+03  0.25500000920E-02 0.  1.
    10030    2    1    2    0    0  0.00000000000E+00  0.00000000000E+00 -0.45886845551E+03  0.79561166099E+03  0.64995204103E+03 0.  0.
        3    1    3    3  502    0 -0.92523055323E+02  0.64356031048E+02 -0.60255075666E+03  0.61300052124E+03  0.10100000352E+00 0.  1.
       -3    1    3    3    0  502  0.92523055323E+02 -0.64356031048E+02  0.14368230114E+03  0.18261113975E+03  0.10100000352E+00 0. -1.
</event>
<event>
 5   0  0.1488510E-01  0.6052777E+03  0.7818609E-02  0.9894517E-01
       -2   -1    0    0    0  501  0.00000000000E+00  0.00000000000E+00  0.10877693666E+03  0.10877693669E+03  0.25500000920E-02 0. -1.
        2   -1    0    0  501    0  0.00000000000E+00  0.00000000000E+00 -0.84200096784E+03  0.84200096785E+03  0.25500000920E-02 0.  1.
    10030    2    1    2    0    0  0.00000000000E+00  0.00000000000E+00 -0.73322403119E+03  0.95077790453E+03  0.60527774107E+03 0.  0.
        5    1    3    3  502    0  0.64446539530E+02 -0.14206813172E+02  0.97277978500E+02  0.11764474105E+03  0.46999998093E+01 0. -1.
       -5    1    3    3    0  502 -0.64446539530E+02  0.14206813172E+02 -0.83050200969E+03  0.83313316348E+03  0.46999998093E+01 0.  1.
</event>
<event>
 5   0  0.9497860E-02  0.5599771E+03  0.7818609E-02  0.9992107E-01
       -1   -1    0    0    0  501  0.00000000000E+00  0.00000000000E+00  0.20060510662E+03  0.20060510668E+03  0.50400001928E-02 0.  1.
        1   -1    0    0  501    0  0.00000000000E+00  0.00000000000E+00 -0.39078555169E+03  0.39078555172E+03  0.50400001928E-02 0. -1.
    10030    2    1    2    0    0  0.00000000000E+00  0.00000000000E+00 -0.19018044507E+03  0.59139065841E+03  0.55997706128E+03 0.  0.
        5    1    3    3  502    0 -0.22584205749E+03  0.11799042072E+03 -0.21754802201E+03  0.33507552312E+03  0.46999998093E+01 0. -1.
       -5    1    3    3    0  502  0.22584205749E+03 -0.11799042072E+03  0.27367576942E+02  0.25631513529E+03  0.46999998093E+01 0.  1.
</event>
<event>
 5   0  0.1483942E-01  0.5892875E+03  0.7818609E-02  0.9927884E-01
        2   -1    0    0  501    0  0.00000000000E+00  0.00000000000E+00  0.40966263264E+03  0.40966263265E+03  0.25500000920E-02 0.  1.
       -2   -1    0    0    0  501  0.00000000000E+00  0.00000000000E+00 -0.21191815815E+03  0.21191815817E+03  0.25500000920E-02 0. -1.
    10030    2    1    2    0    0  0.00000000000E+00  0.00000000000E+00  0.19774447449E+03  0.62158079082E+03  0.58928753790E+03 0.  0.
        4    1    3    3  502    0 -0.52934097176E+02  0.22688131752E+03  0.28913493668E+03  0.37131896719E+03  0.12699999809E+01 0.  1.
       -4    1    3    3    0  502  0.52934097176E+02 -0.22688131752E+03 -0.91390462193E+02  0.25026182363E+03  0.12699999809E+01 0. -1.
</event>
<event>
 5   0  0.9177281E-02  0.6090022E+03  0.7818609E-02  0.9886903E-01
        1   -1    0    0  501    0  0.00000000000E+00  0.00000000000E+00  0.69602386432E+03  0.69602386434E+03  0.50400001928E-02 0. -1.
       -1   -1    0    0    0  501  0.00000000000E+00  0.00000000000E+00 -0.13321514726E+03  0.13321514735E+03  0.50400001928E-02 0.  1.
    10030    2    1    2    0    0  0.00000000000E+00  0.00000000000E+00  0.56280871706E+03  0.82923901169E+03  0.60900220567E+03 0.  0.
        1    1    3    3  502    0  0.23342124224E+03 -0.19549895246E+03  0.27602549174E+03  0.41096884172E+03  0.50400001928E-02 0.  1.
       -1    1    3    3    0  502 -0.23342124224E+03  0.19549895246E+03  0.28678322532E+03  0.41827016998E+03  0.50400001928E-02 0. -1.
</event>
<event>
 5   0  0.9420349E-02  0.6116628E+03  0.7818609E-02  0.9881501E-01
       -1   -1    0    0    0  501  0.00000000000E+00  0.00000000000E+00  0.85250043371E+02  0.85250043520E+02  0.50400001928E-02 0. -1.
        1   -1    0    0  501    0  0.00000000000E+00  0.00000000000E+00 -0.10971589478E+04  0.10971589478E+04  0.50400001928E-02 0.  1.
    10030    2    1    2    0    0  0.00000000000E+00  0.00000000000E+00 -0.10119089045E+04  0.11824089914E+04  0.61166280901E+03 0.  0.
        2    1    3    3  502    0 -0.38198434223E+02 -0.25442380146E+03 -0.18630583649E+03  0.31764832102E+03  0.25500000920E-02 0. -1.
       -2    1    3    3    0  502  0.38198434223E+02  0.25442380146E+03 -0.82560306797E+03  0.86476067034E+03  0.25500000920E-02 0.  1.
</event>
<event>
 5   0  0.9420349E-02  0.6075142E+03  0.7818609E-02  0.9889938E-01
        1   -1    0    0  501    0  0.00000000000E+00  0.00000000000E+00  0.15155422239E+03  0.15155422247E+03  0.50400001928E-02 0.  1.
       -1   -1    0    0    0  501  0.00000000000E+00  0.00000000000E+00 -0.60881432136E+03  0.60881432138E+03  0.50400001928E-02 0. -1.
    10030    2    1    2    0    0  0.00000000000E+00  0.00000000000E+00 -0.45726009898E+03  0.76036854385E+03  0.60751421742E+03 0.  0.
        2    1    3    3  502    0 -0.19060835709E+03 -0.17415563856E+03 -0.42891304069E+03  0.50062773466E+03  0.25500000920E-02 0. -1.
       -2    1    3    3    0  502  0.19060835709E+03  0.17415563856E+03 -0.28347058290E+02  0.25974080919E+03  0.25500000920E-02 0.  1.
</event>
<event>
 5   0  0.9411028E-02  0.6063397E+03  0.7818609E-02  0.9892340E-01
        1   -1    0    0  501    0  0.00000000000E+00  0.00000000000E+00  0.16537496373E+03  0.16537496381E+03  0.50400001928E-02 0. -1.
       -1   -1    0    0    0  501  0.00000000000E+00  0.00000000000E+00 -0.55577912730E+03  0.55577912732E+03  0.50400001928E-02 0.  1.
    10030    2    1    2    0    0  0.00000000000E+00  0.00000000000E+00 -0.39040416357E+03  0.72115409113E+03  0.60633968386E+03 0.  0.
        4    1    3    3  502    0  0.14519971836E+03 -0.24181017552E+03 -0.63000291327E+02  0.28900825041E+03  0.12699999809E+01 0. -1.
       -4    1    3    3    0  502 -0.14519971836E+03  0.24181017552E+03 -0.32740387224E+03  0.43214584072E+03  0.12699999809E+01 0.  1.
</event>
<event>
 5   0  0.9177281E-02  0.6050336E+03  0.7818609E-02  0.9895018E-01
       -1   -1    0    0    0  501  0.00000000000E+00  0.00000000000E+00  0.57934719511E+02  0.57934719730E+02  0.50400001928E-02 0. -1.
        1   -1    0    0  501    0  0.00000000000E+00  0.00000000000E+00 -0.15796473102E+04  0.15796473102E+04  0.50400001928E-02 0.  1.
    10030    2    1    2    0    0  0.00000000000E+00  0.00000000000E+00 -0.15217125907E+04  0.16375820299E+04  0.60503363221E+03 0.  0.
        1    1    3    3  502    0  0.84164458307E+02  0.24825706783E+03 -0.11695541551E+04  0.11985708780E+04  0.50400001928E-02 0. -1.
       -1    1    3    3    0  502 -0.84164458307E+02 -0.24825706783E+03 -0.35215843557E+03  0.43901115196E+03  0.50400001928E-02 0.  1.
</event>
<event>
 5   0  0.9497860E-02  0.5135800E+03  0.7818609E-02  0.1010294E+00
        1   -1    0    0  501    0  0.00000000000E+00  0.00000000000E+00  0.17872339404E+04  0.17872339404E+04  0.50400001928E-02 0.  1.
       -1   -1    0    0    0  501  0.00000000000E+00  0.00000000000E+00 -0.36895618045E+02  0.36895618390E+02  0.50400001928E-02 0. -1.
    10030    2    1    2    0    0  0.00000000000E+00  0.00000000000E+00  0.17503383224E+04  0.18241295588E+04  0.51357998849E+03 0.  0.
        5    1    3    3  502    0 -0.76810982579E+01 -0.92011011692E+02  0.17260735817E+04  0.17285476925E+04  0.46999998093E+01 0.  1.
       -5    1    3    3    0  502  0.76810982579E+01  0.92011011692E+02  0.24264740662E+02  0.95581866380E+02  0.46999998093E+01 0. -1.
</event>
<event>
 5   0  0.1483942E-01  0.6124156E+03  0.7818609E-02  0.9879977E-01
       -2   -1    0    0    0  501  0.00000000000E+00  0.00000000000E+00  0.71691173953E+02  0.71691173999E+02  0.25500000920E-02 0.  1.
        2   -1    0    0  501    0  0.00000000000E+00  0.00000000000E+00 -0.13078766519E+04  0.13078766519E+04  0.25500000920E-02 0. -1.
    10030    2    1    2    0    0  0.00000000000E+00  0.00000000000E+00 -0.12361854780E+04  0.13795678259E+04  0.61241558633E+03 0.  0.
        4    1    3    3  502    0 -0.49872024972E+02  0.20753690304E+03 -0.12351675768E+03  0.24661059857E+03  0.12699999809E+01 0.  1.
       -4    1    3    3    0  502  0.49872024972E+02 -0.20753690304E+03 -0.11126687203E+04  0.11329572273E+04  0.12699999809E+01 0. -1.
</event>
<event>
 5   0  0.9497860E-02  0.6037967E+03  0.7818609E-02  0.9897560E-01
        1   -1    0    0  501    0  0.00000000000E+00  0.00000000000E+00  0.84505536156E+03  0.84505536157E+03  0.50400001928E-02 0.  1.
       -1   -1    0    0    0  501  0.00000000000E+00  0.00000000000E+00 -0.10785402945E+03  0.10785402956E+03  0.50400001928E-02 0. -1.
    10030    2    1    2    0    0  0.00000000000E+00  0.00000000000E+00  0.73720133211E+03  0.95290939114E+03  0.60379674034E+03 0.  0.
        5    1    3    3  502    0 -0.10019583681E+03  0.82651773452E+02 -0.61439592659E+02  0.14376172965E+03  0.46999998093E+01 0. -1.
       -5    1    3    3    0  502  0.10019583681E+03 -0.82651773452E+02  0.79864092477E+03  0.80914766149E+03  0.46999998093E+01 0.  1.
</event>
<event>
 5   0  0.1483942E-01  0.5794204E+03  0.7818609E-02  0.9949047E-01
        2   -1    0    0  501    0  0.00000000000E+00  0.00000000000E+00  0.27476823832E+03  0.27476823833E+03  0.25500000920E-02 0. -1.
       -2   -1    0    0    0  501  0.00000000000E+00  0.00000000000E+00 -0.30546472896E+03  0.30546472897E+03  0.25500000920E-02 0.  1.
    10030    2    1    2    0    0  0.00000000000E+00  0.00000000000E+00 -0.30696490637E+02  0.58023296730E+03  0.57942041887E+03 0.  0.
        4    1    3    3  502    0 -0.21597339100E+03 -0.38430125442E+01  0.17797978048E+03  0.27988870917E+03  0.12699999809E+01 0. -1.
       -4    1    3    3    0  502  0.21597339100E+03  0.38430125442E+01 -0.20867627111E+03  0.30034425813E+03  0.12699999809E+01 0.  1.
</event>
<event>
 5   0  0.9177281E-02  0.5857764E+03  0.7818609E-02  0.9935363E-01
        1   -1    0    0  501    0  0.00000000000E+00  0.00000000000E+00  0.10907716815E+04  0.10907716816E+04  0.50400001928E-02 0.  1.
       -1   -1    0    0    0  501  0.00000000000E+00  0.00000000000E+00 -0.78644785192E+02  0.78644785354E+02  0.50400001928E-02 0. -1.
    10030    2    1    2    0    0  0.00000000000E+00  0.00000000000E+00  0.10121268964E+04  0.11694164669E+04  0.58577642387E+03 0.  0.
        1    1    3    3  502    0 -0.55152185146E+02 -0.12541284759E+03  0.10228580988E+04  0.10319926531E+04  0.50400001928E-02 0.  1.
       -1    1    3    3    0  502  0.55152185146E+02  0.12541284759E+03 -0.10731202401E+02  0.13742381380E+03  0.50400001928E-02 0. -1.
</event>
<event>
 5   0  0.6170500E-02  0.5877713E+03  0.7818609E-02  0.9931107E-01
        3   -1    0    0  501    0  0.00000000000E+00  0.00000000000E+00  0.13736011212E+04  0.13736011249E+04  0.10100000352E+00 0.  1.
       -3   -1    0    0    0  501  0.00000000000E+00  0.00000000000E+00 -0.62877573361E+02  0.62877654479E+02  0.10100000352E+00 0. -1.
    10030    2    1    2    0    0  0.00000000000E+00  0.00000000000E+00  0.13107235479E+04  0.14364787794E+04  0.58777126911E+03 0.  0.
        2    1    3    3  502    0  0.13742568885E+03  0.18344546873E+03  0.20584449182E+03  0.30807469025E+03  0.25500000920E-02 0. -1.
       -2    1    3    3    0  502 -0.13742568885E+03 -0.18344546873E+03  0.11048790560E+04  0.11284040892E+04  0.25500000920E-02 0.  1.
</event>
<event>
 5   0  0.1532571E-01  0.5639858E+03  0.7818609E-02  0.9983076E-01
        2   -1    0    0  501    0  0.00000000000E+00  0.00000000000E+00  0.18412057423E+03  0.18412057424E+03  0.25500000920E-02 0.  1.
       -2   -1    0    0    0  501  0.00000000000E+00  0.00000000000E+00 -0.43189091536E+03  0.43189091537E+03  0.25500000920E-02 0. -1.
    10030    2    1    2    0    0  0.00000000000E+00  0.00000000000E+00 -0.24777034114E+03  0.61601148961E+03  0.56398582730E+03 0.  0.
        1    1    3    3  502    0  0.24224843057E+03  0.44451304544E+02  0.26114036986E+02  0.24767350190E+03  0.50400001928E-02 0.  1.
       -1    1    3    3    0  502 -0.24224843057E+03 -0.44451304544E+02 -0.27388437812E+03  0.36833798772E+03  0.50400001928E-02 0. -1.
</event>
<event>
 5   0  0.9177281E-02  0.5948146E+03  0.7818609E-02  0.9916223E-01
       -1   -1    0    0    0  501  0.00000000000E+00  0.00000000000E+00  0.14673916572E+03  0.14673916581E+03  0.50400001928E-02 0. -1.
        1   -1    0    0  501    0  0.00000000000E+00  0.00000000000E+00 -0.60277777348E+03  0.60277777350E+03  0.50400001928E-02 0.  1.
    10030    2    1    2    0    0  0.00000000000E+00  0.00000000000E+00 -0.45603860776E+03  0.74951693931E+03  0.59481461864E+03 0.  0.
        1    1    3    3  502    0 -0.28000007490E+03  0.57894867809E+02 -0.12488268029E+03  0.31200567547E+03  0.50400001928E-02 0. -1.
       -1    1    3    3    0  502  0.28000007490E+03 -0.57894867809E+02 -0.33115592746E+03  0.43751126384E+03  0.50400001928E-02 0.  1.
</event>
<event>
 5   0  0.1502642E-01  0.6065291E+03  0.7818609E-02  0.9891952E-01
        2   -1    0    0  501    0  0.00000000000E+00  0.00000000000E+00  0.62123159427E+03  0.62123159427E+03  0.25500000920E-02 0. -1.
       -2   -1    0    0    0  501  0.00000000000E+00  0.00000000000E+00 -0.14804365315E+03  0.14804365317E+03  0.25500000920E-02 0.  1.
    10030    2    1    2    0    0  0.00000000000E+00  0.00000000000E+00  0.47318794112E+03  0.76927524744E+03  0.60652912437E+03 0.  0.
        2    1    3    3  502    0  0.16665056591E+03 -0.11626222798E+02 -0.84424274833E+02  0.18717648988E+03  0.25500000920E-02 0.  1.
       -2    1    3    3    0  502 -0.16665056591E+03  0.11626222798E+02  0.55761221595E+03  0.58209875757E+03  0.25500000920E-02 0. -1.
</event>
<event>
 5   0  0.9177281E-02  0.6067339E+03  0.7818609E-02  0.9891533E-01
        1   -1    0    0  501    0  0.00000000000E+00  0.00000000000E+00  0.23235640823E+03  0.23235640828E+03  0.50400001928E-02 0.  1.
       -1   -1    0    0    0  501  0.00000000000E+00  0.00000000000E+00 -0.39607901147E+03  0.39607901150E+03  0.50400001928E-02 0. -1.
    10030    2    1    2    0    0  0.00000000000E+00  0.00000000000E+00 -0.16372260324E+03  0.62843541978E+03  0.60673386755E+03 0.  0.
        1    1    3    3  502    0  0.11093981643E+03 -0.99642691217E+02 -0.35549851354E+03  0.38550681179E+03  0.50400001928E-02 0. -1.
       -1    1    3    3    0  502 -0.11093981643E+03  0.99642691217E+02  0.19177591030E+03  0.24292860799E+03  0.50400001928E-02 0.  1.
</event>
<event>
 5   0  0.8860626E-02  0.5631301E+03  0.7818609E-02  0.9984997E-01
       -1   -1    0    0    0  501  0.00000000000E+00  0.00000000000E+00  0.14802868913E+03  0.14802868921E+03  0.50400001928E-02 0.  1.
        1   -1    0    0  501    0  0.00000000000E+00  0.00000000000E+00 -0.53556428330E+03  0.53556428332E+03  0.50400001928E-02 0. -1.
    10030    2    1    2    0    0  0.00000000000E+00  0.00000000000E+00 -0.38753559417E+03  0.68359297254E+03  0.56313010517E+03 0.  0.
        3    1    3    3  502    0 -0.17705822476E+03  0.17265631834E+03 -0.35716948886E+03  0.43443051595E+03  0.10100000352E+00 0. -1.
       -3    1    3    3    0  502  0.17705822476E+03 -0.17265631834E+03 -0.30366105314E+02  0.24916245659E+03  0.10100000352E+00 0.  1.
</event>
<event>
 5   0  0.9177281E-02  0.6106572E+03  0.7818609E-02  0.9883539E-01
        1   -1    0    0  501    0  0.00000000000E+00  0.00000000000E+00  0.44938476040E+03  0.44938476043E+03  0.50400001928E-02 0.  1.
       -1   -1    0    0    0  501  0.00000000000E+00  0.00000000000E+00 -0.20745149174E+03  0.20745149180E+03  0.50400001928E-02 0. -1.
    10030    2    1    2    0    0  0.00000000000E+00  0.00000000000E+00  0.24193326866E+03  0.65683625223E+03  0.61065715075E+03 0.  0.
        1    1    3    3  502    0 -0.35056261514E+02 -0.28832548389E+03  0.19692310909E+02  0.29111563556E+03  0.50400001928E-02 0. -1.
       -1    1    3    3    0  502  0.35056261514E+02  0.28832548389E+03  0.22224095775E+03  0.36572061667E+03  0.50400001928E-02 0.  1.
</event>
<event>
 5   0  0.1488510E-01  0.6080846E+03  0.7818609E-02  0.9888774E-01
        2   -1    0    0  501    0  0.00000000000E+00  0.00000000000E+00  0.15803293914E+03  0.15803293916E+03  0.25500000920E-02 0.  1.
       -2   -1    0    0    0  501  0.00000000000E+00  0.00000000000E+00 -0.58495229499E+03  0.58495229499E+03  0.25500000920E-02 0. -1.
    10030    2    1    2    0    0  0.00000000000E+00  0.00000000000E+00 -0.42691935585E+03  0.74298523416E+03  0.60808463373E+03 0.  0.
        5    1    3    3  502    0  0.25353489321E+03 -0.93852239316E+02 -0.43577260870E+02  0.27387817102E+03  0.46999998093E+01 0.  1.
       -5    1    3    3    0  502 -0.25353489321E+03  0.93852239316E+02 -0.38334209498E+03  0.46910706313E+03  0.46999998093E+01 0. -1.
</event>
<event>
 5   0  0.1513339E-01  0.5943259E+03  0.7818609E-02  0.9917248E-01
       -2   -1    0    0    0  501  0.00000000000E+00  0.00000000000E+00  0.12783434157E+03  0.12783434160E+03  0.25500000920E-02 0.  1.
        2   -1    0    0  501    0  0.00000000000E+00  0.00000000000E+00 -0.69078314584E+03  0.69078314584E+03  0.25500000920E-02 0. -1.
    10030    2    1    2    0    0  0.00000000000E+00  0.00000000000E+00 -0.56294880427E+03  0.81861748744E+03  0.59432586560E+03 0.  0.
        3    1    3    3  502    0 -0.17028504658E+03  0.16111991579E+03 -0.29939110298E+02  0.23633236105E+03  0.10100000352E+00 0.  1.
       -3    1    3    3    0  502  0.17028504658E+03 -0.16111991579E+03 -0.53300969397E+03  0.58228512639E+03  0.10100000352E+00 0. -1.
</event>
<event>
 5   0  0.1532571E-01  0.5995620E+03  0.7818609E-02  0.9906315E-01
        2   -1    0    0  501    0  0.00000000000E+00  0.00000000000E+00  0.31750545120E+03  0.31750545121E+03  0.25500000920E-02 0.  1.
       -2   -1    0    0    0  501  0.00000000000E+00  0.00000000000E+00 -0.28304601110E+03  0.28304601112E+03  0.25500000920E-02 0. -1.
    10030    2    1    2    0    0  0.00000000000E+00  0.00000000000E+00  0.34459440098E+02  0.60055146233E+03  0.59956201172E+03 0.  0.
        1    1    3    3  502    0 -0.86847807627E+02  0.13123756145E+03 -0.23834388274E+03  0.28561100414E+03  0.50400001928E-02 0. -1.
       -1    1    3    3    0  502  0.86847807627E+02 -0.13123756145E+03  0.27280332283E+03  0.31494045818E+03  0.50400001928E-02 0.  1.
</event>
<event>
 5   0  0.9420349E-02  0.3326753E+03  0.7818609E-02  0.1069959E+00
       -1   -1    0    0    0  501  0.00000000000E+00  0.00000000000E+00  0.33369725277E+03  0.33369725281E+03  0.50400001928E-02 0. -1.
        1   -1    0    0  501    0  0.00000000000E+00  0.00000000000E+00 -0.82914103181E+02  0.82914103334E+02  0.50400001928E-02 0.  1.
    10030    2    1    2    0    0  0.00000000000E+00  0.00000000000E+00  0.25078314959E+03  0.41661135614E+03  0.33267526801E+03 0.  0.
        2    1    3    3  502    0  0.15389118029E+03 -0.24629112114E+02  0.52594757477E+02  0.16448494477E+03  0.25500000920E-02 0.  1.
       -2    1    3    3    0  502 -0.15389118029E+03  0.24629112114E+02  0.19818839211E+03  0.25212641137E+03  0.25500000920E-02 0. -1.
</event>
<event>
 5   0  0.9177281E-02  0.5972411E+03  0.7818609E-02  0.9911147E-01
       -1   -1    0    0    0  501  0.00000000000E+00  0.00000000000E+00  0.10899661695E+03  0.10899661707E+03  0.50400001928E-02 0. -1.
        1   -1    0    0  501    0  0.00000000000E+00  0.00000000000E+00 -0.81813748489E+03  0.81813748491E+03  0.50400001928E-02 0.  1.
    10030    2    1    2    0    0  0.00000000000E+00  0.00000000000E+00 -0.70914086794E+03  0.92713410198E+03  0.59724105056E+03 0.  0.
        1    1    3    3  502    0 -0.25085330547E+03 -0.10814886608E+03 -0.16731507681E+03  0.32034027698E+03  0.50400001928E-02 0. -1.
       -1    1    3    3    0  502  0.25085330547E+03  0.10814886608E+03 -0.54182579113E+03  0.60679382500E+03  0.50400001928E-02 0.  1.
</event>
<event>
 5   0  0.1488510E-01  0.6290547E+03  0.7818609E-02  0.9846895E-01
        2   -1    0    0  501    0  0.00000000000E+00  0.00000000000E+00  0.28820484444E+03  0.28820484446E+03  0.25500000920E-02 0. -1.
       -2   -1    0    0    0  501  0.00000000000E+00  0.00000000000E+00 -0.34325394343E+03  0.34325394344E+03  0.25500000920E-02 0.  1.
    10030    2    1    2    0    0  0.00000000000E+00  0.00000000000E+00 -0.55049098982E+02  0.63145878789E+03  0.62905468562E+03 0.  0.
        5    1    3    3  502    0  0.21099828198E+03 -0.18364314223E+03  0.11676162493E+03  0.30315086301E+03  0.46999998093E+01 0. -1.
       -5    1    3    3    0  502 -0.21099828198E+03  0.18364314223E+03 -0.17181072392E+03  0.32830792488E+03  0.46999998093E+01 0.  1.
</event>
<event>
 5   0  0.8860626E-02  0.6071630E+03  0.7818609E-02  0.9890656E-01
        1   -1    0    0  501    0  0.00000000000E+00  0.00000000000E+00  0.23936539847E+04  0.23936539847E+04  0.50400001928E-02 0. -1.
       -1   -1    0    0    0  501  0.00000000000E+00  0.00000000000E+00 -0.38502527358E+02  0.38502527688E+02  0.50400001928E-02 0.  1.
    10030    2    1    2    0    0  0.00000000000E+00  0.00000000000E+00  0.23551514573E+04  0.24321565124E+04  0.60716300427E+03 0.  0.
        3    1    3    3  502    0  0.26662625276E+03  0.11159292436E+03  0.15494697211E+04  0.15761976292E+04  0.10100000352E+00 0. -1.
       -3    1    3    3    0  502 -0.26662625276E+03 -0.11159292436E+03  0.80568173621E+03  0.85595888318E+03  0.10100000352E+00 0.  1.
</event>
<event>
 5   0  0.9411028E-02  0.6202857E+03  0.7818609E-02  0.9864191E-01
       -1   -1    0    0    0  501  0.00000000000E+00  0.00000000000E+00  0.34909114633E+02  0.34909114997E+02  0.50400001928E-02 0.  1.
        1   -1    0    0  501    0  0.00000000000E+00  0.00000000000E+00 -0.27554007905E+04  0.27554007905E+04  0.50400001928E-02 0. -1.
    10030    2    1    2    0    0  0.00000000000E+00  0.00000000000E+00 -0.27204916759E+04  0.27903099055E+04  0.62028574889E+03 0.  0.
        4    1    3    3  502    0 -0.14665254671E+03 -0.10521723688E+03 -0.24947892740E+04  0.25013102109E+04  0.12699999809E+01 0. -1.
       -4    1    3    3    0  502  0.14665254671E+03  0.10521723688E+03 -0.22570240187E+03  0.28899969464E+03  0.12699999809E+01 0.  1.
</event>
<event>
 5   0  0.1513339E-01  0.6983770E+03  0.7818609E-02  0.9720012E-01
        2   -1    0    0  501    0  0.00000000000E+00  0.00000000000E+00  0.19802822962E+04  0.19802822962E+04  0.25500000920E-02 0.  1.
       -2   -1    0    0    0  501  0.00000000000E+00  0.00000000000E+00 -0.61573347707E+02  0.61573347759E+02  0.25500000920E-02 0. -1.
    10030    2    1    2    0    0  0.00000000000E+00  0.00000000000E+00  0.19187089485E+04  0.20418556440E+04  0.69837700546E+03 0.  0.
        3    1    3    3  502    0 -0.23893052919E+03 -0.22432067419E+03  0.60698868569E+03  0.68981362512E+03  0.10100000352E+00 0. -1.
       -3    1    3    3    0  502  0.23893052919E+03  0.22432067419E+03  0.13117202628E+04  0.13520420189E+04  0.10100000352E+00 0.  1.
</event>
<event>
 5   0  0.9497860E-02  0.7607941E+03  0.7818609E-02  0.9618567E-01
        1   -1    0    0  501    0  0.00000000000E+00  0.00000000000E+00  0.19792324876E+03  0.19792324882E+03  0.50400001928E-02 0. -1.
       -1   -1    0    0    0  501  0.00000000000E+00  0.00000000000E+00 -0.73110111794E+03  0.73110111796E+03  0.50400001928E-02 0.  1.
    10030    2    1    2    0    0  0.00000000000E+00  0.00000000000E+00 -0.53317786918E+03  0.92902436678E+03  0.76079408114E+03 0.  0.
        5    1    3    3  502    0 -0.17218285605E+03  0.18976639277E+03 -0.60985659159E+03  0.66151747675E+03  0.46999998093E+01 0.  1.
       -5    1    3    3    0  502  0.17218285605E+03 -0.18976639277E+03  0.76678722410E+02  0.26750689003E+03  0.46999998093E+01 0. -1.
</event>
<event>
 5   0  0.1488510E-01  0.6218866E+03  0.7818609E-02  0.9861011E-01
        2   -1    0    0  501    0  0.00000000000E+00  0.00000000000E+00  0.50267889066E+03  0.50267889067E+03  0.25500000920E-02 0. -1.
       -2   -1    0    0    0  501  0.00000000000E+00  0.00000000000E+00 -0.19234092732E+03  0.19234092734E+03  0.25500000920E-02 0.  1.
    10030    2    1    2    0    0  0.00000000000E+00  0.00000000000E+00  0.31033796334E+03  0.69501981801E+03  0.62188656195E+03 0.  0.
        5    1    3    3  502    0  0.84672283638E+02 -0.24830815072E+03  0.34163494790E+03  0.43077007899E+03  0.46999998093E+01 0. -1.
       -5    1    3    3    0  502 -0.84672283638E+02  0.24830815072E+03 -0.31296984562E+02  0.26424973902E+03  0.46999998093E+01 0.  1.
</event>
<event>
 5   0  0.1483942E-01  0.5971460E+03  0.7818609E-02  0.9911345E-01
       -2   -1    0    0    0  501  0.00000000000E+00  0.00000000000E+00  0.10675090816E+03  0.10675090819E+03  0.25500000920E-02 0.  1.
        2   -1    0    0  501    0  0.00000000000E+00  0.00000000000E+00 -0.83508267717E+03  0.83508267717E+03  0.25500000920E-02 0. -1.
    10030    2    1    2    0    0  0.00000000000E+00  0.00000000000E+00 -0.72833176901E+03  0.94183358536E+03  0.59714599284E+03 0.  0.
        4    1    3    3  502    0  0.16337463131E+03  0.19138021915E+03 -0.11069565584E+03  0.27490507373E+03  0.12699999809E+01 0.  1.
       -4    1    3    3    0  502 -0.16337463131E+03 -0.19138021915E+03 -0.61763611317E+03  0.66692851164E+03  0.12699999809E+01 0. -1.
</event>
<event>
 5   0  0.1532571E-01  0.5788369E+03  0.7818609E-02  0.9950312E-01
       -2   -1    0    0    0  501  0.00000000000E+00  0.00000000000E+00  0.14311606102E+03  0.14311606104E+03  0.25500000920E-02 0. -1.
        2   -1    0    0  501    0  0.00000000000E+00  0.00000000000E+00 -0.58528050341E+03  0.58528050341E+03  0.25500000920E-02 0.  1.
    10030    2    1    2    0    0  0.00000000000E+00  0.00000000000E+00 -0.44216444239E+03  0.72839656445E+03  0.57883690362E+03 0.  0.
        1    1    3    3  502    0 -0.12244353350E+03  0.13413201160E+03  0.62484140053E+02  0.19206270647E+03  0.50400001928E-02 0. -1.
       -1    1    3    3    0  502  0.12244353350E+03 -0.13413201160E+03 -0.50464858245E+03  0.53633385799E+03  0.50400001928E-02 0.  1.
</event>
<event>
 5   0  0.1532571E-01  0.5970914E+03  0.7818609E-02  0.9911459E-01
        2   -1    0    0  501    0  0.00000000000E+00  0.00000000000E+00  0.90176024630E+03  0.90176024631E+03  0.25500000920E-02 0. -1.
       -2   -1    0    0    0  501  0.00000000000E+00  0.00000000000E+00 -0.98839496728E+02  0.98839496761E+02  0.25500000920E-02 0.  1.
    10030    2    1    2    0    0  0.00000000000E+00  0.00000000000E+00  0.80292074957E+03  0.10005997431E+04  0.59709137971E+03 0.  0.
        1    1    3    3  502    0 -0.70910107273E+02 -0.35971107669E+02 -0.80769451597E+02  0.11333961460E+03  0.50400001928E-02 0.  1.
       -1    1    3    3    0  502  0.70910107273E+02  0.35971107669E+02  0.88369020117E+03  0.88726012847E+03  0.50400001928E-02 0. -1.
</event>
<event>
 5   0  0.6170500E-02  0.6269190E+03  0.7818609E-02  0.9851080E-01
       -3   -1    0    0    0  501  0.00000000000E+00  0.00000000000E+00  0.19836889628E+03  0.19836892199E+03  0.10100000352E+00 0.  1.
        3   -1    0    0  501    0  0.00000000000E+00  0.00000000000E+00 -0.49532387882E+03  0.49532388911E+03  0.10100000352E+00 0. -1.
    10030    2    1    2    0    0  0.00000000000E+00  0.00000000000E+00 -0.29695498253E+03  0.69369281111E+03  0.62691901752E+03 0.  0.
        3    1    3    3  502    0  0.11449440050E+03  0.27374851997E+03 -0.36672594321E+02  0.29898513225E+03  0.10100000352E+00 0.  1.
       -3    1    3    3    0  502 -0.11449440050E+03 -0.27374851997E+03 -0.26028238821E+03  0.39470767886E+03  0.10100000352E+00 0. -1.
</event>
<event>
 5   0  0.9420349E-02  0.6120766E+03  0.7818609E-02  0.9880663E-01
        1   -1    0    0  501    0  0.00000000000E+00  0.00000000000E+00  0.75604782877E+03  0.75604782879E+03  0.50400001928E-02 0. -1.
       -1   -1    0    0    0  501  0.00000000000E+00  0.00000000000E+00 -0.12388032429E+03  0.12388032439E+03  0.50400001928E-02 0.  1.
    10030    2    1    2    0    0  0.00000000000E+00  0.00000000000E+00  0.63216750449E+03  0.87992815318E+03  0.61207663003E+03 0.  0.
        2    1    3    3  502    0  0.15216210575E+03 -0.17756824167E+02 -0.64790515405E+02  0.16633226423E+03  0.25500000920E-02 0.  1.
       -2    1    3    3    0  502 -0.15216210575E+03  0.17756824167E+02  0.69695801989E+03  0.71359588895E+03  0.25500000920E-02 0. -1.
</event>
<event>
 5   0  0.1483942E-01  0.6041591E+03  0.7818609E-02  0.9896815E-01
        2   -1    0    0  501    0  0.00000000000E+00  0.00000000000E+00  0.14497777733E+04  0.14497777733E+04  0.25500000920E-02 0.  1.
       -2   -1    0    0    0  501  0.00000000000E+00  0.00000000000E+00 -0.62942095358E+02  0.62942095410E+02  0.25500000920E-02 0. -1.
    10030    2    1    2    0    0  0.00000000000E+00  0.00000000000E+00  0.13868356780E+04  0.15127198687E+04  0.60415908798E+03 0.  0.
        4    1    3    3  502    0  0.17998087818E+02 -0.30150909172E+03  0.70426686404E+03  0.76630613481E+03  0.12699999809E+01 0.  1.
       -4    1    3    3    0  502 -0.17998087818E+02  0.30150909172E+03  0.68256881391E+03  0.74641373392E+03  0.12699999809E+01 0. -1.
</event>
<event>
 5   0  0.8860626E-02  0.6031766E+03  0.7818609E-02  0.9898837E-01
       -1   -1    0    0    0  501  0.00000000000E+00  0.00000000000E+00  0.35340498915E+03  0.35340498919E+03  0.50400001928E-02 0.  1.
        1   -1    0    0  501    0  0.00000000000E+00  0.00000000000E+00 -0.25736906312E+03  0.25736906317E+03  0.50400001928E-02 0. -1.
    10030    2    1    2    0    0  0.00000000000E+00  0.00000000000E+00  0.96035926031E+02  0.61077405236E+03  0.60317662748E+03 0.  0.
        3    1    3    3  502    0 -0.10918730030E+03  0.79011830631E+02  0.32121388685E+03  0.34834337547E+03  0.10100000352E+00 0.  1.
       -3    1    3    3    0  502  0.10918730030E+03 -0.79011830631E+02 -0.22517796082E+03  0.26243067688E+03  0.10100000352E+00 0. -1.
</event>
<event>
 5   0  0.8860626E-02  0.5284757E+03  0.7818609E-02  0.1006602E+00
       -1   -1    0    0    0  501  0.00000000000E+00  0.00000000000E+00  0.14789420755E+03  0.14789420763E+03  0.50400001928E-02 0. -1.
        1   -1    0    0  501    0  0.00000000000E+00  0.00000000000E+00 -0.47210532833E+03  0.47210532836E+03  0.50400001928E-02 0.  1.
    10030    2    1    2    0    0  0.00000000000E+00  0.00000000000E+00 -0.32421112078E+03  0.61999953599E+03  0.52847570785E+03 0.  0.
        3    1    3    3  502    0  0.14318962513E+03  0.73763747310E+02 -0.40785138904E+03  0.43850555858E+03  0.10100000352E+00 0.  1.
       -3    1    3    3    0  502 -0.14318962513E+03 -0.73763747310E+02  0.83640268260E+02  0.18149397741E+03  0.10100000352E+00 0. -1.
</event>
<event>
 5   0  0.1483942E-01  0.6098126E+03  0.7818609E-02  0.9885255E-01
       -2   -1    0    0    0  501  0.00000000000E+00  0.00000000000E+00  0.71426766424E+02  0.71426766469E+02  0.25500000920E-02 0.  1.
        2   -1    0    0  501    0  0.00000000000E+00  0.00000000000E+00 -0.13015826543E+04  0.13015826543E+04  0.25500000920E-02 0. -1.
    10030    2    1    2    0    0  0.00000000000E+00  0.00000000000E+00 -0.12301558878E+04  0.13730094207E+04  0.60981256222E+03 0.  0.
        4    1    3    3  502    0  0.17867599979E+03  0.24510312311E+03 -0.54511471914E+03  0.62382074651E+03  0.12699999809E+01 0.  1.
       -4    1    3    3    0  502 -0.17867599979E+03 -0.24510312311E+03 -0.68504116869E+03  0.74918867421E+03  0.12699999809E+01 0. -1.
</event>
<event>
 5   0  0.9411028E-02  0.6137650E+03  0.7818609E-02  0.9877253E-01
       -1   -1    0    0    0  501  0.00000000000E+00  0.00000000000E+00  0.12322730662E+03  0.12322730672E+03  0.50400001928E-02 0. -1.
        1   -1    0    0  501    0  0.00000000000E+00  0.00000000000E+00 -0.76425317277E+03  0.76425317278E+03  0.50400001928E-02 0.  1.
    10030    2    1    2    0    0  0.00000000000E+00  0.00000000000E+00 -0.64102586615E+03  0.88748047950E+03  0.61376497165E+03 0.  0.
        4    1    3    3  502    0 -0.98563203449E+02  0.12690144297E+03 -0.69856083184E+03  0.71680368999E+03  0.12699999809E+01 0.  1.
       -4    1    3    3    0  502  0.98563203449E+02 -0.12690144297E+03  0.57534965694E+02  0.17067678951E+03  0.12699999809E+01 0. -1.
</event>
<event>
 5   0  0.1532571E-01  0.5985658E+03  0.7818609E-02  0.9908386E-01
        2   -1    0    0  501    0  0.00000000000E+00  0.00000000000E+00  0.18331473798E+04  0.18331473798E+04  0.25500000920E-02 0.  1.
       -2   -1    0    0    0  501  0.00000000000E+00  0.00000000000E+00 -0.48861462646E+02  0.48861462712E+02  0.25500000920E-02 0. -1.
    10030    2    1    2    0    0  0.00000000000E+00  0.00000000000E+00  0.17842859171E+04  0.18820088425E+04  0.59856582691E+03 0.  0.
        1    1    3    3  502    0 -0.95944282790E+02  0.25492428338E+03  0.50222999916E+03  0.57133761275E+03  0.50400001928E-02 0. -1.
       -1    1    3    3    0  502  0.95944282790E+02 -0.25492428338E+03  0.12820559180E+04  0.13106712297E+04  0.50400001928E-02 0.  1.
</event>
<event>
 5   0  0.1513339E-01  0.5744119E+03  0.7818609E-02  0.9959963E-01
        2   -1    0    0  501    0  0.00000000000E+00  0.00000000000E+00  0.13777358903E+03  0.13777358906E+03  0.25500000920E-02 0.  1.
       -2   -1    0    0    0  501  0.00000000000E+00  0.00000000000E+00 -0.59871597885E+03  0.59871597886E+03  0.25500000920E-02 0. -1.
    10030    2    1    2    0    0  0.00000000000E+00  0.00000000000E+00 -0.46094238982E+03  0.73648956791E+03  0.57441187045E+03 0.  0.
        3    1    3    3  502    0  0.21053618966E+03 -0.86513212987E+02 -0.59014919879E+01  0.22769466613E+03  0.10100000352E+00 0.  1.
       -3    1    3    3    0  502 -0.21053618966E+03  0.86513212987E+02 -0.45504089783E+03  0.50879490178E+03  0.10100000352E+00 0. -1.
</event>
<event>
 5   0  0.1513339E-01  0.5904886E+03  0.7818609E-02  0.9925338E-01
       -2   -1    0    0    0  501  0.00000000000E+00  0.00000000000E+00  0.20781575555E+03  0.20781575556E+03  0.25500000920E-02 0. -1.
        2   -1    0    0  501    0  0.00000000000E+00  0.00000000000E+00 -0.41945422863E+03  0.41945422864E+03  0.25500000920E-02 0.  1.
    10030    2    1    2    0    0  0.00000000000E+00  0.00000000000E+00 -0.21163847308E+03  0.62726998420E+03  0.59048860259E+03 0.  0.
        3    1    3    3  502    0 -0.18817294473E+03 -0.56947842098E+01  0.13578501333E+03  0.23211865014E+03  0.10100000352E+00 0. -1.
       -3    1    3    3    0  502  0.18817294473E+03  0.56947842098E+01 -0.34742348641E+03  0.39515133406E+03  0.10100000352E+00 0.  1.
</event>
<event>
 5   0  0.9420349E-02  0.4932790E+03  0.7818609E-02  0.1015548E+00
        1   -1    0    0  501    0  0.00000000000E+00  0.00000000000E+00  0.20229813434E+03  0.20229813441E+03  0.50400001928E-02 0. -1.
       -1   -1    0    0    0  501  0.00000000000E+00  0.00000000000E+00 -0.30069997998E+03  0.30069998002E+03  0.50400001928E-02 0.  1.
    10030    2    1    2    0    0  0.00000000000E+00  0.00000000000E+00 -0.98401845633E+02  0.50299811443E+03  0.49327900816E+03 0.  0.
        2    1    3    3  502    0 -0.12792699215E+03 -0.17672332332E+03  0.68107468090E+02  0.22854994102E+03  0.25500000920E-02 0. -1.
       -2    1    3    3    0  502  0.12792699215E+03  0.17672332332E+03 -0.16650931372E+03  0.27444817341E+03  0.25500000920E-02 0.  1.
</event>
<event>
 5   0  0.1488510E-01  0.6004287E+03  0.7818609E-02  0.9904517E-01
        2   -1    0    0  501    0  0.00000000000E+00  0.00000000000E+00  0.13320640530E+04  0.13320640530E+04  0.25500000920E-02 0.  1.
       -2   -1    0    0    0  501  0.00000000000E+00  0.00000000000E+00 -0.67660907098E+02  0.67660907146E+02  0.25500000920E-02 0. -1.
    10030    2    1    2    0    0  0.00000000000E+00  0.00000000000E+00  0.12644031459E+04  0.13997249602E+04  0.60042872075E+03 0.  0.
        5    1    3    3  502    0 -0.57068161046E+02 -0.29293854751E+03  0.70726522621E+03  0.76766917213E+03  0.46999998093E+01 0. -1.
       -5    1    3    3    0  502  0.57068161046E+02  0.29293854751E+03  0.55713791973E+03  0.63205578806E+03  0.46999998093E+01 0.  1.
</event>
<event>
 5   0  0.1488510E-01  0.6104860E+03  0.7818609E-02  0.9883887E-01
       -2   -1    0    0    0  501  0.00000000000E+00  0.00000000000E+00  0.22307478437E+03  0.22307478439E+03  0.25500000920E-02 0. -1.
        2   -1    0    0  501    0  0.00000000000E+00  0.00000000000E+00 -0.41767734177E+03  0.41767734178E+03  0.25500000920E-02 0.  1.
    10030    2    1    2    0    0  0.00000000000E+00  0.00000000000E+00 -0.19460255740E+03  0.64075212617E+03  0.61048598005E+03 0.  0.
        5    1    3    3  502    0 -0.23766963613E+03 -0.13388385826E+03  0.46377548986E+02  0.27673942706E+03  0.46999998093E+01 0. -1.
       -5    1    3    3    0  502  0.23766963613E+03  0.13388385826E+03 -0.24098010639E+03  0.36401269911E+03  0.46999998093E+01 0.  1.
</event>
<event>
 5   0  0.1483942E-01  0.5660368E+03  0.7818609E-02  0.9978487E-01
        2   -1    0    0  501    0  0.00000000000E+00  0.00000000000E+00  0.36368212748E+03  0.36368212749E+03  0.25500000920E-02 0. -1.
       -2   -1    0    0    0  501  0.00000000000E+00  0.00000000000E+00 -0.22024570320E+03  0.22024570321E+03  0.25500000920E-02 0.  1.
    10030    2    1    2    0    0  0.00000000000E+00  0.00000000000E+00  0.14343642429E+03  0.58392783070E+03  0.56603683949E+03 0.  0.
        4    1    3    3  502    0 -0.44275470108E+02 -0.25420686301E+03 -0.48216378728E+02  0.26250310195E+03  0.12699999809E+01 0.  1.
       -4    1    3    3    0  502  0.44275470108E+02  0.25420686301E+03  0.19165280302E+03  0.32142472876E+03  0.12699999809E+01 0. -1.
</event>
<event>
 5   0  0.1483942E-01  0.5377722E+03  0.7818609E-02  0.1004364E+00
       -2   -1    0    0    0  501  0.00000000000E+00  0.00000000000E+00  0.90797022641E+02  0.90797022677E+02  0.25500000920E-02 0.  1.
        2   -1    0    0  501    0  0.00000000000E+00  0.00000000000E+00 -0.79627875987E+03  0.79627875988E+03  0.25500000920E-02 0. -1.
    10030    2    1    2    0    0  0.00000000000E+00  0.00000000000E+00 -0.70548173723E+03  0.88707578255E+03  0.53777222169E+03 0.  0.
        4    1    3    3  502    0 -0.12125188328E+03  0.41090402560E+02  0.37289228905E+02  0.13335119000E+03  0.12699999809E+01 0.  1.
       -4    1    3    3    0  502  0.12125188328E+03 -0.41090402560E+02 -0.74277096614E+03  0.75372459255E+03  0.12699999809E+01 0. -1.
</event>
<event>
 5   0  0.9420349E-02  0.6105136E+03  0.7818609E-02  0.9883831E-01
        1   -1    0    0  501    0  0.00000000000E+00  0.00000000000E+00  0.59685212776E+03  0.59685212778E+03  0.50400001928E-02 0.  1.
       -1   -1    0    0    0  501  0.00000000000E+00  0.00000000000E+00 -0.15612193450E+03  0.15612193458E+03  0.50400001928E-02 0. -1.
    10030    2    1    2    0    0  0.00000000000E+00  0.00000000000E+00  0.44073019326E+03  0.75297406236E+03  0.61051358326E+03 0.  0.
        2    1    3    3  502    0  0.29430526365E+03 -0.54170728568E+00  0.32030281012E+03  0.43498249601E+03  0.25500000920E-02 0.  1.
       -2    1    3    3    0  502 -0.29430526365E+03  0.54170728568E+00  0.12042738314E+03  0.31799156635E+03  0.25500000920E-02 0. -1.
</event>
<event>
 5   0  0.1513339E-01  0.6158642E+03  0.7818609E-02  0.9873029E-01
        2   -1    0    0  501    0  0.00000000000E+00  0.00000000000E+00  0.15980128925E+04  0.15980128925E+04  0.25500000920E-02 0.  1.
       -2   -1    0    0    0  501  0.00000000000E+00  0.00000000000E+00 -0.59337555321E+02  0.59337555376E+02  0.25500000920E-02 0. -1.
    10030    2    1    2    0    0  0.00000000000E+00  0.00000000000E+00  0.15386753372E+04  0.16573504479E+04  0.61586420082E+03 0.  0.
        3    1    3    3  502    0 -0.16437670718E+03 -0.21599496565E+03  0.37798290480E+03  0.46534354360E+03  0.10100000352E+00 0. -1.
       -3    1    3    3    0  502  0.16437670718E+03  0.21599496565E+03  0.11606924324E+04  0.11920069043E+04  0.10100000352E+00 0.  1.
</event>
<event>
 5   0  0.9411028E-02  0.7319551E+03  0.7818609E-02  0.9664093E-01
        1   -1    0    0  501    0  0.00000000000E+00  0.00000000000E+00  0.38262984938E+03  0.38262984941E+03  0.50400001928E-02 0. -1.
       -1   -1    0    0    0  501  0.00000000000E+00  0.00000000000E+00 -0.35004993425E+03  0.35004993429E+03  0.50400001928E-02 0.  1.
    10030    2    1    2    0    0  0.00000000000E+00  0.00000000000E+00  0.32579915124E+02  0.73267978370E+03  0.73195506322E+03 0.  0.
        4    1    3    3  502    0 -0.10342607403E+03  0.11907780581E+03  0.34686149000E+03  0.38103934543E+03  0.12699999809E+01 0. -1.
       -4    1    3    3    0  502  0.10342607403E+03 -0.11907780581E+03 -0.31428157487E+03  0.35164043827E+03  0.12699999809E+01 0.  1.
</event>
<event>
 5   0  0.1532571E-01  0.5867429E+03  0.7818609E-02  0.9933298E-01
       -2   -1    0    0    0  501  0.00000000000E+00  0.00000000000E+00  0.13509282655E+03  0.13509282657E+03  0.25500000920E-02 0. -1.
        2   -1    0    0  501    0  0.00000000000E+00  0.00000000000E+00 -0.63709392390E+03  0.63709392390E+03  0.25500000920E-02 0.  1.
    10030    2    1    2    0    0  0.00000000000E+00  0.00000000000E+00 -0.50200109735E+03  0.77218675047E+03  0.58674293849E+03 0.  0.
        1    1    3    3  502    0 -0.18417815414E+03  0.13120357617E+03 -0.50323056255E+01  0.22618862701E+03  0.50400001928E-02 0. -1.
       -1    1    3    3    0  502  0.18417815414E+03 -0.13120357617E+03 -0.49696879172E+03  0.54599812347E+03  0.50400001928E-02 0.  1.
</event>
<event>
 5   0  0.1502642E-01  0.5128577E+03  0.7818609E-02  0.1010476E+00
        2   -1    0    0  501    0  0.00000000000E+00  0.00000000000E+00  0.77670545166E+03  0.77670545167E+03  0.25500000920E-02 0.  1.
       -2   -1    0    0    0  501  0.00000000000E+00  0.00000000000E+00 -0.84659847068E+02  0.84659847107E+02  0.25500000920E-02 0. -1.
    10030    2    1    2    0    0  0.00000000000E+00  0.00000000000E+00  0.69204560460E+03  0.86136529878E+03  0.51285773768E+03 0.  0.
        2    1    3    3  502    0 -0.20944389799E+03  0.85868195423E+02  0.54837551142E+03  0.59325862397E+03  0.25500000920E-02 0.  1.
       -2    1    3    3    0  502  0.20944389799E+03 -0.85868195423E+02  0.14367009318E+03  0.26810667480E+03  0.25500000920E-02 0. -1.
</event>
<event>
 5   0  0.9411028E-02  0.6217373E+03  0.7818609E-02  0.9861307E-01
        1   -1    0    0  501    0  0.00000000000E+00  0.00000000000E+00  0.13269551169E+04  0.13269551169E+04  0.50400001928E-02 0. -1.
       -1   -1    0    0    0  501  0.00000000000E+00  0.00000000000E+00 -0.72827864144E+02  0.72827864318E+02  0.50400001928E-02 0.  1.
    10030    2    1    2    0    0  0.00000000000E+00  0.00000000000E+00  0.12541272528E+04  0.13997829812E+04  0.62173726640E+03 0.  0.
        4    1    3    3  502    0  0.74295325768E+02 -0.11568816616E+03  0.12547746104E+04  0.12622854206E+04  0.12699999809E+01 0. -1.
       -4    1    3    3    0  502 -0.74295325768E+02  0.11568816616E+03 -0.64735760495E+00  0.13749756068E+03  0.12699999809E+01 0.  1.
</event>
<event>
 5   0  0.9420349E-02  0.6123940E+03  0.7818609E-02  0.9880021E-01
        1   -1    0    0  501    0  0.00000000000E+00  0.00000000000E+00  0.12901244979E+04  0.12901244979E+04  0.50400001928E-02 0. -1.
       -1   -1    0    0    0  501  0.00000000000E+00  0.00000000000E+00 -0.72672528128E+02  0.72672528303E+02  0.50400001928E-02 0.  1.
    10030    2    1    2    0    0  0.00000000000E+00  0.00000000000E+00  0.12174519698E+04  0.13627970262E+04  0.61239402019E+03 0.  0.
        2    1    3    3  502    0 -0.13716119934E+03 -0.27302180960E+03  0.65337237415E+03  0.72128327475E+03  0.25500000920E-02 0. -1.
       -2    1    3    3    0  502  0.13716119934E+03  0.27302180960E+03  0.56407959564E+03  0.64151375148E+03  0.25500000920E-02 0.  1.
</event>
<event>
 5   0  0.1483942E-01  0.5998676E+03  0.7818609E-02  0.9905681E-01
        2   -1    0    0  501    0  0.00000000000E+00  0.00000000000E+00  0.78517866850E+03  0.78517866851E+03  0.25500000920E-02 0. -1.
       -2   -1    0    0    0  501  0.00000000000E+00  0.00000000000E+00 -0.11457301837E+03  0.11457301839E+03  0.25500000920E-02 0.  1.
    10030    2    1    2    0    0  0.00000000000E+00  0.00000000000E+00  0.67060565014E+03  0.89975168690E+03  0.59986761880E+03 0.  0.
        4    1    3    3  502    0  0.11274145132E+03 -0.35861548809E+02 -0.78092367451E+02  0.14176288753E+03  0.12699999809E+01 0.  1.
       -4    1    3    3    0  502 -0.11274145132E+03  0.35861548809E+02  0.74869801759E+03  0.75798879937E+03  0.12699999809E+01 0. -1.
</event>
<event>
 5   0  0.1483942E-01  0.5911144E+03  0.7818609E-02  0.9924014E-01
        2   -1    0    0  501    0  0.00000000000E+00  0.00000000000E+00  0.19552275403E+04  0.19552275403E+04  0.25500000920E-02 0. -1.
       -2   -1    0    0    0  501  0.00000000000E+00  0.00000000000E+00 -0.44677182431E+02  0.44677182503E+02  0.25500000920E-02 0.  1.
    10030    2    1    2    0    0  0.00000000000E+00  0.00000000000E+00  0.19105503579E+04  0.19999047228E+04  0.59111439701E+03 0.  0.
        4    1    3    3  502    0 -0.25421054351E+03 -0.12786675453E+03  0.12255044321E+04  0.12581079578E+04  0.12699999809E+01 0.  1.
       -4    1    3    3    0  502  0.25421054351E+03  0.12786675453E+03  0.68504592577E+03  0.74179676507E+03  0.12699999809E+01 0. -1.
</event>
<event>
 5   0  0.9411028E-02  0.6051483E+03  0.7818609E-02  0.9894782E-01
       -1   -1    0    0    0  501  0.00000000000E+00  0.00000000000E+00  0.18204787481E+03  0.18204787488E+03  0.50400001928E-02 0. -1.
        1   -1    0    0  501    0  0.00000000000E+00  0.00000000000E+00 -0.50289590611E+03  0.50289590614E+03  0.50400001928E-02 0.  1.
    10030    2    1    2    0    0  0.00000000000E+00  0.00000000000E+00 -0.32084803130E+03  0.68494378102E+03  0.60514834873E+03 0.  0.
        4    1    3    3  502    0 -0.15471040307E+03 -0.24117965579E+03 -0.50414451387E+02  0.29094013988E+03  0.12699999809E+01 0. -1.
       -4    1    3    3    0  502  0.15471040307E+03  0.24117965579E+03 -0.27043357991E+03  0.39400364114E+03  0.12699999809E+01 0.  1.
</event>
<event>
 5   0  0.9420349E-02  0.6024592E+03  0.7818609E-02  0.9900317E-01
       -1   -1    0    0    0  501  0.00000000000E+00  0.00000000000E+00  0.73475015900E+03  0.73475015902E+03  0.50400001928E-02 0.  1.
        1   -1    0    0  501    0  0.00000000000E+00  0.00000000000E+00 -0.12349678764E+03  0.12349678774E+03  0.50400001928E-02 0. -1.
    10030    2    1    2    0    0  0.00000000000E+00  0.00000000000E+00  0.61125337136E+03  0.85824694676E+03  0.60245924147E+03 0.  0.
        2    1    3    3  502    0 -0.81303393318E+02 -0.17951803442E+03  0.63017396541E+03  0.66026978815E+03  0.25500000920E-02 0.  1.
       -2    1    3    3    0  502  0.81303393318E+02  0.17951803442E+03 -0.18920594051E+02  0.19797715862E+03  0.25500000920E-02 0. -1.
</event>
<event>
 5   0  0.1488510E-01  0.5862773E+03  0.7818609E-02  0.9934293E-01
        2   -1    0    0  501    0  0.00000000000E+00  0.00000000000E+00  0.31408434011E+03  0.31408434012E+03  0.25500000920E-02 0.  1.
       -2   -1    0    0    0  501  0.00000000000E+00  0.00000000000E+00 -0.27358978023E+03  0.27358978025E+03  0.25500000920E-02 0. -1.
    10030    2    1    2    0    0  0.00000000000E+00  0.00000000000E+00  0.40494559878E+02  0.58767412037E+03  0.58627729137E+03 0.  0.
        5    1    3    3  502    0  0.17966538694E+02  0.27136372176E+03 -0.89315972759E+02  0.28628744120E+03  0.46999998093E+01 0.  1.
       -5    1    3    3    0  502 -0.17966538694E+02 -0.27136372176E+03  0.12981053264E+03  0.30138667917E+03  0.46999998093E+01 0. -1.
</event>
<event>
 5   0  0.1488510E-01  0.5254800E+03  0.7818609E-02  0.1007334E+00
       -2   -1    0    0    0  501  0.00000000000E+00  0.00000000000E+00  0.79666332370E+03  0.79666332370E+03  0.25500000920E-02 0.  1.
        2   -1    0    0  501    0  0.00000000000E+00  0.00000000000E+00 -0.86651803800E+02  0.86651803838E+02  0.25500000920E-02 0. -1.
    10030    2    1    2    0    0  0.00000000000E+00  0.00000000000E+00  0.71001151990E+03  0.88331512754E+03  0.52548002450E+03 0.  0.
        5    1    3    3  502    0 -0.24722510764E+03  0.84160879735E+02  0.40275580208E+03  0.48003920010E+03  0.46999998093E+01 0. -1.
       -5    1    3    3    0  502  0.24722510764E+03 -0.84160879735E+02  0.30725571782E+03  0.40327592744E+03  0.46999998093E+01 0.  1.
</event>
<event>
 5   0  0.8860626E-02  0.5870438E+03  0.7818609E-02  0.9932657E-01
       -1   -1    0    0    0  501  0.00000000000E+00  0.00000000000E+00  0.16665236645E+03  0.16665236652E+03  0.50400001928E-02 0. -1.
        1   -1    0    0  501    0  0.00000000000E+00  0.00000000000E+00 -0.51697507027E+03  0.51697507030E+03  0.50400001928E-02 0.  1.
    10030    2    1    2    0    0  0.00000000000E+00  0.00000000000E+00 -0.35032270382E+03  0.68362743682E+03  0.58704384466E+03 0.  0.
        3    1    3    3  502    0 -0.11474453604E+03 -0.19419958677E+03  0.43556600122E+02  0.22973240013E+03  0.10100000352E+00 0. -1.
       -3    1    3    3    0  502  0.11474453604E+03  0.19419958677E+03 -0.39387930394E+03  0.45389503669E+03  0.10100000352E+00 0.  1.
</event>
<event>
 5   0  0.1502642E-01  0.6226104E+03  0.7818609E-02  0.9859576E-01
       -2   -1    0    0    0  501  0.00000000000E+00  0.00000000000E+00  0.10431789059E+03  0.10431789062E+03  0.25500000920E-02 0.  1.
        2   -1    0    0  501    0  0.00000000000E+00  0.00000000000E+00 -0.92899633236E+03  0.92899633236E+03  0.25500000920E-02 0. -1.
    10030    2    1    2    0    0  0.00000000000E+00  0.00000000000E+00 -0.82467844177E+03  0.10333142230E+04  0.62261043285E+03 0.  0.
        2    1    3    3  502    0  0.30137584651E+03  0.30883722900E+02 -0.53120678845E+03  0.61152420827E+03  0.25500000920E-02 0. -1.
       -2    1    3    3    0  502 -0.30137584651E+03 -0.30883722900E+02 -0.29347165332E+03  0.42179001471E+03  0.25500000920E-02 0.  1.
</event>
<event>
 5   0  0.9411028E-02  0.6778765E+03  0.7818609E-02  0.9755833E-01
       -1   -1    0    0    0  501  0.00000000000E+00  0.00000000000E+00  0.50029309726E+03  0.50029309729E+03  0.50400001928E-02 0. -1.
        1   -1    0    0  501    0  0.00000000000E+00  0.00000000000E+00 -0.22962367039E+03  0.22962367044E+03  0.50400001928E-02 0.  1.
    10030    2    1    2    0    0  0.00000000000E+00  0.00000000000E+00  0.27066942688E+03  0.72991676773E+03  0.67787649994E+03 0.  0.
        4    1    3    3  502    0  0.38428379533E+02  0.57335907063E+02  0.49264276656E+03  0.49745618393E+03  0.12699999809E+01 0. -1.
       -4    1    3    3    0  502 -0.38428379533E+02 -0.57335907063E+02 -0.22197333968E+03  0.23246058380E+03  0.12699999809E+01 0.  1.
</event>
<event>
 5   0  0.1513339E-01  0.5924826E+03  0.7818609E-02  0.9921126E-01
        2   -1    0    0  501    0  0.00000000000E+00  0.00000000000E+00  0.86190972878E+03  0.86190972878E+03  0.25500000920E-02 0. -1.
       -2   -1    0    0    0  501  0.00000000000E+00  0.00000000000E+00 -0.10181912498E+03  0.10181912501E+03  0.25500000920E-02 0.  1.
    10030    2    1    2    0    0  0.00000000000E+00  0.00000000000E+00  0.76009060380E+03  0.96372885379E+03  0.59248255471E+03 0.  0.
        3    1    3    3  502    0  0.47089306628E+02 -0.23596045580E+03  0.66114108800E+03  0.70356398995E+03  0.10100000352E+00 0. -1.
       -3    1    3    3    0  502 -0.47089306628E+02  0.23596045580E+03  0.98949515796E+02  0.26016486384E+03  0.10100000352E+00 0.  1.
</event>
<event>
 5   0  0.1488510E-01  0.6106481E+03  0.7818609E-02  0.9883558E-01
       -2   -1    0    0    0  501  0.00000000000E+00  0.00000000000E+00  0.67756376063E+02  0.67756376111E+02  0.25500000920E-02 0. -1.
        2   -1    0    0  501    0  0.00000000000E+00  0.00000000000E+00 -0.13758526153E+04  0.13758526153E+04  0.25500000920E-02 0.  1.
    10030    2    1    2    0    0  0.00000000000E+00  0.00000000000E+00 -0.13080962392E+04  0.14436089914E+04  0.61064813843E+03 0.  0.
        5    1    3    3  502    0 -0.13122557609E+03  0.25147940735E+03 -0.92086929713E+03  0.96357895190E+03  0.46999998093E+01 0.  1.
       -5    1    3    3    0  502  0.13122557609E+03 -0.25147940735E+03 -0.38722694206E+03  0.48003003947E+03  0.46999998093E+01 0. -1.
</event>
<event>
 5   0  0.1502642E-01  0.4665635E+03  0.7818609E-02  0.1022895E+00
        2   -1    0    0  501    0  0.00000000000E+00  0.00000000000E+00  0.12762616855E+04  0.12762616855E+04  0.25500000920E-02 0.  1.
       -2   -1    0    0    0  501  0.00000000000E+00  0.00000000000E+00 -0.42640454180E+02  0.42640454256E+02  0.25500000920E-02 0. -1.
    10030    2    1    2    0    0  0.00000000000E+00  0.00000000000E+00  0.12336212313E+04  0.13189021398E+04  0.46656351325E+03 0.  0.
        2    1    3    3  502    0 -0.27367839551E+02  0.21825894208E+03  0.39721718966E+03  0.45405667070E+03  0.25500000920E-02 0.  1.
       -2    1    3    3    0  502  0.27367839551E+02 -0.21825894208E+03  0.83640404168E+03  0.86484546908E+03  0.25500000920E-02 0. -1.
</event>
<event>
 5   0  0.9177281E-02  0.6523805E+03  0.7818609E-02  0.9802323E-01
       -1   -1    0    0    0  501  0.00000000000E+00  0.00000000000E+00  0.55773203216E+02  0.55773203444E+02  0.50400001928E-02 0.  1.
        1   -1    0    0  501    0  0.00000000000E+00  0.00000000000E+00 -0.19077275316E+04  0.19077275316E+04  0.50400001928E-02 0. -1.
    10030    2    1    2    0    0  0.00000000000E+00  0.00000000000E+00 -0.18519543284E+04  0.19635007351E+04  0.65238048877E+03 0.  0.
        1    1    3    3  502    0  0.19529609292E+03 -0.25980345460E+03 -0.10090416545E+04  0.10600959671E+04  0.50400001928E-02 0.  1.
       -1    1    3    3    0  502 -0.19529609292E+03  0.25980345460E+03 -0.84291267392E+03  0.90340476798E+03  0.50400001928E-02 0. -1.
</event>
<event>
 5   0  0.1502642E-01  0.6060041E+03  0.7818609E-02  0.9893027E-01
       -2   -1    0    0    0  501  0.00000000000E+00  0.00000000000E+00  0.10389754178E+03  0.10389754181E+03  0.25500000920E-02 0. -1.
        2   -1    0    0  501    0  0.00000000000E+00  0.00000000000E+00 -0.88366126644E+03  0.88366126644E+03  0.25500000920E-02 0.  1.
    10030    2    1    2    0    0  0.00000000000E+00  0.00000000000E+00 -0.77976372466E+03  0.98755880825E+03  0.60600407049E+03 0.  0.
        2    1    3    3  502    0 -0.12619700123E+03  0.24526478340E+03 -0.18549727330E+03  0.33239996315E+03  0.25500000920E-02 0. -1.
       -2    1    3    3    0  502  0.12619700123E+03 -0.24526478340E+03 -0.59426645136E+03  0.65515884510E+03  0.25500000920E-02 0.  1.
</event>
<event>
 5   0  0.8860626E-02  0.5940289E+03  0.7818609E-02  0.9917872E-01
        1   -1    0    0  501    0  0.00000000000E+00  0.00000000000E+00  0.21786497388E+04  0.21786497388E+04  0.50400001928E-02 0. -1.
       -1   -1    0    0    0  501  0.00000000000E+00  0.00000000000E+00 -0.40491865942E+02  0.40491866255E+02  0.50400001928E-02 0.  1.
    10030    2    1    2    0    0  0.00000000000E+00  0.00000000000E+00  0.21381578729E+04  0.22191416051E+04  0.59402893368E+03 0.  0.
        3    1    3    3  502    0 -0.27276776814E+03  0.75791126065E+02  0.73346345702E+03  0.78620302919E+03  0.10100000352E+00 0. -1.
       -3    1    3    3    0  502  0.27276776814E+03 -0.75791126065E+02  0.14046944159E+04  0.14329385759E+04  0.10100000352E+00 0.  1.
</event>
<event>
 5   0  0.9411028E-02  0.6863159E+03  0.7818609E-02  0.9740924E-01
       -1   -1    0    0    0  501  0.00000000000E+00  0.00000000000E+00  0.95037538260E+02  0.95037538394E+02  0.50400001928E-02 0. -1.
        1   -1    0    0  501    0  0.00000000000E+00  0.00000000000E+00 -0.12390618960E+04  0.12390618960E+04  0.50400001928E-02 0.  1.
    10030    2    1    2    0    0  0.00000000000E+00  0.00000000000E+00 -0.11440243578E+04  0.13340994344E+04  0.68631594021E+03 0.  0.
        4    1    3    3  502    0  0.18666028818E+02  0.94633533502E+02 -0.12121634366E+04  0.12159957797E+04  0.12699999809E+01 0.  1.
       -4    1    3    3    0  502 -0.18666028818E+02 -0.94633533502E+02  0.68139078844E+02  0.11810365473E+03  0.12699999809E+01 0. -1.
</event>
<event>
 5   0  0.1513339E-01  0.5971332E+03  0.7818609E-02  0.9911372E-01
       -2   -1    0    0    0  501  0.00000000000E+00  0.00000000000E+00  0.38916551117E+03  0.38916551118E+03  0.25500000920E-02 0.  1.
        2   -1    0    0  501    0  0.00000000000E+00  0.00000000000E+00 -0.22905935852E+03  0.22905935853E+03  0.25500000920E-02 0. -1.
    10030    2    1    2    0    0  0.00000000000E+00  0.00000000000E+00  0.16010615265E+03  0.61822486971E+03  0.59713315886E+03 0.  0.
        3    1    3    3  502    0  0.12705342007E+03  0.96673995141E+02 -0.18115501745E+03  0.24146549119E+03  0.10100000352E+00 0. -1.
       -3    1    3    3    0  502 -0.12705342007E+03 -0.96673995141E+02  0.34126117010E+03  0.37675937852E+03  0.10100000352E+00 0.  1.
</event>
<event>
 5   0  0.9177281E-02  0.6027975E+03  0.7818609E-02  0.9899619E-01
       -1   -1    0    0    0  501  0.00000000000E+00  0.00000000000E+00  0.29964420757E+03  0.29964420761E+03  0.50400001928E-02 0.  1.
        1   -1    0    0  501    0  0.00000000000E+00  0.00000000000E+00 -0.30316356460E+03  0.30316356464E+03  0.50400001928E-02 0. -1.
    10030    2    1    2    0    0  0.00000000000E+00  0.00000000000E+00 -0.35193570280E+01  0.60280777225E+03  0.60279749868E+03 0.  0.
        1    1    3    3  502    0  0.24476543168E+03  0.21589211245E+02  0.17278554181E+03  0.30038484328E+03  0.50400001928E-02 0.  1.
       -1    1    3    3    0  502 -0.24476543168E+03 -0.21589211245E+02 -0.17630489884E+03  0.30242292897E+03  0.50400001928E-02 0. -1.
</event>
<event>
 5   0  0.9420349E-02  0.6119172E+03  0.7818609E-02  0.9880986E-01
       -1   -1    0    0    0  501  0.00000000000E+00  0.00000000000E+00  0.98408065392E+02  0.98408065521E+02  0.50400001928E-02 0. -1.
        1   -1    0    0  501    0  0.00000000000E+00  0.00000000000E+00 -0.95124987623E+03  0.95124987625E+03  0.50400001928E-02 0.  1.
    10030    2    1    2    0    0  0.00000000000E+00  0.00000000000E+00 -0.85284181084E+03  0.10496579418E+04  0.61191718426E+03 0.  0.
        2    1    3    3  502    0  0.18287577149E+02 -0.12421741626E+03 -0.90502236358E+03  0.91369025417E+03  0.25500000920E-02 0.  1.
       -2    1    3    3    0  502 -0.18287577149E+02  0.12421741626E+03  0.52180552741E+02  0.13596768760E+03  0.25500000920E-02 0. -1.
</event>
<event>
 5   0  0.9420349E-02  0.5603188E+03  0.7818609E-02  0.9991334E-01
       -1   -1    0    0    0  501  0.00000000000E+00  0.00000000000E+00  0.40961992039E+03  0.40961992042E+03  0.50400001928E-02 0.  1.
        1   -1    0    0  501    0  0.00000000000E+00  0.00000000000E+00 -0.19161491919E+03  0.19161491926E+03  0.50400001928E-02 0. -1.
    10030    2    1    2    0    0  0.00000000000E+00  0.00000000000E+00  0.21800500120E+03  0.60123483968E+03  0.56031879488E+03 0.  0.
        2    1    3    3  502    0 -0.40921302330E+02  0.24566796502E+03 -0.28670906896E+02  0.25069767237E+03  0.25500000920E-02 0. -1.
       -2    1    3    3    0  502  0.40921302330E+02 -0.24566796502E+03  0.24667590810E+03  0.35053716731E+03  0.25500000920E-02 0.  1.
</event>
<event>
 5   0  0.1483942E-01  0.5753410E+03  0.7818609E-02  0.9957929E-01
        2   -1    0    0  501    0  0.00000000000E+00  0.00000000000E+00  0.45044600849E+03  0.45044600849E+03  0.25500000920E-02 0.  1.
       -2   -1    0    0    0  501  0.00000000000E+00  0.00000000000E+00 -0.18371641799E+03  0.18371641800E+03  0.25500000920E-02 0. -1.
    10030    2    1    2    0    0  0.00000000000E+00  0.00000000000E+00  0.26672959050E+03  0.63416242650E+03  0.57534103689E+03 0.  0.
        4    1    3    3  502    0  0.45997999728E+02  0.10616868030E+03 -0.15693430763E+03  0.19498101053E+03  0.12699999809E+01 0. -1.
       -4    1    3    3    0  502 -0.45997999728E+02 -0.10616868030E+03  0.42366389813E+03  0.43918141597E+03  0.12699999809E+01 0.  1.
</event>
<event>
 5   0  0.9411028E-02  0.6334346E+03  0.7818609E-02  0.9838369E-01
        1   -1    0    0  501    0  0.00000000000E+00  0.00000000000E+00  0.56604815070E+03  0.56604815072E+03  0.50400001928E-02 0. -1.
       -1   -1    0    0    0  501  0.00000000000E+00  0.00000000000E+00 -0.17721079168E+03  0.17721079176E+03  0.50400001928E-02 0.  1.
    10030    2    1    2    0    0  0.00000000000E+00  0.00000000000E+00  0.38883735902E+03  0.74325894248E+03  0.63343457737E+03 0.  0.
        4    1    3    3  502    0  0.26423115120E+02  0.30560766334E+03  0.28691492632E+03  0.42001906237E+03  0.12699999809E+01 0.  1.
       -4    1    3    3    0  502 -0.26423115120E+02 -0.30560766334E+03  0.10192243269E+03  0.32323988011E+03  0.12699999809E+01 0. -1.
</event>
<event>
 5   0  0.9411028E-02  0.5983141E+03  0.7818609E-02  0.9908910E-01
       -1   -1    0    0    0  501  0.00000000000E+00  0.00000000000E+00  0.24683381231E+03  0.24683381236E+03  0.50400001928E-02 0.  1.
        1   -1    0    0  501    0  0.00000000000E+00  0.00000000000E+00 -0.36257165541E+03  0.36257165544E+03  0.50400001928E-02 0. -1.
    10030    2    1    2    0    0  0.00000000000E+00  0.00000000000E+00 -0.11573784310E+03  0.60940546780E+03  0.59831411136E+03 0.  0.
        4    1    3    3  502    0  0.23142781600E+03 -0.18614915415E+03 -0.21386081060E+02  0.29777393938E+03  0.12699999809E+01 0. -1.
       -4    1    3    3    0  502 -0.23142781600E+03  0.18614915415E+03 -0.94351762043E+02  0.31163152842E+03  0.12699999809E+01 0.  1.
</event>
<event>
 5   0  0.1488510E-01  0.4640110E+03  0.7818609E-02  0.1023624E+00
        2   -1    0    0  501    0  0.00000000000E+00  0.00000000000E+00  0.94529459146E+03  0.94529459146E+03  0.25500000920E-02 0.  1.
       -2   -1    0    0    0  501  0.00000000000E+00  0.00000000000E+00 -0.56941553630E+02  0.56941553687E+02  0.25500000920E-02 0. -1.
    10030    2    1    2    0    0  0.00000000000E+00  0.00000000000E+00  0.88835303783E+03  0.10022361451E+04  0.46401095981E+03 0.  0.
        5    1    3    3  502    0  0.55865192730E+02  0.13709293628E+03  0.58464936834E+02  0.15923451816E+03  0.46999998093E+01 0. -1.
       -5    1    3    3    0  502 -0.55865192730E+02 -0.13709293628E+03  0.82988810099E+03  0.84300162699E+03  0.46999998093E+01 0.  1.
</event>
<event>
 5   0  0.1532571E-01  0.5921547E+03  0.7818609E-02  0.9921818E-01
        2   -1    0    0  501    0  0.00000000000E+00  0.00000000000E+00  0.15826831573E+03  0.15826831575E+03  0.25500000920E-02 0.  1.
       -2   -1    0    0    0  501  0.00000000000E+00  0.00000000000E+00 -0.55388085734E+03  0.55388085735E+03  0.25500000920E-02 0. -1.
    10030    2    1    2    0    0  0.00000000000E+00  0.00000000000E+00 -0.39561254161E+03  0.71214917310E+03  0.59215467715E+03 0.  0.
        1    1    3    3  502    0 -0.29247436989E+03 -0.30508677955E+02 -0.23928871931E+03  0.37911888332E+03  0.50400001928E-02 0.  1.
       -1    1    3    3    0  502  0.29247436989E+03  0.30508677955E+02 -0.15632382230E+03  0.33303028979E+03  0.50400001928E-02 0. -1.
</event>
<event>
 5   0  0.1532571E-01  0.6052323E+03  0.7818609E-02  0.9894610E-01
       -2   -1    0    0    0  501  0.00000000000E+00  0.00000000000E+00  0.59756966337E+02  0.59756966391E+02  0.25500000920E-02 0.  1.
        2   -1    0    0  501    0  0.00000000000E+00  0.00000000000E+00 -0.15324832199E+04  0.15324832199E+04  0.25500000920E-02 0. -1.
    10030    2    1    2    0    0  0.00000000000E+00  0.00000000000E+00 -0.14727262536E+04  0.15922401863E+04  0.60523234622E+03 0.  0.
        1    1    3    3  502    0  0.16162448092E+03  0.11161553530E+03 -0.13419942582E+04  0.13562924056E+04  0.50400001928E-02 0. -1.
       -1    1    3    3    0  502 -0.16162448092E+03 -0.11161553530E+03 -0.13073199536E+03  0.23594778064E+03  0.50400001928E-02 0.  1.
</event>
<event>
 5   0  0.6170500E-02  0.6306897E+03  0.7818609E-02  0.9843704E-01
       -3   -1    0    0    0  501  0.00000000000E+00  0.00000000000E+00  0.28326523880E+03  0.28326525680E+03  0.10100000352E+00 0.  1.
        3   -1    0    0  501    0  0.00000000000E+00  0.00000000000E+00 -0.35105744557E+03  0.35105746010E+03  0.10100000352E+00 0. -1.
    10030    2    1    2    0    0  0.00000000000E+00  0.00000000000E+00 -0.67792206780E+02  0.63432271691E+03  0.63068972235E+03 0.  0.
        4    1    3    3  502    0  0.24975296855E+03  0.17083758969E+03 -0.12316967892E+03  0.32670232637E+03  0.12699999809E+01 0.  1.
       -4    1    3    3    0  502 -0.24975296855E+03 -0.17083758969E+03  0.55377472141E+02  0.30762039053E+03  0.12699999809E+01 0. -1.
</event>
<event>
 5   0  0.9177281E-02  0.5982670E+03  0.7818609E-02  0.9909008E-01
        1   -1    0    0  501    0  0.00000000000E+00  0.00000000000E+00  0.52655219425E+03  0.52655219428E+03  0.50400001928E-02 0. -1.
       -1   -1    0    0    0  501  0.00000000000E+00  0.00000000000E+00 -0.16993727244E+03  0.16993727252E+03  0.50400001928E-02 0.  1.
    10030    2    1    2    0    0  0.00000000000E+00  0.00000000000E+00  0.35661492181E+03  0.69648946679E+03  0.59826697627E+03 0.  0.
        1    1    3    3  502    0  0.13196363128E+02 -0.38031835131E+02  0.52338430021E+03  0.52493017652E+03  0.50400001928E-02 0. -1.
       -1    1    3    3    0  502 -0.13196363128E+02  0.38031835131E+02 -0.16676937840E+03  0.17155929028E+03  0.50400001928E-02 0.  1.
</event>
<event>
 5   0  0.1488510E-01  0.5086146E+03  0.7818609E-02  0.1011555E+00
       -2   -1    0    0    0  501  0.00000000000E+00  0.00000000000E+00  0.11835845877E+03  0.11835845879E+03  0.25500000920E-02 0. -1.
        2   -1    0    0  501    0  0.00000000000E+00  0.00000000000E+00 -0.54640956762E+03  0.54640956763E+03  0.25500000920E-02 0.  1.
    10030    2    1    2    0    0  0.00000000000E+00  0.00000000000E+00 -0.42805110885E+03  0.66476802642E+03  0.50861456641E+03 0.  0.
        5    1    3    3  502    0  0.67899057945E+02 -0.20072869740E+03 -0.39769665309E+03  0.45065176124E+03  0.46999998093E+01 0.  1.
       -5    1    3    3    0  502 -0.67899057945E+02  0.20072869740E+03 -0.30354455759E+02  0.21411626518E+03  0.46999998093E+01 0. -1.
</event>
<event>
 5   0  0.1502642E-01  0.6000129E+03  0.7818609E-02  0.9905379E-01
        2   -1    0    0  501    0  0.00000000000E+00  0.00000000000E+00  0.16869568776E+04  0.16869568776E+04  0.25500000920E-02 0. -1.
       -2   -1    0    0    0  501  0.00000000000E+00  0.00000000000E+00 -0.53352796531E+02  0.53352796592E+02  0.25500000920E-02 0.  1.
    10030    2    1    2    0    0  0.00000000000E+00  0.00000000000E+00  0.16336040811E+04  0.17403096742E+04  0.60001289020E+03 0.  0.
        2    1    3    3  502    0 -0.25523148015E+02  0.21538763450E+03  0.21562672818E+03  0.30584007274E+03  0.25500000920E-02 0.  1.
       -2    1    3    3    0  502  0.25523148015E+02 -0.21538763450E+03  0.14179773529E+04  0.14344696015E+04  0.25500000920E-02 0. -1.
</event>
<event>
 5   0  0.9497860E-02  0.5943566E+03  0.7818609E-02  0.9917184E-01
       -1   -1    0    0    0  501  0.00000000000E+00  0.00000000000E+00  0.49583667045E+03  0.49583667047E+03  0.50400001928E-02 0.  1.
        1   -1    0    0  501    0  0.00000000000E+00  0.00000000000E+00 -0.17811294615E+03  0.17811294623E+03  0.50400001928E-02 0. -1.
    10030    2    1    2    0    0  0.00000000000E+00  0.00000000000E+00  0.31772372429E+03  0.67394961670E+03  0.59435656038E+03 0.  0.
        5    1    3    3  502    0 -0.27877777610E+03  0.98444953327E+02  0.19258287010E+03  0.35287208608E+03  0.46999998093E+01 0.  1.
       -5    1    3    3    0  502  0.27877777610E+03 -0.98444953327E+02  0.12514085419E+03  0.32107753062E+03  0.46999998093E+01 0. -1.
</event>
<event>
 5   0  0.1532571E-01  0.5833004E+03  0.7818609E-02  0.9940671E-01
        2   -1    0    0  501    0  0.00000000000E+00  0.00000000000E+00  0.30575400707E+03  0.30575400708E+03  0.25500000920E-02 0.  1.
       -2   -1    0    0    0  501  0.00000000000E+00  0.00000000000E+00 -0.27819695395E+03  0.27819695396E+03  0.25500000920E-02 0. -1.
    10030    2    1    2    0    0  0.00000000000E+00  0.00000000000E+00  0.27557053124E+02  0.58395096104E+03  0.58330038036E+03 0.  0.
        1    1    3    3  502    0 -0.18246923835E+03 -0.25582653265E+02  0.24010663602E+03  0.30265606186E+03  0.50400001928E-02 0.  1.
       -1    1    3    3    0  502  0.18246923835E+03  0.25582653265E+02 -0.21254958290E+03  0.28129489919E+03  0.50400001928E-02 0. -1.
</event>
<event>
 5   0  0.1483942E-01  0.3978067E+03  0.7818609E-02  0.1044542E+00
       -2   -1    0    0    0  501  0.00000000000E+00  0.00000000000E+00  0.31770158366E+02  0.31770158468E+02  0.25500000920E-02 0. -1.
        2   -1    0    0  501    0  0.00000000000E+00  0.00000000000E+00 -0.12452739446E+04  0.12452739446E+04  0.25500000920E-02 0.  1.
    10030    2    1    2    0    0  0.00000000000E+00  0.00000000000E+00 -0.12135037862E+04  0.12770441031E+04  0.39780673949E+03 0.  0.
        4    1    3    3  502    0 -0.12973010670E+03  0.96460207507E+02 -0.97872762563E+03  0.99198984385E+03  0.12699999809E+01 0.  1.
       -4    1    3    3    0  502  0.12973010670E+03 -0.96460207507E+02 -0.23477616061E+03  0.28505425924E+03  0.12699999809E+01 0. -1.
</event>
<event>
 5   0  0.1532571E-01  0.6377417E+03  0.7818609E-02  0.9830057E-01
        2   -1    0    0  501    0  0.00000000000E+00  0.00000000000E+00  0.17811132192E+03  0.17811132194E+03  0.25500000920E-02 0.  1.
       -2   -1    0    0    0  501  0.00000000000E+00  0.00000000000E+00 -0.57087122452E+03  0.57087122453E+03  0.25500000920E-02 0. -1.
    10030    2    1    2    0    0  0.00000000000E+00  0.00000000000E+00 -0.39275990260E+03  0.74898254647E+03  0.63774172972E+03 0.  0.
        1    1    3    3  502    0 -0.10599640944E+03 -0.70268234099E+02  0.14703923927E+03  0.19440525057E+03  0.50400001928E-02 0.  1.
       -1    1    3    3    0  502  0.10599640944E+03  0.70268234099E+02 -0.53979914187E+03  0.55457729590E+03  0.50400001928E-02 0. -1.
</event>
<event>
 5   0  0.1502642E-01  0.5746708E+03  0.7818609E-02  0.9959396E-01
       -2   -1    0    0    0  501  0.00000000000E+00  0.00000000000E+00  0.63027658393E+02  0.63027658444E+02  0.25500000920E-02 0. -1.
        2   -1    0    0  501    0  0.00000000000E+00  0.00000000000E+00 -0.13099272355E+04  0.13099272355E+04  0.25500000920E-02 0.  1.
    10030    2    1    2    0    0  0.00000000000E+00  0.00000000000E+00 -0.12468995771E+04  0.13729548939E+04  0.57467084964E+03 0.  0.
        2    1    3    3  502    0 -0.15291427479E+03  0.16487418766E+03 -0.10507968199E+04  0.10745884002E+04  0.25500000920E-02 0.  1.
       -2    1    3    3    0  502  0.15291427479E+03 -0.16487418766E+03 -0.19610275724E+03  0.29836649375E+03  0.25500000920E-02 0. -1.
</event>
<event>
 5   0  0.9420349E-02  0.5962236E+03  0.7818609E-02  0.9913272E-01
        1   -1    0    0  501    0  0.00000000000E+00  0.00000000000E+00  0.29927686884E+03  0.29927686888E+03  0.50400001928E-02 0.  1.
       -1   -1    0    0    0  501  0.00000000000E+00  0.00000000000E+00 -0.29695127928E+03  0.29695127932E+03  0.50400001928E-02 0. -1.
    10030    2    1    2    0    0  0.00000000000E+00  0.00000000000E+00  0.23255895573E+01  0.59622814820E+03  0.59622361270E+03 0.  0.
        2    1    3    3  502    0 -0.74842428186E+02 -0.20633074910E+03  0.20289901157E+03  0.29890094678E+03  0.25500000920E-02 0.  1.
       -2    1    3    3    0  502  0.74842428186E+02  0.20633074910E+03 -0.20057342201E+03  0.29732720142E+03  0.25500000920E-02 0. -1.
</event>
<event>
 5   0  0.9420349E-02  0.5899767E+03  0.7818609E-02  0.9926422E-01
       -1   -1    0    0    0  501  0.00000000000E+00  0.00000000000E+00  0.10716700509E+04  0.10716700509E+04  0.50400001928E-02 0. -1.
        1   -1    0    0  501    0  0.00000000000E+00  0.00000000000E+00 -0.81198604461E+02  0.81198604618E+02  0.50400001928E-02 0.  1.
    10030    2    1    2    0    0  0.00000000000E+00  0.00000000000E+00  0.99047144642E+03  0.11528686555E+04  0.58997665266E+03 0.  0.
        2    1    3    3  502    0 -0.16348691159E+02 -0.24794704527E+03  0.80588777551E+03  0.84332681903E+03  0.25500000920E-02 0. -1.
       -2    1    3    3    0  502  0.16348691159E+02  0.24794704527E+03  0.18458367091E+03  0.30954183649E+03  0.25500000920E-02 0.  1.
</event>
<event>
 5   0  0.1532571E-01  0.6109599E+03  0.7818609E-02  0.9882925E-01
        2   -1    0    0  501    0  0.00000000000E+00  0.00000000000E+00  0.11433650394E+04  0.11433650394E+04  0.25500000920E-02 0. -1.
       -2   -1    0    0    0  501  0.00000000000E+00  0.00000000000E+00 -0.81616990624E+02  0.81616990664E+02  0.25500000920E-02 0.  1.
    10030    2    1    2    0    0  0.00000000000E+00  0.00000000000E+00  0.10617480488E+04  0.12249820301E+04  0.61095994543E+03 0.  0.
        1    1    3    3  502    0 -0.63165186246E+02  0.70716568333E+02 -0.51364824270E+02  0.10783792926E+03  0.50400001928E-02 0.  1.
       -1    1    3    3    0  502  0.63165186246E+02 -0.70716568333E+02  0.11131128731E+04  0.11171441008E+04  0.50400001928E-02 0. -1.
</event>
<event>
 5   0  0.9177281E-02  0.6108910E+03  0.7818609E-02  0.9883065E-01
        1   -1    0    0  501    0  0.00000000000E+00  0.00000000000E+00  0.72371473550E+03  0.72371473552E+03  0.50400001928E-02 0. -1.
       -1   -1    0    0    0  501  0.00000000000E+00  0.00000000000E+00 -0.12891398344E+03  0.12891398353E+03  0.50400001928E-02 0.  1.
    10030    2    1    2    0    0  0.00000000000E+00  0.00000000000E+00  0.59480075207E+03  0.85262871905E+03  0.61089098692E+03 0.  0.
        1    1    3    3  502    0  0.46098435012E+02 -0.19368407397E+03  0.62070725845E+03  0.65185587896E+03  0.50400001928E-02 0. -1.
       -1    1    3    3    0  502 -0.46098435012E+02  0.19368407397E+03 -0.25906506379E+02  0.20077284009E+03  0.50400001928E-02 0.  1.
</event>
<event>
 5   0  0.9497860E-02  0.5782075E+03  0.7818609E-02  0.9951679E-01
        1   -1    0    0  501    0  0.00000000000E+00  0.00000000000E+00  0.11662898680E+04  0.11662898680E+04  0.50400001928E-02 0. -1.
       -1   -1    0    0    0  501  0.00000000000E+00  0.00000000000E+00 -0.71663988324E+02  0.71663988501E+02  0.50400001928E-02 0.  1.
    10030    2    1    2    0    0  0.00000000000E+00  0.00000000000E+00  0.10946258797E+04  0.12379538565E+04  0.57820751845E+03 0.  0.
        5    1    3    3  502    0  0.17834964908E+03 -0.19391301746E+03  0.29264819268E+03  0.39379678813E+03  0.46999998093E+01 0.  1.
       -5    1    3    3    0  502 -0.17834964908E+03  0.19391301746E+03  0.80197768699E+03  0.84415706838E+03  0.46999998093E+01 0. -1.
</event>
<event>
 5   0  0.1532571E-01  0.6533427E+03  0.7818609E-02  0.9800527E-01
        2   -1    0    0  501    0  0.00000000000E+00  0.00000000000E+00  0.59210908404E+03  0.59210908405E+03  0.25500000920E-02 0. -1.
       -2   -1    0    0    0  501  0.00000000000E+00  0.00000000000E+00 -0.18022721919E+03  0.18022721921E+03  0.25500000920E-02 0.  1.
    10030    2    1    2    0    0  0.00000000000E+00  0.00000000000E+00  0.41188186485E+03  0.77233630326E+03  0.65334270849E+03 0.  0.
        1    1    3    3  502    0 -0.27982416474E+03 -0.10933308562E+03  0.54282825488E+02  0.30528988184E+03  0.50400001928E-02 0.  1.
       -1    1    3    3    0  502  0.27982416474E+03  0.10933308562E+03  0.35759903936E+03  0.46704642142E+03  0.50400001928E-02 0. -1.
</event>
<event>
 5   0  0.9411028E-02  0.6083115E+03  0.7818609E-02  0.9888311E-01
       -1   -1    0    0    0  501  0.00000000000E+00  0.00000000000E+00  0.27714614153E+03  0.27714614157E+03  0.50400001928E-02 0. -1.
        1   -1    0    0  501    0  0.00000000000E+00  0.00000000000E+00 -0.33379763413E+03  0.33379763417E+03  0.50400001928E-02 0.  1.
    10030    2    1    2    0    0  0.00000000000E+00  0.00000000000E+00 -0.56651492604E+02  0.61094377574E+03  0.60831152012E+03 0.  0.
        4    1    3    3  502    0  0.28356787622E+03 -0.69438619272E+02 -0.11399815603E+03  0.31341610480E+03  0.12699999809E+01 0.  1.
       -4    1    3    3    0  502 -0.28356787622E+03  0.69438619272E+02  0.57346663425E+02  0.29752767094E+03  0.12699999809E+01 0. -1.
</event>
<event>
 5   0  0.1502642E-01  0.5998970E+03  0.7818609E-02  0.9905620E-01
       -2   -1    0    0    0  501  0.00000000000E+00  0.00000000000E+00  0.80177374909E+02  0.80177374949E+02  0.25500000920E-02 0. -1.
        2   -1    0    0  501    0  0.00000000000E+00  0.00000000000E+00 -0.11221257884E+04  0.11221257884E+04  0.25500000920E-02 0.  1.
    10030    2    1    2    0    0  0.00000000000E+00  0.00000000000E+00 -0.10419484135E+04  0.12023031633E+04  0.59989699134E+03 0.  0.
        2    1    3    3  502    0 -0.25517518355E+03  0.15443010213E+03 -0.58454406686E+03  0.65624294042E+03  0.25500000920E-02 0.  1.
       -2    1    3    3    0  502  0.25517518355E+03 -0.15443010213E+03 -0.45740434660E+03  0.54606022290E+03  0.25500000920E-02 0. -1.
</event>
<event>
 5   0  0.9411028E-02  0.6055021E+03  0.7818609E-02  0.9894056E-01
        1   -1    0    0  501    0  0.00000000000E+00  0.00000000000E+00  0.42705595543E+03  0.42705595546E+03  0.50400001928E-02 0.  1.
       -1   -1    0    0    0  501  0.00000000000E+00  0.00000000000E+00 -0.21462808854E+03  0.21462808860E+03  0.50400001928E-02 0. -1.
    10030    2    1    2    0    0  0.00000000000E+00  0.00000000000E+00  0.21242786689E+03  0.64168404405E+03  0.60550211706E+03 0.  0.
        4    1    3    3  502    0  0.28543088016E+02 -0.22458360664E+03 -0.10680500664E+03  0.25032264497E+03  0.12699999809E+01 0. -1.
       -4    1    3    3    0  502 -0.28543088016E+02  0.22458360664E+03  0.31923287353E+03  0.39136139908E+03  0.12699999809E+01 0.  1.
</event>
<event>
 5   0  0.9177281E-02  0.5908068E+03  0.7818609E-02  0.9924665E-01
       -1   -1    0    0    0  501  0.00000000000E+00  0.00000000000E+00  0.25388655628E+03  0.25388655633E+03  0.50400001928E-02 0.  1.
        1   -1    0    0  501    0  0.00000000000E+00  0.00000000000E+00 -0.34370924441E+03  0.34370924445E+03  0.50400001928E-02 0. -1.
    10030    2    1    2    0    0  0.00000000000E+00  0.00000000000E+00 -0.89822688130E+02  0.59759580079E+03  0.59080675844E+03 0.  0.
        1    1    3    3  502    0  0.13059293451E+03  0.15978161331E+03 -0.25871309972E+03  0.33093374940E+03  0.50400001928E-02 0. -1.
       -1    1    3    3    0  502 -0.13059293451E+03 -0.15978161331E+03  0.16889041159E+03  0.26666205139E+03  0.50400001928E-02 0.  1.
</event>
<event>
 5   0  0.1488510E-01  0.6110163E+03  0.7818609E-02  0.9882811E-01
        2   -1    0    0  501    0  0.00000000000E+00  0.00000000000E+00  0.33431629806E+03  0.33431629807E+03  0.25500000920E-02 0.  1.
       -2   -1    0    0    0  501  0.00000000000E+00  0.00000000000E+00 -0.27918238828E+03  0.27918238830E+03  0.25500000920E-02 0. -1.
    10030    2    1    2    0    0  0.00000000000E+00  0.00000000000E+00  0.55133909779E+02  0.61349868637E+03  0.61101627652E+03 0.  0.
        5    1    3    3  502    0  0.37424233311E+02 -0.18265169128E+03  0.27052300354E+03  0.32858332126E+03  0.46999998093E+01 0.  1.
       -5    1    3    3    0  502 -0.37424233311E+02  0.18265169128E+03 -0.21538909376E+03  0.28491536511E+03  0.46999998093E+01 0. -1.
</event>
<event>
 5   0  0.8860626E-02  0.5936948E+03  0.7818609E-02  0.9918574E-01
        1   -1    0    0  501    0  0.00000000000E+00  0.00000000000E+00  0.85458009240E+03  0.85458009241E+03  0.50400001928E-02 0.  1.
       -1   -1    0    0    0  501  0.00000000000E+00  0.00000000000E+00 -0.10311307394E+03  0.10311307406E+03  0.50400001928E-02 0. -1.
    10030    2    1    2    0    0  0.00000000000E+00  0.00000000000E+00  0.75146701846E+03  0.95769316648E+03  0.59369480483E+03 0.  0.
        3    1    3    3  502    0 -0.20482221511E+01  0.22151841710E+03  0.56991732314E+02  0.22874149620E+03  0.10100000352E+00 0. -1.
       -3    1    3    3    0  502  0.20482221511E+01 -0.22151841710E+03  0.69447528615E+03  0.72895167028E+03  0.10100000352E+00 0.  1.
</event>
<event>
 5   0  0.6170500E-02  0.5460298E+03  0.7818609E-02  0.1002417E+00
        3   -1    0    0  501    0  0.00000000000E+00  0.00000000000E+00  0.72288708905E+03  0.72288709611E+03  0.10100000352E+00 0.  1.
       -3   -1    0    0    0  501  0.00000000000E+00  0.00000000000E+00 -0.10311029741E+03  0.10311034688E+03  0.10100000352E+00 0. -1.
    10030    2    1    2    0    0  0.00000000000E+00  0.00000000000E+00  0.61977679164E+03  0.82599744299E+03  0.54602976509E+03 0.  0.
        1    1    3    3  502    0 -0.11756277168E+03  0.13712639085E+03  0.61958328074E+03  0.64537438294E+03  0.50400001928E-02 0.  1.
       -1    1    3    3    0  502  0.11756277168E+03 -0.13712639085E+03  0.19351090402E+00  0.18062306005E+03  0.50400001928E-02 0. -1.
</event>
<event>
 5   0  0.8860626E-02  0.5654023E+03  0.7818609E-02  0.9979905E-01
       -1   -1    0    0    0  501  0.00000000000E+00  0.00000000000E+00  0.61064238173E+02  0.61064238381E+02  0.50400001928E-02 0.  1.
        1   -1    0    0  501    0  0.00000000000E+00  0.00000000000E+00 -0.13087847346E+04  0.13087847347E+04  0.50400001928E-02 0. -1.
    10030    2    1    2    0    0  0.00000000000E+00  0.00000000000E+00 -0.12477204965E+04  0.13698489730E+04  0.56540230952E+03 0.  0.
        3    1    3    3  502    0 -0.20391188247E+03  0.72385955211E+02 -0.18307191232E+03  0.28343450321E+03  0.10100000352E+00 0.  1.
       -3    1    3    3    0  502  0.20391188247E+03 -0.72385955211E+02 -0.10646485841E+04  0.10864144698E+04  0.10100000352E+00 0. -1.
</event>
<event>
 5   0  0.1502642E-01  0.6168818E+03  0.7818609E-02  0.9870988E-01
        2   -1    0    0  501    0  0.00000000000E+00  0.00000000000E+00  0.56689092188E+03  0.56689092188E+03  0.25500000920E-02 0. -1.
       -2   -1    0    0    0  501  0.00000000000E+00  0.00000000000E+00 -0.16782028290E+03  0.16782028292E+03  0.25500000920E-02 0.  1.
    10030    2    1    2    0    0  0.00000000000E+00  0.00000000000E+00  0.39907063898E+03  0.73471120480E+03  0.61688181977E+03 0.  0.
        2    1    3    3  502    0  0.11650768414E+03  0.12037191979E+03  0.50798652409E+03  0.53489601625E+03  0.25500000920E-02 0. -1.
       -2    1    3    3    0  502 -0.11650768414E+03 -0.12037191979E+03 -0.10891588511E+03  0.19981518854E+03  0.25500000920E-02 0.  1.
</event>
<event>
 5   0  0.1483942E-01  0.6010728E+03  0.7818609E-02  0.9903183E-01
        2   -1    0    0  501    0  0.00000000000E+00  0.00000000000E+00  0.15433404384E+04  0.15433404384E+04  0.25500000920E-02 0.  1.
       -2   -1    0    0    0  501  0.00000000000E+00  0.00000000000E+00 -0.58523786320E+02  0.58523786376E+02  0.25500000920E-02 0. -1.
    10030    2    1    2    0    0  0.00000000000E+00  0.00000000000E+00  0.14848166521E+04  0.16018642248E+04  0.60107279454E+03 0.  0.
        4    1    3    3  502    0 -0.35735484464E+02 -0.27511709761E+03  0.43444041301E+03  0.51546729053E+03  0.12699999809E+01 0. -1.
       -4    1    3    3    0  502  0.35735484464E+02  0.27511709761E+03  0.10503762391E+04  0.10863969343E+04  0.12699999809E+01 0.  1.
</event>
<event>
 5   0  0.8860626E-02  0.6226506E+03  0.7818609E-02  0.9859497E-01
       -1   -1    0    0    0  501  0.00000000000E+00  0.00000000000E+00  0.73909517139E+02  0.73909517310E+02  0.50400001928E-02 0. -1.
        1   -1    0    0  501    0  0.00000000000E+00  0.00000000000E+00 -0.13113795411E+04  0.13113795411E+04  0.50400001928E-02 0.  1.
    10030    2    1    2    0    0  0.00000000000E+00  0.00000000000E+00 -0.12374700240E+04  0.13852890584E+04  0.62265055624E+03 0.  0.
        3    1    3    3  502    0 -0.18326787446E+03  0.23903637931E+03 -0.79388850467E+03  0.84910804524E+03  0.10100000352E+00 0.  1.
       -3    1    3    3    0  502  0.18326787446E+03 -0.23903637931E+03 -0.44358151932E+03  0.53618101321E+03  0.10100000352E+00 0. -1.
</event>
<event>
 5   0  0.1502642E-01  0.6013709E+03  0.7818609E-02  0.9902566E-01
       -2   -1    0    0    0  501  0.00000000000E+00  0.00000000000E+00  0.14309604820E+03  0.14309604822E+03  0.25500000920E-02 0.  1.
        2   -1    0    0  501    0  0.00000000000E+00  0.00000000000E+00 -0.63182549448E+03  0.63182549448E+03  0.25500000920E-02 0. -1.
    10030    2    1    2    0    0  0.00000000000E+00  0.00000000000E+00 -0.48872944628E+03  0.77492154271E+03  0.60137087200E+03 0.  0.
        2    1    3    3  502    0 -0.82514196841E+02  0.28885750087E+03 -0.22783841833E+03  0.37703792032E+03  0.25500000920E-02 0.  1.
       -2    1    3    3    0  502  0.82514196841E+02 -0.28885750087E+03 -0.26089102796E+03  0.39788362239E+03  0.25500000920E-02 0. -1.
</event>
<event>
 5   0  0.1483942E-01  0.5368471E+03  0.7818609E-02  0.1004585E+00
        2   -1    0    0  501    0  0.00000000000E+00  0.00000000000E+00  0.20846332286E+03  0.20846332288E+03  0.25500000920E-02 0.  1.
       -2   -1    0    0    0  501  0.00000000000E+00  0.00000000000E+00 -0.34563005957E+03  0.34563005958E+03  0.25500000920E-02 0. -1.
    10030    2    1    2    0    0  0.00000000000E+00  0.00000000000E+00 -0.13716673671E+03  0.55409338246E+03  0.53684705720E+03 0.  0.
        4    1    3    3  502    0 -0.10527938497E+02  0.12594749512E+03  0.17582764928E+03  0.21654233805E+03  0.12699999809E+01 0.  1.
       -4    1    3    3    0  502  0.10527938497E+02 -0.12594749512E+03 -0.31299438599E+03  0.33755104441E+03  0.12699999809E+01 0. -1.
</event>
<event>
 5   0  0.1513339E-01  0.5822562E+03  0.7818609E-02  0.9942918E-01
        2   -1    0    0  501    0  0.00000000000E+00  0.00000000000E+00  0.12710863179E+04  0.12710863179E+04  0.25500000920E-02 0. -1.
       -2   -1    0    0    0  501  0.00000000000E+00  0.00000000000E+00 -0.66679640927E+02  0.66679640975E+02  0.25500000920E-02 0.  1.
    10030    2    1    2    0    0  0.00000000000E+00  0.00000000000E+00  0.12044066770E+04  0.13377659589E+04  0.58225622985E+03 0.  0.
        3    1    3    3  502    0  0.27501328047E+03 -0.71189037908E+02  0.74851605407E+03  0.80061006549E+03  0.10100000352E+00 0. -1.
       -3    1    3    3    0  502 -0.27501328047E+03  0.71189037908E+02  0.45589062291E+03  0.53715589340E+03  0.10100000352E+00 0.  1.
</event>
<event>
 5   0  0.8860626E-02  0.6195294E+03  0.7818609E-02  0.9865697E-01
        1   -1    0    0  501    0  0.00000000000E+00  0.00000000000E+00  0.11056891306E+03  0.11056891317E+03  0.50400001928E-02 0. -1.
       -1   -1    0    0    0  501  0.00000000000E+00  0.00000000000E+00 -0.86782223236E+03  0.86782223238E+03  0.50400001928E-02 0.  1.
    10030    2    1    2    0    0  0.00000000000E+00  0.00000000000E+00 -0.75725331931E+03  0.97839114555E+03  0.61952937306E+03 0.  0.
        3    1    3    3  502    0 -0.25528867277E+02  0.59875623859E+02  0.99646854359E+02  0.11902234740E+03  0.10100000352E+00 0. -1.
       -3    1    3    3    0  502  0.25528867277E+02 -0.59875623859E+02 -0.85690017366E+03  0.85936879814E+03  0.10100000352E+00 0.  1.
</event>
<event>
 5   0  0.1502642E-01  0.6147136E+03  0.7818609E-02  0.9875342E-01
       -2   -1    0    0    0  501  0.00000000000E+00  0.00000000000E+00  0.17154611745E+03  0.17154611747E+03  0.25500000920E-02 0.  1.
        2   -1    0    0  501    0  0.00000000000E+00  0.00000000000E+00 -0.55068684174E+03  0.55068684174E+03  0.25500000920E-02 0. -1.
    10030    2    1    2    0    0  0.00000000000E+00  0.00000000000E+00 -0.37914072429E+03  0.72223295921E+03  0.61471355813E+03 0.  0.
        2    1    3    3  502    0  0.70780432389E+01  0.95362741152E+02  0.15362405403E+03  0.18095441713E+03  0.25500000920E-02 0.  1.
       -2    1    3    3    0  502 -0.70780432389E+01 -0.95362741152E+02 -0.53276477832E+03  0.54127854208E+03  0.25500000920E-02 0. -1.
</event>
<event>
 5   0  0.9497860E-02  0.5558980E+03  0.7818609E-02  0.1000138E+00
        1   -1    0    0  501    0  0.00000000000E+00  0.00000000000E+00  0.51359213886E+03  0.51359213889E+03  0.50400001928E-02 0. -1.
       -1   -1    0    0    0  501  0.00000000000E+00  0.00000000000E+00 -0.15042219582E+03  0.15042219590E+03  0.50400001928E-02 0.  1.
    10030    2    1    2    0    0  0.00000000000E+00  0.00000000000E+00  0.36316994304E+03  0.66401433479E+03  0.55589803856E+03 0.  0.
        5    1    3    3  502    0 -0.18358925096E+03  0.82698948610E+02  0.41038329824E+03  0.45714403708E+03  0.46999998093E+01 0. -1.
       -5    1    3    3    0  502  0.18358925096E+03 -0.82698948610E+02 -0.47213355191E+02  0.20687029771E+03  0.46999998093E+01 0.  1.
</event>
<event>
 5   0  0.9420349E-02  0.6146235E+03  0.7818609E-02  0.9875523E-01
       -1   -1    0    0    0  501  0.00000000000E+00  0.00000000000E+00  0.51874103985E+02  0.51874104229E+02  0.50400001928E-02 0. -1.
        1   -1    0    0  501    0  0.00000000000E+00  0.00000000000E+00 -0.18205714246E+04  0.18205714246E+04  0.50400001928E-02 0.  1.
    10030    2    1    2    0    0  0.00000000000E+00  0.00000000000E+00 -0.17686973206E+04  0.18724455289E+04  0.61462349980E+03 0.  0.
        2    1    3    3  502    0 -0.20387080991E+03 -0.10340699420E+03 -0.15100613027E+04  0.15272660054E+04  0.25500000920E-02 0.  1.
       -2    1    3    3    0  502  0.20387080991E+03  0.10340699420E+03 -0.25863601797E+03  0.34517952341E+03  0.25500000920E-02 0. -1.
</event>
<event>
 5   0  0.1502642E-01  0.5912190E+03  0.7818609E-02  0.9923793E-01
       -2   -1    0    0    0  501  0.00000000000E+00  0.00000000000E+00  0.79829740366E+02  0.79829740407E+02  0.25500000920E-02 0. -1.
        2   -1    0    0  501    0  0.00000000000E+00  0.00000000000E+00 -0.10946419377E+04  0.10946419377E+04  0.25500000920E-02 0.  1.
    10030    2    1    2    0    0  0.00000000000E+00  0.00000000000E+00 -0.10148121974E+04  0.11744716781E+04  0.59121901765E+03 0.  0.
        2    1    3    3  502    0 -0.98224907180E+02 -0.27866066291E+03 -0.48908216281E+03  0.57140288714E+03  0.25500000920E-02 0. -1.
       -2    1    3    3    0  502  0.98224907180E+02  0.27866066291E+03 -0.52573003454E+03  0.60306879099E+03  0.25500000920E-02 0.  1.
</event>
<event>
 5   0  0.8860626E-02  0.5605598E+03  0.7818609E-02  0.9990789E-01
       -1   -1    0    0    0  501  0.00000000000E+00  0.00000000000E+00  0.21809209259E+03  0.21809209265E+03  0.50400001928E-02 0.  1.
        1   -1    0    0  501    0  0.00000000000E+00  0.00000000000E+00 -0.36020024358E+03  0.36020024362E+03  0.50400001928E-02 0. -1.
    10030    2    1    2    0    0  0.00000000000E+00  0.00000000000E+00 -0.14210815099E+03  0.57829233627E+03  0.56055980912E+03 0.  0.
        3    1    3    3  502    0 -0.10717298577E+03  0.18983594810E+03 -0.25278879760E+03  0.33380521635E+03  0.10100000352E+00 0. -1.
       -3    1    3    3    0  502  0.10717298577E+03 -0.18983594810E+03  0.11068064661E+03  0.24448711992E+03  0.10100000352E+00 0.  1.
</event>
<event>
 5   0  0.8860626E-02  0.5905004E+03  0.7818609E-02  0.9925313E-01
        1   -1    0    0  501    0  0.00000000000E+00  0.00000000000E+00  0.12216457422E+03  0.12216457433E+03  0.50400001928E-02 0.  1.
       -1   -1    0    0    0  501  0.00000000000E+00  0.00000000000E+00 -0.71356766447E+03  0.71356766449E+03  0.50400001928E-02 0. -1.
    10030    2    1    2    0    0  0.00000000000E+00  0.00000000000E+00 -0.59140309025E+03  0.83573223882E+03  0.59050043170E+03 0.  0.
        3    1    3    3  502    0  0.10751195364E+03  0.17567154135E+03 -0.59510706584E+03  0.62973942280E+03  0.10100000352E+00 0. -1.
       -3    1    3    3    0  502 -0.10751195364E+03 -0.17567154135E+03  0.37039755878E+01  0.20599281602E+03  0.10100000352E+00 0.  1.
</event>
<event>
 5   0  0.8860626E-02  0.5004569E+03  0.7818609E-02  0.1013660E+00
        1   -1    0    0  501    0  0.00000000000E+00  0.00000000000E+00  0.92607050880E+03  0.92607050881E+03  0.50400001928E-02 0.  1.
       -1   -1    0    0    0  501  0.00000000000E+00  0.00000000000E+00 -0.67612856892E+02  0.67612857080E+02  0.50400001928E-02 0. -1.
    10030    2    1    2    0    0  0.00000000000E+00  0.00000000000E+00  0.85845765190E+03  0.99368336589E+03  0.50045688279E+03 0.  0.
        3    1    3    3  502    0  0.14735343468E+03  0.11349327608E+01  0.27675998466E+02  0.14993429853E+03  0.10100000352E+00 0. -1.
       -3    1    3    3    0  502 -0.14735343468E+03 -0.11349327608E+01  0.83078165344E+03  0.84374906736E+03  0.10100000352E+00 0.  1.
</event>
<event>
 5   0  0.6170500E-02  0.5762489E+03  0.7818609E-02  0.9955945E-01
       -4   -1    0    0    0  501  0.00000000000E+00  0.00000000000E+00  0.16145281596E+03  0.16145781085E+03  0.12699999809E+01 0.  1.
        4   -1    0    0  501    0  0.00000000000E+00  0.00000000000E+00 -0.51416559176E+03  0.51416716022E+03  0.12699999809E+01 0. -1.
    10030    2    1    2    0    0  0.00000000000E+00  0.00000000000E+00 -0.35271277580E+03  0.67562497107E+03  0.57624890396E+03 0.  0.
        1    1    3    3  502    0  0.23745423691E+03  0.12777324236E+03 -0.57335427710E+02  0.27567710712E+03  0.50400001928E-02 0.  1.
       -1    1    3    3    0  502 -0.23745423691E+03 -0.12777324236E+03 -0.29537734809E+03  0.39994786395E+03  0.50400001928E-02 0. -1.
</event>
<event>
 5   0  0.1488510E-01  0.6109223E+03  0.7818609E-02  0.9883001E-01
        2   -1    0    0  501    0  0.00000000000E+00  0.00000000000E+00  0.48694821905E+03  0.48694821905E+03  0.25500000920E-02 0.  1.
       -2   -1    0    0    0  501  0.00000000000E+00  0.00000000000E+00 -0.19161486924E+03  0.19161486926E+03  0.25500000920E-02 0. -1.
    10030    2    1    2    0    0  0.00000000000E+00  0.00000000000E+00  0.29533334981E+03  0.67856308831E+03  0.61092231692E+03 0.  0.
        5    1    3    3  502    0  0.80295328278E+02  0.12984434805E+03 -0.14615481811E+03  0.21140060387E+03  0.46999998093E+01 0. -1.
       -5    1    3    3    0  502 -0.80295328278E+02 -0.12984434805E+03  0.44148816791E+03  0.46716248444E+03  0.46999998093E+01 0.  1.
</event>
<event>
 5   0  0.9411028E-02  0.6017185E+03  0.7818609E-02  0.9901847E-01
        1   -1    0    0  501    0  0.00000000000E+00  0.00000000000E+00  0.30227536748E+03  0.30227536752E+03  0.50400001928E-02 0.  1.
       -1   -1    0    0    0  501  0.00000000000E+00  0.00000000000E+00 -0.29944976711E+03  0.29944976715E+03  0.50400001928E-02 0. -1.
    10030    2    1    2    0    0  0.00000000000E+00  0.00000000000E+00  0.28256003753E+01  0.60172513467E+03  0.60171850036E+03 0.  0.
        4    1    3    3  502    0  0.16293770872E+03 -0.15926044861E+03 -0.19506350712E+03  0.29993994753E+03  0.12699999809E+01 0. -1.
       -4    1    3    3    0  502 -0.16293770872E+03  0.15926044861E+03  0.19788910749E+03  0.30178518714E+03  0.12699999809E+01 0.  1.
</event>
<event>
 5   0  0.8860626E-02  0.6089176E+03  0.7818609E-02  0.9887076E-01
        1   -1    0    0  501    0  0.00000000000E+00  0.00000000000E+00  0.96837218752E+02  0.96837218883E+02  0.50400001928E-02 0.  1.
       -1   -1    0    0    0  501  0.00000000000E+00  0.00000000000E+00 -0.95722660541E+03  0.95722660543E+03  0.50400001928E-02 0. -1.
    10030    2    1    2    0    0  0.00000000000E+00  0.00000000000E+00 -0.86038938666E+03  0.10540638243E+04  0.60891760447E+03 0.  0.
        3    1    3    3  502    0 -0.44430918993E+02  0.17342191483E+03 -0.39008630206E+01  0.17906561378E+03  0.10100000352E+00 0.  1.
       -3    1    3    3    0  502  0.44430918993E+02 -0.17342191483E+03 -0.85648852364E+03  0.87499821053E+03  0.10100000352E+00 0. -1.
</event>
<event>
 5   0  0.6170500E-02  0.5274671E+03  0.7818609E-02  0.1006848E+00
        3   -1    0    0  501    0  0.00000000000E+00  0.00000000000E+00  0.58567517575E+03  0.58567518446E+03  0.10100000352E+00 0. -1.
       -3   -1    0    0    0  501  0.00000000000E+00  0.00000000000E+00 -0.11876099926E+03  0.11876104221E+03  0.10100000352E+00 0.  1.
    10030    2    1    2    0    0  0.00000000000E+00  0.00000000000E+00  0.46691417649E+03  0.70443622667E+03  0.52746710726E+03 0.  0.
        3    1    3    3  502    0  0.16092905394E+03  0.20424008418E+03  0.17458552359E+03  0.31319688318E+03  0.10100000352E+00 0.  1.
       -3    1    3    3    0  502 -0.16092905394E+03 -0.20424008418E+03  0.29232865290E+03  0.39123934349E+03  0.10100000352E+00 0. -1.
</event>
<event>
 5   0  0.1502642E-01  0.4737022E+03  0.7818609E-02  0.1020880E+00
       -2   -1    0    0    0  501  0.00000000000E+00  0.00000000000E+00  0.41397259626E+03  0.41397259626E+03  0.25500000920E-02 0. -1.
        2   -1    0    0  501    0  0.00000000000E+00  0.00000000000E+00 -0.13551247702E+03  0.13551247704E+03  0.25500000920E-02 0.  1.
    10030    2    1    2    0    0  0.00000000000E+00  0.00000000000E+00  0.27846011924E+03  0.54948507331E+03  0.47370223536E+03 0.  0.
        2    1    3    3  502    0  0.62032042991E+02  0.19118867417E+03 -0.61028242134E+01  0.20109283418E+03  0.25500000920E-02 0.  1.
       -2    1    3    3    0  502 -0.62032042991E+02 -0.19118867417E+03  0.28456294345E+03  0.34839223912E+03  0.25500000920E-02 0. -1.
</event>
<event>
 5   0  0.6170500E-02  0.5843391E+03  0.7818609E-02  0.9938441E-01
       -3   -1    0    0    0  501  0.00000000000E+00  0.00000000000E+00  0.69696527669E+02  0.69696600851E+02  0.10100000352E+00 0. -1.
        3   -1    0    0  501    0  0.00000000000E+00  0.00000000000E+00 -0.12247811508E+04  0.12247811549E+04  0.10100000352E+00 0.  1.
    10030    2    1    2    0    0  0.00000000000E+00  0.00000000000E+00 -0.11550846231E+04  0.12944777558E+04  0.58433909137E+03 0.  0.
        5    1    3    3  502    0 -0.18995545130E+03  0.11724405042E+03 -0.16008174363E+03  0.27473167906E+03  0.46999998093E+01 0. -1.
       -5    1    3    3    0  502  0.18995545130E+03 -0.11724405042E+03 -0.99500287947E+03  0.10197460767E+04  0.46999998093E+01 0.  1.
</event>
<event>
 5   0  0.6170500E-02  0.5988031E+03  0.7818609E-02  0.9907892E-01
        4   -1    0    0  501    0  0.00000000000E+00  0.00000000000E+00  0.27481463954E+03  0.27481757405E+03  0.12699999809E+01 0. -1.
       -4   -1    0    0    0  501  0.00000000000E+00  0.00000000000E+00 -0.32618230833E+03  0.32618478071E+03  0.12699999809E+01 0.  1.
    10030    2    1    2    0    0  0.00000000000E+00  0.00000000000E+00 -0.51367668795E+02  0.60100235476E+03  0.59880313378E+03 0.  0.
        2    1    3    3  502    0 -0.89860950493E+02  0.35819858427E+02 -0.31006744882E+03  0.32480744374E+03  0.25500000920E-02 0.  1.
       -2    1    3    3    0  502  0.89860950493E+02 -0.35819858427E+02  0.25869978003E+03  0.27619491102E+03  0.25500000920E-02 0. -1.
</event>
<event>
 5   0  0.1488510E-01  0.5960679E+03  0.7818609E-02  0.9913598E-01
       -2   -1    0    0    0  501  0.00000000000E+00  0.00000000000E+00  0.75221008446E+02  0.75221008489E+02  0.25500000920E-02 0. -1.
        2   -1    0    0  501    0  0.00000000000E+00  0.00000000000E+00 -0.11808435183E+04  0.11808435183E+04  0.25500000920E-02 0.  1.
    10030    2    1    2    0    0  0.00000000000E+00  0.00000000000E+00 -0.11056225098E+04  0.12560645268E+04  0.59606791657E+03 0.  0.
        5    1    3    3  502    0 -0.29602615904E+02 -0.14931465279E+03 -0.10926581592E+04  0.11032203421E+04  0.46999998093E+01 0.  1.
       -5    1    3    3    0  502  0.29602615904E+02  0.14931465279E+03 -0.12964350674E+02  0.15284418469E+03  0.46999998093E+01 0. -1.
</event>
<event>
 5   0  0.9411028E-02  0.6001751E+03  0.7818609E-02  0.9905043E-01
       -1   -1    0    0    0  501  0.00000000000E+00  0.00000000000E+00  0.16388877363E+03  0.16388877370E+03  0.50400001928E-02 0.  1.
        1   -1    0    0  501    0  0.00000000000E+00  0.00000000000E+00 -0.54947344564E+03  0.54947344566E+03  0.50400001928E-02 0. -1.
    10030    2    1    2    0    0  0.00000000000E+00  0.00000000000E+00 -0.38558467201E+03  0.71336221936E+03  0.60017507173E+03 0.  0.
        4    1    3    3  502    0  0.25075139971E+03  0.80401879383E+01 -0.38849510396E+03  0.46246185549E+03  0.12699999809E+01 0. -1.
       -4    1    3    3    0  502 -0.25075139971E+03 -0.80401879383E+01  0.29104319546E+01  0.25090036387E+03  0.12699999809E+01 0.  1.
</event>
<event>
 5   0  0.1513339E-01  0.5596986E+03  0.7818609E-02  0.9992737E-01
       -2   -1    0    0    0  501  0.00000000000E+00  0.00000000000E+00  0.19994387535E+03  0.19994387536E+03  0.25500000920E-02 0.  1.
        2   -1    0    0  501    0  0.00000000000E+00  0.00000000000E+00 -0.39168811623E+03  0.39168811624E+03  0.25500000920E-02 0. -1.
    10030    2    1    2    0    0  0.00000000000E+00  0.00000000000E+00 -0.19174424088E+03  0.59163199160E+03  0.55969863282E+03 0.  0.
        3    1    3    3  502    0  0.21998464578E+03  0.11928944078E+03  0.36544436446E+02  0.25290061506E+03  0.10100000352E+00 0. -1.
       -3    1    3    3    0  502 -0.21998464578E+03 -0.11928944078E+03 -0.22828867733E+03  0.33873137655E+03  0.10100000352E+00 0.  1.
</event>
<event>
 5   0  0.1488510E-01  0.6039948E+03  0.7818609E-02  0.9897153E-01
        2   -1    0    0  501    0  0.00000000000E+00  0.00000000000E+00  0.19968274298E+03  0.19968274300E+03  0.25500000920E-02 0. -1.
       -2   -1    0    0    0  501  0.00000000000E+00  0.00000000000E+00 -0.45673665260E+03  0.45673665260E+03  0.25500000920E-02 0.  1.
    10030    2    1    2    0    0  0.00000000000E+00  0.00000000000E+00 -0.25705390961E+03  0.65641939560E+03  0.60399479342E+03 0.  0.
        5    1    3    3  502    0  0.22441543339E+03 -0.19736669688E+01 -0.34808715468E+03  0.41418949692E+03  0.46999998093E+01 0.  1.
       -5    1    3    3    0  502 -0.22441543339E+03  0.19736669688E+01  0.91033245071E+02  0.24222989868E+03  0.46999998093E+01 0. -1.
</event>
<event>
 5   0  0.9177281E-02  0.5997344E+03  0.7818609E-02  0.9905957E-01
       -1   -1    0    0    0  501  0.00000000000E+00  0.00000000000E+00  0.95022981886E+02  0.95022982019E+02  0.50400001928E-02 0. -1.
        1   -1    0    0  501    0  0.00000000000E+00  0.00000000000E+00 -0.94630092821E+03  0.94630092823E+03  0.50400001928E-02 0.  1.
    10030    2    1    2    0    0  0.00000000000E+00  0.00000000000E+00 -0.85127794633E+03  0.10413239102E+04  0.59973439467E+03 0.  0.
        1    1    3    3  502    0  0.42282896877E+02 -0.10365707950E+03  0.57378521527E+02  0.12579717110E+03  0.50400001928E-02 0. -1.
       -1    1    3    3    0  502 -0.42282896877E+02  0.10365707950E+03 -0.90865646785E+03  0.91552673915E+03  0.50400001928E-02 0.  1.
</event>
<event>
 5   0  0.1502642E-01  0.6026436E+03  0.7818609E-02  0.9899937E-01
       -2   -1    0    0    0  501  0.00000000000E+00  0.00000000000E+00  0.58128042465E+02  0.58128042520E+02  0.25500000920E-02 0.  1.
        2   -1    0    0  501    0  0.00000000000E+00  0.00000000000E+00 -0.15619797368E+04  0.15619797368E+04  0.25500000920E-02 0. -1.
    10030    2    1    2    0    0  0.00000000000E+00  0.00000000000E+00 -0.15038516944E+04  0.16201077793E+04  0.60264359125E+03 0.  0.
        2    1    3    3  502    0 -0.13052457024E+03  0.83791734207E+02 -0.14464175332E+04  0.14547100737E+04  0.25500000920E-02 0. -1.
       -2    1    3    3    0  502  0.13052457024E+03 -0.83791734207E+02 -0.57434161145E+02  0.16539770564E+03  0.25500000920E-02 0.  1.
</event>
<event>
 5   0  0.1488510E-01  0.6052019E+03  0.7818609E-02  0.9894672E-01
        2   -1    0    0  501    0  0.00000000000E+00  0.00000000000E+00  0.30895435420E+03  0.30895435421E+03  0.25500000920E-02 0. -1.
       -2   -1    0    0    0  501  0.00000000000E+00  0.00000000000E+00 -0.29637818934E+03  0.29637818935E+03  0.25500000920E-02 0.  1.
    10030    2    1    2    0    0  0.00000000000E+00  0.00000000000E+00  0.12576164858E+02  0.60533254356E+03  0.60520189059E+03 0.  0.
        5    1    3    3  502    0 -0.19641530790E+03  0.18974443013E+02 -0.22312193369E+03  0.29790013420E+03  0.46999998093E+01 0.  1.
       -5    1    3    3    0  502  0.19641530790E+03 -0.18974443013E+02  0.23569809855E+03  0.30743240936E+03  0.46999998093E+01 0. -1.
</event>
<event>
 5   0  0.9420349E-02  0.5909847E+03  0.7818609E-02  0.9924288E-01
        1   -1    0    0  501    0  0.00000000000E+00  0.00000000000E+00  0.34603207357E+03  0.34603207361E+03  0.50400001928E-02 0.  1.
       -1   -1    0    0    0  501  0.00000000000E+00  0.00000000000E+00 -0.25233421239E+03  0.25233421244E+03  0.50400001928E-02 0. -1.
    10030    2    1    2    0    0  0.00000000000E+00  0.00000000000E+00  0.93697861185E+02  0.59836628604E+03  0.59098470630E+03 0.  0.
        2    1    3    3  502    0  0.13975151953E+03 -0.20141466051E+03  0.21388644423E+03  0.32533945920E+03  0.25500000920E-02 0.  1.
       -2    1    3    3    0  502 -0.13975151953E+03  0.20141466051E+03 -0.12018858304E+03  0.27302682685E+03  0.25500000920E-02 0. -1.
</event>
<event>
 5   0  0.1488510E-01  0.5291582E+03  0.7818609E-02  0.1006436E+00
       -2   -1    0    0    0  501  0.00000000000E+00  0.00000000000E+00  0.16255599004E+03  0.16255599006E+03  0.25500000920E-02 0. -1.
        2   -1    0    0  501    0  0.00000000000E+00  0.00000000000E+00 -0.43063384948E+03  0.43063384948E+03  0.25500000920E-02 0.  1.
    10030    2    1    2    0    0  0.00000000000E+00  0.00000000000E+00 -0.26807785943E+03  0.59318983955E+03  0.52915824384E+03 0.  0.
        5    1    3    3  502    0 -0.72051169062E+02 -0.24229870461E+02 -0.41807987003E+03  0.42496038087E+03  0.46999998093E+01 0.  1.
       -5    1    3    3    0  502  0.72051169062E+02  0.24229870461E+02  0.15000201060E+03  0.16822945868E+03  0.46999998093E+01 0. -1.
</event>
<event>
 5   0  0.9411028E-02  0.6045850E+03  0.7818609E-02  0.9895939E-01
       -1   -1    0    0    0  501  0.00000000000E+00  0.00000000000E+00  0.50585044071E+03  0.50585044074E+03  0.50400001928E-02 0.  1.
        1   -1    0    0  501    0  0.00000000000E+00  0.00000000000E+00 -0.18064777404E+03  0.18064777411E+03  0.50400001928E-02 0. -1.
    10030    2    1    2    0    0  0.00000000000E+00  0.00000000000E+00  0.32520266667E+03  0.68649821485E+03  0.60458500194E+03 0.  0.
        4    1    3    3  502    0 -0.10404051969E+03  0.25701554828E+03  0.29932129202E+03  0.40801503717E+03  0.12699999809E+01 0.  1.
       -4    1    3    3    0  502  0.10404051969E+03 -0.25701554828E+03  0.25881374649E+02  0.27848317768E+03  0.12699999809E+01 0. -1.
</event>
<event>
 5   0  0.9497860E-02  0.5210419E+03  0.7818609E-02  0.1008428E+00
       -1   -1    0    0    0  501  0.00000000000E+00  0.00000000000E+00  0.29853121905E+03  0.29853121909E+03  0.50400001928E-02 0.  1.
        1   -1    0    0  501    0  0.00000000000E+00  0.00000000000E+00 -0.22735029795E+03  0.22735029801E+03  0.50400001928E-02 0. -1.
    10030    2    1    2    0    0  0.00000000000E+00  0.00000000000E+00  0.71180921094E+02  0.52588151710E+03  0.52104188555E+03 0.  0.
        5    1    3    3  502    0  0.15762177508E+03  0.17426638716E+03 -0.77862145394E+02  0.24758433181E+03  0.46999998093E+01 0. -1.
       -5    1    3    3    0  502 -0.15762177508E+03 -0.17426638716E+03  0.14904306649E+03  0.27829718529E+03  0.46999998093E+01 0.  1.
</event>
<event>
 5   0  0.8860626E-02  0.5307527E+03  0.7818609E-02  0.1006050E+00
        1   -1    0    0  501    0  0.00000000000E+00  0.00000000000E+00  0.56437852397E+03  0.56437852399E+03  0.50400001928E-02 0. -1.
       -1   -1    0    0    0  501  0.00000000000E+00  0.00000000000E+00 -0.12478259137E+03  0.12478259147E+03  0.50400001928E-02 0.  1.
    10030    2    1    2    0    0  0.00000000000E+00  0.00000000000E+00  0.43959593260E+03  0.68916111546E+03  0.53075272878E+03 0.  0.
        3    1    3    3  502    0 -0.22773560459E+03  0.91645055664E+02  0.35069330063E+03  0.42807490365E+03  0.10100000352E+00 0. -1.
       -3    1    3    3    0  502  0.22773560459E+03 -0.91645055664E+02  0.88902631974E+02  0.26108621182E+03  0.10100000352E+00 0.  1.
</event>
<event>
 5   0  0.9497860E-02  0.6043347E+03  0.7818609E-02  0.9896454E-01
       -1   -1    0    0    0  501  0.00000000000E+00  0.00000000000E+00  0.15485931539E+03  0.15485931548E+03  0.50400001928E-02 0. -1.
        1   -1    0    0  501    0  0.00000000000E+00  0.00000000000E+00 -0.58960033945E+03  0.58960033947E+03  0.50400001928E-02 0.  1.
    10030    2    1    2    0    0  0.00000000000E+00  0.00000000000E+00 -0.43474102405E+03  0.74445965494E+03  0.60433469191E+03 0.  0.
        5    1    3    3  502    0 -0.87893398419E+02  0.26909911116E+03 -0.34740937416E+03  0.44816843303E+03  0.46999998093E+01 0.  1.
       -5    1    3    3    0  502  0.87893398419E+02 -0.26909911116E+03 -0.87331649891E+02  0.29629122191E+03  0.46999998093E+01 0. -1.
</event>
<event>
 5   0  0.1513339E-01  0.5988607E+03  0.7818609E-02  0.9907773E-01
       -2   -1    0    0    0  501  0.00000000000E+00  0.00000000000E+00  0.66590943372E+03  0.66590943372E+03  0.25500000920E-02 0. -1.
        2   -1    0    0  501    0  0.00000000000E+00  0.00000000000E+00 -0.13464073223E+03  0.13464073226E+03  0.25500000920E-02 0.  1.
    10030    2    1    2    0    0  0.00000000000E+00  0.00000000000E+00  0.53126870149E+03  0.80055016598E+03  0.59886069755E+03 0.  0.
        3    1    3    3  502    0  0.48477150919E+02 -0.22980210888E+02  0.65943240153E+03  0.66161108413E+03  0.10100000352E+00 0. -1.
       -3    1    3    3    0  502 -0.48477150919E+02  0.22980210888E+02 -0.12816370005E+03  0.13893908185E+03  0.10100000352E+00 0.  1.
</event>
<event>
 5   0  0.8860626E-02  0.6000696E+03  0.7818609E-02  0.9905262E-01
       -1   -1    0    0    0  501  0.00000000000E+00  0.00000000000E+00  0.88587491633E+02  0.88587491776E+02  0.50400001928E-02 0.  1.
        1   -1    0    0  501    0  0.00000000000E+00  0.00000000000E+00 -0.10161803324E+04  0.10161803324E+04  0.50400001928E-02 0. -1.
    10030    2    1    2    0    0  0.00000000000E+00  0.00000000000E+00 -0.92759284078E+03  0.11047678242E+04  0.60006955190E+03 0.  0.
        3    1    3    3  502    0 -0.14140650524E+03  0.23008233482E+03 -0.22313605403E+03  0.35031898225E+03  0.10100000352E+00 0.  1.
       -3    1    3    3    0  502  0.14140650524E+03 -0.23008233482E+03 -0.70445678675E+03  0.75444884195E+03  0.10100000352E+00 0. -1.
</event>
<event>
 5   0  0.9497860E-02  0.6104543E+03  0.7818609E-02  0.9883951E-01
       -1   -1    0    0    0  501  0.00000000000E+00  0.00000000000E+00  0.11789097345E+03  0.11789097355E+03  0.50400001928E-02 0.  1.
        1   -1    0    0  501    0  0.00000000000E+00  0.00000000000E+00 -0.79025235011E+03  0.79025235012E+03  0.50400001928E-02 0. -1.
    10030    2    1    2    0    0  0.00000000000E+00  0.00000000000E+00 -0.67236137666E+03  0.90814332368E+03  0.61045431894E+03 0.  0.
        5    1    3    3  502    0  0.38332036025E+02  0.14570114224E+03  0.58659416377E+02  0.16174419607E+03  0.46999998093E+01 0.  1.
       -5    1    3    3    0  502 -0.38332036025E+02 -0.14570114224E+03 -0.73102079304E+03  0.74639912760E+03  0.46999998093E+01 0. -1.
</event>
<event>
 5   0  0.1513339E-01  0.6126151E+03  0.7818609E-02  0.9879574E-01
       -2   -1    0    0    0  501  0.00000000000E+00  0.00000000000E+00  0.30054537026E+03  0.30054537027E+03  0.25500000920E-02 0. -1.
        2   -1    0    0  501    0  0.00000000000E+00  0.00000000000E+00 -0.31218015615E+03  0.31218015617E+03  0.25500000920E-02 0.  1.
    10030    2    1    2    0    0  0.00000000000E+00  0.00000000000E+00 -0.11634785898E+02  0.61272552643E+03  0.61261505246E+03 0.  0.
        3    1    3    3  502    0 -0.16993129798E+03 -0.25290822842E+03  0.25574129811E+02  0.30576668287E+03  0.10100000352E+00 0.  1.
       -3    1    3    3    0  502  0.16993129798E+03  0.25290822842E+03 -0.37208915708E+02  0.30695884357E+03  0.10100000352E+00 0. -1.
</event>
<event>
 5   0  0.6170500E-02  0.5998229E+03  0.7818609E-02  0.9905773E-01
       -3   -1    0    0    0  501  0.00000000000E+00  0.00000000000E+00  0.24139327126E+03  0.24139329239E+03  0.10100000352E+00 0. -1.
        3   -1    0    0  501    0  0.00000000000E+00  0.00000000000E+00 -0.37261550239E+03  0.37261551607E+03  0.10100000352E+00 0.  1.
    10030    2    1    2    0    0  0.00000000000E+00  0.00000000000E+00 -0.13122223112E+03  0.61400880847E+03  0.59982292632E+03 0.  0.
        3    1    3    3  502    0  0.25507088191E+03  0.87146244816E+02  0.68994993221E+02  0.27823720469E+03  0.10100000352E+00 0. -1.
       -3    1    3    3    0  502 -0.25507088191E+03 -0.87146244816E+02 -0.20021722434E+03  0.33577160378E+03  0.10100000352E+00 0.  1.
</event>
<event>
 5   0  0.1532571E-01  0.5892206E+03  0.7818609E-02  0.9928026E-01
       -2   -1    0    0    0  501  0.00000000000E+00  0.00000000000E+00  0.49269288755E+02  0.49269288821E+02  0.25500000920E-02 0.  1.
        2   -1    0    0  501    0  0.00000000000E+00  0.00000000000E+00 -0.17616496293E+04  0.17616496293E+04  0.25500000920E-02 0. -1.
    10030    2    1    2    0    0  0.00000000000E+00  0.00000000000E+00 -0.17123803406E+04  0.18109189181E+04  0.58922058461E+03 0.  0.
        1    1    3    3  502    0  0.40578024445E+02 -0.18094323040E+03 -0.15597818559E+04  0.15707662037E+04  0.50400001928E-02 0. -1.
       -1    1    3    3    0  502 -0.40578024445E+02  0.18094323040E+03 -0.15259848462E+03  0.24015271439E+03  0.50400001928E-02 0.  1.
</event>
<event>
 5   0  0.1483942E-01  0.5918045E+03  0.7818609E-02  0.9922556E-01
       -2   -1    0    0    0  501  0.00000000000E+00  0.00000000000E+00  0.22813417870E+03  0.22813417872E+03  0.25500000920E-02 0.  1.
        2   -1    0    0  501    0  0.00000000000E+00  0.00000000000E+00 -0.38380111077E+03  0.38380111078E+03  0.25500000920E-02 0. -1.
    10030    2    1    2    0    0  0.00000000000E+00  0.00000000000E+00 -0.15566693207E+03  0.61193528950E+03  0.59180453259E+03 0.  0.
        4    1    3    3  502    0 -0.11573779304E+03  0.24996465551E+03 -0.18957883427E+03  0.33439394888E+03  0.12699999809E+01 0. -1.
       -4    1    3    3    0  502  0.11573779304E+03 -0.24996465551E+03  0.33911902201E+02  0.27754134062E+03  0.12699999809E+01 0.  1.
</event>
<event>
 5   0  0.6170500E-02  0.5860436E+03  0.7818609E-02  0.9934792E-01
       -3   -1    0    0    0  501  0.00000000000E+00  0.00000000000E+00  0.10862592713E+03  0.10862597409E+03  0.10100000352E+00 0. -1.
        3   -1    0    0  501    0  0.00000000000E+00  0.00000000000E+00 -0.79043525482E+03  0.79043526128E+03  0.10100000352E+00 0.  1.
    10030    2    1    2    0    0  0.00000000000E+00  0.00000000000E+00 -0.68180932769E+03  0.89906123537E+03  0.58604363798E+03 0.  0.
        3    1    3    3  502    0 -0.18960747873E+03  0.12143719404E+03 -0.53226336941E+02  0.23136776187E+03  0.10100000352E+00 0. -1.
       -3    1    3    3    0  502  0.18960747873E+03 -0.12143719404E+03 -0.62858299075E+03  0.66769347349E+03  0.10100000352E+00 0.  1.
</event>
<event>
 5   0  0.9420349E-02  0.3982319E+03  0.7818609E-02  0.1044394E+00
        1   -1    0    0  501    0  0.00000000000E+00  0.00000000000E+00  0.70154494046E+03  0.70154494047E+03  0.50400001928E-02 0. -1.
       -1   -1    0    0    0  501  0.00000000000E+00  0.00000000000E+00 -0.56514064603E+02  0.56514064828E+02  0.50400001928E-02 0.  1.
    10030    2    1    2    0    0  0.00000000000E+00  0.00000000000E+00  0.64503087585E+03  0.75805900530E+03  0.39823187305E+03 0.  0.
        2    1    3    3  502    0 -0.89981495114E+02 -0.10801472192E+03  0.54097646228E+02  0.15063334607E+03  0.25500000920E-02 0.  1.
       -2    1    3    3    0  502  0.89981495114E+02  0.10801472192E+03  0.59093322963E+03  0.60742565923E+03  0.25500000920E-02 0. -1.
</event>
<event>
 5   0  0.1488510E-01  0.5900568E+03  0.7818609E-02  0.9926253E-01
       -2   -1    0    0    0  501  0.00000000000E+00  0.00000000000E+00  0.64010874615E+02  0.64010874666E+02  0.25500000920E-02 0.  1.
        2   -1    0    0  501    0  0.00000000000E+00  0.00000000000E+00 -0.13597961724E+04  0.13597961724E+04  0.25500000920E-02 0. -1.
    10030    2    1    2    0    0  0.00000000000E+00  0.00000000000E+00 -0.12957852977E+04  0.14238070470E+04  0.59005675093E+03 0.  0.
        5    1    3    3  502    0  0.16106837584E+03  0.11230588411E+03 -0.11791036590E+04  0.11953506439E+04  0.46999998093E+01 0. -1.
       -5    1    3    3    0  502 -0.16106837584E+03 -0.11230588411E+03 -0.11668163878E+03  0.22845640312E+03  0.46999998093E+01 0.  1.
</event>
<event>
 5   0  0.9411028E-02  0.6041630E+03  0.7818609E-02  0.9896807E-01
        1   -1    0    0  501    0  0.00000000000E+00  0.00000000000E+00  0.19929113538E+03  0.19929113545E+03  0.50400001928E-02 0. -1.
       -1   -1    0    0    0  501  0.00000000000E+00  0.00000000000E+00 -0.45788900416E+03  0.45788900419E+03  0.50400001928E-02 0.  1.
    10030    2    1    2    0    0  0.00000000000E+00  0.00000000000E+00 -0.25859786878E+03  0.65718013963E+03  0.60416295666E+03 0.  0.
        4    1    3    3  502    0  0.10950809267E+03  0.16444803764E+03 -0.37786046416E+03  0.42639808011E+03  0.12699999809E+01 0.  1.
       -4    1    3    3    0  502 -0.10950809267E+03 -0.16444803764E+03  0.11926259538E+03  0.23078205953E+03  0.12699999809E+01 0. -1.
</event>
<event>
 5   0  0.1532571E-01  0.6079019E+03  0.7818609E-02  0.9889146E-01
        2   -1    0    0  501    0  0.00000000000E+00  0.00000000000E+00  0.16190525981E+04  0.16190525981E+04  0.25500000920E-02 0. -1.
       -2   -1    0    0    0  501  0.00000000000E+00  0.00000000000E+00 -0.57061868818E+02  0.57061868875E+02  0.25500000920E-02 0.  1.
    10030    2    1    2    0    0  0.00000000000E+00  0.00000000000E+00  0.15619907293E+04  0.16761144670E+04  0.60790185725E+03 0.  0.
        1    1    3    3  502    0 -0.31067007832E+01 -0.61669609301E+02  0.16015770133E+04  0.16027668957E+04  0.50400001928E-02 0. -1.
       -1    1    3    3    0  502  0.31067007832E+01  0.61669609301E+02 -0.39586284052E+02  0.73347571272E+02  0.50400001928E-02 0.  1.
</event>
<event>
 5   0  0.1488510E-01  0.6307134E+03  0.7818609E-02  0.9843658E-01
        2   -1    0    0  501    0  0.00000000000E+00  0.00000000000E+00  0.22606015569E+03  0.22606015570E+03  0.25500000920E-02 0. -1.
       -2   -1    0    0    0  501  0.00000000000E+00  0.00000000000E+00 -0.43992652729E+03  0.43992652730E+03  0.25500000920E-02 0.  1.
    10030    2    1    2    0    0  0.00000000000E+00  0.00000000000E+00 -0.21386637160E+03  0.66598668300E+03  0.63071343495E+03 0.  0.
        5    1    3    3  502    0  0.31124047511E+02  0.28285095559E+03  0.36511157347E+02  0.28692947569E+03  0.46999998093E+01 0. -1.
       -5    1    3    3    0  502 -0.31124047511E+02 -0.28285095559E+03 -0.25037752895E+03  0.37905720731E+03  0.46999998093E+01 0.  1.
</event>
<event>
 5   0  0.1502642E-01  0.6096789E+03  0.7818609E-02  0.9885527E-01
       -2   -1    0    0    0  501  0.00000000000E+00  0.00000000000E+00  0.16532913774E+03  0.16532913776E+03  0.25500000920E-02 0. -1.
        2   -1    0    0  501    0  0.00000000000E+00  0.00000000000E+00 -0.56207320799E+03  0.56207320799E+03  0.25500000920E-02 0.  1.
    10030    2    1    2    0    0  0.00000000000E+00  0.00000000000E+00 -0.39674407025E+03  0.72740234576E+03  0.60967886246E+03 0.  0.
        2    1    3    3  502    0  0.24734309490E+03  0.17720637425E+03 -0.17616729601E+03  0.35159013333E+03  0.25500000920E-02 0. -1.
       -2    1    3    3    0  502 -0.24734309490E+03 -0.17720637425E+03 -0.22057677424E+03  0.37581221243E+03  0.25500000920E-02 0.  1.
</event>
<event>
 5   0  0.9177281E-02  0.6048492E+03  0.7818609E-02  0.9895396E-01
       -1   -1    0    0    0  501  0.00000000000E+00  0.00000000000E+00  0.84575627629E+02  0.84575627779E+02  0.50400001928E-02 0. -1.
        1   -1    0    0  501    0  0.00000000000E+00  0.00000000000E+00 -0.10814066694E+04  0.10814066694E+04  0.50400001928E-02 0.  1.
    10030    2    1    2    0    0  0.00000000000E+00  0.00000000000E+00 -0.99683104173E+03  0.11659822971E+04  0.60484923039E+03 0.  0.
        1    1    3    3  502    0 -0.19942928040E+03 -0.55439958161E+01 -0.93655570755E+03  0.95756951034E+03  0.50400001928E-02 0.  1.
       -1    1    3    3    0  502  0.19942928040E+03  0.55439958161E+01 -0.60275334182E+02  0.20841278681E+03  0.50400001928E-02 0. -1.
</event>
<event>
 5   0  0.9420349E-02  0.6408433E+03  0.7818609E-02  0.9824114E-01
       -1   -1    0    0    0  501  0.00000000000E+00  0.00000000000E+00  0.41179276515E+03  0.41179276519E+03  0.50400001928E-02 0. -1.
        1   -1    0    0  501    0  0.00000000000E+00  0.00000000000E+00 -0.24932448843E+03  0.24932448848E+03  0.50400001928E-02 0.  1.
    10030    2    1    2    0    0  0.00000000000E+00  0.00000000000E+00  0.16246827673E+03  0.66111725366E+03  0.64084325864E+03 0.  0.
        2    1    3    3  502    0  0.10032925952E+03  0.29039703482E+03 -0.12602948961E+02  0.30749834549E+03  0.25500000920E-02 0. -1.
       -2    1    3    3    0  502 -0.10032925952E+03 -0.29039703482E+03  0.17507122569E+03  0.35361890818E+03  0.25500000920E-02 0.  1.
</event>
<event>
 5   0  0.1502642E-01  0.5899319E+03  0.7818609E-02  0.9926517E-01
        2   -1    0    0  501    0  0.00000000000E+00  0.00000000000E+00  0.48766760540E+03  0.48766760541E+03  0.25500000920E-02 0.  1.
       -2   -1    0    0    0  501  0.00000000000E+00  0.00000000000E+00 -0.17841027638E+03  0.17841027640E+03  0.25500000920E-02 0. -1.
    10030    2    1    2    0    0  0.00000000000E+00  0.00000000000E+00  0.30925732902E+03  0.66607788181E+03  0.58993190207E+03 0.  0.
        2    1    3    3  502    0 -0.75360723119E+02  0.27895258705E+03  0.22153179691E+03  0.36410180096E+03  0.25500000920E-02 0. -1.
       -2    1    3    3    0  502  0.75360723119E+02 -0.27895258705E+03  0.87725532106E+02  0.30197608084E+03  0.25500000920E-02 0.  1.
</event>
<event>
 5   0  0.1488510E-01  0.5818865E+03  0.7818609E-02  0.9943715E-01
       -2   -1    0    0    0  501  0.00000000000E+00  0.00000000000E+00  0.61249761529E+02  0.61249761582E+02  0.25500000920E-02 0. -1.
        2   -1    0    0  501    0  0.00000000000E+00  0.00000000000E+00 -0.13820130184E+04  0.13820130184E+04  0.25500000920E-02 0.  1.
    10030    2    1    2    0    0  0.00000000000E+00  0.00000000000E+00 -0.13207632568E+04  0.14432627799E+04  0.58188647637E+03 0.  0.
        5    1    3    3  502    0 -0.20351033997E+03 -0.19154563030E+03 -0.46010943678E+03  0.53835766065E+03  0.46999998093E+01 0. -1.
       -5    1    3    3    0  502  0.20351033997E+03  0.19154563030E+03 -0.86065382004E+03  0.90490511929E+03  0.46999998093E+01 0.  1.
</event>
<event>
 5   0  0.9411028E-02  0.5251862E+03  0.7818609E-02  0.1007406E+00
        1   -1    0    0  501    0  0.00000000000E+00  0.00000000000E+00  0.14898954416E+04  0.14898954416E+04  0.50400001928E-02 0. -1.
       -1   -1    0    0    0  501  0.00000000000E+00  0.00000000000E+00 -0.46281863735E+02  0.46281864010E+02  0.50400001928E-02 0.  1.
    10030    2    1    2    0    0  0.00000000000E+00  0.00000000000E+00  0.14436135779E+04  0.15361773056E+04  0.52518620708E+03 0.  0.
        4    1    3    3  502    0  0.64317851530E+02  0.17137332379E+03  0.12725173815E+04  0.12856156896E+04  0.12699999809E+01 0. -1.
       -4    1    3    3    0  502 -0.64317851530E+02 -0.17137332379E+03  0.17109619639E+03  0.25056161608E+03  0.12699999809E+01 0.  1.
</event>
<event>
 5   0  0.9420349E-02  0.5970979E+03  0.7818609E-02  0.9911445E-01
        1   -1    0    0  501    0  0.00000000000E+00  0.00000000000E+00  0.36076989618E+03  0.36076989622E+03  0.50400001928E-02 0.  1.
       -1   -1    0    0    0  501  0.00000000000E+00  0.00000000000E+00 -0.24705904941E+03  0.24705904946E+03  0.50400001928E-02 0. -1.
    10030    2    1    2    0    0  0.00000000000E+00  0.00000000000E+00  0.11371084677E+03  0.60782894568E+03  0.59709787349E+03 0.  0.
        2    1    3    3  502    0 -0.13050587833E+03 -0.10508070273E+03 -0.19468406768E+03  0.25685720660E+03  0.25500000920E-02 0. -1.
       -2    1    3    3    0  502  0.13050587833E+03  0.10508070273E+03  0.30839491445E+03  0.35097173908E+03  0.25500000920E-02 0.  1.
</event>
<event>
 5   0  0.6170500E-02  0.6095300E+03  0.7818609E-02  0.9885829E-01
       -3   -1    0    0    0  501  0.00000000000E+00  0.00000000000E+00  0.22345920131E+03  0.22345922414E+03  0.10100000352E+00 0.  1.
        3   -1    0    0  501    0  0.00000000000E+00  0.00000000000E+00 -0.41565399032E+03  0.41565400259E+03  0.10100000352E+00 0. -1.
    10030    2    1    2    0    0  0.00000000000E+00  0.00000000000E+00 -0.19219478901E+03  0.63911322673E+03  0.60953004820E+03 0.  0.
        2    1    3    3  502    0  0.87831841835E+02 -0.17696824556E+03  0.14722026715E+03  0.24638587509E+03  0.25500000920E-02 0.  1.
       -2    1    3    3    0  502 -0.87831841835E+02  0.17696824556E+03 -0.33941505615E+03  0.39272735164E+03  0.25500000920E-02 0. -1.
</event>
<event>
 5   0  0.1483942E-01  0.6099965E+03  0.7818609E-02  0.9884881E-01
       -2   -1    0    0    0  501  0.00000000000E+00  0.00000000000E+00  0.68198972343E+02  0.68198972391E+02  0.25500000920E-02 0.  1.
        2   -1    0    0  501    0  0.00000000000E+00  0.00000000000E+00 -0.13640078598E+04  0.13640078598E+04  0.25500000920E-02 0. -1.
    10030    2    1    2    0    0  0.00000000000E+00  0.00000000000E+00 -0.12958088875E+04  0.14322068322E+04  0.60999650603E+03 0.  0.
        4    1    3    3  502    0  0.17473024308E+03 -0.15784462309E+03 -0.11030370346E+04  0.11278909058E+04  0.12699999809E+01 0. -1.
       -4    1    3    3    0  502 -0.17473024308E+03  0.15784462309E+03 -0.19277185289E+03  0.30431592638E+03  0.12699999809E+01 0.  1.
</event>
<event>
 5   0  0.9497860E-02  0.5982929E+03  0.7818609E-02  0.9908954E-01
       -1   -1    0    0    0  501  0.00000000000E+00  0.00000000000E+00  0.25844956196E+03  0.25844956201E+03  0.50400001928E-02 0. -1.
        1   -1    0    0  501    0  0.00000000000E+00  0.00000000000E+00 -0.34625167337E+03  0.34625167340E+03  0.50400001928E-02 0.  1.
    10030    2    1    2    0    0  0.00000000000E+00  0.00000000000E+00 -0.87802111409E+02  0.60470123541E+03  0.59829288257E+03 0.  0.
        5    1    3    3  502    0 -0.94981997028E+02 -0.10178021625E+01  0.24276320061E+03  0.26072720850E+03  0.46999998093E+01 0. -1.
       -5    1    3    3    0  502  0.94981997028E+02  0.10178021625E+01 -0.33056531202E+03  0.34397402691E+03  0.46999998093E+01 0.  1.
</event>
<event>
 5   0  0.1483942E-01  0.5857857E+03  0.7818609E-02  0.9935343E-01
       -2   -1    0    0    0  501  0.00000000000E+00  0.00000000000E+00  0.56100946640E+02  0.56100946698E+02  0.25500000920E-02 0.  1.
        2   -1    0    0  501    0  0.00000000000E+00  0.00000000000E+00 -0.15291401212E+04  0.15291401212E+04  0.25500000920E-02 0. -1.
    10030    2    1    2    0    0  0.00000000000E+00  0.00000000000E+00 -0.14730391745E+04  0.15852410679E+04  0.58578565496E+03 0.  0.
        4    1    3    3  502    0  0.54373281294E+02 -0.14088914771E+03 -0.57390457506E+02  0.16155953446E+03  0.12699999809E+01 0.  1.
       -4    1    3    3    0  502 -0.54373281294E+02  0.14088914771E+03 -0.14156487170E+04  0.14236815334E+04  0.12699999809E+01 0. -1.
</event>
<event>
 5   0  0.1483942E-01  0.5153964E+03  0.7818609E-02  0.1009837E+00
        2   -1    0    0  501    0  0.00000000000E+00  0.00000000000E+00  0.11485049625E+04  0.11485049625E+04  0.25500000920E-02 0.  1.
       -2   -1    0    0    0  501  0.00000000000E+00  0.00000000000E+00 -0.57821579448E+02  0.57821579504E+02  0.25500000920E-02 0. -1.
    10030    2    1    2    0    0  0.00000000000E+00  0.00000000000E+00  0.10906833831E+04  0.12063265420E+04  0.51539643372E+03 0.  0.
        4    1    3    3  502    0  0.80241464801E+02  0.38756661151E+02 -0.20604466083E+02  0.91470915484E+02  0.12699999809E+01 0. -1.
       -4    1    3    3    0  502 -0.80241464801E+02 -0.38756661151E+02  0.11112878492E+04  0.11148556266E+04  0.12699999809E+01 0.  1.
</event>
<event>
 5   0  0.1513339E-01  0.7120341E+03  0.7818609E-02  0.9696871E-01
        2   -1    0    0  501    0  0.00000000000E+00  0.00000000000E+00  0.82551297491E+03  0.82551297491E+03  0.25500000920E-02 0. -1.
       -2   -1    0    0    0  501  0.00000000000E+00  0.00000000000E+00 -0.15353865394E+03  0.15353865396E+03  0.25500000920E-02 0.  1.
    10030    2    1    2    0    0  0.00000000000E+00  0.00000000000E+00  0.67197432097E+03  0.97905162887E+03  0.71203413117E+03 0.  0.
        3    1    3    3  502    0 -0.11607203295E+03 -0.25680575157E+03  0.63511424424E+03  0.69483237137E+03  0.10100000352E+00 0. -1.
       -3    1    3    3    0  502  0.11607203295E+03  0.25680575157E+03  0.36860076736E+02  0.28421925750E+03  0.10100000352E+00 0.  1.
</event>
<event>
 5   0  0.9420349E-02  0.6155513E+03  0.7818609E-02  0.9873657E-01
        1   -1    0    0  501    0  0.00000000000E+00  0.00000000000E+00  0.13880092286E+04  0.13880092287E+04  0.50400001928E-02 0.  1.
       -1   -1    0    0    0  501  0.00000000000E+00  0.00000000000E+00 -0.68245837147E+02  0.68245837333E+02  0.50400001928E-02 0. -1.
    10030    2    1    2    0    0  0.00000000000E+00  0.00000000000E+00  0.13197633915E+04  0.14562550660E+04  0.61555130385E+03 0.  0.
        2    1    3    3  502    0  0.16813461744E+03  0.25726914986E+03  0.69869674357E+03  0.76330452935E+03  0.25500000920E-02 0. -1.
       -2    1    3    3    0  502 -0.16813461744E+03 -0.25726914986E+03  0.62106664793E+03  0.69295053664E+03  0.25500000920E-02 0.  1.
</event>
<event>
 5   0  0.9411028E-02  0.5919253E+03  0.7818609E-02  0.9922301E-01
        1   -1    0    0  501    0  0.00000000000E+00  0.00000000000E+00  0.80946798705E+03  0.80946798707E+03  0.50400001928E-02 0. -1.
       -1   -1    0    0    0  501  0.00000000000E+00  0.00000000000E+00 -0.10821168693E+03  0.10821168705E+03  0.50400001928E-02 0.  1.
    10030    2    1    2    0    0  0.00000000000E+00  0.00000000000E+00  0.70125630012E+03  0.91767967412E+03  0.59192532115E+03 0.  0.
        4    1    3    3  502    0 -0.19247245439E+02  0.22100561358E+02  0.80720865119E+03  0.80774148756E+03  0.12699999809E+01 0. -1.
       -4    1    3    3    0  502  0.19247245439E+02 -0.22100561358E+02 -0.10595235106E+03  0.10993818656E+03  0.12699999809E+01 0.  1.
</event>
<event>
 5   0  0.9497860E-02  0.5830843E+03  0.7818609E-02  0.9941136E-01
        1   -1    0    0  501    0  0.00000000000E+00  0.00000000000E+00  0.96311568740E+03  0.96311568741E+03  0.50400001928E-02 0.  1.
       -1   -1    0    0    0  501  0.00000000000E+00  0.00000000000E+00 -0.88251948143E+02  0.88251948287E+02  0.50400001928E-02 0. -1.
    10030    2    1    2    0    0  0.00000000000E+00  0.00000000000E+00  0.87486373926E+03  0.10513676357E+04  0.58308433621E+03 0.  0.
        5    1    3    3  502    0 -0.21627768883E+03 -0.17347822466E+03  0.27511140214E+03  0.39061375642E+03  0.46999998093E+01 0. -1.
       -5    1    3    3    0  502  0.21627768883E+03  0.17347822466E+03  0.59975233712E+03  0.66075387928E+03  0.46999998093E+01 0.  1.
</event>
<event>
 5   0  0.1532571E-01  0.5855762E+03  0.7818609E-02  0.9935791E-01
       -2   -1    0    0    0  501  0.00000000000E+00  0.00000000000E+00  0.15646757215E+03  0.15646757217E+03  0.25500000920E-02 0.  1.
        2   -1    0    0  501    0  0.00000000000E+00  0.00000000000E+00 -0.54787631133E+03  0.54787631133E+03  0.25500000920E-02 0. -1.
    10030    2    1    2    0    0  0.00000000000E+00  0.00000000000E+00 -0.39140873918E+03  0.70434388350E+03  0.58557621632E+03 0.  0.
        1    1    3    3  502    0 -0.35039653732E+02 -0.18334783662E+03 -0.46702182041E+03  0.50294491477E+03  0.50400001928E-02 0. -1.
       -1    1    3    3    0  502  0.35039653732E+02  0.18334783662E+03  0.75613081227E+02  0.20139896873E+03  0.50400001928E-02 0.  1.
</event>
<event>
 5   0  0.1488510E-01  0.6036586E+03  0.7818609E-02  0.9897844E-01
        2   -1    0    0  501    0  0.00000000000E+00  0.00000000000E+00  0.69380126568E+03  0.69380126568E+03  0.25500000920E-02 0.  1.
       -2   -1    0    0    0  501  0.00000000000E+00  0.00000000000E+00 -0.13130696447E+03  0.13130696450E+03  0.25500000920E-02 0. -1.
    10030    2    1    2    0    0  0.00000000000E+00  0.00000000000E+00  0.56249430120E+03  0.82510823018E+03  0.60365863915E+03 0.  0.
        5    1    3    3  502    0  0.94984767954E+02  0.31721605759E+02 -0.10788516553E+03  0.14727411638E+03  0.46999998093E+01 0. -1.
       -5    1    3    3    0  502 -0.94984767954E+02 -0.31721605759E+02  0.67037946673E+03  0.67783411380E+03  0.46999998093E+01 0.  1.
</event>
<event>
 5   0  0.1483942E-01  0.5077458E+03  0.7818609E-02  0.1011777E+00
       -2   -1    0    0    0  501  0.00000000000E+00  0.00000000000E+00  0.30084944897E+03  0.30084944898E+03  0.25500000920E-02 0. -1.
        2   -1    0    0  501    0  0.00000000000E+00  0.00000000000E+00 -0.21423160933E+03  0.21423160935E+03  0.25500000920E-02 0.  1.
    10030    2    1    2    0    0  0.00000000000E+00  0.00000000000E+00  0.86617839639E+02  0.51508105833E+03  0.50774584834E+03 0.  0.
        4    1    3    3  502    0 -0.10393833278E+03  0.54876730204E+02  0.27158243818E+03  0.29592780566E+03  0.12699999809E+01 0. -1.
       -4    1    3    3    0  502  0.10393833278E+03 -0.54876730204E+02 -0.18496459854E+03  0.21915325266E+03  0.12699999809E+01 0.  1.
</event>
<event>
 5   0  0.9497860E-02  0.6286846E+03  0.7818609E-02  0.9847619E-01
       -1   -1    0    0    0  501  0.00000000000E+00  0.00000000000E+00  0.40372381562E+03  0.40372381565E+03  0.50400001928E-02 0. -1.
        1   -1    0    0  501    0  0.00000000000E+00  0.00000000000E+00 -0.24474921107E+03  0.24474921112E+03  0.50400001928E-02 0.  1.
    10030    2    1    2    0    0  0.00000000000E+00  0.00000000000E+00  0.15897460455E+03  0.64847302677E+03  0.62868461216E+03 0.  0.
        5    1    3    3  502    0 -0.38630007681E+02  0.29869998445E+03 -0.13202371003E+02  0.30151343387E+03  0.46999998093E+01 0. -1.
       -5    1    3    3    0  502  0.38630007681E+02 -0.29869998445E+03  0.17217697555E+03  0.34695959291E+03  0.46999998093E+01 0.  1.
</event>
<event>
 5   0  0.9177281E-02  0.5834535E+03  0.7818609E-02  0.9940342E-01
       -1   -1    0    0    0  501  0.00000000000E+00  0.00000000000E+00  0.11826669319E+03  0.11826669330E+03  0.50400001928E-02 0.  1.
        1   -1    0    0  501    0  0.00000000000E+00  0.00000000000E+00 -0.71959829408E+03  0.71959829410E+03  0.50400001928E-02 0. -1.
    10030    2    1    2    0    0  0.00000000000E+00  0.00000000000E+00 -0.60133160089E+03  0.83786498740E+03  0.58345354818E+03 0.  0.
        1    1    3    3  502    0 -0.20108737905E+02 -0.28896724471E+03 -0.25095957109E+03  0.38325857616E+03  0.50400001928E-02 0. -1.
       -1    1    3    3    0  502  0.20108737905E+02  0.28896724471E+03 -0.35037202980E+03  0.45460641124E+03  0.50400001928E-02 0.  1.
</event>
<event>
 5   0  0.6170500E-02  0.6058451E+03  0.7818609E-02  0.9893353E-01
        4   -1    0    0  501    0  0.00000000000E+00  0.00000000000E+00  0.15979070665E+03  0.15979575348E+03  0.12699999809E+01 0.  1.
       -4   -1    0    0    0  501  0.00000000000E+00  0.00000000000E+00 -0.57424939196E+03  0.57425079631E+03  0.12699999809E+01 0. -1.
    10030    2    1    2    0    0  0.00000000000E+00  0.00000000000E+00 -0.41445868531E+03  0.73404654979E+03  0.60584514147E+03 0.  0.
        4    1    3    3  502    0 -0.27977794767E+03 -0.62778838118E+02 -0.32559284941E+03  0.43385389131E+03  0.12699999809E+01 0. -1.
       -4    1    3    3    0  502  0.27977794767E+03  0.62778838118E+02 -0.88865835901E+02  0.30019265849E+03  0.12699999809E+01 0.  1.
</event>
<event>
 5   0  0.9420349E-02  0.5996720E+03  0.7818609E-02  0.9906087E-01
       -1   -1    0    0    0  501  0.00000000000E+00  0.00000000000E+00  0.69130850929E+03  0.69130850930E+03  0.50400001928E-02 0.  1.
        1   -1    0    0  501    0  0.00000000000E+00  0.00000000000E+00 -0.13004558332E+03  0.13004558341E+03  0.50400001928E-02 0. -1.
    10030    2    1    2    0    0  0.00000000000E+00  0.00000000000E+00  0.56126292597E+03  0.82135409272E+03  0.59967197163E+03 0.  0.
        2    1    3    3  502    0 -0.17666497471E+03  0.10744269423E+02  0.61212517256E+03  0.63719948172E+03  0.25500000920E-02 0.  1.
       -2    1    3    3    0  502  0.17666497471E+03 -0.10744269423E+02 -0.50862246594E+02  0.18415461099E+03  0.25500000920E-02 0. -1.
</event>
<event>
 5   0  0.8860626E-02  0.5895468E+03  0.7818609E-02  0.9927334E-01
       -1   -1    0    0    0  501  0.00000000000E+00  0.00000000000E+00  0.23845647858E+03  0.23845647863E+03  0.50400001928E-02 0. -1.
        1   -1    0    0  501    0  0.00000000000E+00  0.00000000000E+00 -0.36439079621E+03  0.36439079625E+03  0.50400001928E-02 0.  1.
    10030    2    1    2    0    0  0.00000000000E+00  0.00000000000E+00 -0.12593431763E+03  0.60284727488E+03  0.58954676191E+03 0.  0.
        3    1    3    3  502    0 -0.22158959191E+03 -0.12569237216E+03 -0.21460574222E+03  0.33310081726E+03  0.10100000352E+00 0.  1.
       -3    1    3    3    0  502  0.22158959191E+03  0.12569237216E+03  0.88671424590E+02  0.26974645762E+03  0.10100000352E+00 0. -1.
</event>
<event>
 5   0  0.1532571E-01  0.4940274E+03  0.7818609E-02  0.1015350E+00
       -2   -1    0    0    0  501  0.00000000000E+00  0.00000000000E+00  0.64047793567E+03  0.64047793567E+03  0.25500000920E-02 0. -1.
        2   -1    0    0  501    0  0.00000000000E+00  0.00000000000E+00 -0.95265988497E+02  0.95265988531E+02  0.25500000920E-02 0.  1.
    10030    2    1    2    0    0  0.00000000000E+00  0.00000000000E+00  0.54521194717E+03  0.73574392420E+03  0.49402738251E+03 0.  0.
        1    1    3    3  502    0 -0.92910174416E+02  0.22711094639E+03  0.23037553358E+03  0.33657773096E+03  0.50400001928E-02 0.  1.
       -1    1    3    3    0  502  0.92910174416E+02 -0.22711094639E+03  0.31483641359E+03  0.39916619325E+03  0.50400001928E-02 0. -1.
</event>
<event>
 5   0  0.9420349E-02  0.5968082E+03  0.7818609E-02  0.9912050E-01
       -1   -1    0    0    0  501  0.00000000000E+00  0.00000000000E+00  0.13434266172E+03  0.13434266182E+03  0.50400001928E-02 0.  1.
        1   -1    0    0  501    0  0.00000000000E+00  0.00000000000E+00 -0.66282002524E+03  0.66282002526E+03  0.50400001928E-02 0. -1.
    10030    2    1    2    0    0  0.00000000000E+00  0.00000000000E+00 -0.52847736351E+03  0.79716268708E+03  0.59680819860E+03 0.  0.
        2    1    3    3  502    0  0.19333151412E+03 -0.15259954588E+03 -0.48926245668E+03  0.54776039222E+03  0.25500000920E-02 0. -1.
       -2    1    3    3    0  502 -0.19333151412E+03  0.15259954588E+03 -0.39214906827E+02  0.24940229486E+03  0.25500000920E-02 0.  1.
</event>
<event>
 5   0  0.9411028E-02  0.6314389E+03  0.7818609E-02  0.9842245E-01
       -1   -1    0    0    0  501  0.00000000000E+00  0.00000000000E+00  0.11080287018E+03  0.11080287029E+03  0.50400001928E-02 0.  1.
        1   -1    0    0  501    0  0.00000000000E+00  0.00000000000E+00 -0.89960465860E+03  0.89960465861E+03  0.50400001928E-02 0. -1.
    10030    2    1    2    0    0  0.00000000000E+00  0.00000000000E+00 -0.78880178842E+03  0.10104075289E+04  0.63143892267E+03 0.  0.
        4    1    3    3  502    0  0.22403683543E+03 -0.29535248089E+01 -0.75032896858E+03  0.78306857997E+03  0.12699999809E+01 0. -1.
       -4    1    3    3    0  502 -0.22403683543E+03  0.29535248089E+01 -0.38472819836E+02  0.22733894894E+03  0.12699999809E+01 0.  1.
</event>
<event>
 5   0  0.1483942E-01  0.5986431E+03  0.7818609E-02  0.9908225E-01
       -2   -1    0    0    0  501  0.00000000000E+00  0.00000000000E+00  0.51757784662E+03  0.51757784662E+03  0.25500000920E-02 0.  1.
        2   -1    0    0  501    0  0.00000000000E+00  0.00000000000E+00 -0.17310128553E+03  0.17310128555E+03  0.25500000920E-02 0. -1.
    10030    2    1    2    0    0  0.00000000000E+00  0.00000000000E+00  0.34447656109E+03  0.69067913217E+03  0.59864310108E+03 0.  0.
        4    1    3    3  502    0 -0.18493682570E+03 -0.22502272808E+03  0.92680993882E+02  0.30566032975E+03  0.12699999809E+01 0.  1.
       -4    1    3    3    0  502  0.18493682570E+03  0.22502272808E+03  0.25179556721E+03  0.38501880242E+03  0.12699999809E+01 0. -1.
</event>
<event>
 5   0  0.9497860E-02  0.5623343E+03  0.7818609E-02  0.9986787E-01
       -1   -1    0    0    0  501  0.00000000000E+00  0.00000000000E+00  0.69241959246E+03  0.69241959248E+03  0.50400001928E-02 0. -1.
        1   -1    0    0  501    0  0.00000000000E+00  0.00000000000E+00 -0.11417206424E+03  0.11417206435E+03  0.50400001928E-02 0.  1.
    10030    2    1    2    0    0  0.00000000000E+00  0.00000000000E+00  0.57824752822E+03  0.80659165683E+03  0.56233432847E+03 0.  0.
        5    1    3    3  502    0  0.80245297190E+02  0.11009542537E+03 -0.63602952553E+02  0.15042518399E+03  0.46999998093E+01 0.  1.
       -5    1    3    3    0  502 -0.80245297190E+02 -0.11009542537E+03  0.64185048078E+03  0.65616647284E+03  0.46999998093E+01 0. -1.
</event>
<event>
 5   0  0.9497860E-02  0.3892495E+03  0.7818609E-02  0.1047567E+00
        1   -1    0    0  501    0  0.00000000000E+00  0.00000000000E+00  0.72203551308E+03  0.72203551309E+03  0.50400001928E-02 0. -1.
       -1   -1    0    0    0  501  0.00000000000E+00  0.00000000000E+00 -0.52461132406E+02  0.52461132648E+02  0.50400001928E-02 0.  1.
    10030    2    1    2    0    0  0.00000000000E+00  0.00000000000E+00  0.66957438067E+03  0.77449664574E+03  0.38924953823E+03 0.  0.
        5    1    3    3  502    0  0.14857183542E+03 -0.12372001603E+03  0.29135488201E+03  0.34969985690E+03  0.46999998093E+01 0. -1.
       -5    1    3    3    0  502 -0.14857183542E+03  0.12372001603E+03  0.37821949866E+03  0.42479678884E+03  0.46999998093E+01 0.  1.
</event>
<event>
 5   0  0.6170500E-02  0.6079257E+03  0.7818609E-02  0.9889098E-01
       -3   -1    0    0    0  501  0.00000000000E+00  0.00000000000E+00  0.26040436684E+03  0.26040438643E+03  0.10100000352E+00 0. -1.
        3   -1    0    0  501    0  0.00000000000E+00  0.00000000000E+00 -0.35480747632E+03  0.35480749069E+03  0.10100000352E+00 0.  1.
    10030    2    1    2    0    0  0.00000000000E+00  0.00000000000E+00 -0.94403109476E+02  0.61521187712E+03  0.60792574109E+03 0.  0.
        4    1    3    3  502    0 -0.20564394388E+03 -0.67303532609E+01  0.17921436193E+03  0.27286284051E+03  0.12699999809E+01 0. -1.
       -4    1    3    3    0  502  0.20564394388E+03  0.67303532609E+01 -0.27361747140E+03  0.34234903661E+03  0.12699999809E+01 0.  1.
</event>
<event>
 5   0  0.9420349E-02  0.6254351E+03  0.7818609E-02  0.9853998E-01
       -1   -1    0    0    0  501  0.00000000000E+00  0.00000000000E+00  0.19397799463E+03  0.19397799470E+03  0.50400001928E-02 0.  1.
        1   -1    0    0  501    0  0.00000000000E+00  0.00000000000E+00 -0.50414098115E+03  0.50414098117E+03  0.50400001928E-02 0. -1.
    10030    2    1    2    0    0  0.00000000000E+00  0.00000000000E+00 -0.31016298652E+03  0.69811897587E+03  0.62543506958E+03 0.  0.
        2    1    3    3  502    0 -0.13129031067E+03 -0.17491558607E+03  0.94410665657E+02  0.23821415097E+03  0.25500000920E-02 0.  1.
       -2    1    3    3    0  502  0.13129031067E+03  0.17491558607E+03 -0.40457365218E+03  0.45990482490E+03  0.25500000920E-02 0. -1.
</event>
<event>
 5   0  0.1532571E-01  0.6054231E+03  0.7818609E-02  0.9894218E-01
        2   -1    0    0  501    0  0.00000000000E+00  0.00000000000E+00  0.11874460225E+04  0.11874460225E+04  0.25500000920E-02 0. -1.
       -2   -1    0    0    0  501  0.00000000000E+00  0.00000000000E+00 -0.77169221528E+02  0.77169221570E+02  0.25500000920E-02 0.  1.
    10030    2    1    2    0    0  0.00000000000E+00  0.00000000000E+00  0.11102768010E+04  0.12646152441E+04  0.60542310887E+03 0.  0.
        1    1    3    3  502    0  0.17845101817E+02 -0.10947697170E+03 -0.33190077465E+02  0.11578098401E+03  0.50400001928E-02 0.  1.
       -1    1    3    3    0  502 -0.17845101817E+02  0.10947697170E+03  0.11434668784E+04  0.11488342600E+04  0.50400001928E-02 0. -1.
</event>
<event>
 5   0  0.9420349E-02  0.6486437E+03  0.7818609E-02  0.9809327E-01
        1   -1    0    0  501    0  0.00000000000E+00  0.00000000000E+00  0.37969942260E+03  0.37969942263E+03  0.50400001928E-02 0. -1.
       -1   -1    0    0    0  501  0.00000000000E+00  0.00000000000E+00 -0.27702090360E+03  0.27702090365E+03  0.50400001928E-02 0.  1.
    10030    2    1    2    0    0  0.00000000000E+00  0.00000000000E+00  0.10267851900E+03  0.65672032628E+03  0.64864374559E+03 0.  0.
        2    1    3    3  502    0 -0.23486499118E+03 -0.83806225483E+02  0.26128476472E+03  0.36118523750E+03  0.25500000920E-02 0. -1.
       -2    1    3    3    0  502  0.23486499118E+03  0.83806225483E+02 -0.15860624572E+03  0.29553508878E+03  0.25500000920E-02 0.  1.
</event>
<event>
 5   0  0.1532571E-01  0.5913267E+03  0.7818609E-02  0.9923565E-01
        2   -1    0    0  501    0  0.00000000000E+00  0.00000000000E+00  0.71395542002E+03  0.71395542003E+03  0.25500000920E-02 0.  1.
       -2   -1    0    0    0  501  0.00000000000E+00  0.00000000000E+00 -0.12244017880E+03  0.12244017883E+03  0.25500000920E-02 0. -1.
    10030    2    1    2    0    0  0.00000000000E+00  0.00000000000E+00  0.59151524122E+03  0.83639559886E+03  0.59132674318E+03 0.  0.
        1    1    3    3  502    0  0.75208284665E+02  0.28532779253E+03  0.26934909388E+03  0.39952117549E+03  0.50400001928E-02 0.  1.
       -1    1    3    3    0  502 -0.75208284665E+02 -0.28532779253E+03  0.32216614734E+03  0.43687442337E+03  0.50400001928E-02 0. -1.
</event>
<event>
 5   0  0.1513339E-01  0.6013815E+03  0.7818609E-02  0.9902544E-01
        2   -1    0    0  501    0  0.00000000000E+00  0.00000000000E+00  0.17331944737E+03  0.17331944739E+03  0.25500000920E-02 0.  1.
       -2   -1    0    0    0  501  0.00000000000E+00  0.00000000000E+00 -0.52166628597E+03  0.52166628598E+03  0.25500000920E-02 0. -1.
    10030    2    1    2    0    0  0.00000000000E+00  0.00000000000E+00 -0.34834683861E+03  0.69498573337E+03  0.60138145101E+03 0.  0.
        3    1    3    3  502    0  0.11373389581E+03 -0.13831830401E+03 -0.45332312418E+03  0.48741072762E+03  0.10100000352E+00 0. -1.
       -3    1    3    3    0  502 -0.11373389581E+03  0.13831830401E+03  0.10497628557E+03  0.20757500575E+03  0.10100000352E+00 0.  1.
</event>
<event>
 5   0  0.1513339E-01  0.5846390E+03  0.7818609E-02  0.9937798E-01
        2   -1    0    0  501    0  0.00000000000E+00  0.00000000000E+00  0.14323973388E+04  0.14323973388E+04  0.25500000920E-02 0.  1.
       -2   -1    0    0    0  501  0.00000000000E+00  0.00000000000E+00 -0.59655718858E+02  0.59655718913E+02  0.25500000920E-02 0. -1.
    10030    2    1    2    0    0  0.00000000000E+00  0.00000000000E+00  0.13727416199E+04  0.14920530577E+04  0.58463900991E+03 0.  0.
        3    1    3    3  502    0 -0.29150001524E+02 -0.16822204856E+03  0.12919341211E+04  0.13031662072E+04  0.10100000352E+00 0.  1.
       -3    1    3    3    0  502  0.29150001524E+02  0.16822204856E+03  0.80807498818E+02  0.18888685046E+03  0.10100000352E+00 0. -1.
</event>
<event>
 5   0  0.9177281E-02  0.6230395E+03  0.7818609E-02  0.9858727E-01
       -1   -1    0    0    0  501  0.00000000000E+00  0.00000000000E+00  0.14168926713E+03  0.14168926722E+03  0.50400001928E-02 0. -1.
        1   -1    0    0  501    0  0.00000000000E+00  0.00000000000E+00 -0.68491113214E+03  0.68491113216E+03  0.50400001928E-02 0.  1.
    10030    2    1    2    0    0  0.00000000000E+00  0.00000000000E+00 -0.54322186501E+03  0.82660039938E+03  0.62303950567E+03 0.  0.
        1    1    3    3  502    0  0.25840395303E+02  0.24600048103E+03 -0.20370945026E+02  0.24819133370E+03  0.50400001928E-02 0. -1.
       -1    1    3    3    0  502 -0.25840395303E+02 -0.24600048103E+03 -0.52285091999E+03  0.57840906568E+03  0.50400001928E-02 0.  1.
</event>
<event>
 5   0  0.8860626E-02  0.6038651E+03  0.7818609E-02  0.9897419E-01
       -1   -1    0    0    0  501  0.00000000000E+00  0.00000000000E+00  0.28166375727E+03  0.28166375731E+03  0.50400001928E-02 0. -1.
        1   -1    0    0  501    0  0.00000000000E+00  0.00000000000E+00 -0.32365991537E+03  0.32365991541E+03  0.50400001928E-02 0.  1.
    10030    2    1    2    0    0  0.00000000000E+00  0.00000000000E+00 -0.41996158102E+02  0.60532367272E+03  0.60386511032E+03 0.  0.
        3    1    3    3  502    0 -0.18571426175E+03  0.62687519504E+02 -0.25121286008E+03  0.31863368213E+03  0.10100000352E+00 0.  1.
       -3    1    3    3    0  502  0.18571426175E+03 -0.62687519504E+02  0.20921670197E+03  0.28668999059E+03  0.10100000352E+00 0. -1.
</event>
<event>
 5   0  0.1513339E-01  0.6000585E+03  0.7818609E-02  0.9905285E-01
       -2   -1    0    0    0  501  0.00000000000E+00  0.00000000000E+00  0.28219074976E+03  0.28219074977E+03  0.25500000920E-02 0.  1.
        2   -1    0    0  501    0  0.00000000000E+00  0.00000000000E+00 -0.31899537074E+03  0.31899537075E+03  0.25500000920E-02 0. -1.
    10030    2    1    2    0    0  0.00000000000E+00  0.00000000000E+00 -0.36804620980E+02  0.60118612052E+03  0.60005847330E+03 0.  0.
        3    1    3    3  502    0 -0.12167439964E+03  0.12781224663E+03 -0.26150392917E+03  0.31547574406E+03  0.10100000352E+00 0. -1.
       -3    1    3    3    0  502  0.12167439964E+03 -0.12781224663E+03  0.22469930819E+03  0.28571037646E+03  0.10100000352E+00 0.  1.
</event>
<event>
 5   0  0.6170500E-02  0.5990009E+03  0.7818609E-02  0.9907481E-01
        3   -1    0    0  501    0  0.00000000000E+00  0.00000000000E+00  0.28924254339E+03  0.28924256102E+03  0.10100000352E+00 0.  1.
       -3   -1    0    0    0  501  0.00000000000E+00  0.00000000000E+00 -0.31012211087E+03  0.31012212732E+03  0.10100000352E+00 0. -1.
    10030    2    1    2    0    0  0.00000000000E+00  0.00000000000E+00 -0.20879567484E+02  0.59936468834E+03  0.59900089590E+03 0.  0.
        3    1    3    3  502    0 -0.27313617508E+03  0.54642703259E+02 -0.12055803204E+03  0.30351844169E+03  0.10100000352E+00 0. -1.
       -3    1    3    3    0  502  0.27313617508E+03 -0.54642703259E+02  0.99678464552E+02  0.29584624665E+03  0.10100000352E+00 0.  1.
</event>
<event>
 5   0  0.8860626E-02  0.5705071E+03  0.7818609E-02  0.9968557E-01
        1   -1    0    0  501    0  0.00000000000E+00  0.00000000000E+00  0.25885694138E+03  0.25885694142E+03  0.50400001928E-02 0. -1.
       -1   -1    0    0    0  501  0.00000000000E+00  0.00000000000E+00 -0.31434195907E+03  0.31434195911E+03  0.50400001928E-02 0.  1.
    10030    2    1    2    0    0  0.00000000000E+00  0.00000000000E+00 -0.55485017697E+02  0.57319890054E+03  0.57050713614E+03 0.  0.
        3    1    3    3  502    0  0.85964165180E+02 -0.25246733384E+03 -0.12941281972E+03  0.29644102357E+03  0.10100000352E+00 0. -1.
       -3    1    3    3    0  502 -0.85964165180E+02  0.25246733384E+03  0.73927802018E+02  0.27675787696E+03  0.10100000352E+00 0.  1.
</event>
<event>
 5   0  0.1502642E-01  0.6006195E+03  0.7818609E-02  0.9904122E-01
        2   -1    0    0  501    0  0.00000000000E+00  0.00000000000E+00  0.63498725588E+03  0.63498725589E+03  0.25500000920E-02 0. -1.
       -2   -1    0    0    0  501  0.00000000000E+00  0.00000000000E+00 -0.14202796513E+03  0.14202796515E+03  0.25500000920E-02 0.  1.
    10030    2    1    2    0    0  0.00000000000E+00  0.00000000000E+00  0.49295929075E+03  0.77701522104E+03  0.60061950633E+03 0.  0.
        2    1    3    3  502    0 -0.91252515022E+02 -0.18499468004E+03  0.52883579887E+03  0.56764192526E+03  0.25500000920E-02 0. -1.
       -2    1    3    3    0  502  0.91252515022E+02  0.18499468004E+03 -0.35876508117E+02  0.20937329577E+03  0.25500000920E-02 0.  1.
</event>
<event>
 5   0  0.9177281E-02  0.5984758E+03  0.7818609E-02  0.9908573E-01
        1   -1    0    0  501    0  0.00000000000E+00  0.00000000000E+00  0.10242743375E+03  0.10242743387E+03  0.50400001928E-02 0.  1.
       -1   -1    0    0    0  501  0.00000000000E+00  0.00000000000E+00 -0.87421240175E+03  0.87421240177E+03  0.50400001928E-02 0. -1.
    10030    2    1    2    0    0  0.00000000000E+00  0.00000000000E+00 -0.77178496800E+03  0.97663983564E+03  0.59847584055E+03 0.  0.
        1    1    3    3  502    0 -0.23062185561E+03 -0.93126482183E+02 -0.11437050893E+03  0.27375097317E+03  0.50400001928E-02 0.  1.
       -1    1    3    3    0  502  0.23062185561E+03  0.93126482183E+02 -0.65741445907E+03  0.70288886247E+03  0.50400001928E-02 0. -1.
</event>
<event>
 5   0  0.9177281E-02  0.6234439E+03  0.7818609E-02  0.9857927E-01
       -1   -1    0    0    0  501  0.00000000000E+00  0.00000000000E+00  0.46229442047E+03  0.46229442050E+03  0.50400001928E-02 0. -1.
        1   -1    0    0  501    0  0.00000000000E+00  0.00000000000E+00 -0.21019195072E+03  0.21019195078E+03  0.50400001928E-02 0.  1.
    10030    2    1    2    0    0  0.00000000000E+00  0.00000000000E+00  0.25210246975E+03  0.67248637127E+03  0.62344387421E+03 0.  0.
        1    1    3    3  502    0  0.16617024562E+03  0.18731377988E+03 -0.74219096034E+02  0.26116561203E+03  0.50400001928E-02 0.  1.
       -1    1    3    3    0  502 -0.16617024562E+03 -0.18731377988E+03  0.32632156579E+03  0.41132075925E+03  0.50400001928E-02 0. -1.
</event>
<event>
 5   0  0.9420349E-02  0.5320395E+03  0.7818609E-02  0.1005739E+00
        1   -1    0    0  501    0  0.00000000000E+00  0.00000000000E+00  0.12569033637E+04  0.12569033637E+04  0.50400001928E-02 0. -1.
       -1   -1    0    0    0  501  0.00000000000E+00  0.00000000000E+00 -0.56302263635E+02  0.56302263861E+02  0.50400001928E-02 0.  1.
    10030    2    1    2    0    0  0.00000000000E+00  0.00000000000E+00  0.12006011000E+04  0.13132056276E+04  0.53203948989E+03 0.  0.
        2    1    3    3  502    0 -0.14853795533E+03 -0.24201353863E+02  0.58874211558E+02  0.16160260671E+03  0.25500000920E-02 0.  1.
       -2    1    3    3    0  502  0.14853795533E+03  0.24201353863E+02  0.11417268885E+04  0.11516030208E+04  0.25500000920E-02 0. -1.
</event>
<event>
 5   0  0.1483942E-01  0.5685393E+03  0.7818609E-02  0.9972916E-01
       -2   -1    0    0    0  501  0.00000000000E+00  0.00000000000E+00  0.12351932780E+03  0.12351932782E+03  0.25500000920E-02 0. -1.
        2   -1    0    0  501    0  0.00000000000E+00  0.00000000000E+00 -0.65422347679E+03  0.65422347680E+03  0.25500000920E-02 0.  1.
    10030    2    1    2    0    0  0.00000000000E+00  0.00000000000E+00 -0.53070414900E+03  0.77774280462E+03  0.56853933582E+03 0.  0.
        4    1    3    3  502    0 -0.78494290518E+02 -0.41362990961E+02 -0.63479266577E+03  0.64096457942E+03  0.12699999809E+01 0.  1.
       -4    1    3    3    0  502  0.78494290518E+02  0.41362990961E+02  0.10408851677E+03  0.13677822520E+03  0.12699999809E+01 0. -1.
</event>
<event>
 5   0  0.8860626E-02  0.6199455E+03  0.7818609E-02  0.9864868E-01
       -1   -1    0    0    0  501  0.00000000000E+00  0.00000000000E+00  0.69942175272E+03  0.69942175274E+03  0.50400001928E-02 0.  1.
        1   -1    0    0  501    0  0.00000000000E+00  0.00000000000E+00 -0.13737505839E+03  0.13737505848E+03  0.50400001928E-02 0. -1.
    10030    2    1    2    0    0  0.00000000000E+00  0.00000000000E+00  0.56204669433E+03  0.83679681122E+03  0.61994549491E+03 0.  0.
        3    1    3    3  502    0 -0.21068877265E+03 -0.10735120841E+03  0.10495295154E+02  0.23669432247E+03  0.10100000352E+00 0. -1.
       -3    1    3    3    0  502  0.21068877265E+03  0.10735120841E+03  0.55155139918E+03  0.60010248875E+03  0.10100000352E+00 0.  1.
</event>
<event>
 5   0  0.9497860E-02  0.5914786E+03  0.7818609E-02  0.9923245E-01
        1   -1    0    0  501    0  0.00000000000E+00  0.00000000000E+00  0.69589476199E+03  0.69589476201E+03  0.50400001928E-02 0. -1.
       -1   -1    0    0    0  501  0.00000000000E+00  0.00000000000E+00 -0.12568241379E+03  0.12568241389E+03  0.50400001928E-02 0.  1.
    10030    2    1    2    0    0  0.00000000000E+00  0.00000000000E+00  0.57021234820E+03  0.82157717590E+03  0.59147859971E+03 0.  0.
        5    1    3    3  502    0 -0.17136743548E+02  0.97010863129E+02 -0.10216686371E+03  0.14200328723E+03  0.46999998093E+01 0.  1.
       -5    1    3    3    0  502  0.17136743548E+02 -0.97010863129E+02  0.67237921192E+03  0.67957388867E+03  0.46999998093E+01 0. -1.
</event>
<event>
 5   0  0.9420349E-02  0.5963738E+03  0.7818609E-02  0.9912958E-01
       -1   -1    0    0    0  501  0.00000000000E+00  0.00000000000E+00  0.83351083051E+02  0.83351083203E+02  0.50400001928E-02 0. -1.
        1   -1    0    0  501    0  0.00000000000E+00  0.00000000000E+00 -0.10667578414E+04  0.10667578414E+04  0.50400001928E-02 0.  1.
    10030    2    1    2    0    0  0.00000000000E+00  0.00000000000E+00 -0.98340675838E+03  0.11501089246E+04  0.59637378055E+03 0.  0.
        2    1    3    3  502    0 -0.44656206201E+02 -0.49998655765E+02  0.68630205398E+02  0.95938248003E+02  0.25500000920E-02 0. -1.
       -2    1    3    3    0  502  0.44656206201E+02  0.49998655765E+02 -0.10520369638E+04  0.10541706766E+04  0.25500000920E-02 0.  1.
</event>
<event>
 5   0  0.1502642E-01  0.6165530E+03  0.7818609E-02  0.9871647E-01
        2   -1    0    0  501    0  0.00000000000E+00  0.00000000000E+00  0.19680855928E+04  0.19680855928E+04  0.25500000920E-02 0.  1.
       -2   -1    0    0    0  501  0.00000000000E+00  0.00000000000E+00 -0.48287736206E+02  0.48287736274E+02  0.25500000920E-02 0. -1.
    10030    2    1    2    0    0  0.00000000000E+00  0.00000000000E+00  0.19197978566E+04  0.20163733291E+04  0.61655299207E+03 0.  0.
        2    1    3    3  502    0  0.13481324163E+03 -0.18814326043E+03  0.16258236564E+04  0.16422165078E+04  0.25500000920E-02 0.  1.
       -2    1    3    3    0  502 -0.13481324163E+03  0.18814326043E+03  0.29397420018E+03  0.37415682133E+03  0.25500000920E-02 0. -1.
</event>
<event>
 5   0  0.9497860E-02  0.6131274E+03  0.7818609E-02  0.9878539E-01
        1   -1    0    0  501    0  0.00000000000E+00  0.00000000000E+00  0.14727486948E+04  0.14727486948E+04  0.50400001928E-02 0. -1.
       -1   -1    0    0    0  501  0.00000000000E+00  0.00000000000E+00 -0.63813534015E+02  0.63813534214E+02  0.50400001928E-02 0.  1.
    10030    2    1    2    0    0  0.00000000000E+00  0.00000000000E+00  0.14089351608E+04  0.15365622290E+04  0.61312738999E+03 0.  0.
        5    1    3    3  502    0 -0.62681161787E+02 -0.29817252160E+03  0.78846619770E+03  0.84530279521E+03  0.46999998093E+01 0.  1.
       -5    1    3    3    0  502  0.62681161787E+02  0.29817252160E+03  0.62046896307E+03  0.69125943379E+03  0.46999998093E+01 0. -1.
</event>
<event>
 5   0  0.1483942E-01  0.5983090E+03  0.7818609E-02  0.9908920E-01
        2   -1    0    0  501    0  0.00000000000E+00  0.00000000000E+00  0.67022016202E+03  0.67022016203E+03  0.25500000920E-02 0. -1.
       -2   -1    0    0    0  501  0.00000000000E+00  0.00000000000E+00 -0.13352840440E+03  0.13352840442E+03  0.25500000920E-02 0.  1.
    10030    2    1    2    0    0  0.00000000000E+00  0.00000000000E+00  0.53669175762E+03  0.80374856645E+03  0.59830904671E+03 0.  0.
        4    1    3    3  502    0 -0.11975399167E+03 -0.27411829328E+03  0.27258519849E+03  0.40470502909E+03  0.12699999809E+01 0. -1.
       -4    1    3    3    0  502  0.11975399167E+03  0.27411829328E+03  0.26410655913E+03  0.39904353736E+03  0.12699999809E+01 0.  1.
</event>
<event>
 5   0  0.1483942E-01  0.6123185E+03  0.7818609E-02  0.9880174E-01
       -2   -1    0    0    0  501  0.00000000000E+00  0.00000000000E+00  0.11010612975E+03  0.11010612978E+03  0.25500000920E-02 0.  1.
        2   -1    0    0  501    0  0.00000000000E+00  0.00000000000E+00 -0.85130123281E+03  0.85130123281E+03  0.25500000920E-02 0. -1.
    10030    2    1    2    0    0  0.00000000000E+00  0.00000000000E+00 -0.74119510305E+03  0.96140736259E+03  0.61231849233E+03 0.  0.
        4    1    3    3  502    0  0.23381998839E+03 -0.13415054127E+03 -0.14272208658E+03  0.30502354268E+03  0.12699999809E+01 0.  1.
       -4    1    3    3    0  502 -0.23381998839E+03  0.13415054127E+03 -0.59847301647E+03  0.65638381991E+03  0.12699999809E+01 0. -1.
</event>
<event>
 5   0  0.9411028E-02  0.6123562E+03  0.7818609E-02  0.9880097E-01
        1   -1    0    0  501    0  0.00000000000E+00  0.00000000000E+00  0.93448332029E+03  0.93448332030E+03  0.50400001928E-02 0. -1.
       -1   -1    0    0    0  501  0.00000000000E+00  0.00000000000E+00 -0.10031750061E+03  0.10031750074E+03  0.50400001928E-02 0.  1.
    10030    2    1    2    0    0  0.00000000000E+00  0.00000000000E+00  0.83416581968E+03  0.10348008210E+04  0.61235620720E+03 0.  0.
        4    1    3    3  502    0 -0.76792456853E+02  0.39236808806E+02  0.91353251733E+03  0.91759461731E+03  0.12699999809E+01 0. -1.
       -4    1    3    3    0  502  0.76792456853E+02 -0.39236808806E+02 -0.79366697654E+02  0.11720620372E+03  0.12699999809E+01 0.  1.
</event>
<event>
 5   0  0.1502642E-01  0.6055156E+03  0.7818609E-02  0.9894029E-01
        2   -1    0    0  501    0  0.00000000000E+00  0.00000000000E+00  0.76312103922E+03  0.76312103922E+03  0.25500000920E-02 0. -1.
       -2   -1    0    0    0  501  0.00000000000E+00  0.00000000000E+00 -0.12011500944E+03  0.12011500947E+03  0.25500000920E-02 0.  1.
    10030    2    1    2    0    0  0.00000000000E+00  0.00000000000E+00  0.64300602978E+03  0.88323604870E+03  0.60551561779E+03 0.  0.
        2    1    3    3  502    0 -0.12760080089E+03  0.27182885265E+03  0.26520963767E+03  0.40063579650E+03  0.25500000920E-02 0.  1.
       -2    1    3    3    0  502  0.12760080089E+03 -0.27182885265E+03  0.37779639211E+03  0.48260025219E+03  0.25500000920E-02 0. -1.
</event>
<event>
 5   0  0.6170500E-02  0.5983301E+03  0.7818609E-02  0.9908877E-01
       -3   -1    0    0    0  501  0.00000000000E+00  0.00000000000E+00  0.12298847224E+04  0.12298847266E+04  0.10100000352E+00 0. -1.
        3   -1    0    0  501    0  0.00000000000E+00  0.00000000000E+00 -0.72770784983E+02  0.72770855073E+02  0.10100000352E+00 0.  1.
    10030    2    1    2    0    0  0.00000000000E+00  0.00000000000E+00  0.11571139374E+04  0.13026555816E+04  0.59833009298E+03 0.  0.
        2    1    3    3  502    0  0.36401939058E+02  0.27394004525E+03  0.32907134676E+03  0.42971641907E+03  0.25500000920E-02 0.  1.
       -2    1    3    3    0  502 -0.36401939058E+02 -0.27394004525E+03  0.82804259067E+03  0.87293916255E+03  0.25500000920E-02 0. -1.
</event>
<event>
 5   0  0.1483942E-01  0.5972001E+03  0.7818609E-02  0.9911232E-01
       -2   -1    0    0    0  501  0.00000000000E+00  0.00000000000E+00  0.57784951126E+03  0.57784951127E+03  0.25500000920E-02 0.  1.
        2   -1    0    0  501    0  0.00000000000E+00  0.00000000000E+00 -0.15429969616E+03  0.15429969618E+03  0.25500000920E-02 0. -1.
    10030    2    1    2    0    0  0.00000000000E+00  0.00000000000E+00  0.42354981510E+03  0.73214920745E+03  0.59720014744E+03 0.  0.
        4    1    3    3  502    0  0.13369578878E+03  0.18356021426E+03 -0.25922460678E+02  0.22856618968E+03  0.12699999809E+01 0. -1.
       -4    1    3    3    0  502 -0.13369578878E+03 -0.18356021426E+03  0.44947227578E+03  0.50358301777E+03  0.12699999809E+01 0.  1.
</event>
<event>
 5   0  0.1488510E-01  0.6168050E+03  0.7818609E-02  0.9871142E-01
        2   -1    0    0  501    0  0.00000000000E+00  0.00000000000E+00  0.11173111115E+04  0.11173111115E+04  0.25500000920E-02 0. -1.
       -2   -1    0    0    0  501  0.00000000000E+00  0.00000000000E+00 -0.85125880902E+02  0.85125880940E+02  0.25500000920E-02 0.  1.
    10030    2    1    2    0    0  0.00000000000E+00  0.00000000000E+00  0.10321852306E+04  0.12024369924E+04  0.61680496960E+03 0.  0.
        5    1    3    3  502    0 -0.22784202649E+03 -0.11562512813E+03  0.85267162385E+03  0.89014164457E+03  0.46999998093E+01 0. -1.
       -5    1    3    3    0  502  0.22784202649E+03  0.11562512813E+03  0.17951360673E+03  0.31229534785E+03  0.46999998093E+01 0.  1.
</event>
<event>
 5   0  0.1488510E-01  0.6035151E+03  0.7818609E-02  0.9898140E-01
        2   -1    0    0  501    0  0.00000000000E+00  0.00000000000E+00  0.11609325243E+04  0.11609325243E+04  0.25500000920E-02 0.  1.
       -2   -1    0    0    0  501  0.00000000000E+00  0.00000000000E+00 -0.78434885483E+02  0.78434885524E+02  0.25500000920E-02 0. -1.
    10030    2    1    2    0    0  0.00000000000E+00  0.00000000000E+00  0.10824976388E+04  0.12393674098E+04  0.60351506899E+03 0.  0.
        5    1    3    3  502    0  0.29518103746E+03  0.53213000808E+02  0.47401005302E+03  0.56095551400E+03  0.46999998093E+01 0.  1.
       -5    1    3    3    0  502 -0.29518103746E+03 -0.53213000808E+02  0.60848758582E+03  0.67841189585E+03  0.46999998093E+01 0. -1.
</event>
<event>
 5   0  0.1513339E-01  0.6000300E+03  0.7818609E-02  0.9905344E-01
        2   -1    0    0  501    0  0.00000000000E+00  0.00000000000E+00  0.22847919706E+04  0.22847919706E+04  0.25500000920E-02 0.  1.
       -2   -1    0    0    0  501  0.00000000000E+00  0.00000000000E+00 -0.39394828593E+02  0.39394828676E+02  0.25500000920E-02 0. -1.
    10030    2    1    2    0    0  0.00000000000E+00  0.00000000000E+00  0.22453971420E+04  0.23241867992E+04  0.60002995975E+03 0.  0.
        3    1    3    3  502    0 -0.15400559928E+03  0.16612596298E+02  0.21179213622E+04  0.21235782561E+04  0.10100000352E+00 0.  1.
       -3    1    3    3    0  502  0.15400559928E+03 -0.16612596298E+02  0.12747577977E+03  0.20060854318E+03  0.10100000352E+00 0. -1.
</event>
<event>
 5   0  0.9497860E-02  0.6091429E+03  0.7818609E-02  0.9886617E-01
       -1   -1    0    0    0  501  0.00000000000E+00  0.00000000000E+00  0.13611139386E+03  0.13611139395E+03  0.50400001928E-02 0.  1.
        1   -1    0    0  501    0  0.00000000000E+00  0.00000000000E+00 -0.68152825143E+03  0.68152825145E+03  0.50400001928E-02 0. -1.
    10030    2    1    2    0    0  0.00000000000E+00  0.00000000000E+00 -0.54541685758E+03  0.81763964540E+03  0.60914287421E+03 0.  0.
        5    1    3    3  502    0  0.23483765076E+03 -0.18758011577E+03 -0.33855741349E+03  0.45274522004E+03  0.46999998093E+01 0. -1.
       -5    1    3    3    0  502 -0.23483765076E+03  0.18758011577E+03 -0.20685944409E+03  0.36489442536E+03  0.46999998093E+01 0.  1.
</event>
<event>
 5   0  0.6170500E-02  0.6146785E+03  0.7818609E-02  0.9875412E-01
        4   -1    0    0  501    0  0.00000000000E+00  0.00000000000E+00  0.20316086185E+03  0.20316483133E+03  0.12699999809E+01 0.  1.
       -4   -1    0    0    0  501  0.00000000000E+00  0.00000000000E+00 -0.46492960772E+03  0.46493134228E+03  0.12699999809E+01 0. -1.
    10030    2    1    2    0    0  0.00000000000E+00  0.00000000000E+00 -0.26176874587E+03  0.66809617361E+03  0.61467846951E+03 0.  0.
        5    1    3    3  502    0  0.25245255066E+02 -0.28041386410E+03 -0.26473713184E+03  0.38649333378E+03  0.46999998093E+01 0. -1.
       -5    1    3    3    0  502 -0.25245255066E+02  0.28041386410E+03  0.29683859768E+01  0.28160283983E+03  0.46999998093E+01 0.  1.
</event>
<event>
 5   0  0.1532571E-01  0.5959483E+03  0.7818609E-02  0.9913848E-01
        2   -1    0    0  501    0  0.00000000000E+00  0.00000000000E+00  0.45072108418E+03  0.45072108419E+03  0.25500000920E-02 0. -1.
       -2   -1    0    0    0  501  0.00000000000E+00  0.00000000000E+00 -0.19699234118E+03  0.19699234120E+03  0.25500000920E-02 0.  1.
    10030    2    1    2    0    0  0.00000000000E+00  0.00000000000E+00  0.25372874300E+03  0.64771342538E+03  0.59594832527E+03 0.  0.
        1    1    3    3  502    0 -0.21385499930E+03  0.92899167518E+02  0.32851862808E+03  0.40285072307E+03  0.50400001928E-02 0. -1.
       -1    1    3    3    0  502  0.21385499930E+03 -0.92899167518E+02 -0.74789885083E+02  0.24486270232E+03  0.50400001928E-02 0.  1.
</event>
<event>
 5   0  0.9411028E-02  0.3887730E+03  0.7818609E-02  0.1047738E+00
       -1   -1    0    0    0  501  0.00000000000E+00  0.00000000000E+00  0.74238329594E+02  0.74238329765E+02  0.50400001928E-02 0.  1.
        1   -1    0    0  501    0  0.00000000000E+00  0.00000000000E+00 -0.50898396238E+03  0.50898396240E+03  0.50400001928E-02 0. -1.
    10030    2    1    2    0    0  0.00000000000E+00  0.00000000000E+00 -0.43474563278E+03  0.58322229217E+03  0.38877304029E+03 0.  0.
        4    1    3    3  502    0 -0.12237010203E+03 -0.30817698172E+02  0.44296496191E+01  0.12627512458E+03  0.12699999809E+01 0.  1.
       -4    1    3    3    0  502  0.12237010203E+03  0.30817698172E+02 -0.43917528240E+03  0.45694716759E+03  0.12699999809E+01 0. -1.
</event>
<event>
 5   0  0.1513339E-01  0.5928134E+03  0.7818609E-02  0.9920429E-01
       -2   -1    0    0    0  501  0.00000000000E+00  0.00000000000E+00  0.85005266211E+02  0.85005266250E+02  0.25500000920E-02 0. -1.
        2   -1    0    0  501    0  0.00000000000E+00  0.00000000000E+00 -0.10335467787E+04  0.10335467787E+04  0.25500000920E-02 0.  1.
    10030    2    1    2    0    0  0.00000000000E+00  0.00000000000E+00 -0.94854151247E+03  0.11185520449E+04  0.59281335709E+03 0.  0.
        3    1    3    3  502    0 -0.95353403239E+02  0.22945275485E+03 -0.16934638764E+03  0.30069760130E+03  0.10100000352E+00 0. -1.
       -3    1    3    3    0  502  0.95353403239E+02 -0.22945275485E+03 -0.77919512483E+03  0.81785444363E+03  0.10100000352E+00 0.  1.
</event>
<event>
 5   0  0.8860626E-02  0.5917961E+03  0.7818609E-02  0.9922574E-01
        1   -1    0    0  501    0  0.00000000000E+00  0.00000000000E+00  0.63950133504E+03  0.63950133506E+03  0.50400001928E-02 0. -1.
       -1   -1    0    0    0  501  0.00000000000E+00  0.00000000000E+00 -0.13691239484E+03  0.13691239494E+03  0.50400001928E-02 0.  1.
    10030    2    1    2    0    0  0.00000000000E+00  0.00000000000E+00  0.50258894020E+03  0.77641373000E+03  0.59179611128E+03 0.  0.
        3    1    3    3  502    0 -0.28728517531E+03 -0.70191620648E+02  0.26414992354E+03  0.39652847044E+03  0.10100000352E+00 0.  1.
       -3    1    3    3    0  502  0.28728517531E+03  0.70191620648E+02  0.23843901666E+03  0.37988525956E+03  0.10100000352E+00 0. -1.
</event>
<event>
 5   0  0.8860626E-02  0.5991262E+03  0.7818609E-02  0.9907221E-01
       -1   -1    0    0    0  501  0.00000000000E+00  0.00000000000E+00  0.13118972037E+03  0.13118972047E+03  0.50400001928E-02 0. -1.
        1   -1    0    0  501    0  0.00000000000E+00  0.00000000000E+00 -0.68403265658E+03  0.68403265659E+03  0.50400001928E-02 0.  1.
    10030    2    1    2    0    0  0.00000000000E+00  0.00000000000E+00 -0.55284293620E+03  0.81522237707E+03  0.59912620704E+03 0.  0.
        3    1    3    3  502    0 -0.22868196433E+02  0.18329727373E+03  0.44473071502E+02  0.18999660327E+03  0.10100000352E+00 0. -1.
       -3    1    3    3    0  502  0.22868196433E+02 -0.18329727373E+03 -0.59731600770E+03  0.62522577380E+03  0.10100000352E+00 0.  1.
</event>
<event>
 5   0  0.9497860E-02  0.5929171E+03  0.7818609E-02  0.9920211E-01
       -1   -1    0    0    0  501  0.00000000000E+00  0.00000000000E+00  0.12192381520E+03  0.12192381530E+03  0.50400001928E-02 0.  1.
        1   -1    0    0  501    0  0.00000000000E+00  0.00000000000E+00 -0.72084088506E+03  0.72084088508E+03  0.50400001928E-02 0. -1.
    10030    2    1    2    0    0  0.00000000000E+00  0.00000000000E+00 -0.59891706986E+03  0.84276470038E+03  0.59291709676E+03 0.  0.
        5    1    3    3  502    0 -0.10412422069E+03 -0.20397384505E+02 -0.69287134967E+03  0.70096412449E+03  0.46999998093E+01 0. -1.
       -5    1    3    3    0  502  0.10412422069E+03  0.20397384505E+02  0.93954279810E+02  0.14180057589E+03  0.46999998093E+01 0.  1.
</event>
<event>
 5   0  0.1502642E-01  0.5935825E+03  0.7818609E-02  0.9918810E-01
       -2   -1    0    0    0  501  0.00000000000E+00  0.00000000000E+00  0.86007381696E+02  0.86007381734E+02  0.25500000920E-02 0.  1.
        2   -1    0    0  501    0  0.00000000000E+00  0.00000000000E+00 -0.10241568450E+04  0.10241568450E+04  0.25500000920E-02 0. -1.
    10030    2    1    2    0    0  0.00000000000E+00  0.00000000000E+00 -0.93814946326E+03  0.11101642267E+04  0.59358250885E+03 0.  0.
        2    1    3    3  502    0 -0.19382809694E+03 -0.19643628540E+02 -0.88782424590E+03  0.90894834557E+03  0.25500000920E-02 0. -1.
       -2    1    3    3    0  502  0.19382809694E+03  0.19643628540E+02 -0.50325217355E+02  0.20121588112E+03  0.25500000920E-02 0.  1.
</event>
<event>
 5   0  0.1488510E-01  0.6672331E+03  0.7818609E-02  0.9774969E-01
        2   -1    0    0  501    0  0.00000000000E+00  0.00000000000E+00  0.35838359053E+03  0.35838359053E+03  0.25500000920E-02 0.  1.
       -2   -1    0    0    0  501  0.00000000000E+00  0.00000000000E+00 -0.31056113978E+03  0.31056113979E+03  0.25500000920E-02 0. -1.
    10030    2    1    2    0    0  0.00000000000E+00  0.00000000000E+00  0.47822450745E+02  0.66894473033E+03  0.66723314174E+03 0.  0.
        5    1    3    3  502    0 -0.12640048113E+03  0.67648914317E+02 -0.27806645511E+03  0.31288416498E+03  0.46999998093E+01 0. -1.
       -5    1    3    3    0  502  0.12640048113E+03 -0.67648914317E+02  0.32588890585E+03  0.35606056535E+03  0.46999998093E+01 0.  1.
</event>
<event>
 5   0  0.9411028E-02  0.6064448E+03  0.7818609E-02  0.9892125E-01
       -1   -1    0    0    0  501  0.00000000000E+00  0.00000000000E+00  0.30412119283E+03  0.30412119287E+03  0.50400001928E-02 0.  1.
        1   -1    0    0  501    0  0.00000000000E+00  0.00000000000E+00 -0.30232625809E+03  0.30232625814E+03  0.50400001928E-02 0. -1.
    10030    2    1    2    0    0  0.00000000000E+00  0.00000000000E+00  0.17949347325E+01  0.60644745100E+03  0.60644479472E+03 0.  0.
        4    1    3    3  502    0 -0.23854558591E+02 -0.25833574770E+03 -0.15606121086E+03  0.30275916657E+03  0.12699999809E+01 0. -1.
       -4    1    3    3    0  502  0.23854558591E+02  0.25833574770E+03  0.15785614559E+03  0.30368828444E+03  0.12699999809E+01 0.  1.
</event>
<event>
 5   0  0.1483942E-01  0.5850376E+03  0.7818609E-02  0.9936944E-01
        2   -1    0    0  501    0  0.00000000000E+00  0.00000000000E+00  0.95455036119E+03  0.95455036119E+03  0.25500000920E-02 0.  1.
       -2   -1    0    0    0  501  0.00000000000E+00  0.00000000000E+00 -0.89641423700E+02  0.89641423737E+02  0.25500000920E-02 0. -1.
    10030    2    1    2    0    0  0.00000000000E+00  0.00000000000E+00  0.86490893748E+03  0.10441917849E+04  0.58503761722E+03 0.  0.
        4    1    3    3  502    0  0.92904243005E+02  0.15112141553E+03  0.17326391923E+02  0.17824336554E+03  0.12699999809E+01 0. -1.
       -4    1    3    3    0  502 -0.92904243005E+02 -0.15112141553E+03  0.84758254556E+03  0.86594841939E+03  0.12699999809E+01 0.  1.
</event>
<event>
 5   0  0.9497860E-02  0.6054597E+03  0.7818609E-02  0.9894143E-01
       -1   -1    0    0    0  501  0.00000000000E+00  0.00000000000E+00  0.17129282639E+03  0.17129282646E+03  0.50400001928E-02 0.  1.
        1   -1    0    0  501    0  0.00000000000E+00  0.00000000000E+00 -0.53502164531E+03  0.53502164534E+03  0.50400001928E-02 0. -1.
    10030    2    1    2    0    0  0.00000000000E+00  0.00000000000E+00 -0.36372881892E+03  0.70631447180E+03  0.60545972563E+03 0.  0.
        5    1    3    3  502    0  0.79043706756E+02  0.19890565929E+02 -0.52193614509E+03  0.52828304131E+03  0.46999998093E+01 0. -1.
       -5    1    3    3    0  502 -0.79043706756E+02 -0.19890565929E+02  0.15820732616E+03  0.17803143049E+03  0.46999998093E+01 0.  1.
</event>
<event>
 5   0  0.1502642E-01  0.6037049E+03  0.7818609E-02  0.9897749E-01
       -2   -1    0    0    0  501  0.00000000000E+00  0.00000000000E+00  0.10487210985E+03  0.10487210988E+03  0.25500000920E-02 0.  1.
        2   -1    0    0  501    0  0.00000000000E+00  0.00000000000E+00 -0.86881909287E+03  0.86881909287E+03  0.25500000920E-02 0. -1.
    10030    2    1    2    0    0  0.00000000000E+00  0.00000000000E+00 -0.76394698302E+03  0.97369120275E+03  0.60370486618E+03 0.  0.
        2    1    3    3  502    0  0.20381571257E+03  0.14173682897E+03 -0.10502751585E+03  0.26955695589E+03  0.25500000920E-02 0.  1.
       -2    1    3    3    0  502 -0.20381571257E+03 -0.14173682897E+03 -0.65891946717E+03  0.70413424686E+03  0.25500000920E-02 0. -1.
</event>
<event>
 5   0  0.1513339E-01  0.5894384E+03  0.7818609E-02  0.9927564E-01
       -2   -1    0    0    0  501  0.00000000000E+00  0.00000000000E+00  0.77753841421E+02  0.77753841463E+02  0.25500000920E-02 0.  1.
        2   -1    0    0  501    0  0.00000000000E+00  0.00000000000E+00 -0.11171076032E+04  0.11171076032E+04  0.25500000920E-02 0. -1.
    10030    2    1    2    0    0  0.00000000000E+00  0.00000000000E+00 -0.10393537618E+04  0.11948614447E+04  0.58943840207E+03 0.  0.
        3    1    3    3  502    0  0.68554582745E+02 -0.69236836070E+02  0.44160659132E+02  0.10697497044E+03  0.10100000352E+00 0.  1.
       -3    1    3    3    0  502 -0.68554582745E+02  0.69236836070E+02 -0.10835144210E+04  0.10878864743E+04  0.10100000352E+00 0. -1.
</event>
<event>
 5   0  0.9420349E-02  0.6080029E+03  0.7818609E-02  0.9888940E-01
       -1   -1    0    0    0  501  0.00000000000E+00  0.00000000000E+00  0.14210101990E+03  0.14210101999E+03  0.50400001928E-02 0.  1.
        1   -1    0    0  501    0  0.00000000000E+00  0.00000000000E+00 -0.65036036843E+03  0.65036036845E+03  0.50400001928E-02 0. -1.
    10030    2    1    2    0    0  0.00000000000E+00  0.00000000000E+00 -0.50825934853E+03  0.79246138844E+03  0.60800286743E+03 0.  0.
        2    1    3    3  502    0  0.21068477278E+03 -0.11357644693E+03 -0.49842015540E+03  0.55291078312E+03  0.25500000920E-02 0. -1.
       -2    1    3    3    0  502 -0.21068477278E+03  0.11357644693E+03 -0.98391931313E+01  0.23955060532E+03  0.25500000920E-02 0.  1.
</event>
<event>
 5   0  0.9497860E-02  0.5953469E+03  0.7818609E-02  0.9915107E-01
        1   -1    0    0  501    0  0.00000000000E+00  0.00000000000E+00  0.11970258399E+04  0.11970258399E+04  0.50400001928E-02 0.  1.
       -1   -1    0    0    0  501  0.00000000000E+00  0.00000000000E+00 -0.74024701996E+02  0.74024702167E+02  0.50400001928E-02 0. -1.
    10030    2    1    2    0    0  0.00000000000E+00  0.00000000000E+00  0.11230011379E+04  0.12710505421E+04  0.59534689450E+03 0.  0.
        5    1    3    3  502    0  0.13707539577E+03 -0.12610888586E+03  0.10571379444E+04  0.10734318044E+04  0.46999998093E+01 0.  1.
       -5    1    3    3    0  502 -0.13707539577E+03  0.12610888586E+03  0.65863193490E+02  0.19761873766E+03  0.46999998093E+01 0. -1.
</event>
<event>
 5   0  0.1513339E-01  0.6030378E+03  0.7818609E-02  0.9899124E-01
       -2   -1    0    0    0  501  0.00000000000E+00  0.00000000000E+00  0.10132857977E+03  0.10132857980E+03  0.25500000920E-02 0.  1.
        2   -1    0    0  501    0  0.00000000000E+00  0.00000000000E+00 -0.89721628481E+03  0.89721628481E+03  0.25500000920E-02 0. -1.
    10030    2    1    2    0    0  0.00000000000E+00  0.00000000000E+00 -0.79588770504E+03  0.99854486461E+03  0.60303781607E+03 0.  0.
        3    1    3    3  502    0 -0.12272573798E+03 -0.18635284005E+03 -0.62148900259E+02  0.23162789936E+03  0.10100000352E+00 0.  1.
       -3    1    3    3    0  502  0.12272573798E+03  0.18635284005E+03 -0.73373880478E+03  0.76691696526E+03  0.10100000352E+00 0. -1.
</event>
<event>
 5   0  0.1513339E-01  0.5948158E+03  0.7818609E-02  0.9916220E-01
        2   -1    0    0  501    0  0.00000000000E+00  0.00000000000E+00  0.13153342924E+04  0.13153342924E+04  0.25500000920E-02 0.  1.
       -2   -1    0    0    0  501  0.00000000000E+00  0.00000000000E+00 -0.67246370713E+02  0.67246370762E+02  0.25500000920E-02 0. -1.
    10030    2    1    2    0    0  0.00000000000E+00  0.00000000000E+00  0.12480879217E+04  0.13825806632E+04  0.59481579494E+03 0.  0.
        3    1    3    3  502    0  0.59287019568E+02 -0.83298308338E+02 -0.25112537396E+02  0.10528156817E+03  0.10100000352E+00 0. -1.
       -3    1    3    3    0  502 -0.59287019568E+02  0.83298308338E+02  0.12732004591E+04  0.12772990950E+04  0.10100000352E+00 0.  1.
</event>
<event>
 5   0  0.1502642E-01  0.6023611E+03  0.7818609E-02  0.9900520E-01
       -2   -1    0    0    0  501  0.00000000000E+00  0.00000000000E+00  0.94428536803E+02  0.94428536837E+02  0.25500000920E-02 0.  1.
        2   -1    0    0  501    0  0.00000000000E+00  0.00000000000E+00 -0.96061780318E+03  0.96061780318E+03  0.25500000920E-02 0. -1.
    10030    2    1    2    0    0  0.00000000000E+00  0.00000000000E+00 -0.86618926638E+03  0.10550463400E+04  0.60236113288E+03 0.  0.
        2    1    3    3  502    0 -0.92224209380E+02 -0.88021686515E+02 -0.91102676300E+03  0.91990373681E+03  0.25500000920E-02 0. -1.
       -2    1    3    3    0  502  0.92224209380E+02  0.88021686515E+02  0.44837496620E+02  0.13514260321E+03  0.25500000920E-02 0.  1.
</event>
<event>
 5   0  0.9177281E-02  0.5981233E+03  0.7818609E-02  0.9909307E-01
        1   -1    0    0  501    0  0.00000000000E+00  0.00000000000E+00  0.10961083960E+04  0.10961083960E+04  0.50400001928E-02 0. -1.
       -1   -1    0    0    0  501  0.00000000000E+00  0.00000000000E+00 -0.81595834691E+02  0.81595834847E+02  0.50400001928E-02 0.  1.
    10030    2    1    2    0    0  0.00000000000E+00  0.00000000000E+00  0.10145125613E+04  0.11777042309E+04  0.59812333037E+03 0.  0.
        1    1    3    3  502    0 -0.25178865683E+03  0.15925940318E+03  0.45603223766E+03  0.54472606604E+03  0.50400001928E-02 0. -1.
       -1    1    3    3    0  502  0.25178865683E+03 -0.15925940318E+03  0.55848032364E+03  0.63297816482E+03  0.50400001928E-02 0.  1.
</event>
<event>
 5   0  0.1483942E-01  0.6471293E+03  0.7818609E-02  0.9812181E-01
        2   -1    0    0  501    0  0.00000000000E+00  0.00000000000E+00  0.12348088760E+04  0.12348088760E+04  0.25500000920E-02 0. -1.
       -2   -1    0    0    0  501  0.00000000000E+00  0.00000000000E+00 -0.84785656821E+02  0.84785656859E+02  0.25500000920E-02 0.  1.
    10030    2    1    2    0    0  0.00000000000E+00  0.00000000000E+00  0.11500232192E+04  0.13195945329E+04  0.64712929659E+03 0.  0.
        4    1    3    3  502    0 -0.19877079720E+03 -0.14375800729E+03  0.14477352569E+03  0.28484589013E+03  0.12699999809E+01 0.  1.
       -4    1    3    3    0  502  0.19877079720E+03  0.14375800729E+03  0.10052496935E+04  0.10347486427E+04  0.12699999809E+01 0. -1.
</event>
<event>
 5   0  0.1513339E-01  0.6024606E+03  0.7818609E-02  0.9900314E-01
        2   -1    0    0  501    0  0.00000000000E+00  0.00000000000E+00  0.48298668918E+03  0.48298668919E+03  0.25500000920E-02 0. -1.
       -2   -1    0    0    0  501  0.00000000000E+00  0.00000000000E+00 -0.18787201677E+03  0.18787201678E+03  0.25500000920E-02 0.  1.
    10030    2    1    2    0    0  0.00000000000E+00  0.00000000000E+00  0.29511467242E+03  0.67085870597E+03  0.60246056593E+03 0.  0.
        3    1    3    3  502    0  0.95997781375E+02 -0.24502215343E+03  0.31078843076E+03  0.40723566715E+03  0.10100000352E+00 0. -1.
       -3    1    3    3    0  502 -0.95997781375E+02  0.24502215343E+03 -0.15673758343E+02  0.26362303883E+03  0.10100000352E+00 0.  1.
</event>
<event>
 5   0  0.6170500E-02  0.6086963E+03  0.7818609E-02  0.9887526E-01
        4   -1    0    0  501    0  0.00000000000E+00  0.00000000000E+00  0.13922433224E+04  0.13922439017E+04  0.12699999809E+01 0. -1.
       -4   -1    0    0    0  501  0.00000000000E+00  0.00000000000E+00 -0.66524682792E+02  0.66536804255E+02  0.12699999809E+01 0.  1.
    10030    2    1    2    0    0  0.00000000000E+00  0.00000000000E+00  0.13257186396E+04  0.14587807059E+04  0.60869634179E+03 0.  0.
        4    1    3    3  502    0  0.91060650102E+02 -0.23179549970E+03  0.24359730724E+03  0.34837114788E+03  0.12699999809E+01 0.  1.
       -4    1    3    3    0  502 -0.91060650102E+02  0.23179549970E+03  0.10821213324E+04  0.11104095581E+04  0.12699999809E+01 0. -1.
</event>
<event>
 5   0  0.9411028E-02  0.5895494E+03  0.7818609E-02  0.9927328E-01
       -1   -1    0    0    0  501  0.00000000000E+00  0.00000000000E+00  0.27308614659E+03  0.27308614664E+03  0.50400001928E-02 0. -1.
        1   -1    0    0  501    0  0.00000000000E+00  0.00000000000E+00 -0.31818576933E+03  0.31818576937E+03  0.50400001928E-02 0.  1.
    10030    2    1    2    0    0  0.00000000000E+00  0.00000000000E+00 -0.45099622736E+02  0.59127191601E+03  0.58954940649E+03 0.  0.
        4    1    3    3  502    0  0.15909042109E+03 -0.92367261883E+02 -0.25354652862E+03  0.31325537222E+03  0.12699999809E+01 0.  1.
       -4    1    3    3    0  502 -0.15909042109E+03  0.92367261883E+02  0.20844690588E+03  0.27801654379E+03  0.12699999809E+01 0. -1.
</event>
<event>
 5   0  0.1532571E-01  0.5794318E+03  0.7818609E-02  0.9949022E-01
        2   -1    0    0  501    0  0.00000000000E+00  0.00000000000E+00  0.14668139425E+03  0.14668139427E+03  0.25500000920E-02 0.  1.
       -2   -1    0    0    0  501  0.00000000000E+00  0.00000000000E+00 -0.57222876316E+03  0.57222876317E+03  0.25500000920E-02 0. -1.
    10030    2    1    2    0    0  0.00000000000E+00  0.00000000000E+00 -0.42554736892E+03  0.71891015744E+03  0.57943183488E+03 0.  0.
        1    1    3    3  502    0 -0.16017027960E+03 -0.23970436989E+03 -0.24835885875E+03  0.38051915346E+03  0.50400001928E-02 0. -1.
       -1    1    3    3    0  502  0.16017027960E+03  0.23970436989E+03 -0.17718851017E+03  0.33839100397E+03  0.50400001928E-02 0.  1.
</event>
<event>
 5   0  0.9497860E-02  0.6027355E+03  0.7818609E-02  0.9899747E-01
       -1   -1    0    0    0  501  0.00000000000E+00  0.00000000000E+00  0.27764397904E+03  0.27764397909E+03  0.50400001928E-02 0.  1.
        1   -1    0    0  501    0  0.00000000000E+00  0.00000000000E+00 -0.32711861286E+03  0.32711861290E+03  0.50400001928E-02 0. -1.
    10030    2    1    2    0    0  0.00000000000E+00  0.00000000000E+00 -0.49474633824E+02  0.60476259199E+03  0.60273547538E+03 0.  0.
        5    1    3    3  502    0  0.14719187292E+03  0.11378737072E+02 -0.28830977103E+03  0.32394372533E+03  0.46999998093E+01 0. -1.
       -5    1    3    3    0  502 -0.14719187292E+03 -0.11378737072E+02  0.23883513720E+03  0.28081886666E+03  0.46999998093E+01 0.  1.
</event>
<event>
 5   0  0.9411028E-02  0.5986140E+03  0.7818609E-02  0.9908286E-01
        1   -1    0    0  501    0  0.00000000000E+00  0.00000000000E+00  0.55767611826E+03  0.55767611829E+03  0.50400001928E-02 0. -1.
       -1   -1    0    0    0  501  0.00000000000E+00  0.00000000000E+00 -0.16063923853E+03  0.16063923861E+03  0.50400001928E-02 0.  1.
    10030    2    1    2    0    0  0.00000000000E+00  0.00000000000E+00  0.39703687974E+03  0.71831535689E+03  0.59861395580E+03 0.  0.
        4    1    3    3  502    0  0.57406850236E+02 -0.23771905808E+03 -0.85481016373E+01  0.24470508774E+03  0.12699999809E+01 0.  1.
       -4    1    3    3    0  502 -0.57406850236E+02  0.23771905808E+03  0.40558498137E+03  0.47361026915E+03  0.12699999809E+01 0. -1.
</event>
<event>
 5   0  0.1513339E-01  0.5995911E+03  0.7818609E-02  0.9906255E-01
        2   -1    0    0  501    0  0.00000000000E+00  0.00000000000E+00  0.18016806637E+04  0.18016806637E+04  0.25500000920E-02 0. -1.
       -2   -1    0    0    0  501  0.00000000000E+00  0.00000000000E+00 -0.49885295482E+02  0.49885295547E+02  0.25500000920E-02 0.  1.
    10030    2    1    2    0    0  0.00000000000E+00  0.00000000000E+00  0.17517953682E+04  0.18515659593E+04  0.59959110178E+03 0.  0.
        3    1    3    3  502    0  0.17374503809E+03  0.14081519385E+01  0.12145253368E+03  0.21199068209E+03  0.10100000352E+00 0.  1.
       -3    1    3    3    0  502 -0.17374503809E+03 -0.14081519385E+01  0.16303428345E+04  0.16395752772E+04  0.10100000352E+00 0. -1.
</event>
<event>
 5   0  0.9411028E-02  0.6254094E+03  0.7818609E-02  0.9854048E-01
        1   -1    0    0  501    0  0.00000000000E+00  0.00000000000E+00  0.33423905775E+03  0.33423905779E+03  0.50400001928E-02 0.  1.
       -1   -1    0    0    0  501  0.00000000000E+00  0.00000000000E+00 -0.29255778952E+03  0.29255778956E+03  0.50400001928E-02 0. -1.
    10030    2    1    2    0    0  0.00000000000E+00  0.00000000000E+00  0.41681268237E+02  0.62679684735E+03  0.62540943367E+03 0.  0.
        4    1    3    3  502    0  0.96049365646E+02  0.11542846985E+03  0.29573621775E+03  0.33167866329E+03  0.12699999809E+01 0.  1.
       -4    1    3    3    0  502 -0.96049365646E+02 -0.11542846985E+03 -0.25405494951E+03  0.29511818406E+03  0.12699999809E+01 0. -1.
</event>
<event>
 5   0  0.9177281E-02  0.5843911E+03  0.7818609E-02  0.9938329E-01
        1   -1    0    0  501    0  0.00000000000E+00  0.00000000000E+00  0.42190275028E+03  0.42190275031E+03  0.50400001928E-02 0.  1.
       -1   -1    0    0    0  501  0.00000000000E+00  0.00000000000E+00 -0.20236474917E+03  0.20236474923E+03  0.50400001928E-02 0. -1.
    10030    2    1    2    0    0  0.00000000000E+00  0.00000000000E+00  0.21953800111E+03  0.62426749954E+03  0.58439111650E+03 0.  0.
        1    1    3    3  502    0 -0.35634486914E+02 -0.62026265818E+02  0.41240449514E+03  0.41856247078E+03  0.50400001928E-02 0.  1.
       -1    1    3    3    0  502  0.35634486914E+02  0.62026265818E+02 -0.19286649403E+03  0.20570502875E+03  0.50400001928E-02 0. -1.
</event>
<event>
 5   0  0.9420349E-02  0.6649335E+03  0.7818609E-02  0.9779154E-01
       -1   -1    0    0    0  501  0.00000000000E+00  0.00000000000E+00  0.22492440100E+03  0.22492440105E+03  0.50400001928E-02 0. -1.
        1   -1    0    0  501    0  0.00000000000E+00  0.00000000000E+00 -0.49142789710E+03  0.49142789713E+03  0.50400001928E-02 0.  1.
    10030    2    1    2    0    0  0.00000000000E+00  0.00000000000E+00 -0.26650349610E+03  0.71635229818E+03  0.66493345658E+03 0.  0.
        2    1    3    3  502    0 -0.13214514156E+03  0.12302329492E+02  0.19514897241E+03  0.23600171014E+03  0.25500000920E-02 0. -1.
       -2    1    3    3    0  502  0.13214514156E+03 -0.12302329492E+02 -0.46165246851E+03  0.48035058805E+03  0.25500000920E-02 0.  1.
</event>
<event>
 5   0  0.1532571E-01  0.6223984E+03  0.7818609E-02  0.9859996E-01
        2   -1    0    0  501    0  0.00000000000E+00  0.00000000000E+00  0.54244169872E+03  0.54244169873E+03  0.25500000920E-02 0.  1.
       -2   -1    0    0    0  501  0.00000000000E+00  0.00000000000E+00 -0.17853522885E+03  0.17853522887E+03  0.25500000920E-02 0. -1.
    10030    2    1    2    0    0  0.00000000000E+00  0.00000000000E+00  0.36390646987E+03  0.72097692759E+03  0.62239843453E+03 0.  0.
        1    1    3    3  502    0  0.18355593785E+03 -0.18223993626E+03 -0.18486768761E+02  0.25931821635E+03  0.50400001928E-02 0. -1.
       -1    1    3    3    0  502 -0.18355593785E+03  0.18223993626E+03  0.38239323864E+03  0.46165871124E+03  0.50400001928E-02 0.  1.
</event>
<event>
 5   0  0.9497860E-02  0.6159204E+03  0.7818609E-02  0.9872916E-01
        1   -1    0    0  501    0  0.00000000000E+00  0.00000000000E+00  0.67440288788E+03  0.67440288789E+03  0.50400001928E-02 0.  1.
       -1   -1    0    0    0  501  0.00000000000E+00  0.00000000000E+00 -0.14062734244E+03  0.14062734253E+03  0.50400001928E-02 0. -1.
    10030    2    1    2    0    0  0.00000000000E+00  0.00000000000E+00  0.53377554544E+03  0.81503023042E+03  0.61592040362E+03 0.  0.
        5    1    3    3  502    0  0.97988766071E+01 -0.27706262732E+03  0.89561036068E+02  0.29138117067E+03  0.46999998093E+01 0.  1.
       -5    1    3    3    0  502 -0.97988766071E+01  0.27706262732E+03  0.44421450937E+03  0.52364905975E+03  0.46999998093E+01 0. -1.
</event>
<event>
 5   0  0.1513339E-01  0.6764930E+03  0.7818609E-02  0.9758299E-01
       -2   -1    0    0    0  501  0.00000000000E+00  0.00000000000E+00  0.77114486739E+03  0.77114486740E+03  0.25500000920E-02 0. -1.
        2   -1    0    0  501    0  0.00000000000E+00  0.00000000000E+00 -0.14836474437E+03  0.14836474440E+03  0.25500000920E-02 0.  1.
    10030    2    1    2    0    0  0.00000000000E+00  0.00000000000E+00  0.62278012302E+03  0.91950961179E+03  0.67649304841E+03 0.  0.
        3    1    3    3  502    0 -0.14758564591E+03  0.29735447036E+03  0.22320235706E+03  0.40002563208E+03  0.10100000352E+00 0.  1.
       -3    1    3    3    0  502  0.14758564591E+03 -0.29735447036E+03  0.39957776595E+03  0.51948397971E+03  0.10100000352E+00 0. -1.
</event>
<event>
 5   0  0.1502642E-01  0.6104422E+03  0.7818609E-02  0.9883976E-01
        2   -1    0    0  501    0  0.00000000000E+00  0.00000000000E+00  0.82573874839E+03  0.82573874839E+03  0.25500000920E-02 0. -1.
       -2   -1    0    0    0  501  0.00000000000E+00  0.00000000000E+00 -0.11282008767E+03  0.11282008770E+03  0.25500000920E-02 0.  1.
    10030    2    1    2    0    0  0.00000000000E+00  0.00000000000E+00  0.71291866071E+03  0.93855883609E+03  0.61044219383E+03 0.  0.
        2    1    3    3  502    0 -0.15065794018E+03 -0.32665634210E+01  0.76455489311E+03  0.77926418496E+03  0.25500000920E-02 0. -1.
       -2    1    3    3    0  502  0.15065794018E+03  0.32665634210E+01 -0.51636232399E+02  0.15929465113E+03  0.25500000920E-02 0.  1.
</event>
<event>
 5   0  0.1483942E-01  0.6025876E+03  0.7818609E-02  0.9900052E-01
        2   -1    0    0  501    0  0.00000000000E+00  0.00000000000E+00  0.12513898284E+04  0.12513898284E+04  0.25500000920E-02 0. -1.
       -2   -1    0    0    0  501  0.00000000000E+00  0.00000000000E+00 -0.72541702084E+02  0.72541702128E+02  0.25500000920E-02 0.  1.
    10030    2    1    2    0    0  0.00000000000E+00  0.00000000000E+00  0.11788481263E+04  0.13239315305E+04  0.60258758087E+03 0.  0.
        4    1    3    3  502    0 -0.27980186056E+03 -0.89046184223E+02  0.44109235656E+03  0.52988902991E+03  0.12699999809E+01 0.  1.
       -4    1    3    3    0  502  0.27980186056E+03  0.89046184223E+02  0.73775576975E+03  0.79404250063E+03  0.12699999809E+01 0. -1.
</event>
<event>
 5   0  0.1513339E-01  0.6017052E+03  0.7818609E-02  0.9901875E-01
       -2   -1    0    0    0  501  0.00000000000E+00  0.00000000000E+00  0.17933965997E+03  0.17933965998E+03  0.25500000920E-02 0.  1.
        2   -1    0    0  501    0  0.00000000000E+00  0.00000000000E+00 -0.50469756554E+03  0.50469756554E+03  0.25500000920E-02 0. -1.
    10030    2    1    2    0    0  0.00000000000E+00  0.00000000000E+00 -0.32535790557E+03  0.68403722553E+03  0.60170520954E+03 0.  0.
        3    1    3    3  502    0 -0.12750400625E+03 -0.12732297273E+03 -0.43656766898E+03  0.47229201856E+03  0.10100000352E+00 0. -1.
       -3    1    3    3    0  502  0.12750400625E+03  0.12732297273E+03  0.11120976342E+03  0.21174520697E+03  0.10100000352E+00 0.  1.
</event>
<event>
 5   0  0.9177281E-02  0.6114502E+03  0.7818609E-02  0.9881931E-01
       -1   -1    0    0    0  501  0.00000000000E+00  0.00000000000E+00  0.10353754991E+03  0.10353755004E+03  0.50400001928E-02 0. -1.
        1   -1    0    0  501    0  0.00000000000E+00  0.00000000000E+00 -0.90274337575E+03  0.90274337576E+03  0.50400001928E-02 0.  1.
    10030    2    1    2    0    0  0.00000000000E+00  0.00000000000E+00 -0.79920582583E+03  0.10062809258E+04  0.61145020205E+03 0.  0.
        1    1    3    3  502    0 -0.26366960741E+03  0.98862073516E+02 -0.59552385411E+03  0.65874428445E+03  0.50400001928E-02 0. -1.
       -1    1    3    3    0  502  0.26366960741E+03 -0.98862073516E+02 -0.20368197172E+03  0.34753664135E+03  0.50400001928E-02 0.  1.
</event>
<event>
 5   0  0.9497860E-02  0.5713472E+03  0.7818609E-02  0.9966702E-01
       -1   -1    0    0    0  501  0.00000000000E+00  0.00000000000E+00  0.85426962081E+02  0.85426962229E+02  0.50400001928E-02 0.  1.
        1   -1    0    0  501    0  0.00000000000E+00  0.00000000000E+00 -0.95531206515E+03  0.95531206517E+03  0.50400001928E-02 0. -1.
    10030    2    1    2    0    0  0.00000000000E+00  0.00000000000E+00 -0.86988510307E+03  0.10407390274E+04  0.57134720669E+03 0.  0.
        5    1    3    3  502    0  0.66374135348E+01 -0.23282114592E+03 -0.73611950594E+03  0.77210346344E+03  0.46999998093E+01 0. -1.
       -5    1    3    3    0  502 -0.66374135348E+01  0.23282114592E+03 -0.13376559714E+03  0.26863556395E+03  0.46999998093E+01 0.  1.
</event>
<event>
 5   0  0.9497860E-02  0.6119965E+03  0.7818609E-02  0.9880825E-01
       -1   -1    0    0    0  501  0.00000000000E+00  0.00000000000E+00  0.20188112763E+03  0.20188112770E+03  0.50400001928E-02 0.  1.
        1   -1    0    0  501    0  0.00000000000E+00  0.00000000000E+00 -0.46381221291E+03  0.46381221294E+03  0.50400001928E-02 0. -1.
    10030    2    1    2    0    0  0.00000000000E+00  0.00000000000E+00 -0.26193108528E+03  0.66569334064E+03  0.61199651170E+03 0.  0.
        5    1    3    3  502    0 -0.60275596670E+02  0.18720325289E+02  0.19468374572E+03  0.20471308941E+03  0.46999998093E+01 0.  1.
       -5    1    3    3    0  502  0.60275596670E+02 -0.18720325289E+02 -0.45661483100E+03  0.46098025122E+03  0.46999998093E+01 0. -1.
</event>
<event>
 5   0  0.6170500E-02  0.5134728E+03  0.7818609E-02  0.1010321E+00
       -3   -1    0    0    0  501  0.00000000000E+00  0.00000000000E+00  0.16437051940E+03  0.16437055043E+03  0.10100000352E+00 0.  1.
        3   -1    0    0  501    0  0.00000000000E+00  0.00000000000E+00 -0.40100605048E+03  0.40100606320E+03  0.10100000352E+00 0. -1.
    10030    2    1    2    0    0  0.00000000000E+00  0.00000000000E+00 -0.23663553108E+03  0.56537661362E+03  0.51347282368E+03 0.  0.
        5    1    3    3  502    0 -0.11480452222E+03 -0.14640489618E+03 -0.31304786409E+03  0.36419160776E+03  0.46999998093E+01 0. -1.
       -5    1    3    3    0  502  0.11480452222E+03  0.14640489618E+03  0.76412333012E+02  0.20118500586E+03  0.46999998093E+01 0.  1.
</event>
<event>
 5   0  0.1483942E-01  0.6152440E+03  0.7818609E-02  0.9874275E-01
        2   -1    0    0  501    0  0.00000000000E+00  0.00000000000E+00  0.23530495517E+03  0.23530495518E+03  0.25500000920E-02 0. -1.
       -2   -1    0    0    0  501  0.00000000000E+00  0.00000000000E+00 -0.40216450179E+03  0.40216450179E+03  0.25500000920E-02 0.  1.
    10030    2    1    2    0    0  0.00000000000E+00  0.00000000000E+00 -0.16685954662E+03  0.63746945698E+03  0.61524401686E+03 0.  0.
        4    1    3    3  502    0 -0.36521049445E+02 -0.36518475628E+02  0.23077797980E+03  0.23648990459E+03  0.12699999809E+01 0. -1.
       -4    1    3    3    0  502  0.36521049445E+02  0.36518475628E+02 -0.39763752642E+03  0.40097955238E+03  0.12699999809E+01 0.  1.
</event>
<event>
 5   0  0.1502642E-01  0.5802620E+03  0.7818609E-02  0.9947224E-01
        2   -1    0    0  501    0  0.00000000000E+00  0.00000000000E+00  0.66864227395E+03  0.66864227395E+03  0.25500000920E-02 0.  1.
       -2   -1    0    0    0  501  0.00000000000E+00  0.00000000000E+00 -0.12589091203E+03  0.12589091206E+03  0.25500000920E-02 0. -1.
    10030    2    1    2    0    0  0.00000000000E+00  0.00000000000E+00  0.54275136192E+03  0.79453318601E+03  0.58026196050E+03 0.  0.
        2    1    3    3  502    0 -0.20262939095E+03 -0.95035073365E+02  0.52417373902E+03  0.56995477358E+03  0.25500000920E-02 0.  1.
       -2    1    3    3    0  502  0.20262939095E+03  0.95035073365E+02  0.18577622898E+02  0.22457841242E+03  0.25500000920E-02 0. -1.
</event>
<event>
 5   0  0.6170500E-02  0.5937566E+03  0.7818609E-02  0.9918445E-01
        4   -1    0    0  501    0  0.00000000000E+00  0.00000000000E+00  0.38985421413E+03  0.38985628271E+03  0.12699999809E+01 0.  1.
       -4   -1    0    0    0  501  0.00000000000E+00  0.00000000000E+00 -0.22607163183E+03  0.22607519903E+03  0.12699999809E+01 0. -1.
    10030    2    1    2    0    0  0.00000000000E+00  0.00000000000E+00  0.16378258230E+03  0.61593148174E+03  0.59375656286E+03 0.  0.
        3    1    3    3  502    0  0.14999683953E+03  0.13451213680E+03 -0.14429822091E+03  0.24781959885E+03  0.10100000352E+00 0. -1.
       -3    1    3    3    0  502 -0.14999683953E+03 -0.13451213680E+03  0.30808080321E+03  0.36811188289E+03  0.10100000352E+00 0.  1.
</event>
<event>
 5   0  0.6170500E-02  0.6083254E+03  0.7818609E-02  0.9888283E-01
        3   -1    0    0  501    0  0.00000000000E+00  0.00000000000E+00  0.11746835485E+03  0.11746839827E+03  0.10100000352E+00 0.  1.
       -3   -1    0    0    0  501  0.00000000000E+00  0.00000000000E+00 -0.78757306829E+03  0.78757307477E+03  0.10100000352E+00 0. -1.
    10030    2    1    2    0    0  0.00000000000E+00  0.00000000000E+00 -0.67010471344E+03  0.90504147304E+03  0.60832535780E+03 0.  0.
        3    1    3    3  502    0  0.17016282467E+03 -0.52880830627E+02  0.31682949071E+02  0.18098505079E+03  0.10100000352E+00 0.  1.
       -3    1    3    3    0  502 -0.17016282467E+03  0.52880830627E+02 -0.70178766251E+03  0.72405642225E+03  0.10100000352E+00 0. -1.
</event>
<event>
 5   0  0.1488510E-01  0.5916088E+03  0.7818609E-02  0.9922970E-01
       -2   -1    0    0    0  501  0.00000000000E+00  0.00000000000E+00  0.17650432308E+03  0.17650432310E+03  0.25500000920E-02 0. -1.
        2   -1    0    0  501    0  0.00000000000E+00  0.00000000000E+00 -0.49574000924E+03  0.49574000924E+03  0.25500000920E-02 0.  1.
    10030    2    1    2    0    0  0.00000000000E+00  0.00000000000E+00 -0.31923568615E+03  0.67224433235E+03  0.59160883957E+03 0.  0.
        5    1    3    3  502    0  0.23948152503E+02  0.29091373723E+03 -0.21380211397E+03  0.36185321672E+03  0.46999998093E+01 0. -1.
       -5    1    3    3    0  502 -0.23948152503E+02 -0.29091373723E+03 -0.10543357218E+03  0.31039111562E+03  0.46999998093E+01 0.  1.
</event>
<event>
 5   0  0.1532571E-01  0.4814598E+03  0.7818609E-02  0.1018735E+00
        2   -1    0    0  501    0  0.00000000000E+00  0.00000000000E+00  0.97589389737E+03  0.97589389737E+03  0.25500000920E-02 0. -1.
       -2   -1    0    0    0  501  0.00000000000E+00  0.00000000000E+00 -0.59382374312E+02  0.59382374367E+02  0.25500000920E-02 0.  1.
    10030    2    1    2    0    0  0.00000000000E+00  0.00000000000E+00  0.91651152305E+03  0.10352762717E+04  0.48145984976E+03 0.  0.
        1    1    3    3  502    0  0.17200696282E+03 -0.16630418249E+03  0.40106380501E+03  0.46700712210E+03  0.50400001928E-02 0.  1.
       -1    1    3    3    0  502 -0.17200696282E+03  0.16630418249E+03  0.51544771804E+03  0.56826914964E+03  0.50400001928E-02 0. -1.
</event>
<event>
 5   0  0.9411028E-02  0.6185796E+03  0.7818609E-02  0.9867592E-01
       -1   -1    0    0    0  501  0.00000000000E+00  0.00000000000E+00  0.68737095704E+02  0.68737095889E+02  0.50400001928E-02 0. -1.
        1   -1    0    0  501    0  0.00000000000E+00  0.00000000000E+00 -0.13916818609E+04  0.13916818609E+04  0.50400001928E-02 0.  1.
    10030    2    1    2    0    0  0.00000000000E+00  0.00000000000E+00 -0.13229447652E+04  0.14604189568E+04  0.61857956451E+03 0.  0.
        4    1    3    3  502    0  0.57140600798E+02 -0.90818194776E+02  0.23380842595E+02  0.10982381100E+03  0.12699999809E+01 0. -1.
       -4    1    3    3    0  502 -0.57140600798E+02  0.90818194776E+02 -0.13463256078E+04  0.13505951458E+04  0.12699999809E+01 0.  1.
</event>
<event>
 5   0  0.9497860E-02  0.6117718E+03  0.7818609E-02  0.9881280E-01
       -1   -1    0    0    0  501  0.00000000000E+00  0.00000000000E+00  0.16092174700E+04  0.16092174700E+04  0.50400001928E-02 0. -1.
        1   -1    0    0  501    0  0.00000000000E+00  0.00000000000E+00 -0.58143908290E+02  0.58143908508E+02  0.50400001928E-02 0.  1.
    10030    2    1    2    0    0  0.00000000000E+00  0.00000000000E+00  0.15510735617E+04  0.16673613785E+04  0.61177183060E+03 0.  0.
        5    1    3    3  502    0  0.15672014943E+03  0.22716577622E+03  0.41624460802E+03  0.49944685286E+03  0.46999998093E+01 0.  1.
       -5    1    3    3    0  502 -0.15672014943E+03 -0.22716577622E+03  0.11348289536E+04  0.11679145256E+04  0.46999998093E+01 0. -1.
</event>
<event>
 5   0  0.9411028E-02  0.5841518E+03  0.7818609E-02  0.9938843E-01
       -1   -1    0    0    0  501  0.00000000000E+00  0.00000000000E+00  0.64532062664E+02  0.64532062861E+02  0.50400001928E-02 0. -1.
        1   -1    0    0  501    0  0.00000000000E+00  0.00000000000E+00 -0.13219527608E+04  0.13219527608E+04  0.50400001928E-02 0.  1.
    10030    2    1    2    0    0  0.00000000000E+00  0.00000000000E+00 -0.12574206981E+04  0.13864848237E+04  0.58415182459E+03 0.  0.
        4    1    3    3  502    0  0.24985345907E+03 -0.23066726330E+02 -0.27389062828E+03  0.37145190003E+03  0.12699999809E+01 0. -1.
       -4    1    3    3    0  502 -0.24985345907E+03  0.23066726330E+02 -0.98353006984E+03  0.10150329236E+04  0.12699999809E+01 0.  1.
</event>
<event>
 5   0  0.8860626E-02  0.5868071E+03  0.7818609E-02  0.9933162E-01
       -1   -1    0    0    0  501  0.00000000000E+00  0.00000000000E+00  0.82468954545E+02  0.82468954699E+02  0.50400001928E-02 0.  1.
        1   -1    0    0  501    0  0.00000000000E+00  0.00000000000E+00 -0.10438551634E+04  0.10438551634E+04  0.50400001928E-02 0. -1.
    10030    2    1    2    0    0  0.00000000000E+00  0.00000000000E+00 -0.96138620881E+03  0.11263241181E+04  0.58680710327E+03 0.  0.
        3    1    3    3  502    0  0.24127206087E+03 -0.20425457599E+02 -0.79873801604E+03  0.83463275466E+03  0.10100000352E+00 0. -1.
       -3    1    3    3    0  502 -0.24127206087E+03  0.20425457599E+02 -0.16264819277E+03  0.29169136341E+03  0.10100000352E+00 0.  1.
</event>
<event>
 5   0  0.6170500E-02  0.5974759E+03  0.7818609E-02  0.9910657E-01
       -3   -1    0    0    0  501  0.00000000000E+00  0.00000000000E+00  0.64959111034E+03  0.64959111819E+03  0.10100000352E+00 0.  1.
        3   -1    0    0  501    0  0.00000000000E+00  0.00000000000E+00 -0.13738542621E+03  0.13738546333E+03  0.10100000352E+00 0. -1.
    10030    2    1    2    0    0  0.00000000000E+00  0.00000000000E+00  0.51220568414E+03  0.78697658152E+03  0.59747592170E+03 0.  0.
        5    1    3    3  502    0  0.16544482647E+03  0.24693098176E+03  0.21713203169E+03  0.36812404097E+03  0.46999998093E+01 0.  1.
       -5    1    3    3    0  502 -0.16544482647E+03 -0.24693098176E+03  0.29507365245E+03  0.41885254055E+03  0.46999998093E+01 0. -1.
</event>
<event>
 5   0  0.1532571E-01  0.5913090E+03  0.7818609E-02  0.9923603E-01
       -2   -1    0    0    0  501  0.00000000000E+00  0.00000000000E+00  0.16573948133E+03  0.16573948135E+03  0.25500000920E-02 0. -1.
        2   -1    0    0  501    0  0.00000000000E+00  0.00000000000E+00 -0.52740355658E+03  0.52740355659E+03  0.25500000920E-02 0.  1.
    10030    2    1    2    0    0  0.00000000000E+00  0.00000000000E+00 -0.36166407525E+03  0.69314303794E+03  0.59130902895E+03 0.  0.
        1    1    3    3  502    0 -0.30875741000E+02  0.12653936855E+03 -0.49195834607E+03  0.50890916426E+03  0.50400001928E-02 0.  1.
       -1    1    3    3    0  502  0.30875741000E+02 -0.12653936855E+03  0.13029427082E+03  0.18423387368E+03  0.50400001928E-02 0. -1.
</event>
<event>
 5   0  0.1532571E-01  0.6158675E+03  0.7818609E-02  0.9873022E-01
        2   -1    0    0  501    0  0.00000000000E+00  0.00000000000E+00  0.41341959126E+03  0.41341959127E+03  0.25500000920E-02 0. -1.
       -2   -1    0    0    0  501  0.00000000000E+00  0.00000000000E+00 -0.22936306698E+03  0.22936306699E+03  0.25500000920E-02 0.  1.
    10030    2    1    2    0    0  0.00000000000E+00  0.00000000000E+00  0.18405652428E+03  0.64278265827E+03  0.61586747084E+03 0.  0.
        1    1    3    3  502    0  0.13093115990E+03  0.26448130102E+03  0.18379021506E+03  0.34766675193E+03  0.50400001928E-02 0.  1.
       -1    1    3    3    0  502 -0.13093115990E+03 -0.26448130102E+03  0.26630922541E+00  0.29511590633E+03  0.50400001928E-02 0. -1.
</event>
<event>
 5   0  0.9497860E-02  0.5741525E+03  0.7818609E-02  0.9960532E-01
        1   -1    0    0  501    0  0.00000000000E+00  0.00000000000E+00  0.86605631773E+03  0.86605631775E+03  0.50400001928E-02 0.  1.
       -1   -1    0    0    0  501  0.00000000000E+00  0.00000000000E+00 -0.95158687119E+02  0.95158687253E+02  0.50400001928E-02 0. -1.
    10030    2    1    2    0    0  0.00000000000E+00  0.00000000000E+00  0.77089763061E+03  0.96121500500E+03  0.57415253108E+03 0.  0.
        5    1    3    3  502    0 -0.11715323362E+03 -0.11058636718E+01 -0.53243140534E+02  0.12877509501E+03  0.46999998093E+01 0. -1.
       -5    1    3    3    0  502  0.11715323362E+03  0.11058636718E+01  0.82414077115E+03  0.83243990999E+03  0.46999998093E+01 0.  1.
</event>
<event>
 5   0  0.1483942E-01  0.5935244E+03  0.7818609E-02  0.9918933E-01
       -2   -1    0    0    0  501  0.00000000000E+00  0.00000000000E+00  0.69607719667E+02  0.69607719714E+02  0.25500000920E-02 0.  1.
        2   -1    0    0  501    0  0.00000000000E+00  0.00000000000E+00 -0.12652016047E+04  0.12652016047E+04  0.25500000920E-02 0. -1.
    10030    2    1    2    0    0  0.00000000000E+00  0.00000000000E+00 -0.11955938851E+04  0.13348093244E+04  0.59352438419E+03 0.  0.
        4    1    3    3  502    0  0.46238762088E+02  0.29105764519E+03 -0.51945033320E+03  0.59722930061E+03  0.12699999809E+01 0. -1.
       -4    1    3    3    0  502 -0.46238762088E+02 -0.29105764519E+03 -0.67614355186E+03  0.73758002383E+03  0.12699999809E+01 0.  1.
</event>
<event>
 5   0  0.9420349E-02  0.6606867E+03  0.7818609E-02  0.9786930E-01
       -1   -1    0    0    0  501  0.00000000000E+00  0.00000000000E+00  0.15194750734E+03  0.15194750742E+03  0.50400001928E-02 0.  1.
        1   -1    0    0  501    0  0.00000000000E+00  0.00000000000E+00 -0.71818711707E+03  0.71818711709E+03  0.50400001928E-02 0. -1.
    10030    2    1    2    0    0  0.00000000000E+00  0.00000000000E+00 -0.56623960974E+03  0.87013462451E+03  0.66068674055E+03 0.  0.
        2    1    3    3  502    0 -0.15642983853E+03 -0.11135782594E+03  0.70899923383E+02  0.20468917637E+03  0.25500000920E-02 0.  1.
       -2    1    3    3    0  502  0.15642983853E+03  0.11135782594E+03 -0.63713953312E+03  0.66544544814E+03  0.25500000920E-02 0. -1.
</event>
<event>
 5   0  0.1488510E-01  0.5758834E+03  0.7818609E-02  0.9956743E-01
        2   -1    0    0  501    0  0.00000000000E+00  0.00000000000E+00  0.54875365620E+03  0.54875365620E+03  0.25500000920E-02 0. -1.
       -2   -1    0    0    0  501  0.00000000000E+00  0.00000000000E+00 -0.15108860335E+03  0.15108860337E+03  0.25500000920E-02 0.  1.
    10030    2    1    2    0    0  0.00000000000E+00  0.00000000000E+00  0.39766505285E+03  0.69984225957E+03  0.57588340315E+03 0.  0.
        5    1    3    3  502    0  0.25611219476E+03  0.63484494944E+02  0.33879532461E+03  0.42945092779E+03  0.46999998093E+01 0. -1.
       -5    1    3    3    0  502 -0.25611219476E+03 -0.63484494944E+02  0.58869728236E+02  0.27039133178E+03  0.46999998093E+01 0.  1.
</event>
<event>
 5   0  0.1488510E-01  0.5795704E+03  0.7818609E-02  0.9948722E-01
       -2   -1    0    0    0  501  0.00000000000E+00  0.00000000000E+00  0.11625059770E+03  0.11625059773E+03  0.25500000920E-02 0.  1.
        2   -1    0    0  501    0  0.00000000000E+00  0.00000000000E+00 -0.72236583992E+03  0.72236583992E+03  0.25500000920E-02 0. -1.
    10030    2    1    2    0    0  0.00000000000E+00  0.00000000000E+00 -0.60611524222E+03  0.83861643765E+03  0.57957039490E+03 0.  0.
        5    1    3    3  502    0 -0.59677576414E+02  0.19609251653E+03 -0.67316292413E+01  0.20513676657E+03  0.46999998093E+01 0.  1.
       -5    1    3    3    0  502  0.59677576414E+02 -0.19609251653E+03 -0.59938361298E+03  0.63347967108E+03  0.46999998093E+01 0. -1.
</event>
<event>
 5   0  0.1513339E-01  0.6024525E+03  0.7818609E-02  0.9900331E-01
        2   -1    0    0  501    0  0.00000000000E+00  0.00000000000E+00  0.11623163860E+04  0.11623163860E+04  0.25500000920E-02 0. -1.
       -2   -1    0    0    0  501  0.00000000000E+00  0.00000000000E+00 -0.78065890693E+02  0.78065890735E+02  0.25500000920E-02 0.  1.
    10030    2    1    2    0    0  0.00000000000E+00  0.00000000000E+00  0.10842504953E+04  0.12403822768E+04  0.60245253413E+03 0.  0.
        3    1    3    3  502    0 -0.15141190536E+03  0.34567481430E+02  0.10735288917E+04  0.10847049218E+04  0.10100000352E+00 0. -1.
       -3    1    3    3    0  502  0.15141190536E+03 -0.34567481430E+02  0.10721603608E+02  0.15567735494E+03  0.10100000352E+00 0.  1.
</event>
<event>
 5   0  0.1488510E-01  0.6050080E+03  0.7818609E-02  0.9895070E-01
        2   -1    0    0  501    0  0.00000000000E+00  0.00000000000E+00  0.12997444245E+04  0.12997444245E+04  0.25500000920E-02 0. -1.
       -2   -1    0    0    0  501  0.00000000000E+00  0.00000000000E+00 -0.70405137067E+02  0.70405137113E+02  0.25500000920E-02 0.  1.
    10030    2    1    2    0    0  0.00000000000E+00  0.00000000000E+00  0.12293392874E+04  0.13701495616E+04  0.60500804752E+03 0.  0.
        5    1    3    3  502    0  0.11103059850E+03  0.14095522854E+03  0.63228580070E+02  0.19030531677E+03  0.46999998093E+01 0.  1.
       -5    1    3    3    0  502 -0.11103059850E+03 -0.14095522854E+03  0.11661107073E+04  0.11798442448E+04  0.46999998093E+01 0. -1.
</event>
<event>
 5   0  0.1502642E-01  0.6048036E+03  0.7818609E-02  0.9895490E-01
       -2   -1    0    0    0  501  0.00000000000E+00  0.00000000000E+00  0.13581710475E+03  0.13581710478E+03  0.25500000920E-02 0.  1.
        2   -1    0    0  501    0  0.00000000000E+00  0.00000000000E+00 -0.67330885823E+03  0.67330885823E+03  0.25500000920E-02 0. -1.
    10030    2    1    2    0    0  0.00000000000E+00  0.00000000000E+00 -0.53749175348E+03  0.80912596301E+03  0.60480363670E+03 0.  0.
        2    1    3    3  502    0  0.18160134412E+03 -0.15896207647E+03 -0.51250641069E+03  0.56648990366E+03  0.25500000920E-02 0. -1.
       -2    1    3    3    0  502 -0.18160134412E+03  0.15896207647E+03 -0.24985342787E+02  0.24263605936E+03  0.25500000920E-02 0.  1.
</event>
<event>
 5   0  0.1488510E-01  0.6005652E+03  0.7818609E-02  0.9904234E-01
        2   -1    0    0  501    0  0.00000000000E+00  0.00000000000E+00  0.35571668592E+03  0.35571668593E+03  0.25500000920E-02 0. -1.
       -2   -1    0    0    0  501  0.00000000000E+00  0.00000000000E+00 -0.25348724802E+03  0.25348724803E+03  0.25500000920E-02 0.  1.
    10030    2    1    2    0    0  0.00000000000E+00  0.00000000000E+00  0.10222943791E+03  0.60920393396E+03  0.60056521309E+03 0.  0.
        5    1    3    3  502    0  0.25701359969E+03 -0.83387805761E+02 -0.81680692015E+02  0.28231780323E+03  0.46999998093E+01 0.  1.
       -5    1    3    3    0  502 -0.25701359969E+03  0.83387805761E+02  0.18391012992E+03  0.32688613073E+03  0.46999998093E+01 0. -1.
</event>
<event>
 5   0  0.1502642E-01  0.6160535E+03  0.7818609E-02  0.9872649E-01
        2   -1    0    0  501    0  0.00000000000E+00  0.00000000000E+00  0.19459509956E+03  0.19459509957E+03  0.25500000920E-02 0.  1.
       -2   -1    0    0    0  501  0.00000000000E+00  0.00000000000E+00 -0.48757902397E+03  0.48757902398E+03  0.25500000920E-02 0. -1.
    10030    2    1    2    0    0  0.00000000000E+00  0.00000000000E+00 -0.29298392441E+03  0.68217412355E+03  0.61605353248E+03 0.  0.
        2    1    3    3  502    0  0.23994837131E+03 -0.15514870113E+03 -0.19105056411E+02  0.28637622727E+03  0.25500000920E-02 0.  1.
       -2    1    3    3    0  502 -0.23994837131E+03  0.15514870113E+03 -0.27387886800E+03  0.39579789628E+03  0.25500000920E-02 0. -1.
</event>
<event>
 5   0  0.1483942E-01  0.5824576E+03  0.7818609E-02  0.9942484E-01
       -2   -1    0    0    0  501  0.00000000000E+00  0.00000000000E+00  0.74656754243E+02  0.74656754287E+02  0.25500000920E-02 0. -1.
        2   -1    0    0  501    0  0.00000000000E+00  0.00000000000E+00 -0.11360555590E+04  0.11360555590E+04  0.25500000920E-02 0.  1.
    10030    2    1    2    0    0  0.00000000000E+00  0.00000000000E+00 -0.10613988048E+04  0.12107123133E+04  0.58245762319E+03 0.  0.
        4    1    3    3  502    0 -0.18583871893E+03  0.49052295078E+02 -0.75909950007E+02  0.20665451971E+03  0.12699999809E+01 0. -1.
       -4    1    3    3    0  502  0.18583871893E+03 -0.49052295078E+02 -0.98548885475E+03  0.10040577936E+04  0.12699999809E+01 0.  1.
</event>
<event>
 5   0  0.1532571E-01  0.6166361E+03  0.7818609E-02  0.9871480E-01
       -2   -1    0    0    0  501  0.00000000000E+00  0.00000000000E+00  0.86200440027E+02  0.86200440065E+02  0.25500000920E-02 0.  1.
        2   -1    0    0  501    0  0.00000000000E+00  0.00000000000E+00 -0.11027788508E+04  0.11027788508E+04  0.25500000920E-02 0. -1.
    10030    2    1    2    0    0  0.00000000000E+00  0.00000000000E+00 -0.10165784108E+04  0.11889792909E+04  0.61663610733E+03 0.  0.
        1    1    3    3  502    0 -0.25201615434E+03  0.69770506285E+01 -0.16607730569E+03  0.30189814967E+03  0.50400001928E-02 0.  1.
       -1    1    3    3    0  502  0.25201615434E+03 -0.69770506285E+01 -0.85050110509E+03  0.88708114120E+03  0.50400001928E-02 0. -1.
</event>
<event>
 5   0  0.9177281E-02  0.5921128E+03  0.7818609E-02  0.9921906E-01
        1   -1    0    0  501    0  0.00000000000E+00  0.00000000000E+00  0.96143162321E+03  0.96143162323E+03  0.50400001928E-02 0. -1.
       -1   -1    0    0    0  501  0.00000000000E+00  0.00000000000E+00 -0.91165502631E+02  0.91165502771E+02  0.50400001928E-02 0.  1.
    10030    2    1    2    0    0  0.00000000000E+00  0.00000000000E+00  0.87026612058E+03  0.10525971260E+04  0.59211281782E+03 0.  0.
        1    1    3    3  502    0  0.23810027678E+02 -0.29077906820E+03  0.52454985956E+03  0.60022657315E+03  0.50400001928E-02 0.  1.
       -1    1    3    3    0  502 -0.23810027678E+02  0.29077906820E+03  0.34571626102E+03  0.45237055285E+03  0.50400001928E-02 0. -1.
</event>
<event>
 5   0  0.8860626E-02  0.5691409E+03  0.7818609E-02  0.9971581E-01
        1   -1    0    0  501    0  0.00000000000E+00  0.00000000000E+00  0.26509848581E+03  0.26509848586E+03  0.50400001928E-02 0.  1.
       -1   -1    0    0    0  501  0.00000000000E+00  0.00000000000E+00 -0.30547271592E+03  0.30547271596E+03  0.50400001928E-02 0. -1.
    10030    2    1    2    0    0  0.00000000000E+00  0.00000000000E+00 -0.40374230112E+02  0.57057120182E+03  0.56914094730E+03 0.  0.
        3    1    3    3  502    0  0.25913925447E+03  0.61689627743E+02 -0.12054653297E+03  0.29238714095E+03  0.10100000352E+00 0.  1.
       -3    1    3    3    0  502 -0.25913925447E+03 -0.61689627743E+02  0.80172302862E+02  0.27818406088E+03  0.10100000352E+00 0. -1.
</event>
<event>
 5   0  0.6170500E-02  0.6076988E+03  0.7818609E-02  0.9889561E-01
        4   -1    0    0  501    0  0.00000000000E+00  0.00000000000E+00  0.30557393453E+03  0.30557657365E+03  0.12699999809E+01 0.  1.
       -4   -1    0    0    0  501  0.00000000000E+00  0.00000000000E+00 -0.30212930995E+03  0.30213197916E+03  0.12699999809E+01 0. -1.
    10030    2    1    2    0    0  0.00000000000E+00  0.00000000000E+00  0.34446245829E+01  0.60770855281E+03  0.60769879029E+03 0.  0.
        5    1    3    3  502    0  0.29067308355E+03 -0.46781011176E+02  0.76710585329E+02  0.30427932629E+03  0.46999998093E+01 0.  1.
       -5    1    3    3    0  502 -0.29067308355E+03  0.46781011176E+02 -0.73265960746E+02  0.30342922652E+03  0.46999998093E+01 0. -1.
</event>
<event>
 5   0  0.9497860E-02  0.4938280E+03  0.7818609E-02  0.1015403E+00
       -1   -1    0    0    0  501  0.00000000000E+00  0.00000000000E+00  0.12128468617E+03  0.12128468628E+03  0.50400001928E-02 0. -1.
        1   -1    0    0  501    0  0.00000000000E+00  0.00000000000E+00 -0.50267294780E+03  0.50267294782E+03  0.50400001928E-02 0.  1.
    10030    2    1    2    0    0  0.00000000000E+00  0.00000000000E+00 -0.38138826162E+03  0.62395763410E+03  0.49382802983E+03 0.  0.
        5    1    3    3  502    0 -0.14793949140E+02  0.14150307719E+03 -0.44560578387E+03  0.46779117820E+03  0.46999998093E+01 0.  1.
       -5    1    3    3    0  502  0.14793949140E+02 -0.14150307719E+03  0.64217522252E+02  0.15616645590E+03  0.46999998093E+01 0. -1.
</event>
<event>
 5   0  0.1532571E-01  0.5952029E+03  0.7818609E-02  0.9915409E-01
       -2   -1    0    0    0  501  0.00000000000E+00  0.00000000000E+00  0.19748729011E+03  0.19748729013E+03  0.25500000920E-02 0. -1.
        2   -1    0    0  501    0  0.00000000000E+00  0.00000000000E+00 -0.44846742511E+03  0.44846742512E+03  0.25500000920E-02 0.  1.
    10030    2    1    2    0    0  0.00000000000E+00  0.00000000000E+00 -0.25098013500E+03  0.64595471525E+03  0.59520287801E+03 0.  0.
        1    1    3    3  502    0 -0.24726363759E+03  0.70065669781E+02  0.37365659991E+02  0.25970116890E+03  0.50400001928E-02 0. -1.
       -1    1    3    3    0  502  0.24726363759E+03 -0.70065669781E+02 -0.28834579499E+03  0.38625354635E+03  0.50400001928E-02 0.  1.
</event>
<event>
 5   0  0.1483942E-01  0.5262497E+03  0.7818609E-02  0.1007146E+00
       -2   -1    0    0    0  501  0.00000000000E+00  0.00000000000E+00  0.12517749812E+04  0.12517749812E+04  0.25500000920E-02 0. -1.
        2   -1    0    0  501    0  0.00000000000E+00  0.00000000000E+00 -0.55309202615E+02  0.55309202674E+02  0.25500000920E-02 0.  1.
    10030    2    1    2    0    0  0.00000000000E+00  0.00000000000E+00  0.11964657786E+04  0.13070841839E+04  0.52624965978E+03 0.  0.
        4    1    3    3  502    0  0.23954991955E+03 -0.10738153915E+03  0.64253215229E+03  0.69409231269E+03  0.12699999809E+01 0. -1.
       -4    1    3    3    0  502 -0.23954991955E+03  0.10738153915E+03  0.55393362633E+03  0.61299187122E+03  0.12699999809E+01 0.  1.
</event>
<event>
 5   0  0.9411028E-02  0.5794440E+03  0.7818609E-02  0.9948996E-01
        1   -1    0    0  501    0  0.00000000000E+00  0.00000000000E+00  0.42563287729E+03  0.42563287732E+03  0.50400001928E-02 0.  1.
       -1   -1    0    0    0  501  0.00000000000E+00  0.00000000000E+00 -0.19720945482E+03  0.19720945488E+03  0.50400001928E-02 0. -1.
    10030    2    1    2    0    0  0.00000000000E+00  0.00000000000E+00  0.22842342248E+03  0.62284233221E+03  0.57944396697E+03 0.  0.
        4    1    3    3  502    0 -0.53212492644E+02  0.58047853628E+02 -0.18548227546E+03  0.20151032255E+03  0.12699999809E+01 0. -1.
       -4    1    3    3    0  502  0.53212492644E+02 -0.58047853628E+02  0.41390569793E+03  0.42133200966E+03  0.12699999809E+01 0.  1.
</event>
<event>
 5   0  0.9420349E-02  0.5885404E+03  0.7818609E-02  0.9929470E-01
       -1   -1    0    0    0  501  0.00000000000E+00  0.00000000000E+00  0.12477264644E+04  0.12477264644E+04  0.50400001928E-02 0.  1.
        1   -1    0    0  501    0  0.00000000000E+00  0.00000000000E+00 -0.69402199920E+02  0.69402200103E+02  0.50400001928E-02 0. -1.
    10030    2    1    2    0    0  0.00000000000E+00  0.00000000000E+00  0.11783242644E+04  0.13171286645E+04  0.58854043753E+03 0.  0.
        2    1    3    3  502    0  0.74105615384E+02  0.28173564272E+03  0.68220163222E+03  0.74179894960E+03  0.25500000920E-02 0.  1.
       -2    1    3    3    0  502 -0.74105615384E+02 -0.28173564272E+03  0.49612263221E+03  0.57532971487E+03  0.25500000920E-02 0. -1.
</event>
<event>
 5   0  0.9420349E-02  0.6058314E+03  0.7818609E-02  0.9893381E-01
       -1   -1    0    0    0  501  0.00000000000E+00  0.00000000000E+00  0.34010402228E+03  0.34010402232E+03  0.50400001928E-02 0.  1.
        1   -1    0    0  501    0  0.00000000000E+00  0.00000000000E+00 -0.26979368143E+03  0.26979368148E+03  0.50400001928E-02 0. -1.
    10030    2    1    2    0    0  0.00000000000E+00  0.00000000000E+00  0.70310340853E+02  0.60989770380E+03  0.60583138336E+03 0.  0.
        2    1    3    3  502    0  0.27861547362E+03 -0.26226819758E+02 -0.81569112332E+02  0.29149262136E+03  0.25500000920E-02 0. -1.
       -2    1    3    3    0  502 -0.27861547362E+03  0.26226819758E+02  0.15187945318E+03  0.31840508244E+03  0.25500000920E-02 0.  1.
</event>
<event>
 5   0  0.1502642E-01  0.4941865E+03  0.7818609E-02  0.1015308E+00
        2   -1    0    0  501    0  0.00000000000E+00  0.00000000000E+00  0.16909840936E+04  0.16909840936E+04  0.25500000920E-02 0.  1.
       -2   -1    0    0    0  501  0.00000000000E+00  0.00000000000E+00 -0.36106234915E+02  0.36106235005E+02  0.25500000920E-02 0. -1.
    10030    2    1    2    0    0  0.00000000000E+00  0.00000000000E+00  0.16548778587E+04  0.17270903286E+04  0.49418647898E+03 0.  0.
        2    1    3    3  502    0  0.58980575622E+02  0.53653437647E+02  0.16447899401E+04  0.16467213932E+04  0.25500000920E-02 0.  1.
       -2    1    3    3    0  502 -0.58980575622E+02 -0.53653437647E+02  0.10087918563E+02  0.80368935413E+02  0.25500000920E-02 0. -1.
</event>
<event>
 5   0  0.9411028E-02  0.6236212E+03  0.7818609E-02  0.9857576E-01
        1   -1    0    0  501    0  0.00000000000E+00  0.00000000000E+00  0.37192528809E+03  0.37192528813E+03  0.50400001928E-02 0. -1.
       -1   -1    0    0    0  501  0.00000000000E+00  0.00000000000E+00 -0.26141232141E+03  0.26141232146E+03  0.50400001928E-02 0.  1.
    10030    2    1    2    0    0  0.00000000000E+00  0.00000000000E+00  0.11051296669E+03  0.63333760959E+03  0.62362120867E+03 0.  0.
        4    1    3    3  502    0  0.11751760725E+03 -0.24575454324E+03 -0.98826062319E+02  0.28978248227E+03  0.12699999809E+01 0.  1.
       -4    1    3    3    0  502 -0.11751760725E+03  0.24575454324E+03  0.20933902901E+03  0.34355512731E+03  0.12699999809E+01 0. -1.
</event>
<event>
 5   0  0.9420349E-02  0.6017432E+03  0.7818609E-02  0.9901796E-01
       -1   -1    0    0    0  501  0.00000000000E+00  0.00000000000E+00  0.10855390742E+03  0.10855390753E+03  0.50400001928E-02 0.  1.
        1   -1    0    0  501    0  0.00000000000E+00  0.00000000000E+00 -0.83390567407E+03  0.83390567409E+03  0.50400001928E-02 0. -1.
    10030    2    1    2    0    0  0.00000000000E+00  0.00000000000E+00 -0.72535176666E+03  0.94245958162E+03  0.60174319905E+03 0.  0.
        2    1    3    3  502    0 -0.29220546270E+03  0.70459327367E+02 -0.34194672858E+03  0.45527586630E+03  0.25500000920E-02 0. -1.
       -2    1    3    3    0  502  0.29220546270E+03 -0.70459327367E+02 -0.38340503808E+03  0.48718371532E+03  0.25500000920E-02 0.  1.
</event>
<event>
 5   0  0.8860626E-02  0.6226521E+03  0.7818609E-02  0.9859493E-01
       -1   -1    0    0    0  501  0.00000000000E+00  0.00000000000E+00  0.26147282547E+03  0.26147282552E+03  0.50400001928E-02 0.  1.
        1   -1    0    0  501    0  0.00000000000E+00  0.00000000000E+00 -0.37068445395E+03  0.37068445398E+03  0.50400001928E-02 0. -1.
    10030    2    1    2    0    0  0.00000000000E+00  0.00000000000E+00 -0.10921162848E+03  0.63215727950E+03  0.62265210691E+03 0.  0.
        3    1    3    3  502    0 -0.30396714239E+03 -0.19725080185E+02 -0.11992140283E+03  0.32736257498E+03  0.10100000352E+00 0. -1.
       -3    1    3    3    0  502  0.30396714239E+03  0.19725080185E+02  0.10709774356E+02  0.30479470452E+03  0.10100000352E+00 0.  1.
</event>
<event>
 5   0  0.9411028E-02  0.6029089E+03  0.7818609E-02  0.9899389E-01
        1   -1    0    0  501    0  0.00000000000E+00  0.00000000000E+00  0.17069346124E+03  0.17069346132E+03  0.50400001928E-02 0. -1.
       -1   -1    0    0    0  501  0.00000000000E+00  0.00000000000E+00 -0.53238589291E+03  0.53238589294E+03  0.50400001928E-02 0.  1.
    10030    2    1    2    0    0  0.00000000000E+00  0.00000000000E+00 -0.36169243167E+03  0.70307935425E+03  0.60290891787E+03 0.  0.
        4    1    3    3  502    0  0.44705490611E+02  0.55005933620E+02  0.16083422353E+03  0.17576545162E+03  0.12699999809E+01 0. -1.
       -4    1    3    3    0  502 -0.44705490611E+02 -0.55005933620E+02 -0.52252665520E+03  0.52731390264E+03  0.12699999809E+01 0.  1.
</event>
<event>
 5   0  0.1483942E-01  0.4212777E+03  0.7818609E-02  0.1036651E+00
       -2   -1    0    0    0  501  0.00000000000E+00  0.00000000000E+00  0.51908202402E+02  0.51908202465E+02  0.25500000920E-02 0.  1.
        2   -1    0    0  501    0  0.00000000000E+00  0.00000000000E+00 -0.85475365923E+03  0.85475365923E+03  0.25500000920E-02 0. -1.
    10030    2    1    2    0    0  0.00000000000E+00  0.00000000000E+00 -0.80284545682E+03  0.90666186170E+03  0.42127770403E+03 0.  0.
        4    1    3    3  502    0 -0.11738056189E+01  0.15986710968E+03 -0.10626716025E+03  0.19197185425E+03  0.12699999809E+01 0.  1.
       -4    1    3    3    0  502  0.11738056189E+01 -0.15986710968E+03 -0.69657829658E+03  0.71469000744E+03  0.12699999809E+01 0. -1.
</event>
<event>
 5   0  0.1502642E-01  0.7242749E+03  0.7818609E-02  0.9676596E-01
        2   -1    0    0  501    0  0.00000000000E+00  0.00000000000E+00  0.13425947521E+04  0.13425947521E+04  0.25500000920E-02 0. -1.
       -2   -1    0    0    0  501  0.00000000000E+00  0.00000000000E+00 -0.97679163243E+02  0.97679163276E+02  0.25500000920E-02 0.  1.
    10030    2    1    2    0    0  0.00000000000E+00  0.00000000000E+00  0.12449155889E+04  0.14402739154E+04  0.72427489805E+03 0.  0.
        2    1    3    3  502    0  0.16981135281E+03 -0.29644818881E+03  0.38361274280E+03  0.51368877799E+03  0.25500000920E-02 0. -1.
       -2    1    3    3    0  502 -0.16981135281E+03  0.29644818881E+03  0.86130284608E+03  0.92658513741E+03  0.25500000920E-02 0.  1.
</event>
<event>
 5   0  0.1488510E-01  0.6043459E+03  0.7818609E-02  0.9896431E-01
        2   -1    0    0  501    0  0.00000000000E+00  0.00000000000E+00  0.70631391009E+03  0.70631391010E+03  0.25500000920E-02 0.  1.
       -2   -1    0    0    0  501  0.00000000000E+00  0.00000000000E+00 -0.12927464940E+03  0.12927464943E+03  0.25500000920E-02 0. -1.
    10030    2    1    2    0    0  0.00000000000E+00  0.00000000000E+00  0.57703926069E+03  0.83558855952E+03  0.60434587152E+03 0.  0.
        5    1    3    3  502    0 -0.10959170746E+03  0.21083242882E+03  0.30497421949E+02  0.23960976218E+03  0.46999998093E+01 0. -1.
       -5    1    3    3    0  502  0.10959170746E+03 -0.21083242882E+03  0.54654183874E+03  0.59597879734E+03  0.46999998093E+01 0.  1.
</event>
<event>
 5   0  0.1513339E-01  0.6050371E+03  0.7818609E-02  0.9895010E-01
       -2   -1    0    0    0  501  0.00000000000E+00  0.00000000000E+00  0.11388454886E+03  0.11388454889E+03  0.25500000920E-02 0. -1.
        2   -1    0    0  501    0  0.00000000000E+00  0.00000000000E+00 -0.80359860887E+03  0.80359860887E+03  0.25500000920E-02 0.  1.
    10030    2    1    2    0    0  0.00000000000E+00  0.00000000000E+00 -0.68971406001E+03  0.91748315777E+03  0.60503707342E+03 0.  0.
        3    1    3    3  502    0 -0.35232274616E+02  0.15894964533E+03  0.41785874511E+02  0.16808442056E+03  0.10100000352E+00 0. -1.
       -3    1    3    3    0  502  0.35232274616E+02 -0.15894964533E+03 -0.73149993452E+03  0.74939873720E+03  0.10100000352E+00 0.  1.
</event>
<event>
 5   0  0.1532571E-01  0.5944193E+03  0.7818609E-02  0.9917052E-01
       -2   -1    0    0    0  501  0.00000000000E+00  0.00000000000E+00  0.23720668270E+03  0.23720668271E+03  0.25500000920E-02 0.  1.
        2   -1    0    0  501    0  0.00000000000E+00  0.00000000000E+00 -0.37239077311E+03  0.37239077312E+03  0.25500000920E-02 0. -1.
    10030    2    1    2    0    0  0.00000000000E+00  0.00000000000E+00 -0.13518409041E+03  0.60959745583E+03  0.59441931316E+03 0.  0.
        1    1    3    3  502    0 -0.28215814138E+03  0.34803502460E+02 -0.15645967205E+03  0.32450597766E+03  0.50400001928E-02 0.  1.
       -1    1    3    3    0  502  0.28215814138E+03 -0.34803502460E+02  0.21275581643E+02  0.28509147818E+03  0.50400001928E-02 0. -1.
</event>
<event>
 5   0  0.8860626E-02  0.6454877E+03  0.7818609E-02  0.9815283E-01
        1   -1    0    0  501    0  0.00000000000E+00  0.00000000000E+00  0.75570959371E+02  0.75570959539E+02  0.50400001928E-02 0. -1.
       -1   -1    0    0    0  501  0.00000000000E+00  0.00000000000E+00 -0.13783545871E+04  0.13783545871E+04  0.50400001928E-02 0.  1.
    10030    2    1    2    0    0  0.00000000000E+00  0.00000000000E+00 -0.13027836277E+04  0.14539255466E+04  0.64548765636E+03 0.  0.
        3    1    3    3  502    0 -0.70583295531E+02  0.31099048508E+03 -0.76325661781E+03  0.82719874169E+03  0.10100000352E+00 0. -1.
       -3    1    3    3    0  502  0.70583295531E+02 -0.31099048508E+03 -0.53952700991E+03  0.62672680495E+03  0.10100000352E+00 0.  1.
</event>
<event>
 5   0  0.9177281E-02  0.5984871E+03  0.7818609E-02  0.9908550E-01
       -1   -1    0    0    0  501  0.00000000000E+00  0.00000000000E+00  0.10330651527E+03  0.10330651539E+03  0.50400001928E-02 0.  1.
        1   -1    0    0  501    0  0.00000000000E+00  0.00000000000E+00 -0.86680604241E+03  0.86680604242E+03  0.50400001928E-02 0. -1.
    10030    2    1    2    0    0  0.00000000000E+00  0.00000000000E+00 -0.76349952714E+03  0.97011255781E+03  0.59848713175E+03 0.  0.
        1    1    3    3  502    0  0.69313843033E+02  0.19952095344E+03 -0.38149600320E+02  0.21463553231E+03  0.50400001928E-02 0.  1.
       -1    1    3    3    0  502 -0.69313843033E+02 -0.19952095344E+03 -0.72534992682E+03  0.75547702550E+03  0.50400001928E-02 0. -1.
</event>
<event>
 5   0  0.1513339E-01  0.5849721E+03  0.7818609E-02  0.9937084E-01
       -2   -1    0    0    0  501  0.00000000000E+00  0.00000000000E+00  0.41645419267E+02  0.41645419345E+02  0.25500000920E-02 0. -1.
        2   -1    0    0  501    0  0.00000000000E+00  0.00000000000E+00 -0.20542018024E+04  0.20542018024E+04  0.25500000920E-02 0.  1.
    10030    2    1    2    0    0  0.00000000000E+00  0.00000000000E+00 -0.20125563831E+04  0.20958472217E+04  0.58497212038E+03 0.  0.
        3    1    3    3  502    0 -0.19959923055E+03  0.51619826923E+01 -0.24051402268E+03  0.31259159331E+03  0.10100000352E+00 0. -1.
       -3    1    3    3    0  502  0.19959923055E+03 -0.51619826923E+01 -0.17720423605E+04  0.17832556284E+04  0.10100000352E+00 0.  1.
</event>
<event>
 5   0  0.9420349E-02  0.6059265E+03  0.7818609E-02  0.9893186E-01
       -1   -1    0    0    0  501  0.00000000000E+00  0.00000000000E+00  0.25306881242E+03  0.25306881247E+03  0.50400001928E-02 0. -1.
        1   -1    0    0  501    0  0.00000000000E+00  0.00000000000E+00 -0.36269480443E+03  0.36269480447E+03  0.50400001928E-02 0.  1.
    10030    2    1    2    0    0  0.00000000000E+00  0.00000000000E+00 -0.10962599201E+03  0.61576361693E+03  0.60592654160E+03 0.  0.
        2    1    3    3  502    0  0.84634914407E+02  0.12572233650E+03  0.21177691582E+03  0.26042011580E+03  0.25500000920E-02 0. -1.
       -2    1    3    3    0  502 -0.84634914407E+02 -0.12572233650E+03 -0.32140290783E+03  0.35534350114E+03  0.25500000920E-02 0.  1.
</event>
<event>
 5   0  0.1532571E-01  0.6095389E+03  0.7818609E-02  0.9885811E-01
        2   -1    0    0  501    0  0.00000000000E+00  0.00000000000E+00  0.16704700864E+03  0.16704700865E+03  0.25500000920E-02 0. -1.
       -2   -1    0    0    0  501  0.00000000000E+00  0.00000000000E+00 -0.55603761759E+03  0.55603761760E+03  0.25500000920E-02 0.  1.
    10030    2    1    2    0    0  0.00000000000E+00  0.00000000000E+00 -0.38899060896E+03  0.72308462625E+03  0.60953891005E+03 0.  0.
        1    1    3    3  502    0  0.18444238785E+03  0.22769293692E+03 -0.95092625439E+02  0.30806764744E+03  0.50400001928E-02 0. -1.
       -1    1    3    3    0  502 -0.18444238785E+03 -0.22769293692E+03 -0.29389798352E+03  0.41501697881E+03  0.50400001928E-02 0.  1.
</event>
<event>
 5   0  0.6170500E-02  0.5773748E+03  0.7818609E-02  0.9953491E-01
        3   -1    0    0  501    0  0.00000000000E+00  0.00000000000E+00  0.22812619140E+03  0.22812621375E+03  0.10100000352E+00 0. -1.
       -3   -1    0    0    0  501  0.00000000000E+00  0.00000000000E+00 -0.36532583778E+03  0.36532585174E+03  0.10100000352E+00 0.  1.
    10030    2    1    2    0    0  0.00000000000E+00  0.00000000000E+00 -0.13719964638E+03  0.59345206549E+03  0.57737475791E+03 0.  0.
        1    1    3    3  502    0  0.24119411857E+03 -0.29086939598E+01  0.94427428430E+02  0.25903590987E+03  0.50400001928E-02 0. -1.
       -1    1    3    3    0  502 -0.24119411857E+03  0.29086939598E+01 -0.23162707481E+03  0.33441615563E+03  0.50400001928E-02 0.  1.
</event>
<event>
 5   0  0.1513339E-01  0.5796454E+03  0.7818609E-02  0.9948559E-01
       -2   -1    0    0    0  501  0.00000000000E+00  0.00000000000E+00  0.74938651539E+02  0.74938651582E+02  0.25500000920E-02 0. -1.
        2   -1    0    0  501    0  0.00000000000E+00  0.00000000000E+00 -0.11208793487E+04  0.11208793487E+04  0.25500000920E-02 0.  1.
    10030    2    1    2    0    0  0.00000000000E+00  0.00000000000E+00 -0.10459406972E+04  0.11958180003E+04  0.57964536385E+03 0.  0.
        3    1    3    3  502    0 -0.14625344109E+03  0.21654328192E+03 -0.26434248290E+03  0.37169613994E+03  0.10100000352E+00 0.  1.
       -3    1    3    3    0  502  0.14625344109E+03 -0.21654328192E+03 -0.78159821429E+03  0.82412186038E+03  0.10100000352E+00 0. -1.
</event>
<event>
 5   0  0.6170500E-02  0.6141437E+03  0.7818609E-02  0.9876489E-01
       -3   -1    0    0    0  501  0.00000000000E+00  0.00000000000E+00  0.51496035458E+03  0.51496036449E+03  0.10100000352E+00 0.  1.
        3   -1    0    0  501    0  0.00000000000E+00  0.00000000000E+00 -0.18310750806E+03  0.18310753592E+03  0.10100000352E+00 0. -1.
    10030    2    1    2    0    0  0.00000000000E+00  0.00000000000E+00  0.33185284652E+03  0.69806790040E+03  0.61414369803E+03 0.  0.
        2    1    3    3  502    0 -0.72990357544E+02 -0.22965602723E+03 -0.50407036945E+02  0.24619169872E+03  0.25500000920E-02 0.  1.
       -2    1    3    3    0  502  0.72990357544E+02  0.22965602723E+03  0.38225988346E+03  0.45187620169E+03  0.25500000920E-02 0. -1.
</event>
<event>
 5   0  0.9177281E-02  0.6034137E+03  0.7818609E-02  0.9898349E-01
       -1   -1    0    0    0  501  0.00000000000E+00  0.00000000000E+00  0.90879935839E+02  0.90879935979E+02  0.50400001928E-02 0. -1.
        1   -1    0    0  501    0  0.00000000000E+00  0.00000000000E+00 -0.10016185767E+04  0.10016185767E+04  0.50400001928E-02 0.  1.
    10030    2    1    2    0    0  0.00000000000E+00  0.00000000000E+00 -0.91073864084E+03  0.10924985127E+04  0.60341372894E+03 0.  0.
        1    1    3    3  502    0  0.28517169518E+03 -0.86935178720E+02 -0.37148860789E+03  0.47632384661E+03  0.50400001928E-02 0. -1.
       -1    1    3    3    0  502 -0.28517169518E+03  0.86935178720E+02 -0.53925003295E+03  0.61617466606E+03  0.50400001928E-02 0.  1.
</event>
<event>
 5   0  0.1513339E-01  0.6018611E+03  0.7818609E-02  0.9901552E-01
       -2   -1    0    0    0  501  0.00000000000E+00  0.00000000000E+00  0.94910191754E+02  0.94910191788E+02  0.25500000920E-02 0. -1.
        2   -1    0    0  501    0  0.00000000000E+00  0.00000000000E+00 -0.95415684105E+03  0.95415684106E+03  0.25500000920E-02 0.  1.
    10030    2    1    2    0    0  0.00000000000E+00  0.00000000000E+00 -0.85924664930E+03  0.10490670328E+04  0.60186114268E+03 0.  0.
        3    1    3    3  502    0  0.28830930263E+03  0.65552199982E+02 -0.52729342591E+03  0.60453098523E+03  0.10100000352E+00 0. -1.
       -3    1    3    3    0  502 -0.28830930263E+03 -0.65552199982E+02 -0.33195322339E+03  0.44453604761E+03  0.10100000352E+00 0.  1.
</event>
<event>
 5   0  0.1532571E-01  0.4485755E+03  0.7818609E-02  0.1028148E+00
       -2   -1    0    0    0  501  0.00000000000E+00  0.00000000000E+00  0.40484610002E+02  0.40484610083E+02  0.25500000920E-02 0.  1.
        2   -1    0    0  501    0  0.00000000000E+00  0.00000000000E+00 -0.12425709382E+04  0.12425709383E+04  0.25500000920E-02 0. -1.
    10030    2    1    2    0    0  0.00000000000E+00  0.00000000000E+00 -0.12020863282E+04  0.12830555483E+04  0.44857552269E+03 0.  0.
        1    1    3    3  502    0 -0.17353359759E+03 -0.13710751166E+03 -0.70778294268E+03  0.74153157264E+03  0.50400001928E-02 0.  1.
       -1    1    3    3    0  502  0.17353359759E+03  0.13710751166E+03 -0.49430338557E+03  0.54152397570E+03  0.50400001928E-02 0. -1.
</event>
<event>
 5   0  0.9420349E-02  0.6106405E+03  0.7818609E-02  0.9883573E-01
       -1   -1    0    0    0  501  0.00000000000E+00  0.00000000000E+00  0.14973337416E+03  0.14973337425E+03  0.50400001928E-02 0. -1.
        1   -1    0    0  501    0  0.00000000000E+00  0.00000000000E+00 -0.62257640569E+03  0.62257640571E+03  0.50400001928E-02 0.  1.
    10030    2    1    2    0    0  0.00000000000E+00  0.00000000000E+00 -0.47284303153E+03  0.77230977995E+03  0.61064053562E+03 0.  0.
        2    1    3    3  502    0 -0.49235718923E+02 -0.17707642191E+02 -0.61686381545E+03  0.61907889919E+03  0.25500000920E-02 0.  1.
       -2    1    3    3    0  502  0.49235718923E+02  0.17707642191E+02  0.14402078392E+03  0.15323088076E+03  0.25500000920E-02 0. -1.
</event>
<event>
 5   0  0.1483942E-01  0.6109318E+03  0.7818609E-02  0.9882982E-01
        2   -1    0    0  501    0  0.00000000000E+00  0.00000000000E+00  0.94839773389E+03  0.94839773389E+03  0.25500000920E-02 0.  1.
       -2   -1    0    0    0  501  0.00000000000E+00  0.00000000000E+00 -0.98386371760E+02  0.98386371793E+02  0.25500000920E-02 0. -1.
    10030    2    1    2    0    0  0.00000000000E+00  0.00000000000E+00  0.85001136213E+03  0.10467841057E+04  0.61093178684E+03 0.  0.
        4    1    3    3  502    0  0.18711228738E+03  0.17147011913E+03  0.71626120009E+03  0.75989784149E+03  0.12699999809E+01 0.  1.
       -4    1    3    3    0  502 -0.18711228738E+03 -0.17147011913E+03  0.13375016204E+03  0.28688626420E+03  0.12699999809E+01 0. -1.
</event>
<event>
 5   0  0.1502642E-01  0.5806777E+03  0.7818609E-02  0.9946325E-01
        2   -1    0    0  501    0  0.00000000000E+00  0.00000000000E+00  0.80820389977E+03  0.80820389978E+03  0.25500000920E-02 0. -1.
       -2   -1    0    0    0  501  0.00000000000E+00  0.00000000000E+00 -0.10430120998E+03  0.10430121001E+03  0.25500000920E-02 0.  1.
    10030    2    1    2    0    0  0.00000000000E+00  0.00000000000E+00  0.70390268980E+03  0.91250510978E+03  0.58067768915E+03 0.  0.
        2    1    3    3  502    0 -0.14417264454E+03 -0.10142784686E+03  0.71448723225E+03  0.73591124778E+03  0.25500000920E-02 0. -1.
       -2    1    3    3    0  502  0.14417264454E+03  0.10142784686E+03 -0.10584542452E+02  0.17659386201E+03  0.25500000920E-02 0.  1.
</event>
<event>
 5   0  0.8860626E-02  0.6126798E+03  0.7818609E-02  0.9879443E-01
        1   -1    0    0  501    0  0.00000000000E+00  0.00000000000E+00  0.88043497383E+03  0.88043497385E+03  0.50400001928E-02 0. -1.
       -1   -1    0    0    0  501  0.00000000000E+00  0.00000000000E+00 -0.10658839361E+03  0.10658839373E+03  0.50400001928E-02 0.  1.
    10030    2    1    2    0    0  0.00000000000E+00  0.00000000000E+00  0.77384658022E+03  0.98702336758E+03  0.61267984987E+03 0.  0.
        3    1    3    3  502    0  0.20015196929E+03  0.11178379170E+03  0.59579393089E+02  0.23686734933E+03  0.10100000352E+00 0.  1.
       -3    1    3    3    0  502 -0.20015196929E+03 -0.11178379170E+03  0.71426718713E+03  0.75015601825E+03  0.10100000352E+00 0. -1.
</event>
<event>
 5   0  0.9420349E-02  0.5995090E+03  0.7818609E-02  0.9906425E-01
       -1   -1    0    0    0  501  0.00000000000E+00  0.00000000000E+00  0.73326113524E+02  0.73326113697E+02  0.50400001928E-02 0.  1.
        1   -1    0    0  501    0  0.00000000000E+00  0.00000000000E+00 -0.12253856771E+04  0.12253856771E+04  0.50400001928E-02 0. -1.
    10030    2    1    2    0    0  0.00000000000E+00  0.00000000000E+00 -0.11520595636E+04  0.12987117908E+04  0.59950903042E+03 0.  0.
        2    1    3    3  502    0  0.26308486103E+03 -0.12490103199E+03 -0.42225571788E+03  0.51294619911E+03  0.25500000920E-02 0.  1.
       -2    1    3    3    0  502 -0.26308486103E+03  0.12490103199E+03 -0.72980384568E+03  0.78576559168E+03  0.25500000920E-02 0. -1.
</event>
<event>
 5   0  0.9497860E-02  0.6060744E+03  0.7818609E-02  0.9892883E-01
       -1   -1    0    0    0  501  0.00000000000E+00  0.00000000000E+00  0.74718777100E+02  0.74718777270E+02  0.50400001928E-02 0.  1.
        1   -1    0    0  501    0  0.00000000000E+00  0.00000000000E+00 -0.12290290891E+04  0.12290290892E+04  0.50400001928E-02 0. -1.
    10030    2    1    2    0    0  0.00000000000E+00  0.00000000000E+00 -0.11543103120E+04  0.13037478664E+04  0.60607442011E+03 0.  0.
        5    1    3    3  502    0 -0.19224159065E+03  0.20669899379E+03 -0.81405516090E+03  0.86162010086E+03  0.46999998093E+01 0. -1.
       -5    1    3    3    0  502  0.19224159065E+03 -0.20669899379E+03 -0.34025515114E+03  0.44212776557E+03  0.46999998093E+01 0.  1.
</event>
<event>
 5   0  0.9411028E-02  0.5922350E+03  0.7818609E-02  0.9921648E-01
       -1   -1    0    0    0  501  0.00000000000E+00  0.00000000000E+00  0.59791486057E+02  0.59791486269E+02  0.50400001928E-02 0.  1.
        1   -1    0    0  501    0  0.00000000000E+00  0.00000000000E+00 -0.14665228677E+04  0.14665228677E+04  0.50400001928E-02 0. -1.
    10030    2    1    2    0    0  0.00000000000E+00  0.00000000000E+00 -0.14067313817E+04  0.15263143540E+04  0.59223502688E+03 0.  0.
        4    1    3    3  502    0 -0.23180175973E+03 -0.63293559431E+02 -0.11493485189E+04  0.11741983484E+04  0.12699999809E+01 0. -1.
       -4    1    3    3    0  502  0.23180175973E+03  0.63293559431E+02 -0.25738286274E+03  0.35211600562E+03  0.12699999809E+01 0.  1.
</event>
<event>
 5   0  0.9177281E-02  0.5859849E+03  0.7818609E-02  0.9934917E-01
        1   -1    0    0  501    0  0.00000000000E+00  0.00000000000E+00  0.10198336420E+03  0.10198336433E+03  0.50400001928E-02 0.  1.
       -1   -1    0    0    0  501  0.00000000000E+00  0.00000000000E+00 -0.84175068364E+03  0.84175068366E+03  0.50400001928E-02 0. -1.
    10030    2    1    2    0    0  0.00000000000E+00  0.00000000000E+00 -0.73976731944E+03  0.94373404799E+03  0.58598486876E+03 0.  0.
        1    1    3    3  502    0  0.14702549281E+03 -0.13091650834E+03 -0.20403380546E+02  0.19791898760E+03  0.50400001928E-02 0.  1.
       -1    1    3    3    0  502 -0.14702549281E+03  0.13091650834E+03 -0.71936393889E+03  0.74581506038E+03  0.50400001928E-02 0. -1.
</event>
<event>
 5   0  0.1488510E-01  0.5954183E+03  0.7818609E-02  0.9914957E-01
        2   -1    0    0  501    0  0.00000000000E+00  0.00000000000E+00  0.14752412042E+04  0.14752412042E+04  0.25500000920E-02 0. -1.
       -2   -1    0    0    0  501  0.00000000000E+00  0.00000000000E+00 -0.60078809097E+02  0.60078809152E+02  0.25500000920E-02 0.  1.
    10030    2    1    2    0    0  0.00000000000E+00  0.00000000000E+00  0.14151623951E+04  0.15353200134E+04  0.59541828902E+03 0.  0.
        5    1    3    3  502    0  0.67434457395E+02 -0.17937805530E+03  0.12949307108E+04  0.13090422180E+04  0.46999998093E+01 0. -1.
       -5    1    3    3    0  502 -0.67434457395E+02  0.17937805530E+03  0.12023168435E+03  0.22627779539E+03  0.46999998093E+01 0.  1.
</event>
<event>
 5   0  0.9411028E-02  0.5981555E+03  0.7818609E-02  0.9909240E-01
       -1   -1    0    0    0  501  0.00000000000E+00  0.00000000000E+00  0.32198311617E+03  0.32198311621E+03  0.50400001928E-02 0.  1.
        1   -1    0    0  501    0  0.00000000000E+00  0.00000000000E+00 -0.27780186251E+03  0.27780186255E+03  0.50400001928E-02 0. -1.
    10030    2    1    2    0    0  0.00000000000E+00  0.00000000000E+00  0.44181253666E+02  0.59978497876E+03  0.59815552958E+03 0.  0.
        4    1    3    3  502    0  0.28599770404E+02 -0.18088010355E+03  0.25918842507E+03  0.31735754492E+03  0.12699999809E+01 0.  1.
       -4    1    3    3    0  502 -0.28599770404E+02  0.18088010355E+03 -0.21500717141E+03  0.28242743384E+03  0.12699999809E+01 0. -1.
</event>
<event>
 5   0  0.1488510E-01  0.5885733E+03  0.7818609E-02  0.9929401E-01
        2   -1    0    0  501    0  0.00000000000E+00  0.00000000000E+00  0.87240408627E+03  0.87240408627E+03  0.25500000920E-02 0.  1.
       -2   -1    0    0    0  501  0.00000000000E+00  0.00000000000E+00 -0.99271230530E+02  0.99271230563E+02  0.25500000920E-02 0. -1.
    10030    2    1    2    0    0  0.00000000000E+00  0.00000000000E+00  0.77313285574E+03  0.97167531683E+03  0.58857328237E+03 0.  0.
        5    1    3    3  502    0 -0.19906202033E+03 -0.18739824971E+03  0.56619419209E+03  0.62876207351E+03  0.46999998093E+01 0. -1.
       -5    1    3    3    0  502  0.19906202033E+03  0.18739824971E+03  0.20693866364E+03  0.34291324332E+03  0.46999998093E+01 0.  1.
</event>
<event>
 5   0  0.1513339E-01  0.5757168E+03  0.7818609E-02  0.9957107E-01
        2   -1    0    0  501    0  0.00000000000E+00  0.00000000000E+00  0.29506687497E+03  0.29506687498E+03  0.25500000920E-02 0. -1.
       -2   -1    0    0    0  501  0.00000000000E+00  0.00000000000E+00 -0.28082603491E+03  0.28082603492E+03  0.25500000920E-02 0.  1.
    10030    2    1    2    0    0  0.00000000000E+00  0.00000000000E+00  0.14240840056E+02  0.57589290990E+03  0.57571680725E+03 0.  0.
        3    1    3    3  502    0 -0.21229226504E+03  0.12056518492E+03 -0.14543354322E+03  0.28417405811E+03  0.10100000352E+00 0.  1.
       -3    1    3    3    0  502  0.21229226504E+03 -0.12056518492E+03  0.15967438328E+03  0.29171885178E+03  0.10100000352E+00 0. -1.
</event>
<event>
 5   0  0.1513339E-01  0.6361496E+03  0.7818609E-02  0.9833121E-01
       -2   -1    0    0    0  501  0.00000000000E+00  0.00000000000E+00  0.29316968962E+03  0.29316968963E+03  0.25500000920E-02 0.  1.
        2   -1    0    0  501    0  0.00000000000E+00  0.00000000000E+00 -0.34509564317E+03  0.34509564318E+03  0.25500000920E-02 0. -1.
    10030    2    1    2    0    0  0.00000000000E+00  0.00000000000E+00 -0.51925953546E+02  0.63826533281E+03  0.63614961323E+03 0.  0.
        3    1    3    3  502    0 -0.20756120494E+03  0.13793171840E+03 -0.22426838905E+03  0.33526576513E+03  0.10100000352E+00 0. -1.
       -3    1    3    3    0  502  0.20756120494E+03 -0.13793171840E+03  0.17234243551E+03  0.30299956768E+03  0.10100000352E+00 0.  1.
</event>
<event>
 5   0  0.9497860E-02  0.6119352E+03  0.7818609E-02  0.9880949E-01
        1   -1    0    0  501    0  0.00000000000E+00  0.00000000000E+00  0.15679017359E+03  0.15679017367E+03  0.50400001928E-02 0. -1.
       -1   -1    0    0    0  501  0.00000000000E+00  0.00000000000E+00 -0.59707928260E+03  0.59707928263E+03  0.50400001928E-02 0.  1.
    10030    2    1    2    0    0  0.00000000000E+00  0.00000000000E+00 -0.44028910901E+03  0.75386945630E+03  0.61193517437E+03 0.  0.
        5    1    3    3  502    0  0.26702817659E+03 -0.13675958873E+03 -0.14636315883E+03  0.33384352093E+03  0.46999998093E+01 0.  1.
       -5    1    3    3    0  502 -0.26702817659E+03  0.13675958873E+03 -0.29392595018E+03  0.42002593537E+03  0.46999998093E+01 0. -1.
</event>
<event>
 5   0  0.1488510E-01  0.5997928E+03  0.7818609E-02  0.9905836E-01
        2   -1    0    0  501    0  0.00000000000E+00  0.00000000000E+00  0.52168700565E+03  0.52168700566E+03  0.25500000920E-02 0. -1.
       -2   -1    0    0    0  501  0.00000000000E+00  0.00000000000E+00 -0.17239812307E+03  0.17239812309E+03  0.25500000920E-02 0.  1.
    10030    2    1    2    0    0  0.00000000000E+00  0.00000000000E+00  0.34928888258E+03  0.69408512875E+03  0.59979283295E+03 0.  0.
        5    1    3    3  502    0 -0.98709787841E+02  0.28312579834E+03  0.17864153851E+03  0.34905404908E+03  0.46999998093E+01 0.  1.
       -5    1    3    3    0  502  0.98709787841E+02 -0.28312579834E+03  0.17064734407E+03  0.34503107967E+03  0.46999998093E+01 0. -1.
</event>
<event>
 5   0  0.1513339E-01  0.6085672E+03  0.7818609E-02  0.9887790E-01
        2   -1    0    0  501    0  0.00000000000E+00  0.00000000000E+00  0.17002448049E+04  0.17002448049E+04  0.25500000920E-02 0. -1.
       -2   -1    0    0    0  501  0.00000000000E+00  0.00000000000E+00 -0.54455982534E+02  0.54455982594E+02  0.25500000920E-02 0.  1.
    10030    2    1    2    0    0  0.00000000000E+00  0.00000000000E+00  0.16457888224E+04  0.17547007875E+04  0.60856717445E+03 0.  0.
        3    1    3    3  502    0  0.27173689299E+03 -0.11837629632E+03  0.10212920096E+04  0.10634337147E+04  0.10100000352E+00 0. -1.
       -3    1    3    3    0  502 -0.27173689299E+03  0.11837629632E+03  0.62449681280E+03  0.69126707280E+03  0.10100000352E+00 0.  1.
</event>
<event>
 5   0  0.9177281E-02  0.5760625E+03  0.7818609E-02  0.9956352E-01
        1   -1    0    0  501    0  0.00000000000E+00  0.00000000000E+00  0.53748598745E+03  0.53748598748E+03  0.50400001928E-02 0. -1.
       -1   -1    0    0    0  501  0.00000000000E+00  0.00000000000E+00 -0.15435191252E+03  0.15435191260E+03  0.50400001928E-02 0.  1.
    10030    2    1    2    0    0  0.00000000000E+00  0.00000000000E+00  0.38313407494E+03  0.69183790008E+03  0.57606246241E+03 0.  0.
        1    1    3    3  502    0  0.25730803458E+03  0.11408528077E+03  0.11812932565E+03  0.30524975602E+03  0.50400001928E-02 0. -1.
       -1    1    3    3    0  502 -0.25730803458E+03 -0.11408528077E+03  0.26500474929E+03  0.38658814405E+03  0.50400001928E-02 0.  1.
</event>
<event>
 5   0  0.8860626E-02  0.5850990E+03  0.7818609E-02  0.9936812E-01
       -1   -1    0    0    0  501  0.00000000000E+00  0.00000000000E+00  0.23713862534E+03  0.23713862540E+03  0.50400001928E-02 0. -1.
        1   -1    0    0  501    0  0.00000000000E+00  0.00000000000E+00 -0.36090787263E+03  0.36090787266E+03  0.50400001928E-02 0.  1.
    10030    2    1    2    0    0  0.00000000000E+00  0.00000000000E+00 -0.12376924729E+03  0.59804649806E+03  0.58509895511E+03 0.  0.
        3    1    3    3  502    0  0.81559186738E+02  0.27960979496E+03 -0.89907515525E+02  0.30482275165E+03  0.10100000352E+00 0.  1.
       -3    1    3    3    0  502 -0.81559186738E+02 -0.27960979496E+03 -0.33861731763E+02  0.29322374641E+03  0.10100000352E+00 0. -1.
</event>
<event>
 5   0  0.9420349E-02  0.6027636E+03  0.7818609E-02  0.9899689E-01
        1   -1    0    0  501    0  0.00000000000E+00  0.00000000000E+00  0.10661832682E+04  0.10661832682E+04  0.50400001928E-02 0.  1.
       -1   -1    0    0    0  501  0.00000000000E+00  0.00000000000E+00 -0.85192666707E+02  0.85192666856E+02  0.50400001928E-02 0. -1.
    10030    2    1    2    0    0  0.00000000000E+00  0.00000000000E+00  0.98099060152E+03  0.11513759351E+04  0.60276362170E+03 0.  0.
        2    1    3    3  502    0  0.23813043426E+03  0.62818195890E+02  0.82232928108E+03  0.85841579435E+03  0.25500000920E-02 0.  1.
       -2    1    3    3    0  502 -0.23813043426E+03 -0.62818195890E+02  0.15866132043E+03  0.29296014074E+03  0.25500000920E-02 0. -1.
</event>
<event>
 5   0  0.6170500E-02  0.6027586E+03  0.7818609E-02  0.9899699E-01
       -3   -1    0    0    0  501  0.00000000000E+00  0.00000000000E+00  0.82282710554E+03  0.82282711174E+03  0.10100000352E+00 0. -1.
        3   -1    0    0  501    0  0.00000000000E+00  0.00000000000E+00 -0.11038705753E+03  0.11038710374E+03  0.10100000352E+00 0.  1.
    10030    2    1    2    0    0  0.00000000000E+00  0.00000000000E+00  0.71244004801E+03  0.93321421548E+03  0.60275861667E+03 0.  0.
        2    1    3    3  502    0 -0.15445020160E+03 -0.67639823115E+02  0.74296830601E+03  0.76186082337E+03  0.25500000920E-02 0. -1.
       -2    1    3    3    0  502  0.15445020160E+03  0.67639823115E+02 -0.30528258000E+02  0.17135339211E+03  0.25500000920E-02 0.  1.
</event>
<event>
 5   0  0.1532571E-01  0.5936589E+03  0.7818609E-02  0.9918650E-01
        2   -1    0    0  501    0  0.00000000000E+00  0.00000000000E+00  0.55569780424E+03  0.55569780425E+03  0.25500000920E-02 0. -1.
       -2   -1    0    0    0  501  0.00000000000E+00  0.00000000000E+00 -0.15855331658E+03  0.15855331660E+03  0.25500000920E-02 0.  1.
    10030    2    1    2    0    0  0.00000000000E+00  0.00000000000E+00  0.39714448766E+03  0.71425112085E+03  0.59365892527E+03 0.  0.
        1    1    3    3  502    0  0.53745636287E+02  0.16040927583E+02  0.54926423310E+03  0.55212055076E+03  0.50400001928E-02 0. -1.
       -1    1    3    3    0  502 -0.53745636287E+02 -0.16040927583E+02 -0.15211974544E+03  0.16213057009E+03  0.50400001928E-02 0.  1.
</event>
<event>
 5   0  0.1488510E-01  0.5948414E+03  0.7818609E-02  0.9916167E-01
        2   -1    0    0  501    0  0.00000000000E+00  0.00000000000E+00  0.17715507481E+04  0.17715507481E+04  0.25500000920E-02 0. -1.
       -2   -1    0    0    0  501  0.00000000000E+00  0.00000000000E+00 -0.49933129136E+02  0.49933129201E+02  0.25500000920E-02 0.  1.
    10030    2    1    2    0    0  0.00000000000E+00  0.00000000000E+00  0.17216176189E+04  0.18214838773E+04  0.59484139848E+03 0.  0.
        5    1    3    3  502    0 -0.86487333484E+02 -0.26444674557E+03  0.11823305449E+04  0.12146356440E+04  0.46999998093E+01 0. -1.
       -5    1    3    3    0  502  0.86487333484E+02  0.26444674557E+03  0.53928707399E+03  0.60684823331E+03  0.46999998093E+01 0.  1.
</event>
<event>
 5   0  0.1502642E-01  0.5983945E+03  0.7818609E-02  0.9908743E-01
        2   -1    0    0  501    0  0.00000000000E+00  0.00000000000E+00  0.40197175910E+03  0.40197175911E+03  0.25500000920E-02 0.  1.
       -2   -1    0    0    0  501  0.00000000000E+00  0.00000000000E+00 -0.22269972152E+03  0.22269972153E+03  0.25500000920E-02 0. -1.
    10030    2    1    2    0    0  0.00000000000E+00  0.00000000000E+00  0.17927203758E+03  0.62467148064E+03  0.59839451473E+03 0.  0.
        2    1    3    3  502    0  0.21523964386E+03 -0.12780620366E+03 -0.81439761561E+02  0.26323936778E+03  0.25500000920E-02 0. -1.
       -2    1    3    3    0  502 -0.21523964386E+03  0.12780620366E+03  0.26071179914E+03  0.36143211285E+03  0.25500000920E-02 0.  1.
</event>
<event>
 5   0  0.1513339E-01  0.5874409E+03  0.7818609E-02  0.9931810E-01
       -2   -1    0    0    0  501  0.00000000000E+00  0.00000000000E+00  0.50731607649E+02  0.50731607713E+02  0.25500000920E-02 0. -1.
        2   -1    0    0  501    0  0.00000000000E+00  0.00000000000E+00 -0.17005513544E+04  0.17005513544E+04  0.25500000920E-02 0.  1.
    10030    2    1    2    0    0  0.00000000000E+00  0.00000000000E+00 -0.16498197467E+04  0.17512829621E+04  0.58744090478E+03 0.  0.
        3    1    3    3  502    0 -0.27755248010E+03  0.10363883502E+02 -0.11097501994E+04  0.11439791539E+04  0.10100000352E+00 0.  1.
       -3    1    3    3    0  502  0.27755248010E+03 -0.10363883502E+02 -0.54006954730E+03  0.60730380817E+03  0.10100000352E+00 0. -1.
</event>
<event>
 5   0  0.9420349E-02  0.6175912E+03  0.7818609E-02  0.9869567E-01
       -1   -1    0    0    0  501  0.00000000000E+00  0.00000000000E+00  0.18003480341E+03  0.18003480348E+03  0.50400001928E-02 0.  1.
        1   -1    0    0  501    0  0.00000000000E+00  0.00000000000E+00 -0.52964607463E+03  0.52964607465E+03  0.50400001928E-02 0. -1.
    10030    2    1    2    0    0  0.00000000000E+00  0.00000000000E+00 -0.34961127122E+03  0.70968087813E+03  0.61759121417E+03 0.  0.
        2    1    3    3  502    0  0.10660087792E+03  0.14915708005E+03 -0.46033867550E+03  0.49550305536E+03  0.25500000920E-02 0. -1.
       -2    1    3    3    0  502 -0.10660087792E+03 -0.14915708005E+03  0.11072740428E+03  0.21417782277E+03  0.25500000920E-02 0.  1.
</event>
<event>
 5   0  0.9177281E-02  0.5928223E+03  0.7818609E-02  0.9920410E-01
       -1   -1    0    0    0  501  0.00000000000E+00  0.00000000000E+00  0.16539192685E+03  0.16539192693E+03  0.50400001928E-02 0. -1.
        1   -1    0    0  501    0  0.00000000000E+00  0.00000000000E+00 -0.53122051200E+03  0.53122051202E+03  0.50400001928E-02 0.  1.
    10030    2    1    2    0    0  0.00000000000E+00  0.00000000000E+00 -0.36582858515E+03  0.69661243895E+03  0.59282234808E+03 0.  0.
        1    1    3    3  502    0  0.33841220302E+02  0.16939085660E+03  0.10013339616E+03  0.19966268440E+03  0.50400001928E-02 0. -1.
       -1    1    3    3    0  502 -0.33841220302E+02 -0.16939085660E+03 -0.46596198131E+03  0.49694975455E+03  0.50400001928E-02 0.  1.
</event>
<event>
 5   0  0.1513339E-01  0.7001702E+03  0.7818609E-02  0.9716941E-01
       -2   -1    0    0    0  501  0.00000000000E+00  0.00000000000E+00  0.74128712122E+03  0.74128712123E+03  0.25500000920E-02 0.  1.
        2   -1    0    0  501    0  0.00000000000E+00  0.00000000000E+00 -0.16533348728E+03  0.16533348730E+03  0.25500000920E-02 0. -1.
    10030    2    1    2    0    0  0.00000000000E+00  0.00000000000E+00  0.57595363394E+03  0.90662060853E+03  0.70017022171E+03 0.  0.
        3    1    3    3  502    0  0.11873971613E+03  0.20099403462E+03 -0.49834218924E+02  0.23870731391E+03  0.10100000352E+00 0. -1.
       -3    1    3    3    0  502 -0.11873971613E+03 -0.20099403462E+03  0.62578785286E+03  0.66791329462E+03  0.10100000352E+00 0.  1.
</event>
<event>
 5   0  0.1488510E-01  0.6052129E+03  0.7818609E-02  0.9894650E-01
       -2   -1    0    0    0  501  0.00000000000E+00  0.00000000000E+00  0.15254544304E+03  0.15254544306E+03  0.25500000920E-02 0.  1.
        2   -1    0    0  501    0  0.00000000000E+00  0.00000000000E+00 -0.60028439588E+03  0.60028439589E+03  0.25500000920E-02 0. -1.
    10030    2    1    2    0    0  0.00000000000E+00  0.00000000000E+00 -0.44773895284E+03  0.75282983894E+03  0.60521285223E+03 0.  0.
        5    1    3    3  502    0  0.10612547214E+03  0.39010147789E+01 -0.57629493703E+03  0.58601687535E+03  0.46999998093E+01 0. -1.
       -5    1    3    3    0  502 -0.10612547214E+03 -0.39010147789E+01  0.12855598419E+03  0.16681296359E+03  0.46999998093E+01 0.  1.
</event>
<event>
 5   0  0.8860626E-02  0.5502268E+03  0.7818609E-02  0.1001441E+00
       -1   -1    0    0    0  501  0.00000000000E+00  0.00000000000E+00  0.67873497787E+02  0.67873497974E+02  0.50400001928E-02 0.  1.
        1   -1    0    0  501    0  0.00000000000E+00  0.00000000000E+00 -0.11151241979E+04  0.11151241979E+04  0.50400001928E-02 0. -1.
    10030    2    1    2    0    0  0.00000000000E+00  0.00000000000E+00 -0.10472507001E+04  0.11829976959E+04  0.55022678922E+03 0.  0.
        3    1    3    3  502    0  0.19619173667E+03 -0.29610221263E+02 -0.93336834888E+03  0.95422452685E+03  0.10100000352E+00 0. -1.
       -3    1    3    3    0  502 -0.19619173667E+03  0.29610221263E+02 -0.11388235120E+03  0.22877316901E+03  0.10100000352E+00 0.  1.
</event>
<event>
 5   0  0.9420349E-02  0.6089717E+03  0.7818609E-02  0.9886966E-01
       -1   -1    0    0    0  501  0.00000000000E+00  0.00000000000E+00  0.29747471567E+03  0.29747471572E+03  0.50400001928E-02 0. -1.
        1   -1    0    0  501    0  0.00000000000E+00  0.00000000000E+00 -0.31166222510E+03  0.31166222514E+03  0.50400001928E-02 0.  1.
    10030    2    1    2    0    0  0.00000000000E+00  0.00000000000E+00 -0.14187509421E+02  0.60913694085E+03  0.60897169662E+03 0.  0.
        2    1    3    3  502    0  0.11755403093E+03  0.15585730275E+03  0.22663861114E+03  0.29912457117E+03  0.25500000920E-02 0. -1.
       -2    1    3    3    0  502 -0.11755403093E+03 -0.15585730275E+03 -0.24082612056E+03  0.31001236969E+03  0.25500000920E-02 0.  1.
</event>
<event>
 5   0  0.9420349E-02  0.5535230E+03  0.7818609E-02  0.1000682E+00
        1   -1    0    0  501    0  0.00000000000E+00  0.00000000000E+00  0.35147676827E+03  0.35147676831E+03  0.50400001928E-02 0.  1.
       -1   -1    0    0    0  501  0.00000000000E+00  0.00000000000E+00 -0.21792887267E+03  0.21792887273E+03  0.50400001928E-02 0. -1.
    10030    2    1    2    0    0  0.00000000000E+00  0.00000000000E+00  0.13354789561E+03  0.56940564104E+03  0.55352302899E+03 0.  0.
        2    1    3    3  502    0  0.25301233913E+03 -0.37447537914E+02 -0.41992467381E+02  0.25919284167E+03  0.25500000920E-02 0. -1.
       -2    1    3    3    0  502 -0.25301233913E+03  0.37447537914E+02  0.17554036299E+03  0.31021279937E+03  0.25500000920E-02 0.  1.
</event>
<event>
 5   0  0.6170500E-02  0.5864187E+03  0.7818609E-02  0.9933990E-01
        3   -1    0    0  501    0  0.00000000000E+00  0.00000000000E+00  0.12564303139E+03  0.12564307198E+03  0.10100000352E+00 0.  1.
       -3   -1    0    0    0  501  0.00000000000E+00  0.00000000000E+00 -0.68425371058E+03  0.68425371803E+03  0.10100000352E+00 0. -1.
    10030    2    1    2    0    0  0.00000000000E+00  0.00000000000E+00 -0.55861067919E+03  0.80989679002E+03  0.58641872376E+03 0.  0.
        5    1    3    3  502    0  0.35709906573E+02 -0.21304206139E+03 -0.55584641228E+01  0.21613677121E+03  0.46999998093E+01 0.  1.
       -5    1    3    3    0  502 -0.35709906573E+02  0.21304206139E+03 -0.55305221507E+03  0.59376001881E+03  0.46999998093E+01 0. -1.
</event>
<event>
 5   0  0.1483942E-01  0.5961313E+03  0.7818609E-02  0.9913465E-01
       -2   -1    0    0    0  501  0.00000000000E+00  0.00000000000E+00  0.60462501647E+02  0.60462501701E+02  0.25500000920E-02 0. -1.
        2   -1    0    0  501    0  0.00000000000E+00  0.00000000000E+00 -0.14693921266E+04  0.14693921266E+04  0.25500000920E-02 0.  1.
    10030    2    1    2    0    0  0.00000000000E+00  0.00000000000E+00 -0.14089296250E+04  0.15298546284E+04  0.59613127387E+03 0.  0.
        4    1    3    3  502    0  0.11305058814E+03  0.42994502459E+02 -0.14035770930E+04  0.14087793409E+04  0.12699999809E+01 0.  1.
       -4    1    3    3    0  502 -0.11305058814E+03 -0.42994502459E+02 -0.53525320477E+01  0.12107528740E+03  0.12699999809E+01 0. -1.
</event>
<event>
 5   0  0.6170500E-02  0.6067813E+03  0.7818609E-02  0.9891436E-01
        3   -1    0    0  501    0  0.00000000000E+00  0.00000000000E+00  0.13338736217E+03  0.13338740041E+03  0.10100000352E+00 0.  1.
       -3   -1    0    0    0  501  0.00000000000E+00  0.00000000000E+00 -0.69006447175E+03  0.69006447915E+03  0.10100000352E+00 0. -1.
    10030    2    1    2    0    0  0.00000000000E+00  0.00000000000E+00 -0.55667710958E+03  0.82345187956E+03  0.60678133922E+03 0.  0.
        1    1    3    3  502    0 -0.22950283063E+03  0.12877479758E+03 -0.48321475773E+03  0.55022813439E+03  0.50400001928E-02 0. -1.
       -1    1    3    3    0  502  0.22950283063E+03 -0.12877479758E+03 -0.73462351852E+02  0.27322374517E+03  0.50400001928E-02 0.  1.
</event>
<event>
 5   0  0.8860626E-02  0.5874216E+03  0.7818609E-02  0.9931851E-01
       -1   -1    0    0    0  501  0.00000000000E+00  0.00000000000E+00  0.68451835161E+02  0.68451835346E+02  0.50400001928E-02 0.  1.
        1   -1    0    0  501    0  0.00000000000E+00  0.00000000000E+00 -0.12602442654E+04  0.12602442654E+04  0.50400001928E-02 0. -1.
    10030    2    1    2    0    0  0.00000000000E+00  0.00000000000E+00 -0.11917924303E+04  0.13286961008E+04  0.58742159596E+03 0.  0.
        3    1    3    3  502    0 -0.13112450804E+03 -0.25766977068E+03 -0.71296356567E+03  0.76935323714E+03  0.10100000352E+00 0. -1.
       -3    1    3    3    0  502  0.13112450804E+03  0.25766977068E+03 -0.47882886460E+03  0.55934286364E+03  0.10100000352E+00 0.  1.
</event>
<event>
 5   0  0.1488510E-01  0.5369634E+03  0.7818609E-02  0.1004557E+00
       -2   -1    0    0    0  501  0.00000000000E+00  0.00000000000E+00  0.42871079074E+02  0.42871079150E+02  0.25500000920E-02 0.  1.
        2   -1    0    0  501    0  0.00000000000E+00  0.00000000000E+00 -0.16813762886E+04  0.16813762886E+04  0.25500000920E-02 0. -1.
    10030    2    1    2    0    0  0.00000000000E+00  0.00000000000E+00 -0.16385052095E+04  0.17242473678E+04  0.53696337264E+03 0.  0.
        5    1    3    3  502    0 -0.57755267378E+02 -0.13732824712E+03 -0.15363125545E+04  0.15435261816E+04  0.46999998093E+01 0. -1.
       -5    1    3    3    0  502  0.57755267378E+02  0.13732824712E+03 -0.10219265506E+03  0.18072118612E+03  0.46999998093E+01 0.  1.
</event>
<event>
 5   0  0.6170500E-02  0.5978963E+03  0.7818609E-02  0.9909780E-01
       -4   -1    0    0    0  501  0.00000000000E+00  0.00000000000E+00  0.10649426239E+03  0.10650183482E+03  0.12699999809E+01 0. -1.
        4   -1    0    0  501    0  0.00000000000E+00  0.00000000000E+00 -0.83916235502E+03  0.83916331604E+03  0.12699999809E+01 0.  1.
    10030    2    1    2    0    0  0.00000000000E+00  0.00000000000E+00 -0.73266809263E+03  0.94566515086E+03  0.59789634853E+03 0.  0.
        3    1    3    3  502    0 -0.25510580500E+03 -0.12432373243E+03 -0.21767002513E+03  0.35765292146E+03  0.10100000352E+00 0. -1.
       -3    1    3    3    0  502  0.25510580500E+03  0.12432373243E+03 -0.51499806751E+03  0.58801222940E+03  0.10100000352E+00 0.  1.
</event>
<event>
 5   0  0.6170500E-02  0.6056906E+03  0.7818609E-02  0.9893670E-01
        3   -1    0    0  501    0  0.00000000000E+00  0.00000000000E+00  0.75854352502E+03  0.75854353174E+03  0.10100000352E+00 0. -1.
       -3   -1    0    0    0  501  0.00000000000E+00  0.00000000000E+00 -0.12090969530E+03  0.12090973748E+03  0.10100000352E+00 0.  1.
    10030    2    1    2    0    0  0.00000000000E+00  0.00000000000E+00  0.63763382972E+03  0.87945326923E+03  0.60569064047E+03 0.  0.
        3    1    3    3  502    0 -0.11638075467E+03  0.21736096118E+03  0.57415572562E+03  0.62485604339E+03  0.10100000352E+00 0. -1.
       -3    1    3    3    0  502  0.11638075467E+03 -0.21736096118E+03  0.63478104099E+02  0.25459722583E+03  0.10100000352E+00 0.  1.
</event>
<event>
 5   0  0.6170500E-02  0.5866940E+03  0.7818609E-02  0.9933403E-01
        3   -1    0    0  501    0  0.00000000000E+00  0.00000000000E+00  0.38936235618E+03  0.38936236928E+03  0.10100000352E+00 0. -1.
       -3   -1    0    0    0  501  0.00000000000E+00  0.00000000000E+00 -0.22100862630E+03  0.22100864938E+03  0.10100000352E+00 0.  1.
    10030    2    1    2    0    0  0.00000000000E+00  0.00000000000E+00  0.16835372988E+03  0.61037101866E+03  0.58669395945E+03 0.  0.
        4    1    3    3  502    0  0.21374125088E+02 -0.26585579660E+03  0.21123113186E+03  0.34022986609E+03  0.12699999809E+01 0. -1.
       -4    1    3    3    0  502 -0.21374125088E+02  0.26585579660E+03 -0.42877401984E+02  0.27014115257E+03  0.12699999809E+01 0.  1.
</event>
<event>
 5   0  0.1532571E-01  0.5948227E+03  0.7818609E-02  0.9916206E-01
        2   -1    0    0  501    0  0.00000000000E+00  0.00000000000E+00  0.13523341960E+04  0.13523341960E+04  0.25500000920E-02 0. -1.
       -2   -1    0    0    0  501  0.00000000000E+00  0.00000000000E+00 -0.65408031380E+02  0.65408031429E+02  0.25500000920E-02 0.  1.
    10030    2    1    2    0    0  0.00000000000E+00  0.00000000000E+00  0.12869261647E+04  0.14177422275E+04  0.59482272171E+03 0.  0.
        1    1    3    3  502    0 -0.13504898238E+03  0.26481000916E+03  0.66619355989E+03  0.72950423430E+03  0.50400001928E-02 0. -1.
       -1    1    3    3    0  502  0.13504898238E+03 -0.26481000916E+03  0.62073260476E+03  0.68823799316E+03  0.50400001928E-02 0.  1.
</event>
<event>
 5   0  0.8860626E-02  0.6032857E+03  0.7818609E-02  0.9898613E-01
        1   -1    0    0  501    0  0.00000000000E+00  0.00000000000E+00  0.22509281027E+03  0.22509281032E+03  0.50400001928E-02 0.  1.
       -1   -1    0    0    0  501  0.00000000000E+00  0.00000000000E+00 -0.40422620369E+03  0.40422620372E+03  0.50400001928E-02 0. -1.
    10030    2    1    2    0    0  0.00000000000E+00  0.00000000000E+00 -0.17913339342E+03  0.62931901404E+03  0.60328571075E+03 0.  0.
        3    1    3    3  502    0  0.22006509352E+03  0.18091020945E+03  0.13864665612E+02  0.28521814182E+03  0.10100000352E+00 0.  1.
       -3    1    3    3    0  502 -0.22006509352E+03 -0.18091020945E+03 -0.19299805903E+03  0.34410087222E+03  0.10100000352E+00 0. -1.
</event>
<event>
 5   0  0.6170500E-02  0.6009095E+03  0.7818609E-02  0.9903521E-01
       -4   -1    0    0    0  501  0.00000000000E+00  0.00000000000E+00  0.21427676834E+03  0.21428053190E+03  0.12699999809E+01 0.  1.
        4   -1    0    0  501    0  0.00000000000E+00  0.00000000000E+00 -0.42128343993E+03  0.42128535419E+03  0.12699999809E+01 0. -1.
    10030    2    1    2    0    0  0.00000000000E+00  0.00000000000E+00 -0.20700667159E+03  0.63556588609E+03  0.60090950523E+03 0.  0.
        2    1    3    3  502    0  0.14325579386E+02 -0.94224508668E+02 -0.40487446614E+03  0.41594087753E+03  0.25500000920E-02 0. -1.
       -2    1    3    3    0  502 -0.14325579386E+02  0.94224508668E+02  0.19786779455E+03  0.21962500856E+03  0.25500000920E-02 0.  1.
</event>
<event>
 5   0  0.1502642E-01  0.6116114E+03  0.7818609E-02  0.9881605E-01
        2   -1    0    0  501    0  0.00000000000E+00  0.00000000000E+00  0.10811460726E+04  0.10811460726E+04  0.25500000920E-02 0.  1.
       -2   -1    0    0    0  501  0.00000000000E+00  0.00000000000E+00 -0.86498153154E+02  0.86498153192E+02  0.25500000920E-02 0. -1.
    10030    2    1    2    0    0  0.00000000000E+00  0.00000000000E+00  0.99464791943E+03  0.11676442258E+04  0.61161144068E+03 0.  0.
        2    1    3    3  502    0  0.50007321248E+02 -0.13106433026E+03 -0.21448017530E+02  0.14191056446E+03  0.25500000920E-02 0. -1.
       -2    1    3    3    0  502 -0.50007321248E+02  0.13106433026E+03  0.10160959370E+04  0.10257336613E+04  0.25500000920E-02 0.  1.
</event>
<event>
 5   0  0.1502642E-01  0.4686061E+03  0.7818609E-02  0.1022314E+00
       -2   -1    0    0    0  501  0.00000000000E+00  0.00000000000E+00  0.11884326939E+03  0.11884326942E+03  0.25500000920E-02 0.  1.
        2   -1    0    0  501    0  0.00000000000E+00  0.00000000000E+00 -0.46193553716E+03  0.46193553717E+03  0.25500000920E-02 0. -1.
    10030    2    1    2    0    0  0.00000000000E+00  0.00000000000E+00 -0.34309226776E+03  0.58077880659E+03  0.46860614377E+03 0.  0.
        2    1    3    3  502    0 -0.97923551372E+02 -0.14819452512E+03  0.17828158665E+02  0.17851745695E+03  0.25500000920E-02 0.  1.
       -2    1    3    3    0  502  0.97923551372E+02  0.14819452512E+03 -0.36092042643E+03  0.40226134963E+03  0.25500000920E-02 0. -1.
</event>
<event>
 5   0  0.1483942E-01  0.5996202E+03  0.7818609E-02  0.9906194E-01
       -2   -1    0    0    0  501  0.00000000000E+00  0.00000000000E+00  0.60926677148E+02  0.60926677201E+02  0.25500000920E-02 0.  1.
        2   -1    0    0  501    0  0.00000000000E+00  0.00000000000E+00 -0.14753160728E+04  0.14753160728E+04  0.25500000920E-02 0. -1.
    10030    2    1    2    0    0  0.00000000000E+00  0.00000000000E+00 -0.14143893957E+04  0.15362427500E+04  0.59962023349E+03 0.  0.
        4    1    3    3  502    0  0.22870309917E+02 -0.70024246137E+02 -0.14517622135E+04  0.14536304838E+04  0.12699999809E+01 0. -1.
       -4    1    3    3    0  502 -0.22870309917E+02  0.70024246137E+02  0.37372817777E+02  0.82612266228E+02  0.12699999809E+01 0.  1.
</event>
<event>
 5   0  0.1502642E-01  0.5931151E+03  0.7818609E-02  0.9919794E-01
        2   -1    0    0  501    0  0.00000000000E+00  0.00000000000E+00  0.89739383285E+03  0.89739383286E+03  0.25500000920E-02 0. -1.
       -2   -1    0    0    0  501  0.00000000000E+00  0.00000000000E+00 -0.98001982947E+02  0.98001982980E+02  0.25500000920E-02 0.  1.
    10030    2    1    2    0    0  0.00000000000E+00  0.00000000000E+00  0.79939184991E+03  0.99539581584E+03  0.59311508199E+03 0.  0.
        2    1    3    3  502    0  0.19558552041E+03 -0.65719414911E+02  0.42210250208E+02  0.21060494419E+03  0.25500000920E-02 0.  1.
       -2    1    3    3    0  502 -0.19558552041E+03  0.65719414911E+02  0.75718159970E+03  0.78479087165E+03  0.25500000920E-02 0. -1.
</event>
<event>
 5   0  0.1502642E-01  0.6031117E+03  0.7818609E-02  0.9898971E-01
        2   -1    0    0  501    0  0.00000000000E+00  0.00000000000E+00  0.75506808777E+03  0.75506808777E+03  0.25500000920E-02 0. -1.
       -2   -1    0    0    0  501  0.00000000000E+00  0.00000000000E+00 -0.12043408917E+03  0.12043408920E+03  0.25500000920E-02 0.  1.
    10030    2    1    2    0    0  0.00000000000E+00  0.00000000000E+00  0.63463399859E+03  0.87550217697E+03  0.60311172241E+03 0.  0.
        2    1    3    3  502    0  0.23172542125E+02 -0.76117833217E+01 -0.11899984846E+03  0.12147374158E+03  0.25500000920E-02 0.  1.
       -2    1    3    3    0  502 -0.23172542125E+02  0.76117833217E+01  0.75363384705E+03  0.75402843539E+03  0.25500000920E-02 0. -1.
</event>
<event>
 5   0  0.1513339E-01  0.6308245E+03  0.7818609E-02  0.9843441E-01
       -2   -1    0    0    0  501  0.00000000000E+00  0.00000000000E+00  0.75444577610E+02  0.75444577654E+02  0.25500000920E-02 0.  1.
        2   -1    0    0  501    0  0.00000000000E+00  0.00000000000E+00 -0.13186486332E+04  0.13186486332E+04  0.25500000920E-02 0. -1.
    10030    2    1    2    0    0  0.00000000000E+00  0.00000000000E+00 -0.12432040556E+04  0.13940932109E+04  0.63082450549E+03 0.  0.
        3    1    3    3  502    0  0.30015775937E+03 -0.59265168494E+02 -0.79103271505E+03  0.84813902586E+03  0.10100000352E+00 0. -1.
       -3    1    3    3    0  502 -0.30015775937E+03  0.59265168494E+02 -0.45217134054E+03  0.54595418499E+03  0.10100000352E+00 0.  1.
</event>
<event>
 5   0  0.9420349E-02  0.6091579E+03  0.7818609E-02  0.9886586E-01
       -1   -1    0    0    0  501  0.00000000000E+00  0.00000000000E+00  0.14083980524E+03  0.14083980533E+03  0.50400001928E-02 0. -1.
        1   -1    0    0  501    0  0.00000000000E+00  0.00000000000E+00 -0.65867976319E+03  0.65867976321E+03  0.50400001928E-02 0.  1.
    10030    2    1    2    0    0  0.00000000000E+00  0.00000000000E+00 -0.51783995795E+03  0.79951956855E+03  0.60915787645E+03 0.  0.
        2    1    3    3  502    0 -0.26833695317E+03  0.86174485317E+02 -0.10734150003E+03  0.30158408445E+03  0.25500000920E-02 0. -1.
       -2    1    3    3    0  502  0.26833695317E+03 -0.86174485317E+02 -0.41049845792E+03  0.49793548410E+03  0.25500000920E-02 0.  1.
</event>
<event>
 5   0  0.9411028E-02  0.6253873E+03  0.7818609E-02  0.9854092E-01
       -1   -1    0    0    0  501  0.00000000000E+00  0.00000000000E+00  0.24159120387E+03  0.24159120393E+03  0.50400001928E-02 0. -1.
        1   -1    0    0  501    0  0.00000000000E+00  0.00000000000E+00 -0.40472217988E+03  0.40472217991E+03  0.50400001928E-02 0.  1.
    10030    2    1    2    0    0  0.00000000000E+00  0.00000000000E+00 -0.16313097601E+03  0.64631338384E+03  0.62538729984E+03 0.  0.
        4    1    3    3  502    0 -0.14205855339E+03  0.13538586797E+02 -0.36910505764E+03  0.39573233681E+03  0.12699999809E+01 0.  1.
       -4    1    3    3    0  502  0.14205855339E+03 -0.13538586797E+02  0.20597408163E+03  0.25058104703E+03  0.12699999809E+01 0. -1.
</event>
<event>
 5   0  0.8860626E-02  0.6684569E+03  0.7818609E-02  0.9772750E-01
        1   -1    0    0  501    0  0.00000000000E+00  0.00000000000E+00  0.19979437509E+03  0.19979437515E+03  0.50400001928E-02 0. -1.
       -1   -1    0    0    0  501  0.00000000000E+00  0.00000000000E+00 -0.55911805573E+03  0.55911805576E+03  0.50400001928E-02 0.  1.
    10030    2    1    2    0    0  0.00000000000E+00  0.00000000000E+00 -0.35932368064E+03  0.75891243091E+03  0.66845685748E+03 0.  0.
        3    1    3    3  502    0  0.88244973995E+02  0.14924439404E+03 -0.50406861091E+03  0.53305369269E+03  0.10100000352E+00 0.  1.
       -3    1    3    3    0  502 -0.88244973995E+02 -0.14924439404E+03  0.14474493026E+03  0.22585873821E+03  0.10100000352E+00 0. -1.
</event>
<event>
 5   0  0.6170500E-02  0.6088131E+03  0.7818609E-02  0.9887289E-01
       -3   -1    0    0    0  501  0.00000000000E+00  0.00000000000E+00  0.56408085160E+03  0.56408086064E+03  0.10100000352E+00 0. -1.
        3   -1    0    0  501    0  0.00000000000E+00  0.00000000000E+00 -0.16427313878E+03  0.16427316983E+03  0.10100000352E+00 0.  1.
    10030    2    1    2    0    0  0.00000000000E+00  0.00000000000E+00  0.39980771281E+03  0.72835403047E+03  0.60881309651E+03 0.  0.
        2    1    3    3  502    0  0.25494147134E+03 -0.10019160522E+03  0.35875219104E+03  0.45137195986E+03  0.25500000920E-02 0. -1.
       -2    1    3    3    0  502 -0.25494147134E+03  0.10019160522E+03  0.41055521779E+02  0.27698207061E+03  0.25500000920E-02 0.  1.
</event>
<event>
 5   0  0.9420349E-02  0.5983904E+03  0.7818609E-02  0.9908751E-01
       -1   -1    0    0    0  501  0.00000000000E+00  0.00000000000E+00  0.55583707482E+02  0.55583707711E+02  0.50400001928E-02 0. -1.
        1   -1    0    0  501    0  0.00000000000E+00  0.00000000000E+00 -0.16105035086E+04  0.16105035087E+04  0.50400001928E-02 0.  1.
    10030    2    1    2    0    0  0.00000000000E+00  0.00000000000E+00 -0.15549198012E+04  0.16660872164E+04  0.59839036129E+03 0.  0.
        2    1    3    3  502    0 -0.10917054379E+03  0.22883027222E+03 -0.33515108404E+03  0.42024724895E+03  0.25500000920E-02 0. -1.
       -2    1    3    3    0  502  0.10917054379E+03 -0.22883027222E+03 -0.12197687171E+04  0.12458399674E+04  0.25500000920E-02 0.  1.
</event>
<event>
 5   0  0.9177281E-02  0.6033705E+03  0.7818609E-02  0.9898438E-01
        1   -1    0    0  501    0  0.00000000000E+00  0.00000000000E+00  0.32091315694E+03  0.32091315698E+03  0.50400001928E-02 0.  1.
       -1   -1    0    0    0  501  0.00000000000E+00  0.00000000000E+00 -0.28360937042E+03  0.28360937046E+03  0.50400001928E-02 0. -1.
    10030    2    1    2    0    0  0.00000000000E+00  0.00000000000E+00  0.37303786526E+02  0.60452252744E+03  0.60337046140E+03 0.  0.
        1    1    3    3  502    0 -0.11111429756E+03 -0.76912979170E+01  0.29955918973E+03  0.31959544954E+03  0.50400001928E-02 0.  1.
       -1    1    3    3    0  502  0.11111429756E+03  0.76912979170E+01 -0.26225540321E+03  0.28492707790E+03  0.50400001928E-02 0. -1.
</event>
<event>
 5   0  0.1483942E-01  0.5514381E+03  0.7818609E-02  0.1001162E+00
        2   -1    0    0  501    0  0.00000000000E+00  0.00000000000E+00  0.44010068532E+03  0.44010068533E+03  0.25500000920E-02 0. -1.
       -2   -1    0    0    0  501  0.00000000000E+00  0.00000000000E+00 -0.17273544859E+03  0.17273544861E+03  0.25500000920E-02 0.  1.
    10030    2    1    2    0    0  0.00000000000E+00  0.00000000000E+00  0.26736523673E+03  0.61283613394E+03  0.55143808106E+03 0.  0.
        4    1    3    3  502    0 -0.12330866746E+03  0.22893749918E+03  0.23555071317E+03  0.35086059536E+03  0.12699999809E+01 0. -1.
       -4    1    3    3    0  502  0.12330866746E+03 -0.22893749918E+03  0.31814523557E+02  0.26197553857E+03  0.12699999809E+01 0.  1.
</event>
<event>
 5   0  0.1483942E-01  0.5752829E+03  0.7818609E-02  0.9958056E-01
        2   -1    0    0  501    0  0.00000000000E+00  0.00000000000E+00  0.67500474214E+03  0.67500474214E+03  0.25500000920E-02 0.  1.
       -2   -1    0    0    0  501  0.00000000000E+00  0.00000000000E+00 -0.12257335457E+03  0.12257335460E+03  0.25500000920E-02 0. -1.
    10030    2    1    2    0    0  0.00000000000E+00  0.00000000000E+00  0.55243138757E+03  0.79757809674E+03  0.57528287167E+03 0.  0.
        4    1    3    3  502    0  0.98202090919E+01 -0.14422399124E+03  0.62098052423E+03  0.63758561819E+03  0.12699999809E+01 0.  1.
       -4    1    3    3    0  502 -0.98202090919E+01  0.14422399124E+03 -0.68549136664E+02  0.15999247855E+03  0.12699999809E+01 0. -1.
</event>
<event>
 5   0  0.1502642E-01  0.5484887E+03  0.7818609E-02  0.1001844E+00
        2   -1    0    0  501    0  0.00000000000E+00  0.00000000000E+00  0.14388963370E+04  0.14388963370E+04  0.25500000920E-02 0.  1.
       -2   -1    0    0    0  501  0.00000000000E+00  0.00000000000E+00 -0.52269206839E+02  0.52269206902E+02  0.25500000920E-02 0. -1.
    10030    2    1    2    0    0  0.00000000000E+00  0.00000000000E+00  0.13866271302E+04  0.14911655439E+04  0.54848872480E+03 0.  0.
        2    1    3    3  502    0 -0.57134509441E+02  0.16443989109E+03  0.12694245880E+04  0.12813054337E+04  0.25500000920E-02 0.  1.
       -2    1    3    3    0  502  0.57134509441E+02 -0.16443989109E+03  0.11720254225E+03  0.20986011023E+03  0.25500000920E-02 0. -1.
</event>
<event>
 5   0  0.9497860E-02  0.5829962E+03  0.7818609E-02  0.9941325E-01
       -1   -1    0    0    0  501  0.00000000000E+00  0.00000000000E+00  0.41846719535E+03  0.41846719538E+03  0.50400001928E-02 0.  1.
        1   -1    0    0  501    0  0.00000000000E+00  0.00000000000E+00 -0.20305329585E+03  0.20305329591E+03  0.50400001928E-02 0. -1.
    10030    2    1    2    0    0  0.00000000000E+00  0.00000000000E+00  0.21541389950E+03  0.62152049130E+03  0.58299620325E+03 0.  0.
        5    1    3    3  502    0 -0.52104942127E+02  0.19444444270E+03 -0.11699447378E+03  0.23288057709E+03  0.46999998093E+01 0. -1.
       -5    1    3    3    0  502  0.52104942127E+02 -0.19444444270E+03  0.33240837328E+03  0.38863991421E+03  0.46999998093E+01 0.  1.
</event>
<event>
 5   0  0.9411028E-02  0.6271680E+03  0.7818609E-02  0.9850591E-01
       -1   -1    0    0    0  501  0.00000000000E+00  0.00000000000E+00  0.13470400337E+04  0.13470400337E+04  0.50400001928E-02 0.  1.
        1   -1    0    0  501    0  0.00000000000E+00  0.00000000000E+00 -0.73000752887E+02  0.73000753061E+02  0.50400001928E-02 0. -1.
    10030    2    1    2    0    0  0.00000000000E+00  0.00000000000E+00  0.12740392808E+04  0.14200407867E+04  0.62716803731E+03 0.  0.
        4    1    3    3  502    0  0.71067712397E+02  0.93767444284E+02 -0.21123726613E+02  0.11954404242E+03  0.12699999809E+01 0. -1.
       -4    1    3    3    0  502 -0.71067712397E+02 -0.93767444284E+02  0.12951630074E+04  0.13004967443E+04  0.12699999809E+01 0.  1.
</event>
<event>
 5   0  0.8860626E-02  0.6266310E+03  0.7818609E-02  0.9851645E-01
       -1   -1    0    0    0  501  0.00000000000E+00  0.00000000000E+00  0.70826285168E+03  0.70826285170E+03  0.50400001928E-02 0. -1.
        1   -1    0    0  501    0  0.00000000000E+00  0.00000000000E+00 -0.13860195044E+03  0.13860195053E+03  0.50400001928E-02 0.  1.
    10030    2    1    2    0    0  0.00000000000E+00  0.00000000000E+00  0.56966090124E+03  0.84686480223E+03  0.62663103247E+03 0.  0.
        3    1    3    3  502    0 -0.20844414930E+02  0.25952218772E+02 -0.13620550473E+03  0.14021396868E+03  0.10100000352E+00 0.  1.
       -3    1    3    3    0  502  0.20844414930E+02 -0.25952218772E+02  0.70586640596E+03  0.70665083355E+03  0.10100000352E+00 0. -1.
</event>
<event>
 5   0  0.9497860E-02  0.5520495E+03  0.7818609E-02  0.1001021E+00
       -1   -1    0    0    0  501  0.00000000000E+00  0.00000000000E+00  0.29781490143E+03  0.29781490147E+03  0.50400001928E-02 0. -1.
        1   -1    0    0  501    0  0.00000000000E+00  0.00000000000E+00 -0.25582894913E+03  0.25582894918E+03  0.50400001928E-02 0.  1.
    10030    2    1    2    0    0  0.00000000000E+00  0.00000000000E+00  0.41985952305E+02  0.55364385065E+03  0.55204953869E+03 0.  0.
        5    1    3    3  502    0  0.11133963286E+03 -0.14374946399E+03 -0.18722927635E+03  0.26103125132E+03  0.46999998093E+01 0.  1.
       -5    1    3    3    0  502 -0.11133963286E+03  0.14374946399E+03  0.22921522866E+03  0.29261259933E+03  0.46999998093E+01 0. -1.
</event>
<event>
 5   0  0.9411028E-02  0.5796178E+03  0.7818609E-02  0.9948619E-01
       -1   -1    0    0    0  501  0.00000000000E+00  0.00000000000E+00  0.61866740760E+02  0.61866740965E+02  0.50400001928E-02 0.  1.
        1   -1    0    0  501    0  0.00000000000E+00  0.00000000000E+00 -0.13575824246E+04  0.13575824246E+04  0.50400001928E-02 0. -1.
    10030    2    1    2    0    0  0.00000000000E+00  0.00000000000E+00 -0.12957156839E+04  0.14194491656E+04  0.57961780537E+03 0.  0.
        4    1    3    3  502    0  0.22776640912E+03  0.99813951031E+02 -0.28340798265E+03  0.37704384290E+03  0.12699999809E+01 0.  1.
       -4    1    3    3    0  502 -0.22776640912E+03 -0.99813951031E+02 -0.10123077012E+04  0.10424053227E+04  0.12699999809E+01 0. -1.
</event>
<event>
 5   0  0.9420349E-02  0.6217041E+03  0.7818609E-02  0.9861373E-01
        1   -1    0    0  501    0  0.00000000000E+00  0.00000000000E+00  0.60500368332E+03  0.60500368334E+03  0.50400001928E-02 0. -1.
       -1   -1    0    0    0  501  0.00000000000E+00  0.00000000000E+00 -0.15971638484E+03  0.15971638492E+03  0.50400001928E-02 0.  1.
    10030    2    1    2    0    0  0.00000000000E+00  0.00000000000E+00  0.44528729848E+03  0.76472006827E+03  0.62170411341E+03 0.  0.
        2    1    3    3  502    0 -0.88102890796E+02  0.29573418841E+03  0.26880160173E+03  0.40923725473E+03  0.25500000920E-02 0. -1.
       -2    1    3    3    0  502  0.88102890796E+02 -0.29573418841E+03  0.17648569675E+03  0.35548281354E+03  0.25500000920E-02 0.  1.
</event>
<event>
 5   0  0.1532571E-01  0.5876371E+03  0.7818609E-02  0.9931392E-01
        2   -1    0    0  501    0  0.00000000000E+00  0.00000000000E+00  0.13614473513E+03  0.13614473515E+03  0.25500000920E-02 0. -1.
       -2   -1    0    0    0  501  0.00000000000E+00  0.00000000000E+00 -0.63409968314E+03  0.63409968315E+03  0.25500000920E-02 0.  1.
    10030    2    1    2    0    0  0.00000000000E+00  0.00000000000E+00 -0.49795494802E+03  0.77024441830E+03  0.58763707649E+03 0.  0.
        1    1    3    3  502    0 -0.19002632142E+03 -0.55669715420E+02 -0.53350415276E+03  0.56906572651E+03  0.50400001928E-02 0.  1.
       -1    1    3    3    0  502  0.19002632142E+03  0.55669715420E+02  0.35549204741E+02  0.20117869179E+03  0.50400001928E-02 0. -1.
</event>
<event>
 5   0  0.1502642E-01  0.5893521E+03  0.7818609E-02  0.9927747E-01
       -2   -1    0    0    0  501  0.00000000000E+00  0.00000000000E+00  0.72566007772E+03  0.72566007773E+03  0.25500000920E-02 0. -1.
        2   -1    0    0  501    0  0.00000000000E+00  0.00000000000E+00 -0.11966206958E+03  0.11966206961E+03  0.25500000920E-02 0.  1.
    10030    2    1    2    0    0  0.00000000000E+00  0.00000000000E+00  0.60599800814E+03  0.84532214734E+03  0.58935214169E+03 0.  0.
        2    1    3    3  502    0 -0.66969581429E+02 -0.96462965826E+02  0.69064877428E+03  0.70056103092E+03  0.25500000920E-02 0. -1.
       -2    1    3    3    0  502  0.66969581429E+02  0.96462965826E+02 -0.84650766144E+02  0.14476111642E+03  0.25500000920E-02 0.  1.
</event>
<event>
 5   0  0.1513339E-01  0.5299035E+03  0.7818609E-02  0.1006256E+00
       -2   -1    0    0    0  501  0.00000000000E+00  0.00000000000E+00  0.56666634549E+03  0.56666634550E+03  0.25500000920E-02 0. -1.
        2   -1    0    0  501    0  0.00000000000E+00  0.00000000000E+00 -0.12388140619E+03  0.12388140621E+03  0.25500000920E-02 0.  1.
    10030    2    1    2    0    0  0.00000000000E+00  0.00000000000E+00  0.44278493931E+03  0.69054775171E+03  0.52990347698E+03 0.  0.
        3    1    3    3  502    0  0.26414306787E+02 -0.15890185781E+03  0.49552646480E+03  0.52105086463E+03  0.10100000352E+00 0. -1.
       -3    1    3    3    0  502 -0.26414306787E+02  0.15890185781E+03 -0.52741525493E+02  0.16949688708E+03  0.10100000352E+00 0.  1.
</event>
<event>
 5   0  0.1488510E-01  0.4700774E+03  0.7818609E-02  0.1021898E+00
       -2   -1    0    0    0  501  0.00000000000E+00  0.00000000000E+00  0.61447133072E+03  0.61447133072E+03  0.25500000920E-02 0. -1.
        2   -1    0    0  501    0  0.00000000000E+00  0.00000000000E+00 -0.89903610644E+02  0.89903610681E+02  0.25500000920E-02 0.  1.
    10030    2    1    2    0    0  0.00000000000E+00  0.00000000000E+00  0.52456772007E+03  0.70437494140E+03  0.47007740334E+03 0.  0.
        5    1    3    3  502    0 -0.38411884683E+02 -0.14629447171E+03  0.53176501813E+03  0.55287762646E+03  0.46999998093E+01 0. -1.
       -5    1    3    3    0  502  0.38411884683E+02  0.14629447171E+03 -0.71972980550E+01  0.15149731494E+03  0.46999998093E+01 0.  1.
</event>
<event>
 5   0  0.6170500E-02  0.6233926E+03  0.7818609E-02  0.9858028E-01
       -3   -1    0    0    0  501  0.00000000000E+00  0.00000000000E+00  0.68161449940E+03  0.68161450688E+03  0.10100000352E+00 0. -1.
        3   -1    0    0  501    0  0.00000000000E+00  0.00000000000E+00 -0.14253594019E+03  0.14253597597E+03  0.10100000352E+00 0.  1.
    10030    2    1    2    0    0  0.00000000000E+00  0.00000000000E+00  0.53907855921E+03  0.82415048285E+03  0.62339259331E+03 0.  0.
        4    1    3    3  502    0 -0.29586333542E+03 -0.96155770367E+02  0.24404331696E+03  0.39539827879E+03  0.12699999809E+01 0.  1.
       -4    1    3    3    0  502  0.29586333542E+03  0.96155770367E+02  0.29503524224E+03  0.42875220406E+03  0.12699999809E+01 0. -1.
</event>
<event>
 5   0  0.8860626E-02  0.6114376E+03  0.7818609E-02  0.9881957E-01
       -1   -1    0    0    0  501  0.00000000000E+00  0.00000000000E+00  0.13559502920E+03  0.13559502930E+03  0.50400001928E-02 0.  1.
        1   -1    0    0  501    0  0.00000000000E+00  0.00000000000E+00 -0.68928758656E+03  0.68928758658E+03  0.50400001928E-02 0. -1.
    10030    2    1    2    0    0  0.00000000000E+00  0.00000000000E+00 -0.55369255736E+03  0.82488261587E+03  0.61143755356E+03 0.  0.
        3    1    3    3  502    0 -0.11411028179E+02 -0.10326221349E+03 -0.66474268406E+03  0.67281211531E+03  0.10100000352E+00 0. -1.
       -3    1    3    3    0  502  0.11411028179E+02  0.10326221349E+03  0.11105012670E+03  0.15207050056E+03  0.10100000352E+00 0.  1.
</event>
<event>
 5   0  0.6170500E-02  0.5979707E+03  0.7818609E-02  0.9909625E-01
        3   -1    0    0  501    0  0.00000000000E+00  0.00000000000E+00  0.21893939591E+03  0.21893941920E+03  0.10100000352E+00 0. -1.
       -3   -1    0    0    0  501  0.00000000000E+00  0.00000000000E+00 -0.40829664295E+03  0.40829665544E+03  0.10100000352E+00 0.  1.
    10030    2    1    2    0    0  0.00000000000E+00  0.00000000000E+00 -0.18935724704E+03  0.62723607465E+03  0.59797067347E+03 0.  0.
        3    1    3    3  502    0  0.73969920745E+02  0.28797027244E+03 -0.61611271802E+02  0.30363528451E+03  0.10100000352E+00 0.  1.
       -3    1    3    3    0  502 -0.73969920745E+02 -0.28797027244E+03 -0.12774597524E+03  0.32360079014E+03  0.10100000352E+00 0. -1.
</event>
<event>
 5   0  0.9420349E-02  0.5952043E+03  0.7818609E-02  0.9915406E-01
        1   -1    0    0  501    0  0.00000000000E+00  0.00000000000E+00  0.35687480519E+03  0.35687480522E+03  0.50400001928E-02 0. -1.
       -1   -1    0    0    0  501  0.00000000000E+00  0.00000000000E+00 -0.24817395440E+03  0.24817395445E+03  0.50400001928E-02 0.  1.
    10030    2    1    2    0    0  0.00000000000E+00  0.00000000000E+00  0.10870085079E+03  0.60504875967E+03  0.59520427302E+03 0.  0.
        2    1    3    3  502    0 -0.84052938751E+02 -0.28403996836E+03  0.25180314785E+02  0.29728378428E+03  0.25500000920E-02 0.  1.
       -2    1    3    3    0  502  0.84052938751E+02  0.28403996836E+03  0.83520536000E+02  0.30776497539E+03  0.25500000920E-02 0. -1.
</event>
<event>
 5   0  0.8860626E-02  0.6095321E+03  0.7818609E-02  0.9885825E-01
        1   -1    0    0  501    0  0.00000000000E+00  0.00000000000E+00  0.31262500937E+03  0.31262500941E+03  0.50400001928E-02 0. -1.
       -1   -1    0    0    0  501  0.00000000000E+00  0.00000000000E+00 -0.29710465877E+03  0.29710465881E+03  0.50400001928E-02 0.  1.
    10030    2    1    2    0    0  0.00000000000E+00  0.00000000000E+00  0.15520350597E+02  0.60972966822E+03  0.60953210500E+03 0.  0.
        3    1    3    3  502    0  0.77228502902E+02  0.12709835498E+03 -0.25834127716E+03  0.29809136047E+03  0.10100000352E+00 0.  1.
       -3    1    3    3    0  502 -0.77228502902E+02 -0.12709835498E+03  0.27386162776E+03  0.31163830775E+03  0.10100000352E+00 0. -1.
</event>
<event>
 5   0  0.1502642E-01  0.5539447E+03  0.7818609E-02  0.1000585E+00
        2   -1    0    0  501    0  0.00000000000E+00  0.00000000000E+00  0.18266664721E+03  0.18266664723E+03  0.25500000920E-02 0.  1.
       -2   -1    0    0    0  501  0.00000000000E+00  0.00000000000E+00 -0.41996543568E+03  0.41996543568E+03  0.25500000920E-02 0. -1.
    10030    2    1    2    0    0  0.00000000000E+00  0.00000000000E+00 -0.23729878847E+03  0.60263208291E+03  0.55394468347E+03 0.  0.
        2    1    3    3  502    0 -0.23479729256E+03  0.13346463396E+03 -0.51842707964E+02  0.27500953345E+03  0.25500000920E-02 0.  1.
       -2    1    3    3    0  502  0.23479729256E+03 -0.13346463396E+03 -0.18545608050E+03  0.32762254946E+03  0.25500000920E-02 0. -1.
</event>
<event>
 5   0  0.1532571E-01  0.5933336E+03  0.7818609E-02  0.9919334E-01
        2   -1    0    0  501    0  0.00000000000E+00  0.00000000000E+00  0.10918432453E+04  0.10918432453E+04  0.25500000920E-02 0. -1.
       -2   -1    0    0    0  501  0.00000000000E+00  0.00000000000E+00 -0.80607908537E+02  0.80607908577E+02  0.25500000920E-02 0.  1.
    10030    2    1    2    0    0  0.00000000000E+00  0.00000000000E+00  0.10112353367E+04  0.11724511538E+04  0.59333363456E+03 0.  0.
        1    1    3    3  502    0  0.13843275109E+02  0.18693909880E+03  0.95999238034E+03  0.97812229975E+03  0.50400001928E-02 0. -1.
       -1    1    3    3    0  502 -0.13843275109E+02 -0.18693909880E+03  0.51242956375E+02  0.19432885408E+03  0.50400001928E-02 0.  1.
</event>
<event>
 5   0  0.1532571E-01  0.6004758E+03  0.7818609E-02  0.9904419E-01
        2   -1    0    0  501    0  0.00000000000E+00  0.00000000000E+00  0.15250507059E+04  0.15250507059E+04  0.25500000920E-02 0.  1.
       -2   -1    0    0    0  501  0.00000000000E+00  0.00000000000E+00 -0.59108060622E+02  0.59108060677E+02  0.25500000920E-02 0. -1.
    10030    2    1    2    0    0  0.00000000000E+00  0.00000000000E+00  0.14659426453E+04  0.15841587666E+04  0.60047577677E+03 0.  0.
        1    1    3    3  502    0  0.58900859704E+00  0.19593639161E+03  0.13331273210E+04  0.13474493944E+04  0.50400001928E-02 0.  1.
       -1    1    3    3    0  502 -0.58900859704E+00 -0.19593639161E+03  0.13281532431E+03  0.23670937220E+03  0.50400001928E-02 0. -1.
</event>
<event>
 5   0  0.1513339E-01  0.5974584E+03  0.7818609E-02  0.9910693E-01
        2   -1    0    0  501    0  0.00000000000E+00  0.00000000000E+00  0.10225875349E+04  0.10225875349E+04  0.25500000920E-02 0.  1.
       -2   -1    0    0    0  501  0.00000000000E+00  0.00000000000E+00 -0.87267968109E+02  0.87267968146E+02  0.25500000920E-02 0. -1.
    10030    2    1    2    0    0  0.00000000000E+00  0.00000000000E+00  0.93531956675E+03  0.11098555030E+04  0.59745840492E+03 0.  0.
        3    1    3    3  502    0  0.33057137446E+02  0.13254811899E+03 -0.25845074911E+02  0.13903149385E+03  0.10100000352E+00 0. -1.
       -3    1    3    3    0  502 -0.33057137446E+02 -0.13254811899E+03  0.96116464166E+03  0.97082400916E+03  0.10100000352E+00 0.  1.
</event>
<event>
 5   0  0.9420349E-02  0.5524879E+03  0.7818609E-02  0.1000920E+00
        1   -1    0    0  501    0  0.00000000000E+00  0.00000000000E+00  0.24778950061E+03  0.24778950067E+03  0.50400001928E-02 0.  1.
       -1   -1    0    0    0  501  0.00000000000E+00  0.00000000000E+00 -0.30796594147E+03  0.30796594151E+03  0.50400001928E-02 0. -1.
    10030    2    1    2    0    0  0.00000000000E+00  0.00000000000E+00 -0.60176440851E+02  0.55575544217E+03  0.55248792518E+03 0.  0.
        2    1    3    3  502    0 -0.25838738477E+03 -0.23236108143E+02  0.65377061277E+02  0.26754087066E+03  0.25500000920E-02 0.  1.
       -2    1    3    3    0  502  0.25838738477E+03  0.23236108143E+02 -0.12555350213E+03  0.28821457151E+03  0.25500000920E-02 0. -1.
</event>
<event>
 5   0  0.1532571E-01  0.6125420E+03  0.7818609E-02  0.9879722E-01
       -2   -1    0    0    0  501  0.00000000000E+00  0.00000000000E+00  0.11395771872E+03  0.11395771875E+03  0.25500000920E-02 0. -1.
        2   -1    0    0  501    0  0.00000000000E+00  0.00000000000E+00 -0.82312924779E+03  0.82312924779E+03  0.25500000920E-02 0.  1.
    10030    2    1    2    0    0  0.00000000000E+00  0.00000000000E+00 -0.70917152907E+03  0.93708696654E+03  0.61254201915E+03 0.  0.
        1    1    3    3  502    0 -0.17865604794E+03  0.45980257122E+02 -0.72859711423E+03  0.75158893180E+03  0.50400001928E-02 0.  1.
       -1    1    3    3    0  502  0.17865604794E+03 -0.45980257122E+02  0.19425585162E+02  0.18549803475E+03  0.50400001928E-02 0. -1.
</event>
<event>
 5   0  0.9420349E-02  0.5904213E+03  0.7818609E-02  0.9925481E-01
        1   -1    0    0  501    0  0.00000000000E+00  0.00000000000E+00  0.69205696935E+03  0.69205696937E+03  0.50400001928E-02 0. -1.
       -1   -1    0    0    0  501  0.00000000000E+00  0.00000000000E+00 -0.12592795465E+03  0.12592795475E+03  0.50400001928E-02 0.  1.
    10030    2    1    2    0    0  0.00000000000E+00  0.00000000000E+00  0.56612901470E+03  0.81798492412E+03  0.59042126893E+03 0.  0.
        2    1    3    3  502    0 -0.12355394174E+03  0.22140825680E+03  0.49254404786E+03  0.55397367427E+03  0.25500000920E-02 0. -1.
       -2    1    3    3    0  502  0.12355394174E+03 -0.22140825680E+03  0.73584966838E+02  0.26401124985E+03  0.25500000920E-02 0.  1.
</event>
<event>
 5   0  0.1488510E-01  0.6161317E+03  0.7818609E-02  0.9872492E-01
       -2   -1    0    0    0  501  0.00000000000E+00  0.00000000000E+00  0.68826314762E+03  0.68826314763E+03  0.25500000920E-02 0. -1.
        2   -1    0    0  501    0  0.00000000000E+00  0.00000000000E+00 -0.13788993800E+03  0.13788993802E+03  0.25500000920E-02 0.  1.
    10030    2    1    2    0    0  0.00000000000E+00  0.00000000000E+00  0.55037320962E+03  0.82615308565E+03  0.61613168321E+03 0.  0.
        5    1    3    3  502    0  0.12650456597E+03 -0.52535132353E+02 -0.94755606211E+02  0.16662550900E+03  0.46999998093E+01 0.  1.
       -5    1    3    3    0  502 -0.12650456597E+03  0.52535132353E+02  0.64512881584E+03  0.65952757665E+03  0.46999998093E+01 0. -1.
</event>
<event>
 5   0  0.1513339E-01  0.6003312E+03  0.7818609E-02  0.9904719E-01
        2   -1    0    0  501    0  0.00000000000E+00  0.00000000000E+00  0.16606559468E+04  0.16606559468E+04  0.25500000920E-02 0. -1.
       -2   -1    0    0    0  501  0.00000000000E+00  0.00000000000E+00 -0.54255308256E+02  0.54255308316E+02  0.25500000920E-02 0.  1.
    10030    2    1    2    0    0  0.00000000000E+00  0.00000000000E+00  0.16064006385E+04  0.17149112551E+04  0.60033124307E+03 0.  0.
        3    1    3    3  502    0 -0.54798606597E+02 -0.75386993083E+02  0.16182768629E+04  0.16209583897E+04  0.10100000352E+00 0. -1.
       -3    1    3    3    0  502  0.54798606597E+02  0.75386993083E+02 -0.11876224352E+02  0.93952865401E+02  0.10100000352E+00 0.  1.
</event>
<event>
 5   0  0.9420349E-02  0.6084146E+03  0.7818609E-02  0.9888101E-01
       -1   -1    0    0    0  501  0.00000000000E+00  0.00000000000E+00  0.22091089804E+03  0.22091089810E+03  0.50400001928E-02 0.  1.
        1   -1    0    0  501    0  0.00000000000E+00  0.00000000000E+00 -0.41891130944E+03  0.41891130947E+03  0.50400001928E-02 0. -1.
    10030    2    1    2    0    0  0.00000000000E+00  0.00000000000E+00 -0.19800041140E+03  0.63982220757E+03  0.60841457444E+03 0.  0.
        2    1    3    3  502    0  0.14886033553E+03  0.13503543106E+03 -0.33914820492E+03  0.39422769061E+03  0.25500000920E-02 0. -1.
       -2    1    3    3    0  502 -0.14886033553E+03 -0.13503543106E+03  0.14114779353E+03  0.24559451696E+03  0.25500000920E-02 0.  1.
</event>
<event>
 5   0  0.6170500E-02  0.6029155E+03  0.7818609E-02  0.9899376E-01
        4   -1    0    0  501    0  0.00000000000E+00  0.00000000000E+00  0.42619557590E+03  0.42619746811E+03  0.12699999809E+01 0. -1.
       -4   -1    0    0    0  501  0.00000000000E+00  0.00000000000E+00 -0.21322360865E+03  0.21322739079E+03  0.12699999809E+01 0.  1.
    10030    2    1    2    0    0  0.00000000000E+00  0.00000000000E+00  0.21297196725E+03  0.63942485890E+03  0.60291549270E+03 0.  0.
        5    1    3    3  502    0  0.95227393258E+02 -0.59801392561E+02 -0.19010969965E+03  0.22092589454E+03  0.46999998093E+01 0.  1.
       -5    1    3    3    0  502 -0.95227393258E+02  0.59801392561E+02  0.40308166690E+03  0.41849896436E+03  0.46999998093E+01 0. -1.
</event>
<event>
 5   0  0.6170500E-02  0.5251286E+03  0.7818609E-02  0.1007420E+00
       -3   -1    0    0    0  501  0.00000000000E+00  0.00000000000E+00  0.17920867957E+03  0.17920870803E+03  0.10100000352E+00 0. -1.
        3   -1    0    0  501    0  0.00000000000E+00  0.00000000000E+00 -0.38469113366E+03  0.38469114692E+03  0.10100000352E+00 0.  1.
    10030    2    1    2    0    0  0.00000000000E+00  0.00000000000E+00 -0.20548245409E+03  0.56389985495E+03  0.52512856280E+03 0.  0.
        4    1    3    3  502    0  0.17360214712E+03 -0.15186184389E+03  0.31975111840E+02  0.23285992740E+03  0.12699999809E+01 0. -1.
       -4    1    3    3    0  502 -0.17360214712E+03  0.15186184389E+03 -0.23745756593E+03  0.33103992755E+03  0.12699999809E+01 0.  1.
</event>
<event>
 5   0  0.9497860E-02  0.5689649E+03  0.7818609E-02  0.9971972E-01
        1   -1    0    0  501    0  0.00000000000E+00  0.00000000000E+00  0.11116255634E+03  0.11116255645E+03  0.50400001928E-02 0.  1.
       -1   -1    0    0    0  501  0.00000000000E+00  0.00000000000E+00 -0.72803520936E+03  0.72803520938E+03  0.50400001928E-02 0. -1.
    10030    2    1    2    0    0  0.00000000000E+00  0.00000000000E+00 -0.61687265303E+03  0.83919776583E+03  0.56896486721E+03 0.  0.
        5    1    3    3  502    0 -0.10782017610E+03  0.22386557341E+03 -0.10423527405E+03  0.26949595115E+03  0.46999998093E+01 0.  1.
       -5    1    3    3    0  502  0.10782017610E+03 -0.22386557341E+03 -0.51263737898E+03  0.56970181468E+03  0.46999998093E+01 0. -1.
</event>
<event>
 5   0  0.1502642E-01  0.5777320E+03  0.7818609E-02  0.9952713E-01
       -2   -1    0    0    0  501  0.00000000000E+00  0.00000000000E+00  0.51799292751E+03  0.51799292752E+03  0.25500000920E-02 0. -1.
        2   -1    0    0  501    0  0.00000000000E+00  0.00000000000E+00 -0.16109017672E+03  0.16109017674E+03  0.25500000920E-02 0.  1.
    10030    2    1    2    0    0  0.00000000000E+00  0.00000000000E+00  0.35690275079E+03  0.67908310425E+03  0.57773202175E+03 0.  0.
        2    1    3    3  502    0  0.27205501595E+03 -0.43005567634E+02  0.76113659396E+02  0.28575636424E+03  0.25500000920E-02 0.  1.
       -2    1    3    3    0  502 -0.27205501595E+03  0.43005567634E+02  0.28078909140E+03  0.39332674001E+03  0.25500000920E-02 0. -1.
</event>
<event>
 5   0  0.1502642E-01  0.6326928E+03  0.7818609E-02  0.9839808E-01
       -2   -1    0    0    0  501  0.00000000000E+00  0.00000000000E+00  0.16384164358E+03  0.16384164360E+03  0.25500000920E-02 0. -1.
        2   -1    0    0  501    0  0.00000000000E+00  0.00000000000E+00 -0.61080355587E+03  0.61080355588E+03  0.25500000920E-02 0.  1.
    10030    2    1    2    0    0  0.00000000000E+00  0.00000000000E+00 -0.44696191229E+03  0.77464519948E+03  0.63269284336E+03 0.  0.
        2    1    3    3  502    0 -0.21797675491E+03  0.94192792488E+02 -0.47939582529E+03  0.53498271481E+03  0.25500000920E-02 0.  1.
       -2    1    3    3    0  502  0.21797675491E+03 -0.94192792488E+02  0.32433912997E+02  0.23966248467E+03  0.25500000920E-02 0. -1.
</event>
<event>
 5   0  0.8860626E-02  0.6213488E+03  0.7818609E-02  0.9862078E-01
        1   -1    0    0  501    0  0.00000000000E+00  0.00000000000E+00  0.14658044311E+03  0.14658044320E+03  0.50400001928E-02 0.  1.
       -1   -1    0    0    0  501  0.00000000000E+00  0.00000000000E+00 -0.65846843736E+03  0.65846843738E+03  0.50400001928E-02 0. -1.
    10030    2    1    2    0    0  0.00000000000E+00  0.00000000000E+00 -0.51188799425E+03  0.80504888058E+03  0.62134884041E+03 0.  0.
        3    1    3    3  502    0  0.24869865239E+03  0.65263701076E+02 -0.48187832443E+03  0.54618412659E+03  0.10100000352E+00 0. -1.
       -3    1    3    3    0  502 -0.24869865239E+03 -0.65263701076E+02 -0.30009669817E+02  0.25886475400E+03  0.10100000352E+00 0.  1.
</event>
<event>
 5   0  0.1483942E-01  0.6113514E+03  0.7818609E-02  0.9882131E-01
       -2   -1    0    0    0  501  0.00000000000E+00  0.00000000000E+00  0.91242029774E+02  0.91242029810E+02  0.25500000920E-02 0.  1.
        2   -1    0    0  501    0  0.00000000000E+00  0.00000000000E+00 -0.10240634798E+04  0.10240634799E+04  0.25500000920E-02 0. -1.
    10030    2    1    2    0    0  0.00000000000E+00  0.00000000000E+00 -0.93282145007E+03  0.11153055097E+04  0.61135139009E+03 0.  0.
        4    1    3    3  502    0 -0.17445946438E+03  0.33843418091E+02 -0.92013155751E+03  0.93713669103E+03  0.12699999809E+01 0. -1.
       -4    1    3    3    0  502  0.17445946438E+03 -0.33843418091E+02 -0.12689892566E+02  0.17816881863E+03  0.12699999809E+01 0.  1.
</event>
<event>
 5   0  0.9177281E-02  0.5582621E+03  0.7818609E-02  0.9995995E-01
       -1   -1    0    0    0  501  0.00000000000E+00  0.00000000000E+00  0.38766590131E+03  0.38766590135E+03  0.50400001928E-02 0.  1.
        1   -1    0    0  501    0  0.00000000000E+00  0.00000000000E+00 -0.20098270052E+03  0.20098270059E+03  0.50400001928E-02 0. -1.
    10030    2    1    2    0    0  0.00000000000E+00  0.00000000000E+00  0.18668320079E+03  0.58864860193E+03  0.55826208818E+03 0.  0.
        1    1    3    3  502    0  0.23217864012E+03 -0.11625170609E+03  0.20135132125E+03  0.32857835396E+03  0.50400001928E-02 0. -1.
       -1    1    3    3    0  502 -0.23217864012E+03  0.11625170609E+03 -0.14668120464E+02  0.26007024797E+03  0.50400001928E-02 0.  1.
</event>
<event>
 5   0  0.1502642E-01  0.6086369E+03  0.7818609E-02  0.9887648E-01
        2   -1    0    0  501    0  0.00000000000E+00  0.00000000000E+00  0.14416260440E+03  0.14416260443E+03  0.25500000920E-02 0. -1.
       -2   -1    0    0    0  501  0.00000000000E+00  0.00000000000E+00 -0.64239755112E+03  0.64239755112E+03  0.25500000920E-02 0.  1.
    10030    2    1    2    0    0  0.00000000000E+00  0.00000000000E+00 -0.49823494671E+03  0.78656015555E+03  0.60863685082E+03 0.  0.
        2    1    3    3  502    0  0.40605791577E+02  0.29638941398E+03 -0.17699905681E+03  0.34759772891E+03  0.25500000920E-02 0. -1.
       -2    1    3    3    0  502 -0.40605791577E+02 -0.29638941398E+03 -0.32123588990E+03  0.43896242663E+03  0.25500000920E-02 0.  1.
</event>
<event>
 5   0  0.8860626E-02  0.5384252E+03  0.7818609E-02  0.1004209E+00
       -1   -1    0    0    0  501  0.00000000000E+00  0.00000000000E+00  0.78781960663E+02  0.78781960825E+02  0.50400001928E-02 0. -1.
        1   -1    0    0  501    0  0.00000000000E+00  0.00000000000E+00 -0.91994938855E+03  0.91994938856E+03  0.50400001928E-02 0.  1.
    10030    2    1    2    0    0  0.00000000000E+00  0.00000000000E+00 -0.84116742789E+03  0.99873134939E+03  0.53842517262E+03 0.  0.
        3    1    3    3  502    0  0.11863093794E+03  0.58811658943E+01  0.27551366797E+02  0.12193020775E+03  0.10100000352E+00 0. -1.
       -3    1    3    3    0  502 -0.11863093794E+03 -0.58811658943E+01 -0.86871879468E+03  0.87680114164E+03  0.10100000352E+00 0.  1.
</event>
<event>
 5   0  0.6170500E-02  0.5892733E+03  0.7818609E-02  0.9927914E-01
       -3   -1    0    0    0  501  0.00000000000E+00  0.00000000000E+00  0.48751598851E+03  0.48751599897E+03  0.10100000352E+00 0. -1.
        3   -1    0    0  501    0  0.00000000000E+00  0.00000000000E+00 -0.17806746662E+03  0.17806749527E+03  0.10100000352E+00 0.  1.
    10030    2    1    2    0    0  0.00000000000E+00  0.00000000000E+00  0.30944852189E+03  0.66558349424E+03  0.58927328134E+03 0.  0.
        4    1    3    3  502    0  0.14972145705E+03 -0.10291197742E+02  0.44110671488E+03  0.46593901990E+03  0.12699999809E+01 0. -1.
       -4    1    3    3    0  502 -0.14972145705E+03  0.10291197742E+02 -0.13165819299E+03  0.19964447434E+03  0.12699999809E+01 0.  1.
</event>
<event>
 5   0  0.1532571E-01  0.6001486E+03  0.7818609E-02  0.9905098E-01
        2   -1    0    0  501    0  0.00000000000E+00  0.00000000000E+00  0.10643996545E+04  0.10643996545E+04  0.25500000920E-02 0.  1.
       -2   -1    0    0    0  501  0.00000000000E+00  0.00000000000E+00 -0.84596580905E+02  0.84596580943E+02  0.25500000920E-02 0. -1.
    10030    2    1    2    0    0  0.00000000000E+00  0.00000000000E+00  0.97980307362E+03  0.11489962355E+04  0.60014855332E+03 0.  0.
        1    1    3    3  502    0 -0.17736857249E+03  0.67727862187E+02  0.45016019593E+02  0.19512333502E+03  0.50400001928E-02 0. -1.
       -1    1    3    3    0  502  0.17736857249E+03 -0.67727862187E+02  0.93478705402E+03  0.95387290045E+03  0.50400001928E-02 0.  1.
</event>
<event>
 5   0  0.1488510E-01  0.5999640E+03  0.7818609E-02  0.9905481E-01
        2   -1    0    0  501    0  0.00000000000E+00  0.00000000000E+00  0.10858178581E+03  0.10858178584E+03  0.25500000920E-02 0.  1.
       -2   -1    0    0    0  501  0.00000000000E+00  0.00000000000E+00 -0.82876880148E+03  0.82876880149E+03  0.25500000920E-02 0. -1.
    10030    2    1    2    0    0  0.00000000000E+00  0.00000000000E+00 -0.72018701567E+03  0.93735058733E+03  0.59996398727E+03 0.  0.
        5    1    3    3  502    0 -0.99315211729E+01 -0.87603641812E+02  0.87823058128E+02  0.12453117163E+03  0.46999998093E+01 0.  1.
       -5    1    3    3    0  502  0.99315211729E+01  0.87603641812E+02 -0.80801007380E+03  0.81281941569E+03  0.46999998093E+01 0. -1.
</event>
<event>
 5   0  0.9177281E-02  0.4642246E+03  0.7818609E-02  0.1023563E+00
        1   -1    0    0  501    0  0.00000000000E+00  0.00000000000E+00  0.13055750259E+03  0.13055750269E+03  0.50400001928E-02 0. -1.
       -1   -1    0    0    0  501  0.00000000000E+00  0.00000000000E+00 -0.41266205482E+03  0.41266205485E+03  0.50400001928E-02 0.  1.
    10030    2    1    2    0    0  0.00000000000E+00  0.00000000000E+00 -0.28210455223E+03  0.54321955754E+03  0.46422463238E+03 0.  0.
        1    1    3    3  502    0 -0.53885972866E+01  0.18653539494E+03  0.20462910215E+02  0.18773178011E+03  0.50400001928E-02 0. -1.
       -1    1    3    3    0  502  0.53885972866E+01 -0.18653539494E+03 -0.30256746244E+03  0.35548777743E+03  0.50400001928E-02 0.  1.
</event>
<event>
 5   0  0.9420349E-02  0.6062043E+03  0.7818609E-02  0.9892617E-01
        1   -1    0    0  501    0  0.00000000000E+00  0.00000000000E+00  0.88874165068E+03  0.88874165069E+03  0.50400001928E-02 0.  1.
       -1   -1    0    0    0  501  0.00000000000E+00  0.00000000000E+00 -0.10337191291E+03  0.10337191304E+03  0.50400001928E-02 0. -1.
    10030    2    1    2    0    0  0.00000000000E+00  0.00000000000E+00  0.78536973776E+03  0.99211356373E+03  0.60620433712E+03 0.  0.
        2    1    3    3  502    0 -0.72099700961E+02  0.23002020111E+03  0.69340642861E+03  0.73411180010E+03  0.25500000920E-02 0.  1.
       -2    1    3    3    0  502  0.72099700961E+02 -0.23002020111E+03  0.91963309150E+02  0.25800176363E+03  0.25500000920E-02 0. -1.
</event>
<event>
 5   0  0.9411028E-02  0.6039244E+03  0.7818609E-02  0.9897298E-01
        1   -1    0    0  501    0  0.00000000000E+00  0.00000000000E+00  0.58887059337E+03  0.58887059340E+03  0.50400001928E-02 0.  1.
       -1   -1    0    0    0  501  0.00000000000E+00  0.00000000000E+00 -0.15484074425E+03  0.15484074434E+03  0.50400001928E-02 0. -1.
    10030    2    1    2    0    0  0.00000000000E+00  0.00000000000E+00  0.43402984912E+03  0.74371133773E+03  0.60392436939E+03 0.  0.
        4    1    3    3  502    0  0.88555608014E+02 -0.60544419751E+01  0.57243865742E+03  0.57928091751E+03  0.12699999809E+01 0.  1.
       -4    1    3    3    0  502 -0.88555608014E+02  0.60544419751E+01 -0.13840880830E+03  0.16443042022E+03  0.12699999809E+01 0. -1.
</event>
<event>
 5   0  0.1502642E-01  0.5985404E+03  0.7818609E-02  0.9908439E-01
       -2   -1    0    0    0  501  0.00000000000E+00  0.00000000000E+00  0.55272180845E+03  0.55272180846E+03  0.25500000920E-02 0.  1.
        2   -1    0    0  501    0  0.00000000000E+00  0.00000000000E+00 -0.16203932040E+03  0.16203932042E+03  0.25500000920E-02 0. -1.
    10030    2    1    2    0    0  0.00000000000E+00  0.00000000000E+00  0.39068248805E+03  0.71476112888E+03  0.59854044549E+03 0.  0.
        2    1    3    3  502    0  0.18846759951E+03  0.30199937954E+02  0.47059912284E+03  0.50783423155E+03  0.25500000920E-02 0.  1.
       -2    1    3    3    0  502 -0.18846759951E+03 -0.30199937954E+02 -0.79916634785E+02  0.20692689733E+03  0.25500000920E-02 0. -1.
</event>
<event>
 5   0  0.1502642E-01  0.5667380E+03  0.7818609E-02  0.9976923E-01
       -2   -1    0    0    0  501  0.00000000000E+00  0.00000000000E+00  0.13765867093E+03  0.13765867095E+03  0.25500000920E-02 0.  1.
        2   -1    0    0  501    0  0.00000000000E+00  0.00000000000E+00 -0.58331225902E+03  0.58331225903E+03  0.25500000920E-02 0. -1.
    10030    2    1    2    0    0  0.00000000000E+00  0.00000000000E+00 -0.44565358809E+03  0.72097092998E+03  0.56673800057E+03 0.  0.
        2    1    3    3  502    0 -0.12334662904E+03 -0.10993640731E+03 -0.51568909051E+03  0.54151236609E+03  0.25500000920E-02 0. -1.
       -2    1    3    3    0  502  0.12334662904E+03  0.10993640731E+03  0.70035502415E+02  0.17945856389E+03  0.25500000920E-02 0.  1.
</event>
<event>
 5   0  0.1483942E-01  0.6167783E+03  0.7818609E-02  0.9871195E-01
        2   -1    0    0  501    0  0.00000000000E+00  0.00000000000E+00  0.47077659163E+03  0.47077659164E+03  0.25500000920E-02 0. -1.
       -2   -1    0    0    0  501  0.00000000000E+00  0.00000000000E+00 -0.20201488868E+03  0.20201488870E+03  0.25500000920E-02 0.  1.
    10030    2    1    2    0    0  0.00000000000E+00  0.00000000000E+00  0.26876170295E+03  0.67279148033E+03  0.61677834190E+03 0.  0.
        4    1    3    3  502    0 -0.21147045992E+03  0.54244246022E+01 -0.11039266284E+03  0.23861544944E+03  0.12699999809E+01 0.  1.
       -4    1    3    3    0  502  0.21147045992E+03 -0.54244246022E+01  0.37915436579E+03  0.43417603089E+03  0.12699999809E+01 0. -1.
</event>
<event>
 5   0  0.6170500E-02  0.6014290E+03  0.7818609E-02  0.9902446E-01
       -3   -1    0    0    0  501  0.00000000000E+00  0.00000000000E+00  0.62573623096E+03  0.62573623911E+03  0.10100000352E+00 0. -1.
        3   -1    0    0  501    0  0.00000000000E+00  0.00000000000E+00 -0.14451649145E+03  0.14451652675E+03  0.10100000352E+00 0.  1.
    10030    2    1    2    0    0  0.00000000000E+00  0.00000000000E+00  0.48121973951E+03  0.77025276586E+03  0.60142903623E+03 0.  0.
        1    1    3    3  502    0 -0.10216033983E+03  0.46137063256E+02 -0.11675909451E+03  0.16185811631E+03  0.50400001928E-02 0.  1.
       -1    1    3    3    0  502  0.10216033983E+03 -0.46137063256E+02  0.59797883402E+03  0.60839464955E+03  0.50400001928E-02 0. -1.
</event>
<event>
 5   0  0.1488510E-01  0.6035553E+03  0.7818609E-02  0.9898057E-01
        2   -1    0    0  501    0  0.00000000000E+00  0.00000000000E+00  0.20406319800E+03  0.20406319802E+03  0.25500000920E-02 0.  1.
       -2   -1    0    0    0  501  0.00000000000E+00  0.00000000000E+00 -0.44628208335E+03  0.44628208336E+03  0.25500000920E-02 0. -1.
    10030    2    1    2    0    0  0.00000000000E+00  0.00000000000E+00 -0.24221888535E+03  0.65034528137E+03  0.60355529704E+03 0.  0.
        5    1    3    3  502    0 -0.17512788020E+03 -0.13865780730E+03  0.97476313682E+02  0.24376112011E+03  0.46999998093E+01 0.  1.
       -5    1    3    3    0  502  0.17512788020E+03  0.13865780730E+03 -0.33969519903E+03  0.40658416126E+03  0.46999998093E+01 0. -1.
</event>
<event>
 5   0  0.1502642E-01  0.5613314E+03  0.7818609E-02  0.9989047E-01
       -2   -1    0    0    0  501  0.00000000000E+00  0.00000000000E+00  0.11093659253E+04  0.11093659253E+04  0.25500000920E-02 0.  1.
        2   -1    0    0  501    0  0.00000000000E+00  0.00000000000E+00 -0.71007448032E+02  0.71007448078E+02  0.25500000920E-02 0. -1.
    10030    2    1    2    0    0  0.00000000000E+00  0.00000000000E+00  0.10383584773E+04  0.11803733734E+04  0.56133142909E+03 0.  0.
        2    1    3    3  502    0 -0.45583875445E+02  0.16036376398E+03  0.44396500408E+02  0.17252673924E+03  0.25500000920E-02 0. -1.
       -2    1    3    3    0  502  0.45583875445E+02 -0.16036376398E+03  0.99396197691E+03  0.10078466342E+04  0.25500000920E-02 0.  1.
</event>
<event>
 5   0  0.1483942E-01  0.5992626E+03  0.7818609E-02  0.9906937E-01
       -2   -1    0    0    0  501  0.00000000000E+00  0.00000000000E+00  0.11815496423E+03  0.11815496426E+03  0.25500000920E-02 0.  1.
        2   -1    0    0  501    0  0.00000000000E+00  0.00000000000E+00 -0.75984036183E+03  0.75984036184E+03  0.25500000920E-02 0. -1.
    10030    2    1    2    0    0  0.00000000000E+00  0.00000000000E+00 -0.64168539760E+03  0.87799532609E+03  0.59926258281E+03 0.  0.
        4    1    3    3  502    0 -0.24907927589E+03 -0.70298029679E+02 -0.54204764477E+03  0.60066593107E+03  0.12699999809E+01 0. -1.
       -4    1    3    3    0  502  0.24907927589E+03  0.70298029679E+02 -0.99637752833E+02  0.27732939502E+03  0.12699999809E+01 0.  1.
</event>
<event>
 5   0  0.1483942E-01  0.5938850E+03  0.7818609E-02  0.9918175E-01
       -2   -1    0    0    0  501  0.00000000000E+00  0.00000000000E+00  0.76416715958E+02  0.76416716001E+02  0.25500000920E-02 0. -1.
        2   -1    0    0  501    0  0.00000000000E+00  0.00000000000E+00 -0.11538683989E+04  0.11538683989E+04  0.25500000920E-02 0.  1.
    10030    2    1    2    0    0  0.00000000000E+00  0.00000000000E+00 -0.10774516829E+04  0.12302851149E+04  0.59388495088E+03 0.  0.
        4    1    3    3  502    0  0.46934433598E+02 -0.54285051278E+02  0.58177488992E+02  0.92390156265E+02  0.12699999809E+01 0. -1.
       -4    1    3    3    0  502 -0.46934433598E+02  0.54285051278E+02 -0.11356291719E+04  0.11378949586E+04  0.12699999809E+01 0.  1.
</event>
<event>
 5   0  0.1483942E-01  0.5932594E+03  0.7818609E-02  0.9919490E-01
       -2   -1    0    0    0  501  0.00000000000E+00  0.00000000000E+00  0.61723104993E+02  0.61723105046E+02  0.25500000920E-02 0. -1.
        2   -1    0    0  501    0  0.00000000000E+00  0.00000000000E+00 -0.14255470604E+04  0.14255470604E+04  0.25500000920E-02 0.  1.
    10030    2    1    2    0    0  0.00000000000E+00  0.00000000000E+00 -0.13638239554E+04  0.14872701654E+04  0.59325944045E+03 0.  0.
        4    1    3    3  502    0  0.18537186685E+03 -0.75269266086E+02 -0.12309242065E+04  0.12470782680E+04  0.12699999809E+01 0.  1.
       -4    1    3    3    0  502 -0.18537186685E+03  0.75269266086E+02 -0.13289974886E+03  0.24019189741E+03  0.12699999809E+01 0. -1.
</event>
<event>
 5   0  0.1488510E-01  0.5784689E+03  0.7818609E-02  0.9951111E-01
       -2   -1    0    0    0  501  0.00000000000E+00  0.00000000000E+00  0.79318227816E+02  0.79318227857E+02  0.25500000920E-02 0. -1.
        2   -1    0    0  501    0  0.00000000000E+00  0.00000000000E+00 -0.10546951900E+04  0.10546951900E+04  0.25500000920E-02 0.  1.
    10030    2    1    2    0    0  0.00000000000E+00  0.00000000000E+00 -0.97537696222E+03  0.11340134179E+04  0.57846885270E+03 0.  0.
        5    1    3    3  502    0  0.14449646841E+03 -0.90393100642E+02 -0.94569553974E+03  0.96094343533E+03  0.46999998093E+01 0.  1.
       -5    1    3    3    0  502 -0.14449646841E+03  0.90393100642E+02 -0.29681422481E+02  0.17306998257E+03  0.46999998093E+01 0. -1.
</event>
<event>
 5   0  0.9420349E-02  0.5974890E+03  0.7818609E-02  0.9910629E-01
       -1   -1    0    0    0  501  0.00000000000E+00  0.00000000000E+00  0.18391064906E+03  0.18391064913E+03  0.50400001928E-02 0. -1.
        1   -1    0    0  501    0  0.00000000000E+00  0.00000000000E+00 -0.48528058527E+03  0.48528058530E+03  0.50400001928E-02 0.  1.
    10030    2    1    2    0    0  0.00000000000E+00  0.00000000000E+00 -0.30136993622E+03  0.66919123442E+03  0.59748897042E+03 0.  0.
        2    1    3    3  502    0 -0.20213063040E+03 -0.74251891941E+02  0.81235073676E+02  0.23015054291E+03  0.25500000920E-02 0. -1.
       -2    1    3    3    0  502  0.20213063040E+03  0.74251891941E+02 -0.38260500989E+03  0.43904069151E+03  0.25500000920E-02 0.  1.
</event>
<event>
 5   0  0.1488510E-01  0.5707219E+03  0.7818609E-02  0.9968082E-01
       -2   -1    0    0    0  501  0.00000000000E+00  0.00000000000E+00  0.32858665852E+02  0.32858665951E+02  0.25500000920E-02 0. -1.
        2   -1    0    0  501    0  0.00000000000E+00  0.00000000000E+00 -0.24782162083E+04  0.24782162083E+04  0.25500000920E-02 0.  1.
    10030    2    1    2    0    0  0.00000000000E+00  0.00000000000E+00 -0.24453575425E+04  0.25110748743E+04  0.57072192327E+03 0.  0.
        5    1    3    3  502    0 -0.17569570821E+03  0.13342528239E+03 -0.20187608852E+04  0.20307852888E+04  0.46999998093E+01 0.  1.
       -5    1    3    3    0  502  0.17569570821E+03 -0.13342528239E+03 -0.42659665733E+03  0.48028958547E+03  0.46999998093E+01 0. -1.
</event>
<event>
 5   0  0.1513339E-01  0.5990050E+03  0.7818609E-02  0.9907472E-01
        2   -1    0    0  501    0  0.00000000000E+00  0.00000000000E+00  0.77575058124E+03  0.77575058125E+03  0.25500000920E-02 0.  1.
       -2   -1    0    0    0  501  0.00000000000E+00  0.00000000000E+00 -0.11563221665E+03  0.11563221667E+03  0.25500000920E-02 0. -1.
    10030    2    1    2    0    0  0.00000000000E+00  0.00000000000E+00  0.66011836460E+03  0.89138279792E+03  0.59900503934E+03 0.  0.
        3    1    3    3  502    0  0.23005893878E+03  0.12746351504E+03  0.11685104704E+03  0.28779895826E+03  0.10100000352E+00 0. -1.
       -3    1    3    3    0  502 -0.23005893878E+03 -0.12746351504E+03  0.54326731756E+03  0.60358383967E+03  0.10100000352E+00 0.  1.
</event>
<event>
 5   0  0.1488510E-01  0.5982805E+03  0.7818609E-02  0.9908980E-01
        2   -1    0    0  501    0  0.00000000000E+00  0.00000000000E+00  0.80340296043E+03  0.80340296043E+03  0.25500000920E-02 0. -1.
       -2   -1    0    0    0  501  0.00000000000E+00  0.00000000000E+00 -0.11138234140E+03  0.11138234143E+03  0.25500000920E-02 0.  1.
    10030    2    1    2    0    0  0.00000000000E+00  0.00000000000E+00  0.69202061902E+03  0.91478530186E+03  0.59828054569E+03 0.  0.
        5    1    3    3  502    0  0.69552148898E+02  0.65713832327E+02  0.77931262324E+03  0.78517900119E+03  0.46999998093E+01 0. -1.
       -5    1    3    3    0  502 -0.69552148898E+02 -0.65713832327E+02 -0.87292004215E+02  0.12960630067E+03  0.46999998093E+01 0.  1.
</event>
<event>
 5   0  0.9411028E-02  0.5446176E+03  0.7818609E-02  0.1002747E+00
        1   -1    0    0  501    0  0.00000000000E+00  0.00000000000E+00  0.48072005350E+03  0.48072005353E+03  0.50400001928E-02 0.  1.
       -1   -1    0    0    0  501  0.00000000000E+00  0.00000000000E+00 -0.15425211473E+03  0.15425211481E+03  0.50400001928E-02 0. -1.
    10030    2    1    2    0    0  0.00000000000E+00  0.00000000000E+00  0.32646793877E+03  0.63497216834E+03  0.54461760853E+03 0.  0.
        4    1    3    3  502    0  0.10572210200E+03 -0.22889988665E+03  0.28314741789E+03  0.37913901687E+03  0.12699999809E+01 0.  1.
       -4    1    3    3    0  502 -0.10572210200E+03  0.22889988665E+03  0.43320520881E+02  0.25583315146E+03  0.12699999809E+01 0. -1.
</event>
<event>
 5   0  0.9497860E-02  0.6994138E+03  0.7818609E-02  0.9718235E-01
        1   -1    0    0  501    0  0.00000000000E+00  0.00000000000E+00  0.87113486410E+03  0.87113486411E+03  0.50400001928E-02 0. -1.
       -1   -1    0    0    0  501  0.00000000000E+00  0.00000000000E+00 -0.14038573131E+03  0.14038573140E+03  0.50400001928E-02 0.  1.
    10030    2    1    2    0    0  0.00000000000E+00  0.00000000000E+00  0.73074913279E+03  0.10115205955E+04  0.69941376886E+03 0.  0.
        5    1    3    3  502    0 -0.33948247114E+03 -0.78202260817E+02  0.40897514001E+03  0.53725850106E+03  0.46999998093E+01 0.  1.
       -5    1    3    3    0  502  0.33948247114E+03  0.78202260817E+02  0.32177399277E+03  0.47426209445E+03  0.46999998093E+01 0. -1.
</event>
<event>
 5   0  0.8860626E-02  0.5967054E+03  0.7818609E-02  0.9912265E-01
       -1   -1    0    0    0  501  0.00000000000E+00  0.00000000000E+00  0.15603821877E+03  0.15603821885E+03  0.50400001928E-02 0.  1.
        1   -1    0    0  501    0  0.00000000000E+00  0.00000000000E+00 -0.57046497134E+03  0.57046497137E+03  0.50400001928E-02 0. -1.
    10030    2    1    2    0    0  0.00000000000E+00  0.00000000000E+00 -0.41442675258E+03  0.72650319021E+03  0.59670541487E+03 0.  0.
        3    1    3    3  502    0 -0.15362966004E+03 -0.10865683541E+03  0.74679457293E+02  0.20244854129E+03  0.10100000352E+00 0. -1.
       -3    1    3    3    0  502  0.15362966004E+03  0.10865683541E+03 -0.48910620987E+03  0.52405464893E+03  0.10100000352E+00 0.  1.
</event>
<event>
 5   0  0.6170500E-02  0.5815223E+03  0.7818609E-02  0.9944501E-01
       -3   -1    0    0    0  501  0.00000000000E+00  0.00000000000E+00  0.36005300848E+03  0.36005302265E+03  0.10100000352E+00 0. -1.
        3   -1    0    0  501    0  0.00000000000E+00  0.00000000000E+00 -0.23480444786E+03  0.23480446958E+03  0.10100000352E+00 0.  1.
    10030    2    1    2    0    0  0.00000000000E+00  0.00000000000E+00  0.12524856063E+03  0.59485749223E+03  0.58152234189E+03 0.  0.
        3    1    3    3  502    0  0.61555281574E+02  0.17522488353E+03  0.29147129769E+03  0.34561299176E+03  0.10100000352E+00 0. -1.
       -3    1    3    3    0  502 -0.61555281574E+02 -0.17522488353E+03 -0.16622273706E+03  0.24924450047E+03  0.10100000352E+00 0.  1.
</event>
<event>
 5   0  0.6170500E-02  0.5934055E+03  0.7818609E-02  0.9919183E-01
        3   -1    0    0  501    0  0.00000000000E+00  0.00000000000E+00  0.49987695393E+03  0.49987696413E+03  0.10100000352E+00 0. -1.
       -3   -1    0    0    0  501  0.00000000000E+00  0.00000000000E+00 -0.17610834908E+03  0.17610837804E+03  0.10100000352E+00 0.  1.
    10030    2    1    2    0    0  0.00000000000E+00  0.00000000000E+00  0.32376860485E+03  0.67598534217E+03  0.59340548813E+03 0.  0.
        2    1    3    3  502    0  0.22290453360E+03 -0.10642552924E+03 -0.25367468263E+02  0.24830693270E+03  0.25500000920E-02 0.  1.
       -2    1    3    3    0  502 -0.22290453360E+03  0.10642552924E+03  0.34913607311E+03  0.42767840947E+03  0.25500000920E-02 0. -1.
</event>
<event>
 5   0  0.1532571E-01  0.5897237E+03  0.7818609E-02  0.9926958E-01
        2   -1    0    0  501    0  0.00000000000E+00  0.00000000000E+00  0.47871562632E+03  0.47871562632E+03  0.25500000920E-02 0.  1.
       -2   -1    0    0    0  501  0.00000000000E+00  0.00000000000E+00 -0.18161830441E+03  0.18161830443E+03  0.25500000920E-02 0. -1.
    10030    2    1    2    0    0  0.00000000000E+00  0.00000000000E+00  0.29709732190E+03  0.66033393076E+03  0.58972373314E+03 0.  0.
        1    1    3    3  502    0  0.14632835590E+03 -0.12462302837E+03  0.39893046286E+03  0.44281870011E+03  0.50400001928E-02 0.  1.
       -1    1    3    3    0  502 -0.14632835590E+03  0.12462302837E+03 -0.10183314096E+03  0.21751523065E+03  0.50400001928E-02 0. -1.
</event>
<event>
 5   0  0.1532571E-01  0.6090232E+03  0.7818609E-02  0.9886861E-01
       -2   -1    0    0    0  501  0.00000000000E+00  0.00000000000E+00  0.24988028865E+03  0.24988028867E+03  0.25500000920E-02 0.  1.
        2   -1    0    0  501    0  0.00000000000E+00  0.00000000000E+00 -0.37108697829E+03  0.37108697830E+03  0.25500000920E-02 0. -1.
    10030    2    1    2    0    0  0.00000000000E+00  0.00000000000E+00 -0.12120668964E+03  0.62096726697E+03  0.60902322208E+03 0.  0.
        1    1    3    3  502    0 -0.42763876168E+02 -0.34750768574E+01  0.24678297487E+03  0.25048485379E+03  0.50400001928E-02 0.  1.
       -1    1    3    3    0  502  0.42763876168E+02  0.34750768574E+01 -0.36798966451E+03  0.37048241318E+03  0.50400001928E-02 0. -1.
</event>
<event>
 5   0  0.9411028E-02  0.6088402E+03  0.7818609E-02  0.9887233E-01
       -1   -1    0    0    0  501  0.00000000000E+00  0.00000000000E+00  0.42997494046E+03  0.42997494049E+03  0.50400001928E-02 0. -1.
        1   -1    0    0  501    0  0.00000000000E+00  0.00000000000E+00 -0.21552791857E+03  0.21552791863E+03  0.50400001928E-02 0.  1.
    10030    2    1    2    0    0  0.00000000000E+00  0.00000000000E+00  0.21444702189E+03  0.64550285912E+03  0.60884022201E+03 0.  0.
        4    1    3    3  502    0 -0.19257387923E+03 -0.20029406233E+03  0.23908137310E+03  0.36655685265E+03  0.12699999809E+01 0. -1.
       -4    1    3    3    0  502  0.19257387923E+03  0.20029406233E+03 -0.24634351209E+02  0.27894600647E+03  0.12699999809E+01 0.  1.
</event>
<event>
 5   0  0.1502642E-01  0.6190112E+03  0.7818609E-02  0.9866730E-01
       -2   -1    0    0    0  501  0.00000000000E+00  0.00000000000E+00  0.49116145382E+03  0.49116145383E+03  0.25500000920E-02 0.  1.
        2   -1    0    0  501    0  0.00000000000E+00  0.00000000000E+00 -0.19503509781E+03  0.19503509782E+03  0.25500000920E-02 0. -1.
    10030    2    1    2    0    0  0.00000000000E+00  0.00000000000E+00  0.29612635602E+03  0.68619655165E+03  0.61901121861E+03 0.  0.
        2    1    3    3  502    0  0.79404289700E+02  0.13632249758E+03 -0.14711755433E+03  0.21571379040E+03  0.25500000920E-02 0. -1.
       -2    1    3    3    0  502 -0.79404289700E+02 -0.13632249758E+03  0.44324391035E+03  0.47048276125E+03  0.25500000920E-02 0.  1.
</event>
<event>
 5   0  0.9497860E-02  0.6319122E+03  0.7818609E-02  0.9841324E-01
       -1   -1    0    0    0  501  0.00000000000E+00  0.00000000000E+00  0.64132499247E+02  0.64132499445E+02  0.50400001928E-02 0.  1.
        1   -1    0    0  501    0  0.00000000000E+00  0.00000000000E+00 -0.15565938167E+04  0.15565938167E+04  0.50400001928E-02 0. -1.
    10030    2    1    2    0    0  0.00000000000E+00  0.00000000000E+00 -0.14924613175E+04  0.16207263162E+04  0.63191218360E+03 0.  0.
        5    1    3    3  502    0 -0.21641897283E+03 -0.19316025992E+03 -0.42529162287E+03  0.51482337971E+03  0.46999998093E+01 0.  1.
       -5    1    3    3    0  502  0.21641897283E+03  0.19316025992E+03 -0.10671696946E+04  0.11059029365E+04  0.46999998093E+01 0. -1.
</event>
<event>
 5   0  0.1488510E-01  0.5973785E+03  0.7818609E-02  0.9910860E-01
       -2   -1    0    0    0  501  0.00000000000E+00  0.00000000000E+00  0.55654734539E+02  0.55654734598E+02  0.25500000920E-02 0. -1.
        2   -1    0    0  501    0  0.00000000000E+00  0.00000000000E+00 -0.16030128983E+04  0.16030128983E+04  0.25500000920E-02 0.  1.
    10030    2    1    2    0    0  0.00000000000E+00  0.00000000000E+00 -0.15473581637E+04  0.16586676329E+04  0.59737846418E+03 0.  0.
        5    1    3    3  502    0  0.44444823849E+01  0.80565880143E+02  0.24713966090E+02  0.84519137389E+02  0.46999998093E+01 0. -1.
       -5    1    3    3    0  502 -0.44444823849E+01 -0.80565880143E+02 -0.15720721298E+04  0.15741484955E+04  0.46999998093E+01 0.  1.
</event>
<event>
 5   0  0.1488510E-01  0.5687341E+03  0.7818609E-02  0.9972484E-01
       -2   -1    0    0    0  501  0.00000000000E+00  0.00000000000E+00  0.39322469379E+02  0.39322469462E+02  0.25500000920E-02 0. -1.
        2   -1    0    0  501    0  0.00000000000E+00  0.00000000000E+00 -0.20564484856E+04  0.20564484856E+04  0.25500000920E-02 0.  1.
    10030    2    1    2    0    0  0.00000000000E+00  0.00000000000E+00 -0.20171260162E+04  0.20957709551E+04  0.56873414771E+03 0.  0.
        5    1    3    3  502    0 -0.78586157693E+01 -0.13370375071E+03 -0.84345990234E+02  0.15835020323E+03  0.46999998093E+01 0. -1.
       -5    1    3    3    0  502  0.78586157693E+01  0.13370375071E+03 -0.19327800260E+04  0.19374207519E+04  0.46999998093E+01 0.  1.
</event>
<event>
 5   0  0.9177281E-02  0.8049256E+03  0.7818609E-02  0.9552915E-01
        1   -1    0    0  501    0  0.00000000000E+00  0.00000000000E+00  0.93092549795E+03  0.93092549796E+03  0.50400001928E-02 0. -1.
       -1   -1    0    0    0  501  0.00000000000E+00  0.00000000000E+00 -0.17399489874E+03  0.17399489881E+03  0.50400001928E-02 0.  1.
    10030    2    1    2    0    0  0.00000000000E+00  0.00000000000E+00  0.75693059921E+03  0.11049203968E+04  0.80492555630E+03 0.  0.
        1    1    3    3  502    0 -0.20747132387E+03 -0.28640287375E+03  0.64217118916E+03  0.73311308305E+03  0.50400001928E-02 0. -1.
       -1    1    3    3    0  502  0.20747132387E+03  0.28640287375E+03  0.11475941005E+03  0.37180731373E+03  0.50400001928E-02 0.  1.
</event>
<event>
 5   0  0.9420349E-02  0.4879626E+03  0.7818609E-02  0.1016969E+00
        1   -1    0    0  501    0  0.00000000000E+00  0.00000000000E+00  0.19358079834E+04  0.19358079834E+04  0.50400001928E-02 0. -1.
       -1   -1    0    0    0  501  0.00000000000E+00  0.00000000000E+00 -0.30750405180E+02  0.30750405593E+02  0.50400001928E-02 0.  1.
    10030    2    1    2    0    0  0.00000000000E+00  0.00000000000E+00  0.19050575782E+04  0.19665583890E+04  0.48796262255E+03 0.  0.
        2    1    3    3  502    0 -0.95683325960E+02 -0.16176075925E+03  0.32552065562E+03  0.37587968733E+03  0.25500000920E-02 0.  1.
       -2    1    3    3    0  502  0.95683325960E+02  0.16176075925E+03  0.15795369226E+04  0.15906787016E+04  0.25500000920E-02 0. -1.
</event>
<event>
 5   0  0.1513339E-01  0.6092607E+03  0.7818609E-02  0.9886377E-01
        2   -1    0    0  501    0  0.00000000000E+00  0.00000000000E+00  0.85265302423E+03  0.85265302423E+03  0.25500000920E-02 0. -1.
       -2   -1    0    0    0  501  0.00000000000E+00  0.00000000000E+00 -0.10883634504E+03  0.10883634507E+03  0.25500000920E-02 0.  1.
    10030    2    1    2    0    0  0.00000000000E+00  0.00000000000E+00  0.74381667918E+03  0.96148936930E+03  0.60926066264E+03 0.  0.
        3    1    3    3  502    0  0.24342284454E+02 -0.29842386468E+03  0.28333238545E+03  0.41222154319E+03  0.10100000352E+00 0. -1.
       -3    1    3    3    0  502 -0.24342284454E+02  0.29842386468E+03  0.46048429374E+03  0.54926782611E+03  0.10100000352E+00 0.  1.
</event>
<event>
 5   0  0.1532571E-01  0.5439083E+03  0.7818609E-02  0.1002914E+00
       -2   -1    0    0    0  501  0.00000000000E+00  0.00000000000E+00  0.14744964370E+03  0.14744964372E+03  0.25500000920E-02 0. -1.
        2   -1    0    0  501    0  0.00000000000E+00  0.00000000000E+00 -0.50158868022E+03  0.50158868022E+03  0.25500000920E-02 0.  1.
    10030    2    1    2    0    0  0.00000000000E+00  0.00000000000E+00 -0.35413903652E+03  0.64903832395E+03  0.54390834592E+03 0.  0.
        1    1    3    3  502    0  0.26706682908E+03  0.71547614503E+01 -0.11642063282E+03  0.29142691293E+03  0.50400001928E-02 0.  1.
       -1    1    3    3    0  502 -0.26706682908E+03 -0.71547614503E+01 -0.23771840369E+03  0.35761141102E+03  0.50400001928E-02 0. -1.
</event>
<event>
 5   0  0.1488510E-01  0.3266526E+03  0.7818609E-02  0.1072628E+00
       -2   -1    0    0    0  501  0.00000000000E+00  0.00000000000E+00  0.25883546817E+02  0.25883546942E+02  0.25500000920E-02 0. -1.
        2   -1    0    0  501    0  0.00000000000E+00  0.00000000000E+00 -0.10305958076E+04  0.10305958076E+04  0.25500000920E-02 0.  1.
    10030    2    1    2    0    0  0.00000000000E+00  0.00000000000E+00 -0.10047122608E+04  0.10564793546E+04  0.32665256713E+03 0.  0.
        5    1    3    3  502    0 -0.31200092567E+02 -0.10196168494E+03 -0.10251270671E+03  0.14798843201E+03  0.46999998093E+01 0. -1.
       -5    1    3    3    0  502  0.31200092567E+02  0.10196168494E+03 -0.90219955410E+03  0.90849092257E+03  0.46999998093E+01 0.  1.
</event>
<event>
 5   0  0.1488510E-01  0.6296949E+03  0.7818609E-02  0.9845644E-01
       -2   -1    0    0    0  501  0.00000000000E+00  0.00000000000E+00  0.65209262738E+02  0.65209262788E+02  0.25500000920E-02 0. -1.
        2   -1    0    0  501    0  0.00000000000E+00  0.00000000000E+00 -0.15201664136E+04  0.15201664136E+04  0.25500000920E-02 0.  1.
    10030    2    1    2    0    0  0.00000000000E+00  0.00000000000E+00 -0.14549571508E+04  0.15853756764E+04  0.62969494554E+03 0.  0.
        5    1    3    3  502    0 -0.32928439579E+01 -0.83337338612E+01  0.64799798698E+02  0.65585042890E+02  0.46999998093E+01 0. -1.
       -5    1    3    3    0  502  0.32928439579E+01  0.83337338612E+01 -0.15197569495E+04  0.15197906335E+04  0.46999998093E+01 0.  1.
</event>
<event>
 5   0  0.1513339E-01  0.6080059E+03  0.7818609E-02  0.9888934E-01
        2   -1    0    0  501    0  0.00000000000E+00  0.00000000000E+00  0.68688389573E+03  0.68688389573E+03  0.25500000920E-02 0. -1.
       -2   -1    0    0    0  501  0.00000000000E+00  0.00000000000E+00 -0.13454647250E+03  0.13454647252E+03  0.25500000920E-02 0.  1.
    10030    2    1    2    0    0  0.00000000000E+00  0.00000000000E+00  0.55233742323E+03  0.82143036825E+03  0.60800593812E+03 0.  0.
        3    1    3    3  502    0  0.21525987407E+03 -0.13309885455E+03  0.50370963013E+03  0.56371581506E+03  0.10100000352E+00 0. -1.
       -3    1    3    3    0  502 -0.21525987407E+03  0.13309885455E+03  0.48627793101E+02  0.25771455319E+03  0.10100000352E+00 0.  1.
</event>
<event>
 5   0  0.1483942E-01  0.6007196E+03  0.7818609E-02  0.9903914E-01
       -2   -1    0    0    0  501  0.00000000000E+00  0.00000000000E+00  0.80433164377E+02  0.80433164417E+02  0.25500000920E-02 0. -1.
        2   -1    0    0  501    0  0.00000000000E+00  0.00000000000E+00 -0.11216269450E+04  0.11216269450E+04  0.25500000920E-02 0.  1.
    10030    2    1    2    0    0  0.00000000000E+00  0.00000000000E+00 -0.10411937806E+04  0.12020601094E+04  0.60071958336E+03 0.  0.
        4    1    3    3  502    0  0.22342546048E+03 -0.14230545418E+03 -0.23729254764E+03  0.35563906527E+03  0.12699999809E+01 0.  1.
       -4    1    3    3    0  502 -0.22342546048E+03  0.14230545418E+03 -0.80390123293E+03  0.84642104410E+03  0.12699999809E+01 0. -1.
</event>
<event>
 5   0  0.9497860E-02  0.6380514E+03  0.7818609E-02  0.9829462E-01
        1   -1    0    0  501    0  0.00000000000E+00  0.00000000000E+00  0.90089589474E+03  0.90089589475E+03  0.50400001928E-02 0. -1.
       -1   -1    0    0    0  501  0.00000000000E+00  0.00000000000E+00 -0.11297352386E+03  0.11297352397E+03  0.50400001928E-02 0.  1.
    10030    2    1    2    0    0  0.00000000000E+00  0.00000000000E+00  0.78792237088E+03  0.10138694187E+04  0.63805135818E+03 0.  0.
        5    1    3    3  502    0  0.56370666974E+02 -0.25121691665E+03  0.94705151847E+02  0.27436972699E+03  0.46999998093E+01 0.  1.
       -5    1    3    3    0  502 -0.56370666974E+02  0.25121691665E+03  0.69321721903E+03  0.73949969173E+03  0.46999998093E+01 0. -1.
</event>
<event>
 5   0  0.1513339E-01  0.6006597E+03  0.7818609E-02  0.9904038E-01
       -2   -1    0    0    0  501  0.00000000000E+00  0.00000000000E+00  0.34291427887E+03  0.34291427888E+03  0.25500000920E-02 0. -1.
        2   -1    0    0  501    0  0.00000000000E+00  0.00000000000E+00 -0.26303371907E+03  0.26303371908E+03  0.25500000920E-02 0.  1.
    10030    2    1    2    0    0  0.00000000000E+00  0.00000000000E+00  0.79880559804E+02  0.60594799796E+03  0.60065969766E+03 0.  0.
        3    1    3    3  502    0  0.13710149428E+03 -0.18160728493E+03 -0.15779558213E+03  0.27690699091E+03  0.10100000352E+00 0.  1.
       -3    1    3    3    0  502 -0.13710149428E+03  0.18160728493E+03  0.23767614193E+03  0.32904100705E+03  0.10100000352E+00 0. -1.
</event>
<event>
 5   0  0.1483942E-01  0.6085090E+03  0.7818609E-02  0.9887908E-01
        2   -1    0    0  501    0  0.00000000000E+00  0.00000000000E+00  0.18260761132E+04  0.18260761132E+04  0.25500000920E-02 0.  1.
       -2   -1    0    0    0  501  0.00000000000E+00  0.00000000000E+00 -0.50693831059E+02  0.50693831124E+02  0.25500000920E-02 0. -1.
    10030    2    1    2    0    0  0.00000000000E+00  0.00000000000E+00  0.17753822821E+04  0.18767699443E+04  0.60850897789E+03 0.  0.
        4    1    3    3  502    0 -0.15906803026E+03 -0.12895427483E+03  0.19365916108E+03  0.28184628225E+03  0.12699999809E+01 0. -1.
       -4    1    3    3    0  502  0.15906803026E+03  0.12895427483E+03  0.15817231210E+04  0.15949236620E+04  0.12699999809E+01 0.  1.
</event>
<event>
 5   0  0.1532571E-01  0.4277521E+03  0.7818609E-02  0.1034572E+00
       -2   -1    0    0    0  501  0.00000000000E+00  0.00000000000E+00  0.12077737004E+03  0.12077737007E+03  0.25500000920E-02 0. -1.
        2   -1    0    0  501    0  0.00000000000E+00  0.00000000000E+00 -0.37873783177E+03  0.37873783178E+03  0.25500000920E-02 0.  1.
    10030    2    1    2    0    0  0.00000000000E+00  0.00000000000E+00 -0.25796046173E+03  0.49951520185E+03  0.42775207429E+03 0.  0.
        1    1    3    3  502    0  0.69925867186E+01  0.55771858050E+02 -0.36995833471E+03  0.37420390947E+03  0.50400001928E-02 0.  1.
       -1    1    3    3    0  502 -0.69925867186E+01 -0.55771858050E+02  0.11199787298E+03  0.12531129237E+03  0.50400001928E-02 0. -1.
</event>
<event>
 5   0  0.9411028E-02  0.5995391E+03  0.7818609E-02  0.9906363E-01
       -1   -1    0    0    0  501  0.00000000000E+00  0.00000000000E+00  0.53727378216E+03  0.53727378218E+03  0.50400001928E-02 0.  1.
        1   -1    0    0  501    0  0.00000000000E+00  0.00000000000E+00 -0.16725512592E+03  0.16725512600E+03  0.50400001928E-02 0. -1.
    10030    2    1    2    0    0  0.00000000000E+00  0.00000000000E+00  0.37001865623E+03  0.70452890818E+03  0.59953913676E+03 0.  0.
        4    1    3    3  502    0  0.21637616042E+03  0.10158976566E+03 -0.27557233637E+02  0.24062447363E+03  0.12699999809E+01 0. -1.
       -4    1    3    3    0  502 -0.21637616042E+03 -0.10158976566E+03  0.39757588987E+03  0.46390443455E+03  0.12699999809E+01 0.  1.
</event>
<event>
 5   0  0.1513339E-01  0.6075135E+03  0.7818609E-02  0.9889939E-01
        2   -1    0    0  501    0  0.00000000000E+00  0.00000000000E+00  0.82451354896E+03  0.82451354896E+03  0.25500000920E-02 0.  1.
       -2   -1    0    0    0  501  0.00000000000E+00  0.00000000000E+00 -0.11190618208E+03  0.11190618211E+03  0.25500000920E-02 0. -1.
    10030    2    1    2    0    0  0.00000000000E+00  0.00000000000E+00  0.71260736687E+03  0.93641973108E+03  0.60751350061E+03 0.  0.
        3    1    3    3  502    0  0.55479162891E+02  0.26315553137E+03  0.57395959581E+03  0.63384414411E+03  0.10100000352E+00 0. -1.
       -3    1    3    3    0  502 -0.55479162891E+02 -0.26315553137E+03  0.13864777107E+03  0.30257558697E+03  0.10100000352E+00 0.  1.
</event>
<event>
 5   0  0.1488510E-01  0.5798199E+03  0.7818609E-02  0.9948181E-01
       -2   -1    0    0    0  501  0.00000000000E+00  0.00000000000E+00  0.15040336497E+03  0.15040336499E+03  0.25500000920E-02 0.  1.
        2   -1    0    0  501    0  0.00000000000E+00  0.00000000000E+00 -0.55881586173E+03  0.55881586173E+03  0.25500000920E-02 0. -1.
    10030    2    1    2    0    0  0.00000000000E+00  0.00000000000E+00 -0.40841249676E+03  0.70921922672E+03  0.57981992381E+03 0.  0.
        5    1    3    3  502    0  0.22571503663E+03  0.18182870967E+03 -0.20921058877E+03  0.35749142350E+03  0.46999998093E+01 0.  1.
       -5    1    3    3    0  502 -0.22571503663E+03 -0.18182870967E+03 -0.19920190798E+03  0.35172780323E+03  0.46999998093E+01 0. -1.
</event>
<event>
 5   0  0.9177281E-02  0.5459788E+03  0.7818609E-02  0.1002429E+00
       -1   -1    0    0    0  501  0.00000000000E+00  0.00000000000E+00  0.71447003192E+03  0.71447003193E+03  0.50400001928E-02 0. -1.
        1   -1    0    0  501    0  0.00000000000E+00  0.00000000000E+00 -0.10430556495E+03  0.10430556507E+03  0.50400001928E-02 0.  1.
    10030    2    1    2    0    0  0.00000000000E+00  0.00000000000E+00  0.61016446697E+03  0.81877559700E+03  0.54597875553E+03 0.  0.
        1    1    3    3  502    0 -0.20805425844E+01 -0.27058908099E+03  0.35916154120E+03  0.44968855012E+03  0.50400001928E-02 0.  1.
       -1    1    3    3    0  502  0.20805425844E+01  0.27058908099E+03  0.25100292577E+03  0.36908704688E+03  0.50400001928E-02 0. -1.
</event>
<event>
 5   0  0.9497860E-02  0.5881138E+03  0.7818609E-02  0.9930378E-01
        1   -1    0    0  501    0  0.00000000000E+00  0.00000000000E+00  0.27068007066E+03  0.27068007071E+03  0.50400001928E-02 0. -1.
       -1   -1    0    0    0  501  0.00000000000E+00  0.00000000000E+00 -0.31945262996E+03  0.31945263000E+03  0.50400001928E-02 0.  1.
    10030    2    1    2    0    0  0.00000000000E+00  0.00000000000E+00 -0.48772559301E+02  0.59013270072E+03  0.58811380014E+03 0.  0.
        5    1    3    3  502    0  0.97544480477E+02 -0.26727454251E+03 -0.98780953715E+02  0.30121482959E+03  0.46999998093E+01 0.  1.
       -5    1    3    3    0  502 -0.97544480477E+02  0.26727454251E+03  0.50008394414E+02  0.28891787113E+03  0.46999998093E+01 0. -1.
</event>
<event>
 5   0  0.9420349E-02  0.5476502E+03  0.7818609E-02  0.1002039E+00
        1   -1    0    0  501    0  0.00000000000E+00  0.00000000000E+00  0.20744200034E+03  0.20744200041E+03  0.50400001928E-02 0. -1.
       -1   -1    0    0    0  501  0.00000000000E+00  0.00000000000E+00 -0.36145138390E+03  0.36145138393E+03  0.50400001928E-02 0.  1.
    10030    2    1    2    0    0  0.00000000000E+00  0.00000000000E+00 -0.15400938356E+03  0.56889338434E+03  0.54765024653E+03 0.  0.
        2    1    3    3  502    0 -0.18495383778E+03 -0.25224112869E+01  0.13273285550E+03  0.22766707185E+03  0.25500000920E-02 0. -1.
       -2    1    3    3    0  502  0.18495383778E+03  0.25224112869E+01 -0.28674223905E+03  0.34122631249E+03  0.25500000920E-02 0.  1.
</event>
<event>
 5   0  0.1483942E-01  0.6348469E+03  0.7818609E-02  0.9835636E-01
       -2   -1    0    0    0  501  0.00000000000E+00  0.00000000000E+00  0.93583350337E+02  0.93583350372E+02  0.25500000920E-02 0. -1.
        2   -1    0    0  501    0  0.00000000000E+00  0.00000000000E+00 -0.10766620943E+04  0.10766620943E+04  0.25500000920E-02 0.  1.
    10030    2    1    2    0    0  0.00000000000E+00  0.00000000000E+00 -0.98307874398E+03  0.11702454447E+04  0.63484689804E+03 0.  0.
        4    1    3    3  502    0 -0.23777910326E+03 -0.20399484762E+03 -0.58559060675E+03  0.66413159194E+03  0.12699999809E+01 0.  1.
       -4    1    3    3    0  502  0.23777910326E+03  0.20399484762E+03 -0.39748813723E+03  0.50611385274E+03  0.12699999809E+01 0. -1.
</event>
<event>
 5   0  0.8860626E-02  0.6612043E+03  0.7818609E-02  0.9785979E-01
       -1   -1    0    0    0  501  0.00000000000E+00  0.00000000000E+00  0.25628427657E+03  0.25628427662E+03  0.50400001928E-02 0. -1.
        1   -1    0    0  501    0  0.00000000000E+00  0.00000000000E+00 -0.42647087585E+03  0.42647087588E+03  0.50400001928E-02 0.  1.
    10030    2    1    2    0    0  0.00000000000E+00  0.00000000000E+00 -0.17018659928E+03  0.68275515249E+03  0.66120429496E+03 0.  0.
        3    1    3    3  502    0  0.16431833299E+03  0.66701155221E+02  0.20301358663E+03  0.26956276676E+03  0.10100000352E+00 0. -1.
       -3    1    3    3    0  502 -0.16431833299E+03 -0.66701155221E+02 -0.37320018591E+03  0.41319238573E+03  0.10100000352E+00 0.  1.
</event>
<event>
 5   0  0.1488510E-01  0.6643235E+03  0.7818609E-02  0.9780267E-01
        2   -1    0    0  501    0  0.00000000000E+00  0.00000000000E+00  0.60571359208E+03  0.60571359209E+03  0.25500000920E-02 0. -1.
       -2   -1    0    0    0  501  0.00000000000E+00  0.00000000000E+00 -0.18215117005E+03  0.18215117006E+03  0.25500000920E-02 0.  1.
    10030    2    1    2    0    0  0.00000000000E+00  0.00000000000E+00  0.42356242204E+03  0.78786476215E+03  0.66432353419E+03 0.  0.
        5    1    3    3  502    0  0.26378560675E+03  0.91086093679E+02  0.42535322987E+03  0.50875041322E+03  0.46999998093E+01 0.  1.
       -5    1    3    3    0  502 -0.26378560675E+03 -0.91086093679E+02 -0.17908078367E+01  0.27911434893E+03  0.46999998093E+01 0. -1.
</event>
<event>
 5   0  0.1502642E-01  0.4952203E+03  0.7818609E-02  0.1015034E+00
       -2   -1    0    0    0  501  0.00000000000E+00  0.00000000000E+00  0.30988961777E+03  0.30988961778E+03  0.25500000920E-02 0.  1.
        2   -1    0    0  501    0  0.00000000000E+00  0.00000000000E+00 -0.19784720753E+03  0.19784720755E+03  0.25500000920E-02 0. -1.
    10030    2    1    2    0    0  0.00000000000E+00  0.00000000000E+00  0.11204241023E+03  0.50773682533E+03  0.49522033692E+03 0.  0.
        2    1    3    3  502    0  0.13054478459E+03 -0.49903441035E+02 -0.15354276640E+03  0.20762387948E+03  0.25500000920E-02 0. -1.
       -2    1    3    3    0  502 -0.13054478459E+03  0.49903441035E+02  0.26558517663E+03  0.30011294584E+03  0.25500000920E-02 0.  1.
</event>
<event>
 5   0  0.1488510E-01  0.5712979E+03  0.7818609E-02  0.9966811E-01
       -2   -1    0    0    0  501  0.00000000000E+00  0.00000000000E+00  0.40955414937E+03  0.40955414938E+03  0.25500000920E-02 0.  1.
        2   -1    0    0  501    0  0.00000000000E+00  0.00000000000E+00 -0.19922962496E+03  0.19922962497E+03  0.25500000920E-02 0. -1.
    10030    2    1    2    0    0  0.00000000000E+00  0.00000000000E+00  0.21032452442E+03  0.60878377435E+03  0.57129788932E+03 0.  0.
        5    1    3    3  502    0  0.45843715074E+02 -0.89108278496E+02 -0.17984012810E+03  0.20592836905E+03  0.46999998093E+01 0. -1.
       -5    1    3    3    0  502 -0.45843715074E+02  0.89108278496E+02  0.39016465252E+03  0.40285540530E+03  0.46999998093E+01 0.  1.
</event>
<event>
 5   0  0.8860626E-02  0.6097350E+03  0.7818609E-02  0.9885412E-01
       -1   -1    0    0    0  501  0.00000000000E+00  0.00000000000E+00  0.65062569138E+02  0.65062569333E+02  0.50400001928E-02 0. -1.
        1   -1    0    0  501    0  0.00000000000E+00  0.00000000000E+00 -0.14285355023E+04  0.14285355023E+04  0.50400001928E-02 0.  1.
    10030    2    1    2    0    0  0.00000000000E+00  0.00000000000E+00 -0.13634729332E+04  0.14935980716E+04  0.60973499174E+03 0.  0.
        3    1    3    3  502    0 -0.24607669125E+03  0.41961534417E+02 -0.11104466448E+04  0.11381591583E+04  0.10100000352E+00 0.  1.
       -3    1    3    3    0  502  0.24607669125E+03 -0.41961534417E+02 -0.25302628834E+03  0.35543891338E+03  0.10100000352E+00 0. -1.
</event>
<event>
 5   0  0.9420349E-02  0.5886293E+03  0.7818609E-02  0.9929282E-01
        1   -1    0    0  501    0  0.00000000000E+00  0.00000000000E+00  0.52764342107E+03  0.52764342110E+03  0.50400001928E-02 0.  1.
       -1   -1    0    0    0  501  0.00000000000E+00  0.00000000000E+00 -0.16416600448E+03  0.16416600456E+03  0.50400001928E-02 0. -1.
    10030    2    1    2    0    0  0.00000000000E+00  0.00000000000E+00  0.36347741659E+03  0.69180942566E+03  0.58862929680E+03 0.  0.
        2    1    3    3  502    0 -0.14552948083E+03 -0.14269787173E+03  0.43127552320E+03  0.47701162387E+03  0.25500000920E-02 0.  1.
       -2    1    3    3    0  502  0.14552948083E+03  0.14269787173E+03 -0.67798106609E+02  0.21479780179E+03  0.25500000920E-02 0. -1.
</event>
<event>
 5   0  0.1513339E-01  0.5913065E+03  0.7818609E-02  0.9923608E-01
       -2   -1    0    0    0  501  0.00000000000E+00  0.00000000000E+00  0.94099382834E+02  0.94099382869E+02  0.25500000920E-02 0.  1.
        2   -1    0    0  501    0  0.00000000000E+00  0.00000000000E+00 -0.92892063143E+03  0.92892063144E+03  0.25500000920E-02 0. -1.
    10030    2    1    2    0    0  0.00000000000E+00  0.00000000000E+00 -0.83482124860E+03  0.10230200143E+04  0.59130654703E+03 0.  0.
        3    1    3    3  502    0 -0.11412039457E+03 -0.19968368482E+03 -0.73882691996E+03  0.77379730311E+03  0.10100000352E+00 0. -1.
       -3    1    3    3    0  502  0.11412039457E+03  0.19968368482E+03 -0.95994328636E+02  0.24922271119E+03  0.10100000352E+00 0.  1.
</event>
<event>
 5   0  0.6170500E-02  0.5728084E+03  0.7818609E-02  0.9963483E-01
        4   -1    0    0  501    0  0.00000000000E+00  0.00000000000E+00  0.15927888284E+03  0.15928394589E+03  0.12699999809E+01 0. -1.
       -4   -1    0    0    0  501  0.00000000000E+00  0.00000000000E+00 -0.51497803299E+03  0.51497959898E+03  0.12699999809E+01 0.  1.
    10030    2    1    2    0    0  0.00000000000E+00  0.00000000000E+00 -0.35569915015E+03  0.67426354487E+03  0.57280838203E+03 0.  0.
        5    1    3    3  502    0 -0.14595479186E+03  0.20910848359E+03 -0.24479925965E+02  0.25622356634E+03  0.46999998093E+01 0. -1.
       -5    1    3    3    0  502  0.14595479186E+03 -0.20910848359E+03 -0.33121922419E+03  0.41803997852E+03  0.46999998093E+01 0.  1.
</event>
<event>
 5   0  0.1483942E-01  0.5859825E+03  0.7818609E-02  0.9934922E-01
        2   -1    0    0  501    0  0.00000000000E+00  0.00000000000E+00  0.74894268044E+03  0.74894268044E+03  0.25500000920E-02 0. -1.
       -2   -1    0    0    0  501  0.00000000000E+00  0.00000000000E+00 -0.11462008409E+03  0.11462008412E+03  0.25500000920E-02 0.  1.
    10030    2    1    2    0    0  0.00000000000E+00  0.00000000000E+00  0.63432259635E+03  0.86356276456E+03  0.58598250152E+03 0.  0.
        4    1    3    3  502    0 -0.11790094216E+03  0.25233531728E+03  0.45116692545E+03  0.53021406245E+03  0.12699999809E+01 0. -1.
       -4    1    3    3    0  502  0.11790094216E+03 -0.25233531728E+03  0.18315567090E+03  0.33334870210E+03  0.12699999809E+01 0.  1.
</event>
<event>
 5   0  0.6170500E-02  0.5915461E+03  0.7818609E-02  0.9923102E-01
        3   -1    0    0  501    0  0.00000000000E+00  0.00000000000E+00  0.21721080166E+03  0.21721082514E+03  0.10100000352E+00 0.  1.
       -3   -1    0    0    0  501  0.00000000000E+00  0.00000000000E+00 -0.40275017886E+03  0.40275019152E+03  0.10100000352E+00 0. -1.
    10030    2    1    2    0    0  0.00000000000E+00  0.00000000000E+00 -0.18553937720E+03  0.61996101666E+03  0.59154611121E+03 0.  0.
        3    1    3    3  502    0  0.20709995279E+03 -0.18411622961E+03 -0.20114133898E+03  0.34241352908E+03  0.10100000352E+00 0. -1.
       -3    1    3    3    0  502 -0.20709995279E+03  0.18411622961E+03  0.15601961782E+02  0.27754748758E+03  0.10100000352E+00 0.  1.
</event>
<event>
 5   0  0.9411028E-02  0.5558155E+03  0.7818609E-02  0.1000157E+00
       -1   -1    0    0    0  501  0.00000000000E+00  0.00000000000E+00  0.34424944858E+03  0.34424944861E+03  0.50400001928E-02 0. -1.
        1   -1    0    0  501    0  0.00000000000E+00  0.00000000000E+00 -0.22435105294E+03  0.22435105300E+03  0.50400001928E-02 0.  1.
    10030    2    1    2    0    0  0.00000000000E+00  0.00000000000E+00  0.11989839563E+03  0.56860050162E+03  0.55581553159E+03 0.  0.
        4    1    3    3  502    0 -0.70698481160E+02 -0.18363764464E+03  0.26070292713E+03  0.32663234512E+03  0.12699999809E+01 0. -1.
       -4    1    3    3    0  502  0.70698481160E+02  0.18363764464E+03 -0.14080453149E+03  0.24196815649E+03  0.12699999809E+01 0.  1.
</event>
<event>
 5   0  0.9411028E-02  0.5851058E+03  0.7818609E-02  0.9936798E-01
        1   -1    0    0  501    0  0.00000000000E+00  0.00000000000E+00  0.18763831411E+03  0.18763831418E+03  0.50400001928E-02 0. -1.
       -1   -1    0    0    0  501  0.00000000000E+00  0.00000000000E+00 -0.45612866264E+03  0.45612866267E+03  0.50400001928E-02 0.  1.
    10030    2    1    2    0    0  0.00000000000E+00  0.00000000000E+00 -0.26849034853E+03  0.64376697685E+03  0.58510584788E+03 0.  0.
        4    1    3    3  502    0 -0.83852872437E+02  0.27539198196E+03 -0.19155952372E+03  0.34578709052E+03  0.12699999809E+01 0.  1.
       -4    1    3    3    0  502  0.83852872437E+02 -0.27539198196E+03 -0.76930824817E+02  0.29797988632E+03  0.12699999809E+01 0. -1.
</event>
<event>
 5   0  0.8860626E-02  0.6029569E+03  0.7818609E-02  0.9899290E-01
        1   -1    0    0  501    0  0.00000000000E+00  0.00000000000E+00  0.41087303357E+03  0.41087303360E+03  0.50400001928E-02 0.  1.
       -1   -1    0    0    0  501  0.00000000000E+00  0.00000000000E+00 -0.22121007704E+03  0.22121007710E+03  0.50400001928E-02 0. -1.
    10030    2    1    2    0    0  0.00000000000E+00  0.00000000000E+00  0.18966295653E+03  0.63208311070E+03  0.60295689875E+03 0.  0.
        3    1    3    3  502    0  0.53678083874E+02 -0.15716206201E+03  0.35859649638E+03  0.39518692772E+03  0.10100000352E+00 0.  1.
       -3    1    3    3    0  502 -0.53678083874E+02  0.15716206201E+03 -0.16893353985E+03  0.23689618298E+03  0.10100000352E+00 0. -1.
</event>
<event>
 5   0  0.9177281E-02  0.6092833E+03  0.7818609E-02  0.9886331E-01
       -1   -1    0    0    0  501  0.00000000000E+00  0.00000000000E+00  0.10740653911E+03  0.10740653923E+03  0.50400001928E-02 0.  1.
        1   -1    0    0  501    0  0.00000000000E+00  0.00000000000E+00 -0.86406771915E+03  0.86406771916E+03  0.50400001928E-02 0. -1.
    10030    2    1    2    0    0  0.00000000000E+00  0.00000000000E+00 -0.75666118004E+03  0.97147425839E+03  0.60928326199E+03 0.  0.
        1    1    3    3  502    0  0.63282834544E+02  0.11524973325E+03  0.59837798707E+02  0.14445684595E+03  0.50400001928E-02 0.  1.
       -1    1    3    3    0  502 -0.63282834544E+02 -0.11524973325E+03 -0.81649897875E+03  0.82701741244E+03  0.50400001928E-02 0. -1.
</event>
<event>
 5   0  0.1502642E-01  0.5579819E+03  0.7818609E-02  0.9996631E-01
       -2   -1    0    0    0  501  0.00000000000E+00  0.00000000000E+00  0.47614975338E+03  0.47614975338E+03  0.25500000920E-02 0.  1.
        2   -1    0    0  501    0  0.00000000000E+00  0.00000000000E+00 -0.16346945667E+03  0.16346945669E+03  0.25500000920E-02 0. -1.
    10030    2    1    2    0    0  0.00000000000E+00  0.00000000000E+00  0.31268029670E+03  0.63961921008E+03  0.55798186884E+03 0.  0.
        2    1    3    3  502    0  0.39480277969E+02 -0.51075966883E+02 -0.15479015298E+03  0.16771236749E+03  0.25500000920E-02 0. -1.
       -2    1    3    3    0  502 -0.39480277969E+02  0.51075966883E+02  0.46747044969E+03  0.47190684259E+03  0.25500000920E-02 0.  1.
</event>
<event>
 5   0  0.9411028E-02  0.5459839E+03  0.7818609E-02  0.1002428E+00
       -1   -1    0    0    0  501  0.00000000000E+00  0.00000000000E+00  0.20189767834E+03  0.20189767840E+03  0.50400001928E-02 0.  1.
        1   -1    0    0  501    0  0.00000000000E+00  0.00000000000E+00 -0.36912071926E+03  0.36912071929E+03  0.50400001928E-02 0. -1.
    10030    2    1    2    0    0  0.00000000000E+00  0.00000000000E+00 -0.16722304092E+03  0.57101839770E+03  0.54598394216E+03 0.  0.
        4    1    3    3  502    0 -0.44475123537E+02 -0.17623393214E+03 -0.29663328866E+03  0.34789273676E+03  0.12699999809E+01 0. -1.
       -4    1    3    3    0  502  0.44475123537E+02  0.17623393214E+03  0.12941024774E+03  0.22312566094E+03  0.12699999809E+01 0.  1.
</event>
<event>
 5   0  0.1513339E-01  0.6046090E+03  0.7818609E-02  0.9895890E-01
        2   -1    0    0  501    0  0.00000000000E+00  0.00000000000E+00  0.14618166237E+03  0.14618166239E+03  0.25500000920E-02 0.  1.
       -2   -1    0    0    0  501  0.00000000000E+00  0.00000000000E+00 -0.62516750526E+03  0.62516750527E+03  0.25500000920E-02 0. -1.
    10030    2    1    2    0    0  0.00000000000E+00  0.00000000000E+00 -0.47898584289E+03  0.77134916766E+03  0.60460904786E+03 0.  0.
        3    1    3    3  502    0  0.21568405274E+03 -0.17406678753E+03 -0.39348330395E+03  0.48129822128E+03  0.10100000352E+00 0. -1.
       -3    1    3    3    0  502 -0.21568405274E+03  0.17406678753E+03 -0.85502538948E+02  0.29005094638E+03  0.10100000352E+00 0.  1.
</event>
<event>
 5   0  0.9497860E-02  0.5946889E+03  0.7818609E-02  0.9916487E-01
        1   -1    0    0  501    0  0.00000000000E+00  0.00000000000E+00  0.52042046732E+03  0.52042046735E+03  0.50400001928E-02 0.  1.
       -1   -1    0    0    0  501  0.00000000000E+00  0.00000000000E+00 -0.16988902505E+03  0.16988902512E+03  0.50400001928E-02 0. -1.
    10030    2    1    2    0    0  0.00000000000E+00  0.00000000000E+00  0.35053144228E+03  0.69030949247E+03  0.59468891310E+03 0.  0.
        5    1    3    3  502    0  0.26795620513E+03  0.44330835454E+02  0.34882539590E+02  0.27386973620E+03  0.46999998093E+01 0. -1.
       -5    1    3    3    0  502 -0.26795620513E+03 -0.44330835454E+02  0.31564890269E+03  0.41643975627E+03  0.46999998093E+01 0.  1.
</event>
<event>
 5   0  0.1483942E-01  0.5925513E+03  0.7818609E-02  0.9920981E-01
       -2   -1    0    0    0  501  0.00000000000E+00  0.00000000000E+00  0.61096072168E+02  0.61096072221E+02  0.25500000920E-02 0.  1.
        2   -1    0    0  501    0  0.00000000000E+00  0.00000000000E+00 -0.14367415530E+04  0.14367415530E+04  0.25500000920E-02 0. -1.
    10030    2    1    2    0    0  0.00000000000E+00  0.00000000000E+00 -0.13756454808E+04  0.14978376252E+04  0.59255131642E+03 0.  0.
        4    1    3    3  502    0 -0.12268097216E+03 -0.22032045282E+03 -0.10809382363E+04  0.11099643266E+04  0.12699999809E+01 0. -1.
       -4    1    3    3    0  502  0.12268097216E+03  0.22032045282E+03 -0.29470724453E+03  0.38787329856E+03  0.12699999809E+01 0.  1.
</event>
<event>
 5   0  0.9177281E-02  0.6019744E+03  0.7818609E-02  0.9901318E-01
       -1   -1    0    0    0  501  0.00000000000E+00  0.00000000000E+00  0.91461173947E+03  0.91461173948E+03  0.50400001928E-02 0.  1.
        1   -1    0    0  501    0  0.00000000000E+00  0.00000000000E+00 -0.99051089596E+02  0.99051089724E+02  0.50400001928E-02 0. -1.
    10030    2    1    2    0    0  0.00000000000E+00  0.00000000000E+00  0.81556064987E+03  0.10136628292E+04  0.60197438292E+03 0.  0.
        1    1    3    3  502    0 -0.18261829180E+03 -0.13173693302E+03  0.74409307647E+03  0.77741788408E+03  0.50400001928E-02 0.  1.
       -1    1    3    3    0  502  0.18261829180E+03  0.13173693302E+03  0.71467573406E+02  0.23624494512E+03  0.50400001928E-02 0. -1.
</event>
<event>
 5   0  0.1488510E-01  0.6075890E+03  0.7818609E-02  0.9889785E-01
       -2   -1    0    0    0  501  0.00000000000E+00  0.00000000000E+00  0.31570420419E+03  0.31570420420E+03  0.25500000920E-02 0. -1.
        2   -1    0    0  501    0  0.00000000000E+00  0.00000000000E+00 -0.29233412500E+03  0.29233412501E+03  0.25500000920E-02 0.  1.
    10030    2    1    2    0    0  0.00000000000E+00  0.00000000000E+00  0.23370079183E+02  0.60803832921E+03  0.60758904630E+03 0.  0.
        5    1    3    3  502    0 -0.21679740738E+03  0.91079208240E+02 -0.18073944754E+03  0.29662328957E+03  0.46999998093E+01 0.  1.
       -5    1    3    3    0  502  0.21679740738E+03 -0.91079208240E+02  0.20410952672E+03  0.31141503964E+03  0.46999998093E+01 0. -1.
</event>
<event>
 5   0  0.9497860E-02  0.6350141E+03  0.7818609E-02  0.9835313E-01
        1   -1    0    0  501    0  0.00000000000E+00  0.00000000000E+00  0.19179697966E+04  0.19179697967E+04  0.50400001928E-02 0. -1.
       -1   -1    0    0    0  501  0.00000000000E+00  0.00000000000E+00 -0.52561157956E+02  0.52561158198E+02  0.50400001928E-02 0.  1.
    10030    2    1    2    0    0  0.00000000000E+00  0.00000000000E+00  0.18654086387E+04  0.19705309549E+04  0.63501405869E+03 0.  0.
        5    1    3    3  502    0 -0.24870738508E+03 -0.14933234874E+03  0.13329131341E+04  0.13641242710E+04  0.46999998093E+01 0. -1.
       -5    1    3    3    0  502  0.24870738508E+03  0.14933234874E+03  0.53249550464E+03  0.60640668387E+03  0.46999998093E+01 0.  1.
</event>
<event>
 5   0  0.1532571E-01  0.5862828E+03  0.7818609E-02  0.9934281E-01
        2   -1    0    0  501    0  0.00000000000E+00  0.00000000000E+00  0.80091456667E+03  0.80091456668E+03  0.25500000920E-02 0. -1.
       -2   -1    0    0    0  501  0.00000000000E+00  0.00000000000E+00 -0.10729218392E+03  0.10729218395E+03  0.25500000920E-02 0.  1.
    10030    2    1    2    0    0  0.00000000000E+00  0.00000000000E+00  0.69362238275E+03  0.90820675063E+03  0.58628277481E+03 0.  0.
        1    1    3    3  502    0  0.61240531389E+02 -0.26076363009E+03  0.16232074440E+03  0.31320296543E+03  0.50400001928E-02 0.  1.
       -1    1    3    3    0  502 -0.61240531389E+02  0.26076363009E+03  0.53130163835E+03  0.59500378520E+03  0.50400001928E-02 0. -1.
</event>
<event>
 5   0  0.1513339E-01  0.5932373E+03  0.7818609E-02  0.9919537E-01
       -2   -1    0    0    0  501  0.00000000000E+00  0.00000000000E+00  0.20781054066E+03  0.20781054067E+03  0.25500000920E-02 0.  1.
        2   -1    0    0  501    0  0.00000000000E+00  0.00000000000E+00 -0.42337907638E+03  0.42337907639E+03  0.25500000920E-02 0. -1.
    10030    2    1    2    0    0  0.00000000000E+00  0.00000000000E+00 -0.21556853573E+03  0.63118961706E+03  0.59323733791E+03 0.  0.
        3    1    3    3  502    0  0.11719523954E+03 -0.76997293992E+02  0.17031710142E+03  0.22061557671E+03  0.10100000352E+00 0.  1.
       -3    1    3    3    0  502 -0.11719523954E+03  0.76997293992E+02 -0.38588563714E+03  0.41057404035E+03  0.10100000352E+00 0. -1.
</event>
<event>
 5   0  0.9411028E-02  0.6000670E+03  0.7818609E-02  0.9905267E-01
        1   -1    0    0  501    0  0.00000000000E+00  0.00000000000E+00  0.71228868594E+03  0.71228868596E+03  0.50400001928E-02 0.  1.
       -1   -1    0    0    0  501  0.00000000000E+00  0.00000000000E+00 -0.12638146981E+03  0.12638146991E+03  0.50400001928E-02 0. -1.
    10030    2    1    2    0    0  0.00000000000E+00  0.00000000000E+00  0.58590721613E+03  0.83867015587E+03  0.60006696663E+03 0.  0.
        4    1    3    3  502    0 -0.40189717578E+01  0.20515500653E+03  0.59888324236E+03  0.63306198727E+03  0.12699999809E+01 0.  1.
       -4    1    3    3    0  502  0.40189717578E+01 -0.20515500653E+03 -0.12976026235E+02  0.20560816860E+03  0.12699999809E+01 0. -1.
</event>
<event>
 5   0  0.6170500E-02  0.5955591E+03  0.7818609E-02  0.9914663E-01
       -4   -1    0    0    0  501  0.00000000000E+00  0.00000000000E+00  0.68337775705E+03  0.68337893714E+03  0.12699999809E+01 0.  1.
        4   -1    0    0  501    0  0.00000000000E+00  0.00000000000E+00 -0.12975202165E+03  0.12975823682E+03  0.12699999809E+01 0. -1.
    10030    2    1    2    0    0  0.00000000000E+00  0.00000000000E+00  0.55362573540E+03  0.81313717396E+03  0.59555907245E+03 0.  0.
        4    1    3    3  502    0 -0.13122859910E+02 -0.26788444783E+03  0.45344697491E+03  0.52683019921E+03  0.12699999809E+01 0.  1.
       -4    1    3    3    0  502  0.13122859910E+02  0.26788444783E+03  0.10017876049E+03  0.28630697475E+03  0.12699999809E+01 0. -1.
</event>
<event>
 5   0  0.1532571E-01  0.6084713E+03  0.7818609E-02  0.9887985E-01
        2   -1    0    0  501    0  0.00000000000E+00  0.00000000000E+00  0.58044518639E+03  0.58044518639E+03  0.25500000920E-02 0.  1.
       -2   -1    0    0    0  501  0.00000000000E+00  0.00000000000E+00 -0.15946263081E+03  0.15946263083E+03  0.25500000920E-02 0. -1.
    10030    2    1    2    0    0  0.00000000000E+00  0.00000000000E+00  0.42098255558E+03  0.73990781722E+03  0.60847125313E+03 0.  0.
        1    1    3    3  502    0  0.59424872581E+02  0.10157681552E+03 -0.13066465240E+03  0.17584770782E+03  0.50400001928E-02 0. -1.
       -1    1    3    3    0  502 -0.59424872581E+02 -0.10157681552E+03  0.55164720797E+03  0.56406010940E+03  0.50400001928E-02 0.  1.
</event>
<event>
 5   0  0.1513339E-01  0.6086198E+03  0.7818609E-02  0.9887682E-01
       -2   -1    0    0    0  501  0.00000000000E+00  0.00000000000E+00  0.81262862338E+02  0.81262862378E+02  0.25500000920E-02 0.  1.
        2   -1    0    0  501    0  0.00000000000E+00  0.00000000000E+00 -0.11395674133E+04  0.11395674133E+04  0.25500000920E-02 0. -1.
    10030    2    1    2    0    0  0.00000000000E+00  0.00000000000E+00 -0.10583045510E+04  0.12208302757E+04  0.60861978233E+03 0.  0.
        3    1    3    3  502    0 -0.78701379748E+02  0.20971187435E+03 -0.11595872618E+03  0.25222889168E+03  0.10100000352E+00 0.  1.
       -3    1    3    3    0  502  0.78701379748E+02 -0.20971187435E+03 -0.94234582482E+03  0.96860138404E+03  0.10100000352E+00 0. -1.
</event>
<event>
 5   0  0.9497860E-02  0.5953967E+03  0.7818609E-02  0.9915003E-01
       -1   -1    0    0    0  501  0.00000000000E+00  0.00000000000E+00  0.15010073104E+03  0.15010073113E+03  0.50400001928E-02 0. -1.
        1   -1    0    0  501    0  0.00000000000E+00  0.00000000000E+00 -0.59043226495E+03  0.59043226497E+03  0.50400001928E-02 0.  1.
    10030    2    1    2    0    0  0.00000000000E+00  0.00000000000E+00 -0.44033153390E+03  0.74053299610E+03  0.59539672367E+03 0.  0.
        5    1    3    3  502    0  0.25356723345E+03  0.72541804076E+02 -0.48528278685E+02  0.26820838736E+03  0.46999998093E+01 0.  1.
       -5    1    3    3    0  502 -0.25356723345E+03 -0.72541804076E+02 -0.39180325522E+03  0.47232460874E+03  0.46999998093E+01 0. -1.
</event>
<event>
 5   0  0.1513339E-01  0.5876763E+03  0.7818609E-02  0.9931309E-01
       -2   -1    0    0    0  501  0.00000000000E+00  0.00000000000E+00  0.90392715193E+02  0.90392715229E+02  0.25500000920E-02 0. -1.
        2   -1    0    0  501    0  0.00000000000E+00  0.00000000000E+00 -0.95517510106E+03  0.95517510106E+03  0.25500000920E-02 0.  1.
    10030    2    1    2    0    0  0.00000000000E+00  0.00000000000E+00 -0.86478238587E+03  0.10455678163E+04  0.58767634252E+03 0.  0.
        3    1    3    3  502    0  0.63684554958E+02  0.25877508969E+03 -0.65260865816E+03  0.70492435090E+03  0.10100000352E+00 0.  1.
       -3    1    3    3    0  502 -0.63684554958E+02 -0.25877508969E+03 -0.21217372770E+03  0.34064346539E+03  0.10100000352E+00 0. -1.
</event>
<event>
 5   0  0.9420349E-02  0.6107342E+03  0.7818609E-02  0.9883383E-01
        1   -1    0    0  501    0  0.00000000000E+00  0.00000000000E+00  0.29583766191E+03  0.29583766196E+03  0.50400001928E-02 0.  1.
       -1   -1    0    0    0  501  0.00000000000E+00  0.00000000000E+00 -0.31520350618E+03  0.31520350622E+03  0.50400001928E-02 0. -1.
    10030    2    1    2    0    0  0.00000000000E+00  0.00000000000E+00 -0.19365844262E+02  0.61104116818E+03  0.61073420838E+03 0.  0.
        2    1    3    3  502    0  0.33599122304E+02  0.16906326785E+03  0.24251078116E+03  0.29752776096E+03  0.25500000920E-02 0.  1.
       -2    1    3    3    0  502 -0.33599122304E+02 -0.16906326785E+03 -0.26187662542E+03  0.31351340722E+03  0.25500000920E-02 0. -1.
</event>
<event>
 5   0  0.9411028E-02  0.5943132E+03  0.7818609E-02  0.9917275E-01
       -1   -1    0    0    0  501  0.00000000000E+00  0.00000000000E+00  0.13989460247E+03  0.13989460256E+03  0.50400001928E-02 0.  1.
        1   -1    0    0  501    0  0.00000000000E+00  0.00000000000E+00 -0.63120415563E+03  0.63120415565E+03  0.50400001928E-02 0. -1.
    10030    2    1    2    0    0  0.00000000000E+00  0.00000000000E+00 -0.49130955316E+03  0.77109875820E+03  0.59431323212E+03 0.  0.
        4    1    3    3  502    0 -0.42417028691E+02  0.76229062270E+02 -0.61421244364E+03  0.62037779866E+03  0.12699999809E+01 0. -1.
       -4    1    3    3    0  502  0.42417028691E+02 -0.76229062270E+02  0.12290289048E+03  0.15072095954E+03  0.12699999809E+01 0.  1.
</event>
<event>
 5   0  0.1513339E-01  0.6394565E+03  0.7818609E-02  0.9826767E-01
       -2   -1    0    0    0  501  0.00000000000E+00  0.00000000000E+00  0.76949355804E+02  0.76949355846E+02  0.25500000920E-02 0.  1.
        2   -1    0    0  501    0  0.00000000000E+00  0.00000000000E+00 -0.13284862755E+04  0.13284862755E+04  0.25500000920E-02 0. -1.
    10030    2    1    2    0    0  0.00000000000E+00  0.00000000000E+00 -0.12515369197E+04  0.14054356314E+04  0.63945652903E+03 0.  0.
        3    1    3    3  502    0  0.18209476557E+03  0.12804710412E+02 -0.12026958657E+04  0.12164702297E+04  0.10100000352E+00 0. -1.
       -3    1    3    3    0  502 -0.18209476557E+03 -0.12804710412E+02 -0.48841054021E+02  0.18896540164E+03  0.10100000352E+00 0.  1.
</event>
<event>
 5   0  0.8860626E-02  0.6187007E+03  0.7818609E-02  0.9867350E-01
        1   -1    0    0  501    0  0.00000000000E+00  0.00000000000E+00  0.24216958407E+03  0.24216958412E+03  0.50400001928E-02 0.  1.
       -1   -1    0    0    0  501  0.00000000000E+00  0.00000000000E+00 -0.39516788514E+03  0.39516788517E+03  0.50400001928E-02 0. -1.
    10030    2    1    2    0    0  0.00000000000E+00  0.00000000000E+00 -0.15299830108E+03  0.63733746929E+03  0.61870071087E+03 0.  0.
        3    1    3    3  502    0  0.25849460624E+03  0.13114027181E+03 -0.18783055603E+03  0.34539478908E+03  0.10100000352E+00 0.  1.
       -3    1    3    3    0  502 -0.25849460624E+03 -0.13114027181E+03  0.34832254950E+02  0.29194268021E+03  0.10100000352E+00 0. -1.
</event>
<event>
 5   0  0.9411028E-02  0.6002491E+03  0.7818609E-02  0.9904889E-01
       -1   -1    0    0    0  501  0.00000000000E+00  0.00000000000E+00  0.18289834603E+03  0.18289834610E+03  0.50400001928E-02 0.  1.
        1   -1    0    0  501    0  0.00000000000E+00  0.00000000000E+00 -0.49248522285E+03  0.49248522287E+03  0.50400001928E-02 0. -1.
    10030    2    1    2    0    0  0.00000000000E+00  0.00000000000E+00 -0.30958687682E+03  0.67538356897E+03  0.60024905742E+03 0.  0.
        4    1    3    3  502    0  0.26137679378E+03  0.16552246612E+01  0.11155358846E+02  0.26162305522E+03  0.12699999809E+01 0.  1.
       -4    1    3    3    0  502 -0.26137679378E+03 -0.16552246612E+01 -0.32074223567E+03  0.41376051375E+03  0.12699999809E+01 0. -1.
</event>
<event>
 5   0  0.9420349E-02  0.6098268E+03  0.7818609E-02  0.9885226E-01
       -1   -1    0    0    0  501  0.00000000000E+00  0.00000000000E+00  0.17905499870E+03  0.17905499877E+03  0.50400001928E-02 0. -1.
        1   -1    0    0  501    0  0.00000000000E+00  0.00000000000E+00 -0.51923804399E+03  0.51923804402E+03  0.50400001928E-02 0.  1.
    10030    2    1    2    0    0  0.00000000000E+00  0.00000000000E+00 -0.34018304529E+03  0.69829304279E+03  0.60982675352E+03 0.  0.
        2    1    3    3  502    0  0.23120951469E+03 -0.74819344012E+02 -0.38097185330E+03  0.45187977044E+03  0.25500000920E-02 0.  1.
       -2    1    3    3    0  502 -0.23120951469E+03  0.74819344012E+02  0.40788808006E+02  0.24641327235E+03  0.25500000920E-02 0. -1.
</event>
<event>
 5   0  0.1502642E-01  0.6061496E+03  0.7818609E-02  0.9892729E-01
       -2   -1    0    0    0  501  0.00000000000E+00  0.00000000000E+00  0.13225979197E+03  0.13225979199E+03  0.25500000920E-02 0. -1.
        2   -1    0    0  501    0  0.00000000000E+00  0.00000000000E+00 -0.69449921111E+03  0.69449921111E+03  0.25500000920E-02 0.  1.
    10030    2    1    2    0    0  0.00000000000E+00  0.00000000000E+00 -0.56223941914E+03  0.82675900310E+03  0.60614955645E+03 0.  0.
        2    1    3    3  502    0  0.13977620927E+03  0.83367043732E+02 -0.62984061312E+03  0.65052797833E+03  0.25500000920E-02 0.  1.
       -2    1    3    3    0  502 -0.13977620927E+03 -0.83367043732E+02  0.67601193978E+02  0.17623102477E+03  0.25500000920E-02 0. -1.
</event>
<event>
 5   0  0.1502642E-01  0.6323568E+03  0.7818609E-02  0.9840460E-01
       -2   -1    0    0    0  501  0.00000000000E+00  0.00000000000E+00  0.11176440056E+03  0.11176440059E+03  0.25500000920E-02 0.  1.
        2   -1    0    0  501    0  0.00000000000E+00  0.00000000000E+00 -0.89446005407E+03  0.89446005407E+03  0.25500000920E-02 0. -1.
    10030    2    1    2    0    0  0.00000000000E+00  0.00000000000E+00 -0.78269565351E+03  0.10062244547E+04  0.63235683529E+03 0.  0.
        2    1    3    3  502    0 -0.22266837870E+01  0.31244706758E+03 -0.31436352889E+03  0.44322968816E+03  0.25500000920E-02 0. -1.
       -2    1    3    3    0  502  0.22266837870E+01 -0.31244706758E+03 -0.46833212462E+03  0.56299476651E+03  0.25500000920E-02 0.  1.
</event>
<event>
 5   0  0.1502642E-01  0.6156609E+03  0.7818609E-02  0.9873437E-01
       -2   -1    0    0    0  501  0.00000000000E+00  0.00000000000E+00  0.23192779799E+03  0.23192779800E+03  0.25500000920E-02 0.  1.
        2   -1    0    0  501    0  0.00000000000E+00  0.00000000000E+00 -0.40857365950E+03  0.40857365951E+03  0.25500000920E-02 0. -1.
    10030    2    1    2    0    0  0.00000000000E+00  0.00000000000E+00 -0.17664586151E+03  0.64050145751E+03  0.61566091047E+03 0.  0.
        2    1    3    3  502    0 -0.13779145673E+03 -0.54107391067E+02  0.19246593857E+03  0.24281110525E+03  0.25500000920E-02 0.  1.
       -2    1    3    3    0  502  0.13779145673E+03  0.54107391067E+02 -0.36911180008E+03  0.39769035226E+03  0.25500000920E-02 0. -1.
</event>
<event>
 5   0  0.6170500E-02  0.6016957E+03  0.7818609E-02  0.9901894E-01
        4   -1    0    0  501    0  0.00000000000E+00  0.00000000000E+00  0.79387379726E+02  0.79397537492E+02  0.12699999809E+01 0.  1.
       -4   -1    0    0    0  501  0.00000000000E+00  0.00000000000E+00 -0.11400149712E+04  0.11400156786E+04  0.12699999809E+01 0. -1.
    10030    2    1    2    0    0  0.00000000000E+00  0.00000000000E+00 -0.10606275915E+04  0.12194132161E+04  0.60169569036E+03 0.  0.
        4    1    3    3  502    0 -0.10275470497E+02  0.14722189734E+03 -0.10616148313E+04  0.10718243958E+04  0.12699999809E+01 0. -1.
       -4    1    3    3    0  502  0.10275470497E+02 -0.14722189734E+03  0.98723983813E+00  0.14758882035E+03  0.12699999809E+01 0.  1.
</event>
<event>
 5   0  0.9411028E-02  0.6025709E+03  0.7818609E-02  0.9900087E-01
        1   -1    0    0  501    0  0.00000000000E+00  0.00000000000E+00  0.36970706249E+03  0.36970706252E+03  0.50400001928E-02 0. -1.
       -1   -1    0    0    0  501  0.00000000000E+00  0.00000000000E+00 -0.24552662347E+03  0.24552662352E+03  0.50400001928E-02 0.  1.
    10030    2    1    2    0    0  0.00000000000E+00  0.00000000000E+00  0.12418043902E+03  0.61523368604E+03  0.60257091450E+03 0.  0.
        4    1    3    3  502    0  0.22162103532E+03 -0.26365497943E+02  0.26872977487E+03  0.34932553239E+03  0.12699999809E+01 0.  1.
       -4    1    3    3    0  502 -0.22162103532E+03  0.26365497943E+02 -0.14454933585E+03  0.26590815365E+03  0.12699999809E+01 0. -1.
</event>
<event>
 5   0  0.8860626E-02  0.6748575E+03  0.7818609E-02  0.9761222E-01
        1   -1    0    0  501    0  0.00000000000E+00  0.00000000000E+00  0.86002291651E+03  0.86002291653E+03  0.50400001928E-02 0.  1.
       -1   -1    0    0    0  501  0.00000000000E+00  0.00000000000E+00 -0.13238968162E+03  0.13238968172E+03  0.50400001928E-02 0. -1.
    10030    2    1    2    0    0  0.00000000000E+00  0.00000000000E+00  0.72763323489E+03  0.99241259824E+03  0.67485749654E+03 0.  0.
        3    1    3    3  502    0 -0.28168392738E+03 -0.17868016728E+03  0.28903922137E+03  0.44137978977E+03  0.10100000352E+00 0.  1.
       -3    1    3    3    0  502  0.28168392738E+03  0.17868016728E+03  0.43859401352E+03  0.55103280848E+03  0.10100000352E+00 0. -1.
</event>
<event>
 5   0  0.1488510E-01  0.6009286E+03  0.7818609E-02  0.9903481E-01
        2   -1    0    0  501    0  0.00000000000E+00  0.00000000000E+00  0.18305069821E+04  0.18305069821E+04  0.25500000920E-02 0. -1.
       -2   -1    0    0    0  501  0.00000000000E+00  0.00000000000E+00 -0.49319011561E+02  0.49319011626E+02  0.25500000920E-02 0.  1.
    10030    2    1    2    0    0  0.00000000000E+00  0.00000000000E+00  0.17811879706E+04  0.18798259938E+04  0.60092859835E+03 0.  0.
        5    1    3    3  502    0 -0.26945559791E+03 -0.60864709461E+02  0.52117634442E+03  0.58987939791E+03  0.46999998093E+01 0.  1.
       -5    1    3    3    0  502  0.26945559791E+03  0.60864709461E+02  0.12600116262E+04  0.12899465959E+04  0.46999998093E+01 0. -1.
</event>
<event>
 5   0  0.9420349E-02  0.6085424E+03  0.7818609E-02  0.9887840E-01
       -1   -1    0    0    0  501  0.00000000000E+00  0.00000000000E+00  0.13864620909E+03  0.13864620918E+03  0.50400001928E-02 0. -1.
        1   -1    0    0  501    0  0.00000000000E+00  0.00000000000E+00 -0.66774959135E+03  0.66774959137E+03  0.50400001928E-02 0.  1.
    10030    2    1    2    0    0  0.00000000000E+00  0.00000000000E+00 -0.52910338226E+03  0.80639580055E+03  0.60854235517E+03 0.  0.
        2    1    3    3  502    0 -0.43928517077E+02 -0.31952039741E+02 -0.66127240472E+03  0.66349969157E+03  0.25500000920E-02 0.  1.
       -2    1    3    3    0  502  0.43928517077E+02  0.31952039741E+02  0.13216902247E+03  0.14289610898E+03  0.25500000920E-02 0. -1.
</event>
<event>
 5   0  0.1513339E-01  0.6032298E+03  0.7818609E-02  0.9898728E-01
       -2   -1    0    0    0  501  0.00000000000E+00  0.00000000000E+00  0.22826722399E+03  0.22826722400E+03  0.25500000920E-02 0. -1.
        2   -1    0    0  501    0  0.00000000000E+00  0.00000000000E+00 -0.39853099036E+03  0.39853099037E+03  0.25500000920E-02 0.  1.
    10030    2    1    2    0    0  0.00000000000E+00  0.00000000000E+00 -0.17026376637E+03  0.62679821437E+03  0.60322984956E+03 0.  0.
        3    1    3    3  502    0 -0.29385444453E+03 -0.63398118499E+02 -0.59641884764E+02  0.30647499184E+03  0.10100000352E+00 0. -1.
       -3    1    3    3    0  502  0.29385444453E+03  0.63398118499E+02 -0.11062188161E+03  0.32032322253E+03  0.10100000352E+00 0.  1.
</event>
<event>
 5   0  0.9411028E-02  0.5953202E+03  0.7818609E-02  0.9915163E-01
       -1   -1    0    0    0  501  0.00000000000E+00  0.00000000000E+00  0.23911288507E+03  0.23911288512E+03  0.50400001928E-02 0.  1.
        1   -1    0    0  501    0  0.00000000000E+00  0.00000000000E+00 -0.37054274736E+03  0.37054274740E+03  0.50400001928E-02 0. -1.
    10030    2    1    2    0    0  0.00000000000E+00  0.00000000000E+00 -0.13142986229E+03  0.60965563252E+03  0.59532023446E+03 0.  0.
        4    1    3    3  502    0 -0.12935902224E+03  0.19838066093E+03 -0.25036566680E+03  0.34463491303E+03  0.12699999809E+01 0. -1.
       -4    1    3    3    0  502  0.12935902224E+03 -0.19838066093E+03  0.11893580450E+03  0.26502071949E+03  0.12699999809E+01 0.  1.
</event>
<event>
 5   0  0.9497860E-02  0.5746332E+03  0.7818609E-02  0.9959478E-01
        1   -1    0    0  501    0  0.00000000000E+00  0.00000000000E+00  0.26137216057E+03  0.26137216062E+03  0.50400001928E-02 0.  1.
       -1   -1    0    0    0  501  0.00000000000E+00  0.00000000000E+00 -0.31583637769E+03  0.31583637773E+03  0.50400001928E-02 0. -1.
    10030    2    1    2    0    0  0.00000000000E+00  0.00000000000E+00 -0.54464217120E+02  0.57720853834E+03  0.57463322719E+03 0.  0.
        5    1    3    3  502    0 -0.14008066890E+03  0.14454572584E+03 -0.23312067754E+03  0.30803149344E+03  0.46999998093E+01 0. -1.
       -5    1    3    3    0  502  0.14008066890E+03 -0.14454572584E+03  0.17865646042E+03  0.26917704490E+03  0.46999998093E+01 0.  1.
</event>
<event>
 5   0  0.8860626E-02  0.5891380E+03  0.7818609E-02  0.9928201E-01
       -1   -1    0    0    0  501  0.00000000000E+00  0.00000000000E+00  0.42564527488E+03  0.42564527491E+03  0.50400001928E-02 0.  1.
        1   -1    0    0  501    0  0.00000000000E+00  0.00000000000E+00 -0.20385728582E+03  0.20385728589E+03  0.50400001928E-02 0. -1.
    10030    2    1    2    0    0  0.00000000000E+00  0.00000000000E+00  0.22178798906E+03  0.62950256080E+03  0.58913798210E+03 0.  0.
        3    1    3    3  502    0  0.18706508809E+03 -0.71951899667E+02  0.34155573636E+03  0.39601862871E+03  0.10100000352E+00 0.  1.
       -3    1    3    3    0  502 -0.18706508809E+03  0.71951899667E+02 -0.11976774730E+03  0.23348393208E+03  0.10100000352E+00 0. -1.
</event>
<event>
 5   0  0.9177281E-02  0.5732093E+03  0.7818609E-02  0.9962602E-01
        1   -1    0    0  501    0  0.00000000000E+00  0.00000000000E+00  0.52843680817E+03  0.52843680819E+03  0.50400001928E-02 0.  1.
       -1   -1    0    0    0  501  0.00000000000E+00  0.00000000000E+00 -0.15544379092E+03  0.15544379100E+03  0.50400001928E-02 0. -1.
    10030    2    1    2    0    0  0.00000000000E+00  0.00000000000E+00  0.37299301724E+03  0.68388059920E+03  0.57320928381E+03 0.  0.
        1    1    3    3  502    0  0.18630891456E+03  0.56021940974E+02 -0.64595792276E+02  0.20499289236E+03  0.50400001928E-02 0. -1.
       -1    1    3    3    0  502 -0.18630891456E+03 -0.56021940974E+02  0.43758880952E+03  0.47888770683E+03  0.50400001928E-02 0.  1.
</event>
<event>
 5   0  0.1483942E-01  0.6341824E+03  0.7818609E-02  0.9836921E-01
       -2   -1    0    0    0  501  0.00000000000E+00  0.00000000000E+00  0.51530722284E+03  0.51530722285E+03  0.25500000920E-02 0.  1.
        2   -1    0    0  501    0  0.00000000000E+00  0.00000000000E+00 -0.19512014020E+03  0.19512014022E+03  0.25500000920E-02 0. -1.
    10030    2    1    2    0    0  0.00000000000E+00  0.00000000000E+00  0.32018708264E+03  0.71042736306E+03  0.63418236360E+03 0.  0.
        4    1    3    3  502    0 -0.72856990612E+01  0.18046290639E+03  0.45205208156E+03  0.48679835593E+03  0.12699999809E+01 0.  1.
       -4    1    3    3    0  502  0.72856990612E+01 -0.18046290639E+03 -0.13186499892E+03  0.22362900713E+03  0.12699999809E+01 0. -1.
</event>
<event>
 5   0  0.1502642E-01  0.6046072E+03  0.7818609E-02  0.9895893E-01
        2   -1    0    0  501    0  0.00000000000E+00  0.00000000000E+00  0.40830369784E+03  0.40830369785E+03  0.25500000920E-02 0.  1.
       -2   -1    0    0    0  501  0.00000000000E+00  0.00000000000E+00 -0.22382229725E+03  0.22382229727E+03  0.25500000920E-02 0. -1.
    10030    2    1    2    0    0  0.00000000000E+00  0.00000000000E+00  0.18448140059E+03  0.63212599512E+03  0.60460721675E+03 0.  0.
        2    1    3    3  502    0  0.12270619896E+03 -0.70331021346E+02 -0.18709818497E+03  0.23453996387E+03  0.25500000920E-02 0. -1.
       -2    1    3    3    0  502 -0.12270619896E+03  0.70331021346E+02  0.37157958556E+03  0.39758603125E+03  0.25500000920E-02 0.  1.
</event>
<event>
 5   0  0.8860626E-02  0.5826486E+03  0.7818609E-02  0.9942073E-01
       -1   -1    0    0    0  501  0.00000000000E+00  0.00000000000E+00  0.15695522311E+03  0.15695522319E+03  0.50400001928E-02 0. -1.
        1   -1    0    0  501    0  0.00000000000E+00  0.00000000000E+00 -0.54072643368E+03  0.54072643370E+03  0.50400001928E-02 0.  1.
    10030    2    1    2    0    0  0.00000000000E+00  0.00000000000E+00 -0.38377121057E+03  0.69768165689E+03  0.58264856672E+03 0.  0.
        3    1    3    3  502    0 -0.65810800437E+02 -0.72201466899E+01 -0.53159887406E+03  0.53570567020E+03  0.10100000352E+00 0.  1.
       -3    1    3    3    0  502  0.65810800437E+02  0.72201466899E+01  0.14782766349E+03  0.16197598670E+03  0.10100000352E+00 0. -1.
</event>
<event>
 5   0  0.1513339E-01  0.6025477E+03  0.7818609E-02  0.9900134E-01
       -2   -1    0    0    0  501  0.00000000000E+00  0.00000000000E+00  0.64257995700E+02  0.64257995750E+02  0.25500000920E-02 0.  1.
        2   -1    0    0  501    0  0.00000000000E+00  0.00000000000E+00 -0.14125235977E+04  0.14125235977E+04  0.25500000920E-02 0. -1.
    10030    2    1    2    0    0  0.00000000000E+00  0.00000000000E+00 -0.13482656020E+04  0.14767815934E+04  0.60254770867E+03 0.  0.
        3    1    3    3  502    0  0.28848093154E+03 -0.82949250697E+02 -0.61097292621E+03  0.68072737040E+03  0.10100000352E+00 0.  1.
       -3    1    3    3    0  502 -0.28848093154E+03  0.82949250697E+02 -0.73729267578E+03  0.79605422304E+03  0.10100000352E+00 0. -1.
</event>
<event>
 5   0  0.9411028E-02  0.5974863E+03  0.7818609E-02  0.9910635E-01
       -1   -1    0    0    0  501  0.00000000000E+00  0.00000000000E+00  0.10765815931E+03  0.10765815943E+03  0.50400001928E-02 0.  1.
        1   -1    0    0  501    0  0.00000000000E+00  0.00000000000E+00 -0.82898946978E+03  0.82898946980E+03  0.50400001928E-02 0. -1.
    10030    2    1    2    0    0  0.00000000000E+00  0.00000000000E+00 -0.72133131047E+03  0.93664762922E+03  0.59748633614E+03 0.  0.
        4    1    3    3  502    0  0.13271617248E+03  0.16956868596E+03 -0.68528118852E+03  0.71831681168E+03  0.12699999809E+01 0.  1.
       -4    1    3    3    0  502 -0.13271617248E+03 -0.16956868596E+03 -0.36050121945E+02  0.21833081754E+03  0.12699999809E+01 0. -1.
</event>
<event>
 5   0  0.9411028E-02  0.5797429E+03  0.7818609E-02  0.9948348E-01
        1   -1    0    0  501    0  0.00000000000E+00  0.00000000000E+00  0.41576855802E+03  0.41576855805E+03  0.50400001928E-02 0. -1.
       -1   -1    0    0    0  501  0.00000000000E+00  0.00000000000E+00 -0.20209672507E+03  0.20209672513E+03  0.50400001928E-02 0.  1.
    10030    2    1    2    0    0  0.00000000000E+00  0.00000000000E+00  0.21367183296E+03  0.61786528318E+03  0.57974292230E+03 0.  0.
        4    1    3    3  502    0 -0.15779292748E+03 -0.44480804311E+02  0.36160922157E+03  0.39703903075E+03  0.12699999809E+01 0. -1.
       -4    1    3    3    0  502  0.15779292748E+03  0.44480804311E+02 -0.14793738861E+03  0.22082625243E+03  0.12699999809E+01 0.  1.
</event>
<event>
 5   0  0.9497860E-02  0.5987084E+03  0.7818609E-02  0.9908089E-01
        1   -1    0    0  501    0  0.00000000000E+00  0.00000000000E+00  0.61962083920E+03  0.61962083922E+03  0.50400001928E-02 0.  1.
       -1   -1    0    0    0  501  0.00000000000E+00  0.00000000000E+00 -0.14462541687E+03  0.14462541695E+03  0.50400001928E-02 0. -1.
    10030    2    1    2    0    0  0.00000000000E+00  0.00000000000E+00  0.47499542233E+03  0.76424625617E+03  0.59870835040E+03 0.  0.
        5    1    3    3  502    0 -0.24639886459E+03 -0.78679266057E+02  0.42976976148E+03  0.50162432682E+03  0.46999998093E+01 0.  1.
       -5    1    3    3    0  502  0.24639886459E+03  0.78679266057E+02  0.45225660851E+02  0.26262192935E+03  0.46999998093E+01 0. -1.
</event>
<event>
 5   0  0.1513339E-01  0.6029137E+03  0.7818609E-02  0.9899380E-01
        2   -1    0    0  501    0  0.00000000000E+00  0.00000000000E+00  0.36935778506E+03  0.36935778507E+03  0.25500000920E-02 0. -1.
       -2   -1    0    0    0  501  0.00000000000E+00  0.00000000000E+00 -0.24603845355E+03  0.24603845356E+03  0.25500000920E-02 0.  1.
    10030    2    1    2    0    0  0.00000000000E+00  0.00000000000E+00  0.12331933151E+03  0.61539623863E+03  0.60291365302E+03 0.  0.
        3    1    3    3  502    0 -0.19498204786E+03  0.14859966746E+03 -0.11740432534E+03  0.27181546308E+03  0.10100000352E+00 0.  1.
       -3    1    3    3    0  502  0.19498204786E+03 -0.14859966746E+03  0.24072365686E+03  0.34358077556E+03  0.10100000352E+00 0. -1.
</event>
<event>
 5   0  0.9411028E-02  0.6090358E+03  0.7818609E-02  0.9886835E-01
        1   -1    0    0  501    0  0.00000000000E+00  0.00000000000E+00  0.54611072657E+03  0.54611072659E+03  0.50400001928E-02 0.  1.
       -1   -1    0    0    0  501  0.00000000000E+00  0.00000000000E+00 -0.16980285713E+03  0.16980285720E+03  0.50400001928E-02 0. -1.
    10030    2    1    2    0    0  0.00000000000E+00  0.00000000000E+00  0.37630786944E+03  0.71591358380E+03  0.60903583381E+03 0.  0.
        4    1    3    3  502    0  0.29394447054E+03  0.78911104916E+02  0.19986372893E+03  0.36411184722E+03  0.12699999809E+01 0.  1.
       -4    1    3    3    0  502 -0.29394447054E+03 -0.78911104916E+02  0.17644414051E+03  0.35180173658E+03  0.12699999809E+01 0. -1.
</event>
<event>
 5   0  0.1532571E-01  0.5935841E+03  0.7818609E-02  0.9918807E-01
       -2   -1    0    0    0  501  0.00000000000E+00  0.00000000000E+00  0.26413955568E+03  0.26413955569E+03  0.25500000920E-02 0. -1.
        2   -1    0    0  501    0  0.00000000000E+00  0.00000000000E+00 -0.33348102742E+03  0.33348102743E+03  0.25500000920E-02 0.  1.
    10030    2    1    2    0    0  0.00000000000E+00  0.00000000000E+00 -0.69341471737E+02  0.59762058312E+03  0.59358413192E+03 0.  0.
        1    1    3    3  502    0  0.78943170815E+02  0.26202879013E+03  0.80977338349E+02  0.28539173153E+03  0.50400001928E-02 0. -1.
       -1    1    3    3    0  502 -0.78943170815E+02 -0.26202879013E+03 -0.15031881009E+03  0.31222885159E+03  0.50400001928E-02 0.  1.
</event>
<event>
 5   0  0.9411028E-02  0.5942647E+03  0.7818609E-02  0.9917377E-01
       -1   -1    0    0    0  501  0.00000000000E+00  0.00000000000E+00  0.15605882689E+03  0.15605882697E+03  0.50400001928E-02 0. -1.
        1   -1    0    0  501    0  0.00000000000E+00  0.00000000000E+00 -0.56573308474E+03  0.56573308476E+03  0.50400001928E-02 0.  1.
    10030    2    1    2    0    0  0.00000000000E+00  0.00000000000E+00 -0.40967425785E+03  0.72179191173E+03  0.59426472745E+03 0.  0.
        4    1    3    3  502    0  0.23474797154E+03  0.88385978980E+02 -0.11386788198E+02  0.25109751745E+03  0.12699999809E+01 0. -1.
       -4    1    3    3    0  502 -0.23474797154E+03 -0.88385978980E+02 -0.39828746965E+03  0.47069439428E+03  0.12699999809E+01 0.  1.
</event>
<event>
 5   0  0.9497860E-02  0.6086683E+03  0.7818609E-02  0.9887583E-01
        1   -1    0    0  501    0  0.00000000000E+00  0.00000000000E+00  0.22539261335E+03  0.22539261340E+03  0.50400001928E-02 0.  1.
       -1   -1    0    0    0  501  0.00000000000E+00  0.00000000000E+00 -0.41092423270E+03  0.41092423273E+03  0.50400001928E-02 0. -1.
    10030    2    1    2    0    0  0.00000000000E+00  0.00000000000E+00 -0.18553161936E+03  0.63631684614E+03  0.60866833900E+03 0.  0.
        5    1    3    3  502    0  0.30361498139E+03  0.98370327375E+01 -0.74112300515E+02  0.31271959840E+03  0.46999998093E+01 0.  1.
       -5    1    3    3    0  502 -0.30361498139E+03 -0.98370327375E+01 -0.11141931884E+03  0.32359724774E+03  0.46999998093E+01 0. -1.
</event>
<event>
 5   0  0.6170500E-02  0.6139005E+03  0.7818609E-02  0.9876979E-01
        3   -1    0    0  501    0  0.00000000000E+00  0.00000000000E+00  0.15318313730E+03  0.15318317060E+03  0.10100000352E+00 0.  1.
       -3   -1    0    0    0  501  0.00000000000E+00  0.00000000000E+00 -0.61507059251E+03  0.61507060081E+03  0.10100000352E+00 0. -1.
    10030    2    1    2    0    0  0.00000000000E+00  0.00000000000E+00 -0.46188745521E+03  0.76825377141E+03  0.61390050985E+03 0.  0.
        4    1    3    3  502    0 -0.19079815668E+03  0.76400651069E+02  0.54360040218E+02  0.21259732583E+03  0.12699999809E+01 0.  1.
       -4    1    3    3    0  502  0.19079815668E+03 -0.76400651069E+02 -0.51624749543E+03  0.55565644558E+03  0.12699999809E+01 0. -1.
</event>
<event>
 5   0  0.6170500E-02  0.5787965E+03  0.7818609E-02  0.9950400E-01
       -3   -1    0    0    0  501  0.00000000000E+00  0.00000000000E+00  0.23864575126E+03  0.23864577263E+03  0.10100000352E+00 0. -1.
        3   -1    0    0  501    0  0.00000000000E+00  0.00000000000E+00 -0.35094414601E+03  0.35094416054E+03  0.10100000352E+00 0.  1.
    10030    2    1    2    0    0  0.00000000000E+00  0.00000000000E+00 -0.11229839475E+03  0.58958993317E+03  0.57879647531E+03 0.  0.
        1    1    3    3  502    0 -0.21979256841E+03 -0.11871386844E+03 -0.20498893404E+03  0.32314426932E+03  0.50400001928E-02 0.  1.
       -1    1    3    3    0  502  0.21979256841E+03  0.11871386844E+03  0.92690539293E+02  0.26644566386E+03  0.50400001928E-02 0. -1.
</event>
<event>
 5   0  0.6170500E-02  0.6114940E+03  0.7818609E-02  0.9881842E-01
       -4   -1    0    0    0  501  0.00000000000E+00  0.00000000000E+00  0.14445345503E+03  0.14445903769E+03  0.12699999809E+01 0.  1.
        4   -1    0    0  501    0  0.00000000000E+00  0.00000000000E+00 -0.64711871037E+03  0.64711995659E+03  0.12699999809E+01 0. -1.
    10030    2    1    2    0    0  0.00000000000E+00  0.00000000000E+00 -0.50266525534E+03  0.79157899428E+03  0.61149402716E+03 0.  0.
        3    1    3    3  502    0 -0.28240533192E+03 -0.40172248641E+02 -0.39381377015E+03  0.48626728948E+03  0.10100000352E+00 0. -1.
       -3    1    3    3    0  502  0.28240533192E+03  0.40172248641E+02 -0.10885148519E+03  0.30531170480E+03  0.10100000352E+00 0.  1.
</event>
<event>
 5   0  0.6170500E-02  0.5632353E+03  0.7818609E-02  0.9984761E-01
       -3   -1    0    0    0  501  0.00000000000E+00  0.00000000000E+00  0.17191835296E+03  0.17191838263E+03  0.10100000352E+00 0. -1.
        3   -1    0    0  501    0  0.00000000000E+00  0.00000000000E+00 -0.46131491816E+03  0.46131492922E+03  0.10100000352E+00 0.  1.
    10030    2    1    2    0    0  0.00000000000E+00  0.00000000000E+00 -0.28939656520E+03  0.63323331185E+03  0.56323534627E+03 0.  0.
        1    1    3    3  502    0 -0.87946327522E+02 -0.21328859280E+03  0.36871570860E+02  0.23363666901E+03  0.50400001928E-02 0. -1.
       -1    1    3    3    0  502  0.87946327522E+02  0.21328859280E+03 -0.32626813606E+03  0.39959664285E+03  0.50400001928E-02 0.  1.
</event>
<event>
 5   0  0.9420349E-02  0.6053464E+03  0.7818609E-02  0.9894376E-01
       -1   -1    0    0    0  501  0.00000000000E+00  0.00000000000E+00  0.27989472294E+03  0.27989472299E+03  0.50400001928E-02 0. -1.
        1   -1    0    0  501    0  0.00000000000E+00  0.00000000000E+00 -0.32730549338E+03  0.32730549342E+03  0.50400001928E-02 0.  1.
    10030    2    1    2    0    0  0.00000000000E+00  0.00000000000E+00 -0.47410770433E+02  0.60720021641E+03  0.60534644762E+03 0.  0.
        2    1    3    3  502    0  0.23415188544E+03 -0.19015921889E+03  0.13399868458E+01  0.30164454173E+03  0.25500000920E-02 0.  1.
       -2    1    3    3    0  502 -0.23415188544E+03  0.19015921889E+03 -0.48750757279E+02  0.30555567467E+03  0.25500000920E-02 0. -1.
</event>
<event>
 5   0  0.6170500E-02  0.6046332E+03  0.7818609E-02  0.9895840E-01
        3   -1    0    0  501    0  0.00000000000E+00  0.00000000000E+00  0.19562425656E+03  0.19562428263E+03  0.10100000352E+00 0.  1.
       -3   -1    0    0    0  501  0.00000000000E+00  0.00000000000E+00 -0.46719822935E+03  0.46719824027E+03  0.10100000352E+00 0. -1.
    10030    2    1    2    0    0  0.00000000000E+00  0.00000000000E+00 -0.27157397280E+03  0.66282252290E+03  0.60463317322E+03 0.  0.
        4    1    3    3  502    0 -0.17549664119E+03  0.24072695957E+03 -0.79406124366E+02  0.30831069657E+03  0.12699999809E+01 0.  1.
       -4    1    3    3    0  502  0.17549664119E+03 -0.24072695957E+03 -0.19216784843E+03  0.35451182632E+03  0.12699999809E+01 0. -1.
</event>
<event>
 5   0  0.9497860E-02  0.5970893E+03  0.7818609E-02  0.9911463E-01
       -1   -1    0    0    0  501  0.00000000000E+00  0.00000000000E+00  0.66236477900E+02  0.66236478091E+02  0.50400001928E-02 0. -1.
        1   -1    0    0  501    0  0.00000000000E+00  0.00000000000E+00 -0.13456167893E+04  0.13456167893E+04  0.50400001928E-02 0.  1.
    10030    2    1    2    0    0  0.00000000000E+00  0.00000000000E+00 -0.12793803114E+04  0.14118532674E+04  0.59708932955E+03 0.  0.
        5    1    3    3  502    0  0.18351294816E+03 -0.13498479941E+03 -0.10958046107E+04  0.11192442687E+04  0.46999998093E+01 0.  1.
       -5    1    3    3    0  502 -0.18351294816E+03  0.13498479941E+03 -0.18357570064E+03  0.29260899863E+03  0.46999998093E+01 0. -1.
</event>
<event>
 5   0  0.6170500E-02  0.6061268E+03  0.7818609E-02  0.9892776E-01
       -3   -1    0    0    0  501  0.00000000000E+00  0.00000000000E+00  0.68262815964E+02  0.68262890682E+02  0.10100000352E+00 0. -1.
        3   -1    0    0  501    0  0.00000000000E+00  0.00000000000E+00 -0.13454963502E+04  0.13454963540E+04  0.10100000352E+00 0.  1.
    10030    2    1    2    0    0  0.00000000000E+00  0.00000000000E+00 -0.12772335343E+04  0.14137592447E+04  0.60612680268E+03 0.  0.
        3    1    3    3  502    0 -0.46012572197E+02  0.14627338355E+03 -0.28895251657E+02  0.15603847380E+03  0.10100000352E+00 0. -1.
       -3    1    3    3    0  502  0.46012572197E+02 -0.14627338355E+03 -0.12483382826E+04  0.12577207709E+04  0.10100000352E+00 0.  1.
</event>
<event>
 5   0  0.1502642E-01  0.5995306E+03  0.7818609E-02  0.9906380E-01
        2   -1    0    0  501    0  0.00000000000E+00  0.00000000000E+00  0.10883675466E+04  0.10883675466E+04  0.25500000920E-02 0.  1.
       -2   -1    0    0    0  501  0.00000000000E+00  0.00000000000E+00 -0.82563319920E+02  0.82563319960E+02  0.25500000920E-02 0. -1.
    10030    2    1    2    0    0  0.00000000000E+00  0.00000000000E+00  0.10058042266E+04  0.11709308665E+04  0.59953060960E+03 0.  0.
        2    1    3    3  502    0  0.26008741109E+03  0.11811016522E+03  0.68044729203E+03  0.73797289230E+03  0.25500000920E-02 0. -1.
       -2    1    3    3    0  502 -0.26008741109E+03 -0.11811016522E+03  0.32535693460E+03  0.43295797421E+03  0.25500000920E-02 0.  1.
</event>
<event>
 5   0  0.9411028E-02  0.6058093E+03  0.7818609E-02  0.9893426E-01
        1   -1    0    0  501    0  0.00000000000E+00  0.00000000000E+00  0.33024344644E+03  0.33024344648E+03  0.50400001928E-02 0. -1.
       -1   -1    0    0    0  501  0.00000000000E+00  0.00000000000E+00 -0.27782910420E+03  0.27782910425E+03  0.50400001928E-02 0.  1.
    10030    2    1    2    0    0  0.00000000000E+00  0.00000000000E+00  0.52414342235E+02  0.60807255073E+03  0.60580934598E+03 0.  0.
        4    1    3    3  502    0 -0.28590261467E+03  0.68528876918E+02  0.99370604553E+02  0.31034278145E+03  0.12699999809E+01 0. -1.
       -4    1    3    3    0  502  0.28590261467E+03 -0.68528876918E+02 -0.46956262318E+02  0.29772976928E+03  0.12699999809E+01 0.  1.
</event>
<event>
 5   0  0.9411028E-02  0.6289232E+03  0.7818609E-02  0.9847152E-01
       -1   -1    0    0    0  501  0.00000000000E+00  0.00000000000E+00  0.44422755371E+03  0.44422755374E+03  0.50400001928E-02 0.  1.
        1   -1    0    0  501    0  0.00000000000E+00  0.00000000000E+00 -0.22260235635E+03  0.22260235640E+03  0.50400001928E-02 0. -1.
    10030    2    1    2    0    0  0.00000000000E+00  0.00000000000E+00  0.22162519737E+03  0.66682991015E+03  0.62892320752E+03 0.  0.
        4    1    3    3  502    0 -0.10289998372E+03  0.42030017148E+02  0.42270133763E+03  0.43707317777E+03  0.12699999809E+01 0.  1.
       -4    1    3    3    0  502  0.10289998372E+03 -0.42030017148E+02 -0.20107614026E+03  0.22975673238E+03  0.12699999809E+01 0. -1.
</event>
<event>
 5   0  0.9177281E-02  0.5844453E+03  0.7818609E-02  0.9938213E-01
        1   -1    0    0  501    0  0.00000000000E+00  0.00000000000E+00  0.26286985898E+03  0.26286985903E+03  0.50400001928E-02 0. -1.
       -1   -1    0    0    0  501  0.00000000000E+00  0.00000000000E+00 -0.32485305262E+03  0.32485305266E+03  0.50400001928E-02 0.  1.
    10030    2    1    2    0    0  0.00000000000E+00  0.00000000000E+00 -0.61983193638E+02  0.58772291168E+03  0.58444529652E+03 0.  0.
        1    1    3    3  502    0  0.18754076289E+03 -0.22091477298E+02  0.19327141668E+03  0.27020993994E+03  0.50400001928E-02 0. -1.
       -1    1    3    3    0  502 -0.18754076289E+03  0.22091477298E+02 -0.25525461031E+03  0.31751297174E+03  0.50400001928E-02 0.  1.
</event>
<event>
 5   0  0.9497860E-02  0.5993013E+03  0.7818609E-02  0.9906857E-01
        1   -1    0    0  501    0  0.00000000000E+00  0.00000000000E+00  0.15838285139E+03  0.15838285147E+03  0.50400001928E-02 0. -1.
       -1   -1    0    0    0  501  0.00000000000E+00  0.00000000000E+00 -0.56692068285E+03  0.56692068288E+03  0.50400001928E-02 0.  1.
    10030    2    1    2    0    0  0.00000000000E+00  0.00000000000E+00 -0.40853783146E+03  0.72530353434E+03  0.59930130752E+03 0.  0.
        5    1    3    3  502    0  0.12562271203E+03  0.11374617406E+03 -0.50329869323E+03  0.53108466603E+03  0.46999998093E+01 0.  1.
       -5    1    3    3    0  502 -0.12562271203E+03 -0.11374617406E+03  0.94760861761E+02  0.19421886832E+03  0.46999998093E+01 0. -1.
</event>
<event>
 5   0  0.1483942E-01  0.5870122E+03  0.7818609E-02  0.9932724E-01
       -2   -1    0    0    0  501  0.00000000000E+00  0.00000000000E+00  0.22787845743E+03  0.22787845744E+03  0.25500000920E-02 0.  1.
        2   -1    0    0  501    0  0.00000000000E+00  0.00000000000E+00 -0.37803413971E+03  0.37803413971E+03  0.25500000920E-02 0. -1.
    10030    2    1    2    0    0  0.00000000000E+00  0.00000000000E+00 -0.15015568228E+03  0.60591259716E+03  0.58701222004E+03 0.  0.
        4    1    3    3  502    0  0.13227750760E+03 -0.82280432009E+02  0.18168183298E+03  0.23932678464E+03  0.12699999809E+01 0.  1.
       -4    1    3    3    0  502 -0.13227750760E+03  0.82280432009E+02 -0.33183751526E+03  0.36658581252E+03  0.12699999809E+01 0. -1.
</event>
<event>
 5   0  0.9177281E-02  0.6137651E+03  0.7818609E-02  0.9877252E-01
       -1   -1    0    0    0  501  0.00000000000E+00  0.00000000000E+00  0.21264360748E+03  0.21264360754E+03  0.50400001928E-02 0.  1.
        1   -1    0    0  501    0  0.00000000000E+00  0.00000000000E+00 -0.44288609883E+03  0.44288609886E+03  0.50400001928E-02 0. -1.
    10030    2    1    2    0    0  0.00000000000E+00  0.00000000000E+00 -0.23024249135E+03  0.65552970640E+03  0.61376509444E+03 0.  0.
        1    1    3    3  502    0 -0.19004420726E+03 -0.85958109717E+02  0.12529909950E+03  0.24332172468E+03  0.50400001928E-02 0.  1.
       -1    1    3    3    0  502  0.19004420726E+03  0.85958109717E+02 -0.35554159085E+03  0.41220798172E+03  0.50400001928E-02 0. -1.
</event>
<event>
 5   0  0.1483942E-01  0.6322624E+03  0.7818609E-02  0.9840644E-01
       -2   -1    0    0    0  501  0.00000000000E+00  0.00000000000E+00  0.11943243542E+03  0.11943243545E+03  0.25500000920E-02 0. -1.
        2   -1    0    0  501    0  0.00000000000E+00  0.00000000000E+00 -0.83678215011E+03  0.83678215011E+03  0.25500000920E-02 0.  1.
    10030    2    1    2    0    0  0.00000000000E+00  0.00000000000E+00 -0.71734971468E+03  0.95621458556E+03  0.63226238263E+03 0.  0.
        4    1    3    3  502    0 -0.23967804847E+03  0.18231355375E+03 -0.50415759579E+03  0.58724806776E+03  0.12699999809E+01 0.  1.
       -4    1    3    3    0  502  0.23967804847E+03 -0.18231355375E+03 -0.21319211890E+03  0.36896651780E+03  0.12699999809E+01 0. -1.
</event>
<event>
 5   0  0.1513339E-01  0.6010191E+03  0.7818609E-02  0.9903294E-01
        2   -1    0    0  501    0  0.00000000000E+00  0.00000000000E+00  0.40622614323E+03  0.40622614324E+03  0.25500000920E-02 0.  1.
       -2   -1    0    0    0  501  0.00000000000E+00  0.00000000000E+00 -0.22230475777E+03  0.22230475779E+03  0.25500000920E-02 0. -1.
    10030    2    1    2    0    0  0.00000000000E+00  0.00000000000E+00  0.18392138545E+03  0.62853090103E+03  0.60101914904E+03 0.  0.
        3    1    3    3  502    0  0.80536200885E+02  0.23512688574E+03 -0.84695659346E+02  0.26257207956E+03  0.10100000352E+00 0.  1.
       -3    1    3    3    0  502 -0.80536200885E+02 -0.23512688574E+03  0.26861704480E+03  0.36595882147E+03  0.10100000352E+00 0. -1.
</event>
<event>
 5   0  0.1532571E-01  0.3729251E+03  0.7818609E-02  0.1053580E+00
       -2   -1    0    0    0  501  0.00000000000E+00  0.00000000000E+00  0.42983839940E+03  0.42983839941E+03  0.25500000920E-02 0.  1.
        2   -1    0    0  501    0  0.00000000000E+00  0.00000000000E+00 -0.80886877675E+02  0.80886877715E+02  0.25500000920E-02 0. -1.
    10030    2    1    2    0    0  0.00000000000E+00  0.00000000000E+00  0.34895152173E+03  0.51072527713E+03  0.37292511873E+03 0.  0.
        1    1    3    3  502    0  0.67304944844E+02  0.55946568535E+02  0.39996039557E+03  0.40942434244E+03  0.50400001928E-02 0.  1.
       -1    1    3    3    0  502 -0.67304944844E+02 -0.55946568535E+02 -0.51008873846E+02  0.10130093468E+03  0.50400001928E-02 0. -1.
</event>
<event>
 5   0  0.1483942E-01  0.6690277E+03  0.7818609E-02  0.9771716E-01
       -2   -1    0    0    0  501  0.00000000000E+00  0.00000000000E+00  0.83415415377E+02  0.83415415416E+02  0.25500000920E-02 0.  1.
        2   -1    0    0  501    0  0.00000000000E+00  0.00000000000E+00 -0.13414728620E+04  0.13414728620E+04  0.25500000920E-02 0. -1.
    10030    2    1    2    0    0  0.00000000000E+00  0.00000000000E+00 -0.12580574466E+04  0.14248882774E+04  0.66902770057E+03 0.  0.
        4    1    3    3  502    0  0.68568249205E+02  0.20725433985E+03 -0.11688450644E+04  0.11890569219E+04  0.12699999809E+01 0. -1.
       -4    1    3    3    0  502 -0.68568249205E+02 -0.20725433985E+03 -0.89212382258E+02  0.23583135549E+03  0.12699999809E+01 0.  1.
</event>
<event>
 5   0  0.9177281E-02  0.6066272E+03  0.7818609E-02  0.9891751E-01
       -1   -1    0    0    0  501  0.00000000000E+00  0.00000000000E+00  0.42154581728E+03  0.42154581731E+03  0.50400001928E-02 0. -1.
        1   -1    0    0  501    0  0.00000000000E+00  0.00000000000E+00 -0.21824234239E+03  0.21824234244E+03  0.50400001928E-02 0.  1.
    10030    2    1    2    0    0  0.00000000000E+00  0.00000000000E+00  0.20330347489E+03  0.63978815975E+03  0.60662722198E+03 0.  0.
        1    1    3    3  502    0 -0.14805643831E+03 -0.16947711904E+03  0.31612999445E+03  0.38804816224E+03  0.50400001928E-02 0. -1.
       -1    1    3    3    0  502  0.14805643831E+03  0.16947711904E+03 -0.11282651956E+03  0.25173999751E+03  0.50400001928E-02 0.  1.
</event>
<event>
 5   0  0.1513339E-01  0.6122360E+03  0.7818609E-02  0.9880340E-01
       -2   -1    0    0    0  501  0.00000000000E+00  0.00000000000E+00  0.22813016550E+03  0.22813016551E+03  0.25500000920E-02 0. -1.
        2   -1    0    0  501    0  0.00000000000E+00  0.00000000000E+00 -0.41076648895E+03  0.41076648896E+03  0.25500000920E-02 0.  1.
    10030    2    1    2    0    0  0.00000000000E+00  0.00000000000E+00 -0.18263632345E+03  0.63889665447E+03  0.61223599081E+03 0.  0.
        3    1    3    3  502    0 -0.54682839179E+02  0.13955028151E+03 -0.36985655151E+03  0.39907188935E+03  0.10100000352E+00 0.  1.
       -3    1    3    3    0  502  0.54682839179E+02 -0.13955028151E+03  0.18722022806E+03  0.23982476512E+03  0.10100000352E+00 0. -1.
</event>
<event>
 5   0  0.9177281E-02  0.6024872E+03  0.7818609E-02  0.9900259E-01
        1   -1    0    0  501    0  0.00000000000E+00  0.00000000000E+00  0.11861567599E+04  0.11861567599E+04  0.50400001928E-02 0.  1.
       -1   -1    0    0    0  501  0.00000000000E+00  0.00000000000E+00 -0.76505657820E+02  0.76505657986E+02  0.50400001928E-02 0. -1.
    10030    2    1    2    0    0  0.00000000000E+00  0.00000000000E+00  0.11096511021E+04  0.12626624179E+04  0.60248718927E+03 0.  0.
        1    1    3    3  502    0 -0.47294172762E+02 -0.57402078542E+02  0.11666120981E+04  0.11689805494E+04  0.50400001928E-02 0.  1.
       -1    1    3    3    0  502  0.47294172762E+02  0.57402078542E+02 -0.56960996004E+02  0.93681868520E+02  0.50400001928E-02 0. -1.
</event>
<event>
 5   0  0.6170500E-02  0.6129042E+03  0.7818609E-02  0.9878990E-01
       -3   -1    0    0    0  501  0.00000000000E+00  0.00000000000E+00  0.13336275033E+03  0.13336278857E+03  0.10100000352E+00 0. -1.
        3   -1    0    0  501    0  0.00000000000E+00  0.00000000000E+00 -0.70419126542E+03  0.70419127266E+03  0.10100000352E+00 0.  1.
    10030    2    1    2    0    0  0.00000000000E+00  0.00000000000E+00 -0.57082851509E+03  0.83755406124E+03  0.61290424363E+03 0.  0.
        5    1    3    3  502    0 -0.26225130849E+03  0.56221956566E+02 -0.48789260660E+03  0.55677458884E+03  0.46999998093E+01 0. -1.
       -5    1    3    3    0  502  0.26225130849E+03 -0.56221956566E+02 -0.82935908487E+02  0.28077947239E+03  0.46999998093E+01 0.  1.
</event>
<event>
 5   0  0.1483942E-01  0.5999280E+03  0.7818609E-02  0.9905555E-01
        2   -1    0    0  501    0  0.00000000000E+00  0.00000000000E+00  0.55838410354E+03  0.55838410355E+03  0.25500000920E-02 0.  1.
       -2   -1    0    0    0  501  0.00000000000E+00  0.00000000000E+00 -0.16114071000E+03  0.16114071002E+03  0.25500000920E-02 0. -1.
    10030    2    1    2    0    0  0.00000000000E+00  0.00000000000E+00  0.39724339354E+03  0.71952481357E+03  0.59992803205E+03 0.  0.
        4    1    3    3  502    0 -0.21566286039E+03 -0.12631639751E+03 -0.30626543272E+00  0.24993600847E+03  0.12699999809E+01 0. -1.
       -4    1    3    3    0  502  0.21566286039E+03  0.12631639751E+03  0.39754965897E+03  0.46958880511E+03  0.12699999809E+01 0.  1.
</event>
<event>
 5   0  0.1502642E-01  0.5953929E+03  0.7818609E-02  0.9915011E-01
        2   -1    0    0  501    0  0.00000000000E+00  0.00000000000E+00  0.13234688482E+04  0.13234688483E+04  0.25500000920E-02 0.  1.
       -2   -1    0    0    0  501  0.00000000000E+00  0.00000000000E+00 -0.66962790526E+02  0.66962790574E+02  0.25500000920E-02 0. -1.
    10030    2    1    2    0    0  0.00000000000E+00  0.00000000000E+00  0.12565060577E+04  0.13904316388E+04  0.59539286959E+03 0.  0.
        2    1    3    3  502    0 -0.19731042084E+03  0.13261515062E+03  0.20981392726E+03  0.31708053302E+03  0.25500000920E-02 0. -1.
       -2    1    3    3    0  502  0.19731042084E+03 -0.13261515062E+03  0.10466921305E+04  0.10733511058E+04  0.25500000920E-02 0.  1.
</event>
<event>
 5   0  0.1532571E-01  0.5988639E+03  0.7818609E-02  0.9907766E-01
        2   -1    0    0  501    0  0.00000000000E+00  0.00000000000E+00  0.20095266338E+04  0.20095266338E+04  0.25500000920E-02 0. -1.
       -2   -1    0    0    0  501  0.00000000000E+00  0.00000000000E+00 -0.44617223352E+02  0.44617223425E+02  0.25500000920E-02 0.  1.
    10030    2    1    2    0    0  0.00000000000E+00  0.00000000000E+00  0.19649094104E+04  0.20541438572E+04  0.59886392019E+03 0.  0.
        1    1    3    3  502    0 -0.19952957884E+03  0.73895511142E+02  0.17051082049E+04  0.17183325027E+04  0.50400001928E-02 0. -1.
       -1    1    3    3    0  502  0.19952957884E+03 -0.73895511142E+02  0.25980120554E+03  0.33581135452E+03  0.50400001928E-02 0.  1.
</event>
<event>
 5   0  0.1532571E-01  0.6001735E+03  0.7818609E-02  0.9905046E-01
       -2   -1    0    0    0  501  0.00000000000E+00  0.00000000000E+00  0.43857818813E+03  0.43857818814E+03  0.25500000920E-02 0.  1.
        2   -1    0    0  501    0  0.00000000000E+00  0.00000000000E+00 -0.20532722918E+03  0.20532722920E+03  0.25500000920E-02 0. -1.
    10030    2    1    2    0    0  0.00000000000E+00  0.00000000000E+00  0.23325095894E+03  0.64390541733E+03  0.60017345545E+03 0.  0.
        1    1    3    3  502    0  0.21864377310E+03  0.96838250098E+02 -0.77883882557E+02  0.25149283367E+03  0.50400001928E-02 0. -1.
       -1    1    3    3    0  502 -0.21864377310E+03 -0.96838250098E+02  0.31113484150E+03  0.39241258367E+03  0.50400001928E-02 0.  1.
</event>
<event>
 5   0  0.6170500E-02  0.6048655E+03  0.7818609E-02  0.9895363E-01
       -3   -1    0    0    0  501  0.00000000000E+00  0.00000000000E+00  0.33189014302E+03  0.33189015839E+03  0.10100000352E+00 0.  1.
        3   -1    0    0  501    0  0.00000000000E+00  0.00000000000E+00 -0.27558988267E+03  0.27558990118E+03  0.10100000352E+00 0. -1.
    10030    2    1    2    0    0  0.00000000000E+00  0.00000000000E+00  0.56300260350E+02  0.60748005957E+03  0.60486552510E+03 0.  0.
        2    1    3    3  502    0  0.51991802896E+01 -0.20966155765E+03  0.24699238578E+03  0.32402197282E+03  0.25500000920E-02 0.  1.
       -2    1    3    3    0  502 -0.51991802896E+01  0.20966155765E+03 -0.19069212543E+03  0.28345808674E+03  0.25500000920E-02 0. -1.
</event>
<event>
 5   0  0.1502642E-01  0.6303207E+03  0.7818609E-02  0.9844423E-01
       -2   -1    0    0    0  501  0.00000000000E+00  0.00000000000E+00  0.20402420410E+03  0.20402420411E+03  0.25500000920E-02 0. -1.
        2   -1    0    0  501    0  0.00000000000E+00  0.00000000000E+00 -0.48683460101E+03  0.48683460102E+03  0.25500000920E-02 0.  1.
    10030    2    1    2    0    0  0.00000000000E+00  0.00000000000E+00 -0.28281039691E+03  0.69085880513E+03  0.63032068665E+03 0.  0.
        2    1    3    3  502    0  0.18674420551E+03  0.36781377163E+02  0.13391725972E+03  0.23272322715E+03  0.25500000920E-02 0. -1.
       -2    1    3    3    0  502 -0.18674420551E+03 -0.36781377163E+02 -0.41672765663E+03  0.45813557798E+03  0.25500000920E-02 0.  1.
</event>
<event>
 5   0  0.9420349E-02  0.5937940E+03  0.7818609E-02  0.9918366E-01
       -1   -1    0    0    0  501  0.00000000000E+00  0.00000000000E+00  0.17381196234E+03  0.17381196242E+03  0.50400001928E-02 0. -1.
        1   -1    0    0  501    0  0.00000000000E+00  0.00000000000E+00 -0.50714477925E+03  0.50714477928E+03  0.50400001928E-02 0.  1.
    10030    2    1    2    0    0  0.00000000000E+00  0.00000000000E+00 -0.33333281691E+03  0.68095674169E+03  0.59379400235E+03 0.  0.
        2    1    3    3  502    0  0.25945374510E+03 -0.51904410433E+02 -0.32111096894E+03  0.41608000198E+03  0.25500000920E-02 0.  1.
       -2    1    3    3    0  502 -0.25945374510E+03  0.51904410433E+02 -0.12221847966E+02  0.26487673971E+03  0.25500000920E-02 0. -1.
</event>
<event>
 5   0  0.9420349E-02  0.5976409E+03  0.7818609E-02  0.9910313E-01
       -1   -1    0    0    0  501  0.00000000000E+00  0.00000000000E+00  0.65722566905E+03  0.65722566907E+03  0.50400001928E-02 0. -1.
        1   -1    0    0  501    0  0.00000000000E+00  0.00000000000E+00 -0.13586453111E+03  0.13586453120E+03  0.50400001928E-02 0.  1.
    10030    2    1    2    0    0  0.00000000000E+00  0.00000000000E+00  0.52136113794E+03  0.79309020028E+03  0.59764088684E+03 0.  0.
        2    1    3    3  502    0 -0.81559726924E+02  0.22331710054E+03  0.50091102351E+03  0.55446764552E+03  0.25500000920E-02 0. -1.
       -2    1    3    3    0  502  0.81559726924E+02 -0.22331710054E+03  0.20450114435E+02  0.23862255476E+03  0.25500000920E-02 0.  1.
</event>
<event>
 5   0  0.9411028E-02  0.5976416E+03  0.7818609E-02  0.9910311E-01
        1   -1    0    0  501    0  0.00000000000E+00  0.00000000000E+00  0.10603378202E+04  0.10603378202E+04  0.50400001928E-02 0.  1.
       -1   -1    0    0    0  501  0.00000000000E+00  0.00000000000E+00 -0.84212653014E+02  0.84212653165E+02  0.50400001928E-02 0. -1.
    10030    2    1    2    0    0  0.00000000000E+00  0.00000000000E+00  0.97612516721E+03  0.11445504734E+04  0.59764156825E+03 0.  0.
        4    1    3    3  502    0  0.20773763699E+02  0.10261208566E+03 -0.47934294068E+02  0.11515250249E+03  0.12699999809E+01 0. -1.
       -4    1    3    3    0  502 -0.20773763699E+02 -0.10261208566E+03  0.10240594613E+04  0.10293979709E+04  0.12699999809E+01 0.  1.
</event>
<event>
 5   0  0.9497860E-02  0.5988030E+03  0.7818609E-02  0.9907893E-01
       -1   -1    0    0    0  501  0.00000000000E+00  0.00000000000E+00  0.25004047641E+03  0.25004047646E+03  0.50400001928E-02 0.  1.
        1   -1    0    0  501    0  0.00000000000E+00  0.00000000000E+00 -0.35850701760E+03  0.35850701764E+03  0.50400001928E-02 0. -1.
    10030    2    1    2    0    0  0.00000000000E+00  0.00000000000E+00 -0.10846654119E+03  0.60854749410E+03  0.59880302439E+03 0.  0.
        5    1    3    3  502    0  0.17511912127E+03 -0.23652167773E+03 -0.10998921857E+03  0.31421159888E+03  0.46999998093E+01 0. -1.
       -5    1    3    3    0  502 -0.17511912127E+03  0.23652167773E+03  0.15226773780E+01  0.29433589522E+03  0.46999998093E+01 0.  1.
</event>
<event>
 5   0  0.9497860E-02  0.6032189E+03  0.7818609E-02  0.9898750E-01
       -1   -1    0    0    0  501  0.00000000000E+00  0.00000000000E+00  0.26902956955E+03  0.26902956959E+03  0.50400001928E-02 0.  1.
        1   -1    0    0  501    0  0.00000000000E+00  0.00000000000E+00 -0.33813482188E+03  0.33813482192E+03  0.50400001928E-02 0. -1.
    10030    2    1    2    0    0  0.00000000000E+00  0.00000000000E+00 -0.69105252332E+02  0.60716439151E+03  0.60321891749E+03 0.  0.
        5    1    3    3  502    0 -0.15062499209E+01  0.15748503597E+03  0.22431111153E+03  0.27411926255E+03  0.46999998093E+01 0.  1.
       -5    1    3    3    0  502  0.15062499209E+01 -0.15748503597E+03 -0.29341636387E+03  0.33304512896E+03  0.46999998093E+01 0. -1.
</event>
<event>
 5   0  0.6170500E-02  0.5989982E+03  0.7818609E-02  0.9907487E-01
       -3   -1    0    0    0  501  0.00000000000E+00  0.00000000000E+00  0.38838724709E+03  0.38838726022E+03  0.10100000352E+00 0. -1.
        3   -1    0    0  501    0  0.00000000000E+00  0.00000000000E+00 -0.23095432303E+03  0.23095434512E+03  0.10100000352E+00 0.  1.
    10030    2    1    2    0    0  0.00000000000E+00  0.00000000000E+00  0.15743292406E+03  0.61934160534E+03  0.59899824585E+03 0.  0.
        5    1    3    3  502    0  0.17857867385E+03 -0.12681425053E+03  0.28987130508E+03  0.36334509822E+03  0.46999998093E+01 0. -1.
       -5    1    3    3    0  502 -0.17857867385E+03  0.12681425053E+03 -0.13243838102E+03  0.25599650712E+03  0.46999998093E+01 0.  1.
</event>
<event>
 5   0  0.1513339E-01  0.6028459E+03  0.7818609E-02  0.9899519E-01
        2   -1    0    0  501    0  0.00000000000E+00  0.00000000000E+00  0.17276324799E+04  0.17276324799E+04  0.25500000920E-02 0.  1.
       -2   -1    0    0    0  501  0.00000000000E+00  0.00000000000E+00 -0.52589769857E+02  0.52589769918E+02  0.25500000920E-02 0. -1.
    10030    2    1    2    0    0  0.00000000000E+00  0.00000000000E+00  0.16750427100E+04  0.17802222498E+04  0.60284589928E+03 0.  0.
        3    1    3    3  502    0  0.91246422941E+01 -0.90104809524E+02  0.16865042265E+04  0.16889341763E+04  0.10100000352E+00 0.  1.
       -3    1    3    3    0  502 -0.91246422941E+01  0.90104809524E+02 -0.11461516473E+02  0.91288073466E+02  0.10100000352E+00 0. -1.
</event>
<event>
 5   0  0.1513339E-01  0.5847630E+03  0.7818609E-02  0.9937532E-01
       -2   -1    0    0    0  501  0.00000000000E+00  0.00000000000E+00  0.23798420146E+03  0.23798420148E+03  0.25500000920E-02 0.  1.
        2   -1    0    0  501    0  0.00000000000E+00  0.00000000000E+00 -0.35921269281E+03  0.35921269282E+03  0.25500000920E-02 0. -1.
    10030    2    1    2    0    0  0.00000000000E+00  0.00000000000E+00 -0.12122849135E+03  0.59719689430E+03  0.58476301477E+03 0.  0.
        3    1    3    3  502    0 -0.13258112043E+02  0.27134286402E+03  0.49777674841E+02  0.27618934538E+03  0.10100000352E+00 0.  1.
       -3    1    3    3    0  502  0.13258112043E+02 -0.27134286402E+03 -0.17100616619E+03  0.32100754892E+03  0.10100000352E+00 0. -1.
</event>
<event>
 5   0  0.9497860E-02  0.5996821E+03  0.7818609E-02  0.9906066E-01
       -1   -1    0    0    0  501  0.00000000000E+00  0.00000000000E+00  0.55656524942E+03  0.55656524944E+03  0.50400001928E-02 0. -1.
        1   -1    0    0  501    0  0.00000000000E+00  0.00000000000E+00 -0.16153480984E+03  0.16153480992E+03  0.50400001928E-02 0.  1.
    10030    2    1    2    0    0  0.00000000000E+00  0.00000000000E+00  0.39503043957E+03  0.71810005936E+03  0.59968212168E+03 0.  0.
        5    1    3    3  502    0 -0.98192443948E+02 -0.24803293161E+03  0.33674307442E+02  0.26892032313E+03  0.46999998093E+01 0.  1.
       -5    1    3    3    0  502  0.98192443948E+02  0.24803293161E+03  0.36135613213E+03  0.44917973623E+03  0.46999998093E+01 0. -1.
</event>
<event>
 5   0  0.1532571E-01  0.5939467E+03  0.7818609E-02  0.9918045E-01
       -2   -1    0    0    0  501  0.00000000000E+00  0.00000000000E+00  0.15940332904E+03  0.15940332906E+03  0.25500000920E-02 0. -1.
        2   -1    0    0  501    0  0.00000000000E+00  0.00000000000E+00 -0.55327054031E+03  0.55327054032E+03  0.25500000920E-02 0.  1.
    10030    2    1    2    0    0  0.00000000000E+00  0.00000000000E+00 -0.39386721127E+03  0.71267386938E+03  0.59394668446E+03 0.  0.
        1    1    3    3  502    0  0.24089755049E+03  0.96972555724E+02 -0.36980958677E+03  0.45187878561E+03  0.50400001928E-02 0.  1.
       -1    1    3    3    0  502 -0.24089755049E+03 -0.96972555724E+02 -0.24057624505E+02  0.26079508377E+03  0.50400001928E-02 0. -1.
</event>
<event>
 5   0  0.9420349E-02  0.6098471E+03  0.7818609E-02  0.9885185E-01
       -1   -1    0    0    0  501  0.00000000000E+00  0.00000000000E+00  0.11949952313E+03  0.11949952323E+03  0.50400001928E-02 0.  1.
        1   -1    0    0  501    0  0.00000000000E+00  0.00000000000E+00 -0.77806466342E+03  0.77806466344E+03  0.50400001928E-02 0. -1.
    10030    2    1    2    0    0  0.00000000000E+00  0.00000000000E+00 -0.65856514029E+03  0.89756418667E+03  0.60984705065E+03 0.  0.
        2    1    3    3  502    0 -0.90469826105E+00 -0.22903178558E+03 -0.33011046165E+02  0.23140031646E+03  0.25500000920E-02 0.  1.
       -2    1    3    3    0  502  0.90469826105E+00  0.22903178558E+03 -0.62555409413E+03  0.66616387021E+03  0.25500000920E-02 0. -1.
</event>
<event>
 5   0  0.1513339E-01  0.5519619E+03  0.7818609E-02  0.1001041E+00
        2   -1    0    0  501    0  0.00000000000E+00  0.00000000000E+00  0.40096125791E+03  0.40096125792E+03  0.25500000920E-02 0. -1.
       -2   -1    0    0    0  501  0.00000000000E+00  0.00000000000E+00 -0.18995723048E+03  0.18995723050E+03  0.25500000920E-02 0.  1.
    10030    2    1    2    0    0  0.00000000000E+00  0.00000000000E+00  0.21100402743E+03  0.59091848842E+03  0.55196191930E+03 0.  0.
        3    1    3    3  502    0  0.12011931116E+03 -0.10431234459E+03  0.34693052758E+03  0.38166806955E+03  0.10100000352E+00 0. -1.
       -3    1    3    3    0  502 -0.12011931116E+03  0.10431234459E+03 -0.13592650015E+03  0.20925041886E+03  0.10100000352E+00 0.  1.
</event>
<event>
 5   0  0.1483942E-01  0.5823298E+03  0.7818609E-02  0.9942760E-01
       -2   -1    0    0    0  501  0.00000000000E+00  0.00000000000E+00  0.15175995966E+03  0.15175995968E+03  0.25500000920E-02 0. -1.
        2   -1    0    0  501    0  0.00000000000E+00  0.00000000000E+00 -0.55862562949E+03  0.55862562950E+03  0.25500000920E-02 0.  1.
    10030    2    1    2    0    0  0.00000000000E+00  0.00000000000E+00 -0.40686566984E+03  0.71038558918E+03  0.58232981378E+03 0.  0.
        4    1    3    3  502    0 -0.76783299233E+02  0.26957893791E+03 -0.29954157563E+03  0.41023803729E+03  0.12699999809E+01 0. -1.
       -4    1    3    3    0  502  0.76783299233E+02 -0.26957893791E+03 -0.10732409421E+03  0.30014755189E+03  0.12699999809E+01 0.  1.
</event>
<event>
 5   0  0.1488510E-01  0.6001935E+03  0.7818609E-02  0.9905005E-01
       -2   -1    0    0    0  501  0.00000000000E+00  0.00000000000E+00  0.74683173252E+02  0.74683173295E+02  0.25500000920E-02 0. -1.
        2   -1    0    0  501    0  0.00000000000E+00  0.00000000000E+00 -0.12058680217E+04  0.12058680217E+04  0.25500000920E-02 0.  1.
    10030    2    1    2    0    0  0.00000000000E+00  0.00000000000E+00 -0.11311848484E+04  0.12805511950E+04  0.60019347018E+03 0.  0.
        5    1    3    3  502    0 -0.28444019718E+03  0.90573653817E+02 -0.63052249063E+03  0.69763207619E+03  0.46999998093E+01 0. -1.
       -5    1    3    3    0  502  0.28444019718E+03 -0.90573653817E+02 -0.50066235779E+03  0.58291911878E+03  0.46999998093E+01 0.  1.
</event>
<event>
 5   0  0.9177281E-02  0.6114266E+03  0.7818609E-02  0.9881979E-01
        1   -1    0    0  501    0  0.00000000000E+00  0.00000000000E+00  0.23095086195E+03  0.23095086201E+03  0.50400001928E-02 0. -1.
       -1   -1    0    0    0  501  0.00000000000E+00  0.00000000000E+00 -0.40467750467E+03  0.40467750470E+03  0.50400001928E-02 0.  1.
    10030    2    1    2    0    0  0.00000000000E+00  0.00000000000E+00 -0.17372664272E+03  0.63562836671E+03  0.61142658936E+03 0.  0.
        1    1    3    3  502    0  0.14502286399E+03 -0.26912618883E+03 -0.87160880939E+02  0.31789551079E+03  0.50400001928E-02 0.  1.
       -1    1    3    3    0  502 -0.14502286399E+03  0.26912618883E+03 -0.86565761783E+02  0.31773285592E+03  0.50400001928E-02 0. -1.
</event>
<event>
 5   0  0.6170500E-02  0.5843240E+03  0.7818609E-02  0.9938473E-01
       -3   -1    0    0    0  501  0.00000000000E+00  0.00000000000E+00  0.57118889873E+03  0.57118890766E+03  0.10100000352E+00 0.  1.
        3   -1    0    0  501    0  0.00000000000E+00  0.00000000000E+00 -0.14944026902E+03  0.14944030315E+03  0.10100000352E+00 0. -1.
    10030    2    1    2    0    0  0.00000000000E+00  0.00000000000E+00  0.42174862971E+03  0.72062921082E+03  0.58432401356E+03 0.  0.
        4    1    3    3  502    0  0.27288501836E+03  0.84349155305E+02  0.28665784190E+03  0.40466695500E+03  0.12699999809E+01 0.  1.
       -4    1    3    3    0  502 -0.27288501836E+03 -0.84349155305E+02  0.13509078782E+03  0.31596225582E+03  0.12699999809E+01 0. -1.
</event>
<event>
 5   0  0.6170500E-02  0.5977245E+03  0.7818609E-02  0.9910138E-01
       -3   -1    0    0    0  501  0.00000000000E+00  0.00000000000E+00  0.25279439595E+03  0.25279441613E+03  0.10100000352E+00 0. -1.
        3   -1    0    0  501    0  0.00000000000E+00  0.00000000000E+00 -0.35332524551E+03  0.35332525995E+03  0.10100000352E+00 0.  1.
    10030    2    1    2    0    0  0.00000000000E+00  0.00000000000E+00 -0.10053084956E+03  0.60611967607E+03  0.59772452686E+03 0.  0.
        5    1    3    3  502    0 -0.45117419095E+02  0.18566522461E+03  0.18272103942E+03  0.26441676455E+03  0.46999998093E+01 0. -1.
       -5    1    3    3    0  502  0.45117419095E+02 -0.18566522461E+03 -0.28325188898E+03  0.34170291152E+03  0.46999998093E+01 0.  1.
</event>
<event>
 5   0  0.9177281E-02  0.6220320E+03  0.7818609E-02  0.9860722E-01
       -1   -1    0    0    0  501  0.00000000000E+00  0.00000000000E+00  0.10527103499E+03  0.10527103511E+03  0.50400001928E-02 0.  1.
        1   -1    0    0  501    0  0.00000000000E+00  0.00000000000E+00 -0.91887518055E+03  0.91887518056E+03  0.50400001928E-02 0. -1.
    10030    2    1    2    0    0  0.00000000000E+00  0.00000000000E+00 -0.81360414556E+03  0.10241462157E+04  0.62203196493E+03 0.  0.
        1    1    3    3  502    0  0.20289606192E+03 -0.13155889835E+03 -0.84768440776E+02  0.25624254966E+03  0.50400001928E-02 0.  1.
       -1    1    3    3    0  502 -0.20289606192E+03  0.13155889835E+03 -0.72883570478E+03  0.76790366601E+03  0.50400001928E-02 0. -1.
</event>
<event>
 5   0  0.6170500E-02  0.5982519E+03  0.7818609E-02  0.9909039E-01
        3   -1    0    0  501    0  0.00000000000E+00  0.00000000000E+00  0.83245011797E+02  0.83245073067E+02  0.10100000352E+00 0.  1.
       -3   -1    0    0    0  501  0.00000000000E+00  0.00000000000E+00 -0.10748547397E+04  0.10748547445E+04  0.10100000352E+00 0. -1.
    10030    2    1    2    0    0  0.00000000000E+00  0.00000000000E+00 -0.99160972792E+03  0.11580998175E+04  0.59825189917E+03 0.  0.
        5    1    3    3  502    0 -0.52062114714E+02  0.11317067936E+03  0.30564256528E+02  0.12835236745E+03  0.46999998093E+01 0.  1.
       -5    1    3    3    0  502  0.52062114714E+02 -0.11317067936E+03 -0.10221739844E+04  0.10297474501E+04  0.46999998093E+01 0. -1.
</event>
<event>
 5   0  0.9411028E-02  0.5927274E+03  0.7818609E-02  0.9920610E-01
       -1   -1    0    0    0  501  0.00000000000E+00  0.00000000000E+00  0.95804068642E+02  0.95804068775E+02  0.50400001928E-02 0.  1.
        1   -1    0    0  501    0  0.00000000000E+00  0.00000000000E+00 -0.91678193479E+03  0.91678193480E+03  0.50400001928E-02 0. -1.
    10030    2    1    2    0    0  0.00000000000E+00  0.00000000000E+00 -0.82097786615E+03  0.10125860036E+04  0.59272738923E+03 0.  0.
        4    1    3    3  502    0 -0.14161008838E+03 -0.10820899786E+03 -0.59769008671E+01  0.17832537844E+03  0.12699999809E+01 0.  1.
       -4    1    3    3    0  502  0.14161008838E+03  0.10820899786E+03 -0.81500096528E+03  0.83426062514E+03  0.12699999809E+01 0. -1.
</event>
<event>
 5   0  0.8860626E-02  0.6042699E+03  0.7818609E-02  0.9896587E-01
       -1   -1    0    0    0  501  0.00000000000E+00  0.00000000000E+00  0.11204814783E+03  0.11204814795E+03  0.50400001928E-02 0.  1.
        1   -1    0    0  501    0  0.00000000000E+00  0.00000000000E+00 -0.81469909465E+03  0.81469909467E+03  0.50400001928E-02 0. -1.
    10030    2    1    2    0    0  0.00000000000E+00  0.00000000000E+00 -0.70265094682E+03  0.92674724261E+03  0.60426988890E+03 0.  0.
        3    1    3    3  502    0  0.36013001102E+01  0.69345270813E+02 -0.80229526778E+03  0.80529463108E+03  0.10100000352E+00 0. -1.
       -3    1    3    3    0  502 -0.36013001102E+01 -0.69345270813E+02  0.99644320964E+02  0.12145261153E+03  0.10100000352E+00 0.  1.
</event>
<event>
 5   0  0.1513339E-01  0.5979031E+03  0.7818609E-02  0.9909766E-01
       -2   -1    0    0    0  501  0.00000000000E+00  0.00000000000E+00  0.40676041714E+03  0.40676041715E+03  0.25500000920E-02 0. -1.
        2   -1    0    0  501    0  0.00000000000E+00  0.00000000000E+00 -0.21971664947E+03  0.21971664949E+03  0.25500000920E-02 0.  1.
    10030    2    1    2    0    0  0.00000000000E+00  0.00000000000E+00  0.18704376767E+03  0.62647706663E+03  0.59790312258E+03 0.  0.
        3    1    3    3  502    0  0.69926993861E+02 -0.25428968870E+03  0.24102974842E+03  0.35727913468E+03  0.10100000352E+00 0. -1.
       -3    1    3    3    0  502 -0.69926993861E+02  0.25428968870E+03 -0.53985980755E+02  0.26919793196E+03  0.10100000352E+00 0.  1.
</event>
<event>
 5   0  0.9420349E-02  0.6157168E+03  0.7818609E-02  0.9873325E-01
       -1   -1    0    0    0  501  0.00000000000E+00  0.00000000000E+00  0.72928624187E+03  0.72928624189E+03  0.50400001928E-02 0.  1.
        1   -1    0    0  501    0  0.00000000000E+00  0.00000000000E+00 -0.12995829750E+03  0.12995829760E+03  0.50400001928E-02 0. -1.
    10030    2    1    2    0    0  0.00000000000E+00  0.00000000000E+00  0.59932794437E+03  0.85924453949E+03  0.61571681294E+03 0.  0.
        2    1    3    3  502    0 -0.19542848149E+03  0.23360918601E+03  0.36224884368E+03  0.47327557292E+03  0.25500000920E-02 0.  1.
       -2    1    3    3    0  502  0.19542848149E+03 -0.23360918601E+03  0.23707910069E+03  0.38596896657E+03  0.25500000920E-02 0. -1.
</event>
<event>
 5   0  0.9420349E-02  0.6031807E+03  0.7818609E-02  0.9898829E-01
       -1   -1    0    0    0  501  0.00000000000E+00  0.00000000000E+00  0.24882759359E+03  0.24882759364E+03  0.50400001928E-02 0. -1.
        1   -1    0    0  501    0  0.00000000000E+00  0.00000000000E+00 -0.36554126675E+03  0.36554126678E+03  0.50400001928E-02 0.  1.
    10030    2    1    2    0    0  0.00000000000E+00  0.00000000000E+00 -0.11671367316E+03  0.61436886042E+03  0.60318074833E+03 0.  0.
        2    1    3    3  502    0 -0.22523098715E+03  0.13300758869E+03 -0.21126379414E+03  0.33623266787E+03  0.25500000920E-02 0.  1.
       -2    1    3    3    0  502  0.22523098715E+03 -0.13300758869E+03  0.94550120978E+02  0.27813619255E+03  0.25500000920E-02 0. -1.
</event>
<event>
 5   0  0.9177281E-02  0.4681659E+03  0.7818609E-02  0.1022439E+00
       -1   -1    0    0    0  501  0.00000000000E+00  0.00000000000E+00  0.39425091508E+03  0.39425091511E+03  0.50400001928E-02 0.  1.
        1   -1    0    0  501    0  0.00000000000E+00  0.00000000000E+00 -0.13898462700E+03  0.13898462709E+03  0.50400001928E-02 0. -1.
    10030    2    1    2    0    0  0.00000000000E+00  0.00000000000E+00  0.25526628808E+03  0.53323554220E+03  0.46816585270E+03 0.  0.
        1    1    3    3  502    0 -0.99419599678E+02  0.21191008235E+03  0.13009625273E+03  0.26779689095E+03  0.50400001928E-02 0.  1.
       -1    1    3    3    0  502  0.99419599678E+02 -0.21191008235E+03  0.12517003535E+03  0.26543865125E+03  0.50400001928E-02 0. -1.
</event>
<event>
 5   0  0.9411028E-02  0.5866452E+03  0.7818609E-02  0.9933507E-01
        1   -1    0    0  501    0  0.00000000000E+00  0.00000000000E+00  0.15238625250E+03  0.15238625258E+03  0.50400001928E-02 0.  1.
       -1   -1    0    0    0  501  0.00000000000E+00  0.00000000000E+00 -0.56460564523E+03  0.56460564525E+03  0.50400001928E-02 0. -1.
    10030    2    1    2    0    0  0.00000000000E+00  0.00000000000E+00 -0.41221939274E+03  0.71699189783E+03  0.58664516857E+03 0.  0.
        4    1    3    3  502    0  0.83804894596E+02 -0.13737295494E+03  0.93618398644E+02  0.18617359258E+03  0.12699999809E+01 0.  1.
       -4    1    3    3    0  502 -0.83804894596E+02  0.13737295494E+03 -0.50583779138E+03  0.53081830526E+03  0.12699999809E+01 0. -1.
</event>
<event>
 5   0  0.1502642E-01  0.5870885E+03  0.7818609E-02  0.9932561E-01
       -2   -1    0    0    0  501  0.00000000000E+00  0.00000000000E+00  0.40766146090E+02  0.40766146170E+02  0.25500000920E-02 0. -1.
        2   -1    0    0  501    0  0.00000000000E+00  0.00000000000E+00 -0.21137201570E+04  0.21137201570E+04  0.25500000920E-02 0.  1.
    10030    2    1    2    0    0  0.00000000000E+00  0.00000000000E+00 -0.20729540109E+04  0.21544863032E+04  0.58708849351E+03 0.  0.
        2    1    3    3  502    0 -0.23519085297E+03 -0.95393670950E+02 -0.49521805701E+03  0.55646708238E+03  0.25500000920E-02 0. -1.
       -2    1    3    3    0  502  0.23519085297E+03  0.95393670950E+02 -0.15777359539E+04  0.15980192208E+04  0.25500000920E-02 0.  1.
</event>
<event>
 5   0  0.1488510E-01  0.6009115E+03  0.7818609E-02  0.9903517E-01
       -2   -1    0    0    0  501  0.00000000000E+00  0.00000000000E+00  0.19011476263E+03  0.19011476265E+03  0.25500000920E-02 0. -1.
        2   -1    0    0  501    0  0.00000000000E+00  0.00000000000E+00 -0.47483767356E+03  0.47483767357E+03  0.25500000920E-02 0.  1.
    10030    2    1    2    0    0  0.00000000000E+00  0.00000000000E+00 -0.28472291093E+03  0.66495243622E+03  0.60091147969E+03 0.  0.
        5    1    3    3  502    0  0.59486682133E+02 -0.25029608333E+03  0.29299256979E+02  0.25897361089E+03  0.46999998093E+01 0. -1.
       -5    1    3    3    0  502 -0.59486682133E+02  0.25029608333E+03 -0.31402216791E+03  0.40597882533E+03  0.46999998093E+01 0.  1.
</event>
<event>
 5   0  0.1513339E-01  0.5959754E+03  0.7818609E-02  0.9913791E-01
       -2   -1    0    0    0  501  0.00000000000E+00  0.00000000000E+00  0.68721720465E+02  0.68721720512E+02  0.25500000920E-02 0. -1.
        2   -1    0    0  501    0  0.00000000000E+00  0.00000000000E+00 -0.12921195311E+04  0.12921195311E+04  0.25500000920E-02 0.  1.
    10030    2    1    2    0    0  0.00000000000E+00  0.00000000000E+00 -0.12233978106E+04  0.13608412516E+04  0.59597542652E+03 0.  0.
        3    1    3    3  502    0 -0.77588719855E+02 -0.16918201553E+03 -0.80331639421E+02  0.20272085813E+03  0.10100000352E+00 0. -1.
       -3    1    3    3    0  502  0.77588719855E+02  0.16918201553E+03 -0.11430661712E+04  0.11581203934E+04  0.10100000352E+00 0.  1.
</event>
<event>
 5   0  0.1488510E-01  0.6009441E+03  0.7818609E-02  0.9903449E-01
        2   -1    0    0  501    0  0.00000000000E+00  0.00000000000E+00  0.73153145657E+03  0.73153145657E+03  0.25500000920E-02 0. -1.
       -2   -1    0    0    0  501  0.00000000000E+00  0.00000000000E+00 -0.12341705675E+03  0.12341705678E+03  0.25500000920E-02 0.  1.
    10030    2    1    2    0    0  0.00000000000E+00  0.00000000000E+00  0.60811439982E+03  0.85494851335E+03  0.60094412154E+03 0.  0.
        5    1    3    3  502    0 -0.21550482643E+03  0.17383330951E+03  0.46997447380E+03  0.54548918021E+03  0.46999998093E+01 0. -1.
       -5    1    3    3    0  502  0.21550482643E+03 -0.17383330951E+03  0.13813992602E+03  0.30945933314E+03  0.46999998093E+01 0.  1.
</event>
<event>
 5   0  0.9411028E-02  0.5651578E+03  0.7818609E-02  0.9980451E-01
        1   -1    0    0  501    0  0.00000000000E+00  0.00000000000E+00  0.93086130388E+03  0.93086130389E+03  0.50400001928E-02 0. -1.
       -1   -1    0    0    0  501  0.00000000000E+00  0.00000000000E+00 -0.85781661957E+02  0.85781662105E+02  0.50400001928E-02 0.  1.
    10030    2    1    2    0    0  0.00000000000E+00  0.00000000000E+00  0.84507964192E+03  0.10166429660E+04  0.56515778250E+03 0.  0.
        4    1    3    3  502    0 -0.41120100250E+01 -0.35365939360E+02 -0.81725459118E+02  0.89153361469E+02  0.12699999809E+01 0.  1.
       -4    1    3    3    0  502  0.41120100250E+01  0.35365939360E+02  0.92680510104E+03  0.92748960452E+03  0.12699999809E+01 0. -1.
</event>
<event>
 5   0  0.8860626E-02  0.6081121E+03  0.7818609E-02  0.9888717E-01
       -1   -1    0    0    0  501  0.00000000000E+00  0.00000000000E+00  0.14635904608E+03  0.14635904617E+03  0.50400001928E-02 0.  1.
        1   -1    0    0  501    0  0.00000000000E+00  0.00000000000E+00 -0.63166641596E+03  0.63166641598E+03  0.50400001928E-02 0. -1.
    10030    2    1    2    0    0  0.00000000000E+00  0.00000000000E+00 -0.48530736987E+03  0.77802546215E+03  0.60811214138E+03 0.  0.
        3    1    3    3  502    0  0.98280901516E+02 -0.22255178996E+03 -0.93175366886E+01  0.24346511353E+03  0.10100000352E+00 0.  1.
       -3    1    3    3    0  502 -0.98280901516E+02  0.22255178996E+03 -0.47598983319E+03  0.53456034862E+03  0.10100000352E+00 0. -1.
</event>
<event>
 5   0  0.8860626E-02  0.5998497E+03  0.7818609E-02  0.9905718E-01
        1   -1    0    0  501    0  0.00000000000E+00  0.00000000000E+00  0.63235420881E+02  0.63235421082E+02  0.50400001928E-02 0. -1.
       -1   -1    0    0    0  501  0.00000000000E+00  0.00000000000E+00 -0.14225398712E+04  0.14225398712E+04  0.50400001928E-02 0.  1.
    10030    2    1    2    0    0  0.00000000000E+00  0.00000000000E+00 -0.13593044503E+04  0.14857752923E+04  0.59984967327E+03 0.  0.
        3    1    3    3  502    0  0.63133704652E+02 -0.26454750229E+03 -0.99279955313E+03  0.10293795260E+04  0.10100000352E+00 0.  1.
       -3    1    3    3    0  502 -0.63133704652E+02  0.26454750229E+03 -0.36650489716E+03  0.45639576628E+03  0.10100000352E+00 0. -1.
</event>
<event>
 5   0  0.8860626E-02  0.5752742E+03  0.7818609E-02  0.9958075E-01
       -1   -1    0    0    0  501  0.00000000000E+00  0.00000000000E+00  0.80346900165E+02  0.80346900323E+02  0.50400001928E-02 0. -1.
        1   -1    0    0  501    0  0.00000000000E+00  0.00000000000E+00 -0.10297236596E+04  0.10297236596E+04  0.50400001928E-02 0.  1.
    10030    2    1    2    0    0  0.00000000000E+00  0.00000000000E+00 -0.94937675942E+03  0.11100705599E+04  0.57527420999E+03 0.  0.
        3    1    3    3  502    0  0.41298005358E+02 -0.27442846637E+03 -0.32876664220E+03  0.43023717136E+03  0.10100000352E+00 0.  1.
       -3    1    3    3    0  502 -0.41298005358E+02  0.27442846637E+03 -0.62061011722E+03  0.67983338856E+03  0.10100000352E+00 0. -1.
</event>
<event>
 5   0  0.1502642E-01  0.5988972E+03  0.7818609E-02  0.9907697E-01
       -2   -1    0    0    0  501  0.00000000000E+00  0.00000000000E+00  0.12196582295E+04  0.12196582295E+04  0.25500000920E-02 0.  1.
        2   -1    0    0  501    0  0.00000000000E+00  0.00000000000E+00 -0.73520167894E+02  0.73520167939E+02  0.25500000920E-02 0. -1.
    10030    2    1    2    0    0  0.00000000000E+00  0.00000000000E+00  0.11461380616E+04  0.12931783974E+04  0.59889724606E+03 0.  0.
        2    1    3    3  502    0 -0.11781466404E+03  0.75125929126E+02  0.11884573263E+01  0.13973407861E+03  0.25500000920E-02 0. -1.
       -2    1    3    3    0  502  0.11781466404E+03 -0.75125929126E+02  0.11449496042E+04  0.11534443188E+04  0.25500000920E-02 0.  1.
</event>
<event>
 5   0  0.1513339E-01  0.5883774E+03  0.7818609E-02  0.9929817E-01
       -2   -1    0    0    0  501  0.00000000000E+00  0.00000000000E+00  0.14042621507E+03  0.14042621510E+03  0.25500000920E-02 0.  1.
        2   -1    0    0  501    0  0.00000000000E+00  0.00000000000E+00 -0.61631657975E+03  0.61631657975E+03  0.25500000920E-02 0. -1.
    10030    2    1    2    0    0  0.00000000000E+00  0.00000000000E+00 -0.47589036467E+03  0.75674279485E+03  0.58837744549E+03 0.  0.
        3    1    3    3  502    0 -0.92539503809E+02  0.18302296067E+03 -0.50921664298E+03  0.54896499304E+03  0.10100000352E+00 0. -1.
       -3    1    3    3    0  502  0.92539503809E+02 -0.18302296067E+03  0.33326278306E+02  0.20777780181E+03  0.10100000352E+00 0.  1.
</event>
<event>
 5   0  0.1513339E-01  0.6970632E+03  0.7818609E-02  0.9722268E-01
        2   -1    0    0  501    0  0.00000000000E+00  0.00000000000E+00  0.83007444384E+03  0.83007444385E+03  0.25500000920E-02 0.  1.
       -2   -1    0    0    0  501  0.00000000000E+00  0.00000000000E+00 -0.14634142457E+03  0.14634142460E+03  0.25500000920E-02 0. -1.
    10030    2    1    2    0    0  0.00000000000E+00  0.00000000000E+00  0.68373301927E+03  0.97641586844E+03  0.69706320123E+03 0.  0.
        3    1    3    3  502    0  0.23867564487E+02  0.83686275743E+02  0.81461140389E+03  0.81924648484E+03  0.10100000352E+00 0.  1.
       -3    1    3    3    0  502 -0.23867564487E+02 -0.83686275743E+02 -0.13087838461E+03  0.15716938360E+03  0.10100000352E+00 0. -1.
</event>
<event>
 5   0  0.9420349E-02  0.4108582E+03  0.7818609E-02  0.1040083E+00
        1   -1    0    0  501    0  0.00000000000E+00  0.00000000000E+00  0.12225899151E+04  0.12225899151E+04  0.50400001928E-02 0.  1.
       -1   -1    0    0    0  501  0.00000000000E+00  0.00000000000E+00 -0.34517808436E+02  0.34517808804E+02  0.50400001928E-02 0. -1.
    10030    2    1    2    0    0  0.00000000000E+00  0.00000000000E+00  0.11880721066E+04  0.12571077239E+04  0.41085824671E+03 0.  0.
        2    1    3    3  502    0  0.77638166272E+02  0.16736067782E+03  0.31757890864E+03  0.36727870148E+03  0.25500000920E-02 0. -1.
       -2    1    3    3    0  502 -0.77638166272E+02 -0.16736067782E+03  0.87049319800E+03  0.88982902241E+03  0.25500000920E-02 0.  1.
</event>
<event>
 5   0  0.1483942E-01  0.5960859E+03  0.7818609E-02  0.9913560E-01
        2   -1    0    0  501    0  0.00000000000E+00  0.00000000000E+00  0.28846191297E+03  0.28846191298E+03  0.25500000920E-02 0.  1.
       -2   -1    0    0    0  501  0.00000000000E+00  0.00000000000E+00 -0.30794226165E+03  0.30794226166E+03  0.25500000920E-02 0. -1.
    10030    2    1    2    0    0  0.00000000000E+00  0.00000000000E+00 -0.19480348680E+02  0.59640417464E+03  0.59608594644E+03 0.  0.
        4    1    3    3  502    0 -0.13658525556E+03 -0.21838180306E+03  0.14027938410E+03  0.29330199871E+03  0.12699999809E+01 0.  1.
       -4    1    3    3    0  502  0.13658525556E+03  0.21838180306E+03 -0.15975973278E+03  0.30310217594E+03  0.12699999809E+01 0. -1.
</event>
<event>
 5   0  0.1532571E-01  0.5972253E+03  0.7818609E-02  0.9911179E-01
        2   -1    0    0  501    0  0.00000000000E+00  0.00000000000E+00  0.20220264127E+04  0.20220264127E+04  0.25500000920E-02 0. -1.
       -2   -1    0    0    0  501  0.00000000000E+00  0.00000000000E+00 -0.44099083474E+02  0.44099083548E+02  0.25500000920E-02 0.  1.
    10030    2    1    2    0    0  0.00000000000E+00  0.00000000000E+00  0.19779273292E+04  0.20661254962E+04  0.59722528961E+03 0.  0.
        1    1    3    3  502    0  0.20243522625E+03  0.46989548123E+02  0.24712417530E+03  0.32289068816E+03  0.50400001928E-02 0.  1.
       -1    1    3    3    0  502 -0.20243522625E+03 -0.46989548123E+02  0.17308031539E+04  0.17432348081E+04  0.50400001928E-02 0. -1.
</event>
<event>
 5   0  0.1513339E-01  0.5989975E+03  0.7818609E-02  0.9907488E-01
       -2   -1    0    0    0  501  0.00000000000E+00  0.00000000000E+00  0.10870574208E+03  0.10870574211E+03  0.25500000920E-02 0. -1.
        2   -1    0    0  501    0  0.00000000000E+00  0.00000000000E+00 -0.82515872362E+03  0.82515872362E+03  0.25500000920E-02 0.  1.
    10030    2    1    2    0    0  0.00000000000E+00  0.00000000000E+00 -0.71645298153E+03  0.93386446573E+03  0.59899746712E+03 0.  0.
        3    1    3    3  502    0  0.39297371083E+02 -0.20146673009E+03 -0.69824988521E+03  0.72779532776E+03  0.10100000352E+00 0.  1.
       -3    1    3    3    0  502 -0.39297371083E+02  0.20146673009E+03 -0.18203096321E+02  0.20606913797E+03  0.10100000352E+00 0. -1.
</event>
<event>
 5   0  0.6170500E-02  0.6092403E+03  0.7818609E-02  0.9886419E-01
       -3   -1    0    0    0  501  0.00000000000E+00  0.00000000000E+00  0.18295418641E+03  0.18295421429E+03  0.10100000352E+00 0. -1.
        3   -1    0    0  501    0  0.00000000000E+00  0.00000000000E+00 -0.50719482052E+03  0.50719483057E+03  0.10100000352E+00 0.  1.
    10030    2    1    2    0    0  0.00000000000E+00  0.00000000000E+00 -0.32424063411E+03  0.69014904486E+03  0.60924027717E+03 0.  0.
        2    1    3    3  502    0  0.14746343274E+03 -0.10505633496E+02  0.13959163802E+03  0.20332648067E+03  0.25500000920E-02 0. -1.
       -2    1    3    3    0  502 -0.14746343274E+03  0.10505633496E+02 -0.46383227213E+03  0.48682256419E+03  0.25500000920E-02 0.  1.
</event>
<event>
 5   0  0.1513339E-01  0.5923753E+03  0.7818609E-02  0.9921352E-01
        2   -1    0    0  501    0  0.00000000000E+00  0.00000000000E+00  0.10222110971E+04  0.10222110971E+04  0.25500000920E-02 0. -1.
       -2   -1    0    0    0  501  0.00000000000E+00  0.00000000000E+00 -0.85820958585E+02  0.85820958623E+02  0.25500000920E-02 0.  1.
    10030    2    1    2    0    0  0.00000000000E+00  0.00000000000E+00  0.93639013856E+03  0.11080320558E+04  0.59237534134E+03 0.  0.
        3    1    3    3  502    0 -0.12163526516E+03  0.19254135105E+03  0.11398623873E+03  0.25467662322E+03  0.10100000352E+00 0.  1.
       -3    1    3    3    0  502  0.12163526516E+03 -0.19254135105E+03  0.82240389984E+03  0.85335543255E+03  0.10100000352E+00 0. -1.
</event>
<event>
 5   0  0.1488510E-01  0.5956502E+03  0.7818609E-02  0.9914472E-01
       -2   -1    0    0    0  501  0.00000000000E+00  0.00000000000E+00  0.56577891624E+02  0.56577891681E+02  0.25500000920E-02 0. -1.
        2   -1    0    0  501    0  0.00000000000E+00  0.00000000000E+00 -0.15677466183E+04  0.15677466183E+04  0.25500000920E-02 0.  1.
    10030    2    1    2    0    0  0.00000000000E+00  0.00000000000E+00 -0.15111687267E+04  0.16243245100E+04  0.59565022727E+03 0.  0.
        5    1    3    3  502    0  0.20112216051E+03 -0.35416223390E+02 -0.16455792232E+03  0.26230865812E+03  0.46999998093E+01 0. -1.
       -5    1    3    3    0  502 -0.20112216051E+03  0.35416223390E+02 -0.13466108044E+04  0.13620158519E+04  0.46999998093E+01 0.  1.
</event>
<event>
 5   0  0.8860626E-02  0.6047780E+03  0.7818609E-02  0.9895542E-01
       -1   -1    0    0    0  501  0.00000000000E+00  0.00000000000E+00  0.30743538476E+02  0.30743538889E+02  0.50400001928E-02 0.  1.
        1   -1    0    0  501    0  0.00000000000E+00  0.00000000000E+00 -0.29742546930E+04  0.29742546930E+04  0.50400001928E-02 0. -1.
    10030    2    1    2    0    0  0.00000000000E+00  0.00000000000E+00 -0.29435111545E+04  0.30049982319E+04  0.60477802281E+03 0.  0.
        3    1    3    3  502    0 -0.10832171598E+03  0.28309523391E+02 -0.28674744540E+04  0.28696593487E+04  0.10100000352E+00 0. -1.
       -3    1    3    3    0  502  0.10832171598E+03 -0.28309523391E+02 -0.76036700531E+02  0.13533888316E+03  0.10100000352E+00 0.  1.
</event>
<event>
 5   0  0.9497860E-02  0.6237148E+03  0.7818609E-02  0.9857391E-01
       -1   -1    0    0    0  501  0.00000000000E+00  0.00000000000E+00  0.63193975272E+03  0.63193975274E+03  0.50400001928E-02 0. -1.
        1   -1    0    0  501    0  0.00000000000E+00  0.00000000000E+00 -0.15389922318E+03  0.15389922326E+03  0.50400001928E-02 0.  1.
    10030    2    1    2    0    0  0.00000000000E+00  0.00000000000E+00  0.47804052954E+03  0.78583897600E+03  0.62371479726E+03 0.  0.
        5    1    3    3  502    0  0.18335511593E+03  0.20610341583E+03  0.55851670622E+02  0.28149461037E+03  0.46999998093E+01 0.  1.
       -5    1    3    3    0  502 -0.18335511593E+03 -0.20610341583E+03  0.42218885891E+03  0.50434436563E+03  0.46999998093E+01 0. -1.
</event>
<event>
 5   0  0.9420349E-02  0.5890716E+03  0.7818609E-02  0.9928342E-01
       -1   -1    0    0    0  501  0.00000000000E+00  0.00000000000E+00  0.10315423158E+03  0.10315423170E+03  0.50400001928E-02 0. -1.
        1   -1    0    0  501    0  0.00000000000E+00  0.00000000000E+00 -0.84098684204E+03  0.84098684206E+03  0.50400001928E-02 0.  1.
    10030    2    1    2    0    0  0.00000000000E+00  0.00000000000E+00 -0.73783261047E+03  0.94414107376E+03  0.58907164767E+03 0.  0.
        2    1    3    3  502    0  0.19047404213E+03 -0.44590552987E+02 -0.72182474996E+03  0.74786338846E+03  0.25500000920E-02 0.  1.
       -2    1    3    3    0  502 -0.19047404213E+03  0.44590552987E+02 -0.16007860507E+02  0.19627768530E+03  0.25500000920E-02 0. -1.
</event>
<event>
 5   0  0.9411028E-02  0.5973610E+03  0.7818609E-02  0.9910896E-01
       -1   -1    0    0    0  501  0.00000000000E+00  0.00000000000E+00  0.38286619601E+02  0.38286619933E+02  0.50400001928E-02 0.  1.
        1   -1    0    0  501    0  0.00000000000E+00  0.00000000000E+00 -0.23300576379E+04  0.23300576379E+04  0.50400001928E-02 0. -1.
    10030    2    1    2    0    0  0.00000000000E+00  0.00000000000E+00 -0.22917710183E+04  0.23683442578E+04  0.59736096568E+03 0.  0.
        4    1    3    3  502    0 -0.81838559466E+02 -0.19366809539E+03 -0.19869539050E+04  0.19980471252E+04  0.12699999809E+01 0. -1.
       -4    1    3    3    0  502  0.81838559466E+02  0.19366809539E+03 -0.30481711329E+03  0.37029713264E+03  0.12699999809E+01 0.  1.
</event>
<event>
 5   0  0.1513339E-01  0.5956400E+03  0.7818609E-02  0.9914493E-01
       -2   -1    0    0    0  501  0.00000000000E+00  0.00000000000E+00  0.13094953074E+03  0.13094953076E+03  0.25500000920E-02 0. -1.
        2   -1    0    0  501    0  0.00000000000E+00  0.00000000000E+00 -0.67733548393E+03  0.67733548393E+03  0.25500000920E-02 0.  1.
    10030    2    1    2    0    0  0.00000000000E+00  0.00000000000E+00 -0.54638595319E+03  0.80828501469E+03  0.59564003822E+03 0.  0.
        3    1    3    3  502    0 -0.21656170829E+01  0.13674652252E+03  0.85816778325E+02  0.16145844964E+03  0.10100000352E+00 0. -1.
       -3    1    3    3    0  502  0.21656170829E+01 -0.13674652252E+03 -0.63220273151E+03  0.64682656505E+03  0.10100000352E+00 0.  1.
</event>
<event>
 5   0  0.1513339E-01  0.6195454E+03  0.7818609E-02  0.9865665E-01
       -2   -1    0    0    0  501  0.00000000000E+00  0.00000000000E+00  0.51494380417E+03  0.51494380417E+03  0.25500000920E-02 0.  1.
        2   -1    0    0  501    0  0.00000000000E+00  0.00000000000E+00 -0.18634875194E+03  0.18634875196E+03  0.25500000920E-02 0. -1.
    10030    2    1    2    0    0  0.00000000000E+00  0.00000000000E+00  0.32859505223E+03  0.70129255613E+03  0.61954543089E+03 0.  0.
        3    1    3    3  502    0 -0.88268156018E+02  0.21457137015E+02  0.49952863244E+03  0.50772092819E+03  0.10100000352E+00 0.  1.
       -3    1    3    3    0  502  0.88268156018E+02 -0.21457137015E+02 -0.17093358022E+03  0.19357162794E+03  0.10100000352E+00 0. -1.
</event>
<event>
 5   0  0.1532571E-01  0.6185652E+03  0.7818609E-02  0.9867620E-01
       -2   -1    0    0    0  501  0.00000000000E+00  0.00000000000E+00  0.95574370539E+02  0.95574370573E+02  0.25500000920E-02 0.  1.
        2   -1    0    0  501    0  0.00000000000E+00  0.00000000000E+00 -0.10008513436E+04  0.10008513436E+04  0.25500000920E-02 0. -1.
    10030    2    1    2    0    0  0.00000000000E+00  0.00000000000E+00 -0.90527697301E+03  0.10964257141E+04  0.61856523402E+03 0.  0.
        1    1    3    3  502    0 -0.23993291509E+03 -0.14202051012E+03 -0.21537015206E+03  0.35230942573E+03  0.50400001928E-02 0.  1.
       -1    1    3    3    0  502  0.23993291509E+03  0.14202051012E+03 -0.68990682095E+03  0.74411628840E+03  0.50400001928E-02 0. -1.
</event>
<event>
 5   0  0.9177281E-02  0.6093671E+03  0.7818609E-02  0.9886161E-01
       -1   -1    0    0    0  501  0.00000000000E+00  0.00000000000E+00  0.19431203308E+03  0.19431203315E+03  0.50400001928E-02 0. -1.
        1   -1    0    0  501    0  0.00000000000E+00  0.00000000000E+00 -0.47774742543E+03  0.47774742546E+03  0.50400001928E-02 0.  1.
    10030    2    1    2    0    0  0.00000000000E+00  0.00000000000E+00 -0.28343539235E+03  0.67205945861E+03  0.60936712602E+03 0.  0.
        1    1    3    3  502    0  0.22224613335E+03  0.19704780940E+03 -0.66828169826E+02  0.30444570499E+03  0.50400001928E-02 0. -1.
       -1    1    3    3    0  502 -0.22224613335E+03 -0.19704780940E+03 -0.21660722252E+03  0.36761375362E+03  0.50400001928E-02 0.  1.
</event>
<event>
 5   0  0.1502642E-01  0.6335567E+03  0.7818609E-02  0.9838133E-01
       -2   -1    0    0    0  501  0.00000000000E+00  0.00000000000E+00  0.19059910061E+03  0.19059910062E+03  0.25500000920E-02 0. -1.
        2   -1    0    0  501    0  0.00000000000E+00  0.00000000000E+00 -0.52649007289E+03  0.52649007290E+03  0.25500000920E-02 0.  1.
    10030    2    1    2    0    0  0.00000000000E+00  0.00000000000E+00 -0.33589097229E+03  0.71708917352E+03  0.63355673583E+03 0.  0.
        2    1    3    3  502    0 -0.62840480216E+02  0.11673884228E+03  0.15768755286E+03  0.20601516348E+03  0.25500000920E-02 0. -1.
       -2    1    3    3    0  502  0.62840480216E+02 -0.11673884228E+03 -0.49357852514E+03  0.51107401004E+03  0.25500000920E-02 0.  1.
</event>
<event>
 5   0  0.1513339E-01  0.6071416E+03  0.7818609E-02  0.9890699E-01
        2   -1    0    0  501    0  0.00000000000E+00  0.00000000000E+00  0.40867146079E+03  0.40867146080E+03  0.25500000920E-02 0.  1.
       -2   -1    0    0    0  501  0.00000000000E+00  0.00000000000E+00 -0.22549958267E+03  0.22549958268E+03  0.25500000920E-02 0. -1.
    10030    2    1    2    0    0  0.00000000000E+00  0.00000000000E+00  0.18317187813E+03  0.63417104349E+03  0.60714164366E+03 0.  0.
        3    1    3    3  502    0 -0.12926099573E+03 -0.46871737597E+02 -0.19111015749E+03  0.23543251113E+03  0.10100000352E+00 0. -1.
       -3    1    3    3    0  502  0.12926099573E+03  0.46871737597E+02  0.37428203561E+03  0.39873853236E+03  0.10100000352E+00 0.  1.
</event>
<event>
 5   0  0.9177281E-02  0.6241322E+03  0.7818609E-02  0.9856567E-01
        1   -1    0    0  501    0  0.00000000000E+00  0.00000000000E+00  0.15704227753E+03  0.15704227761E+03  0.50400001928E-02 0.  1.
       -1   -1    0    0    0  501  0.00000000000E+00  0.00000000000E+00 -0.62012116328E+03  0.62012116330E+03  0.50400001928E-02 0. -1.
    10030    2    1    2    0    0  0.00000000000E+00  0.00000000000E+00 -0.46307888576E+03  0.77716344091E+03  0.62413216506E+03 0.  0.
        1    1    3    3  502    0  0.25473193465E+03 -0.39195487478E+02 -0.45063846908E+03  0.51913358070E+03  0.50400001928E-02 0. -1.
       -1    1    3    3    0  502 -0.25473193465E+03  0.39195487478E+02 -0.12440416675E+02  0.25802986021E+03  0.50400001928E-02 0.  1.
</event>
<event>
 5   0  0.1483942E-01  0.5766910E+03  0.7818609E-02  0.9954981E-01
       -2   -1    0    0    0  501  0.00000000000E+00  0.00000000000E+00  0.13962328849E+03  0.13962328851E+03  0.25500000920E-02 0. -1.
        2   -1    0    0  501    0  0.00000000000E+00  0.00000000000E+00 -0.59548176260E+03  0.59548176261E+03  0.25500000920E-02 0.  1.
    10030    2    1    2    0    0  0.00000000000E+00  0.00000000000E+00 -0.45585847412E+03  0.73510505112E+03  0.57669098116E+03 0.  0.
        4    1    3    3  502    0  0.20583105369E+03  0.80329550700E+02 -0.46408259232E+03  0.51399759218E+03  0.12699999809E+01 0.  1.
       -4    1    3    3    0  502 -0.20583105369E+03 -0.80329550700E+02  0.82241181970E+01  0.22110745894E+03  0.12699999809E+01 0. -1.
</event>
<event>
 5   0  0.9497860E-02  0.6025490E+03  0.7818609E-02  0.9900132E-01
        1   -1    0    0  501    0  0.00000000000E+00  0.00000000000E+00  0.16701887877E+04  0.16701887877E+04  0.50400001928E-02 0. -1.
       -1   -1    0    0    0  501  0.00000000000E+00  0.00000000000E+00 -0.54344957002E+02  0.54344957236E+02  0.50400001928E-02 0.  1.
    10030    2    1    2    0    0  0.00000000000E+00  0.00000000000E+00  0.16158438307E+04  0.17245337449E+04  0.60254904551E+03 0.  0.
        5    1    3    3  502    0 -0.42316943026E+02  0.48814367126E+02  0.16500239436E+04  0.16512948466E+04  0.46999998093E+01 0. -1.
       -5    1    3    3    0  502  0.42316943026E+02 -0.48814367126E+02 -0.34180112916E+02  0.73238898286E+02  0.46999998093E+01 0.  1.
</event>
<event>
 5   0  0.6170500E-02  0.6630284E+03  0.7818609E-02  0.9782635E-01
       -3   -1    0    0    0  501  0.00000000000E+00  0.00000000000E+00  0.33083498661E+03  0.33083500202E+03  0.10100000352E+00 0.  1.
        3   -1    0    0  501    0  0.00000000000E+00  0.00000000000E+00 -0.33219481326E+03  0.33219482861E+03  0.10100000352E+00 0. -1.
    10030    2    1    2    0    0  0.00000000000E+00  0.00000000000E+00 -0.13598266553E+01  0.66302983064E+03  0.66302843618E+03 0.  0.
        5    1    3    3  502    0 -0.27754493011E+03 -0.17926489008E+03  0.26012796392E+02  0.33146017048E+03  0.46999998093E+01 0.  1.
       -5    1    3    3    0  502  0.27754493011E+03  0.17926489008E+03 -0.27372623047E+02  0.33156966015E+03  0.46999998093E+01 0. -1.
</event>
<event>
 5   0  0.1488510E-01  0.6026371E+03  0.7818609E-02  0.9899950E-01
        2   -1    0    0  501    0  0.00000000000E+00  0.00000000000E+00  0.29764719787E+03  0.29764719788E+03  0.25500000920E-02 0.  1.
       -2   -1    0    0    0  501  0.00000000000E+00  0.00000000000E+00 -0.30503520485E+03  0.30503520486E+03  0.25500000920E-02 0. -1.
    10030    2    1    2    0    0  0.00000000000E+00  0.00000000000E+00 -0.73880069755E+01  0.60268240274E+03  0.60263711795E+03 0.  0.
        5    1    3    3  502    0  0.67734171233E+02 -0.26767355679E+03 -0.12425899578E+03  0.30281915228E+03  0.46999998093E+01 0. -1.
       -5    1    3    3    0  502 -0.67734171233E+02  0.26767355679E+03  0.11687098880E+03  0.29986325046E+03  0.46999998093E+01 0.  1.
</event>
<event>
 5   0  0.1483942E-01  0.5867309E+03  0.7818609E-02  0.9933324E-01
       -2   -1    0    0    0  501  0.00000000000E+00  0.00000000000E+00  0.16462475898E+03  0.16462475900E+03  0.25500000920E-02 0.  1.
        2   -1    0    0  501    0  0.00000000000E+00  0.00000000000E+00 -0.52278465182E+03  0.52278465183E+03  0.25500000920E-02 0. -1.
    10030    2    1    2    0    0  0.00000000000E+00  0.00000000000E+00 -0.35815989284E+03  0.68740941083E+03  0.58673093429E+03 0.  0.
        4    1    3    3  502    0 -0.79709182103E+02 -0.13383692609E+03  0.11216338797E+03  0.19195862835E+03  0.12699999809E+01 0.  1.
       -4    1    3    3    0  502  0.79709182103E+02  0.13383692609E+03 -0.47032328080E+03  0.49545078248E+03  0.12699999809E+01 0. -1.
</event>
<event>
 5   0  0.1513339E-01  0.6116103E+03  0.7818609E-02  0.9881607E-01
       -2   -1    0    0    0  501  0.00000000000E+00  0.00000000000E+00  0.61758460918E+02  0.61758460971E+02  0.25500000920E-02 0. -1.
        2   -1    0    0  501    0  0.00000000000E+00  0.00000000000E+00 -0.15142343330E+04  0.15142343330E+04  0.25500000920E-02 0.  1.
    10030    2    1    2    0    0  0.00000000000E+00  0.00000000000E+00 -0.14524758721E+04  0.15759927940E+04  0.61161027435E+03 0.  0.
        3    1    3    3  502    0 -0.28369592819E+03 -0.75272362232E+02 -0.94741416673E+03  0.99183815298E+03  0.10100000352E+00 0. -1.
       -3    1    3    3    0  502  0.28369592819E+03  0.75272362232E+02 -0.50506170539E+03  0.58415464104E+03  0.10100000352E+00 0.  1.
</event>
<event>
 5   0  0.1513339E-01  0.6014033E+03  0.7818609E-02  0.9902499E-01
       -2   -1    0    0    0  501  0.00000000000E+00  0.00000000000E+00  0.45939272402E+02  0.45939272473E+02  0.25500000920E-02 0.  1.
        2   -1    0    0  501    0  0.00000000000E+00  0.00000000000E+00 -0.19682829295E+04  0.19682829295E+04  0.25500000920E-02 0. -1.
    10030    2    1    2    0    0  0.00000000000E+00  0.00000000000E+00 -0.19223436571E+04  0.20142222019E+04  0.60140331138E+03 0.  0.
        3    1    3    3  502    0 -0.10350089655E+03 -0.24647054848E+03 -0.49998625043E+03  0.56696245703E+03  0.10100000352E+00 0.  1.
       -3    1    3    3    0  502  0.10350089655E+03  0.24647054848E+03 -0.14223574066E+04  0.14472597449E+04  0.10100000352E+00 0. -1.
</event>
<event>
 5   0  0.6170500E-02  0.6160834E+03  0.7818609E-02  0.9872589E-01
       -3   -1    0    0    0  501  0.00000000000E+00  0.00000000000E+00  0.69916624373E+03  0.69916625103E+03  0.10100000352E+00 0.  1.
        3   -1    0    0  501    0  0.00000000000E+00  0.00000000000E+00 -0.13571831435E+03  0.13571835193E+03  0.10100000352E+00 0. -1.
    10030    2    1    2    0    0  0.00000000000E+00  0.00000000000E+00  0.56344792939E+03  0.83488460296E+03  0.61608338001E+03 0.  0.
        3    1    3    3  502    0  0.16609524649E+03 -0.74496627815E+02  0.61847854155E+03  0.64471163711E+03  0.10100000352E+00 0.  1.
       -3    1    3    3    0  502 -0.16609524649E+03  0.74496627815E+02 -0.55030612168E+02  0.19017296585E+03  0.10100000352E+00 0. -1.
</event>
<event>
 5   0  0.1502642E-01  0.6146971E+03  0.7818609E-02  0.9875375E-01
       -2   -1    0    0    0  501  0.00000000000E+00  0.00000000000E+00  0.12269600415E+03  0.12269600417E+03  0.25500000920E-02 0.  1.
        2   -1    0    0  501    0  0.00000000000E+00  0.00000000000E+00 -0.76989567440E+03  0.76989567441E+03  0.25500000920E-02 0. -1.
    10030    2    1    2    0    0  0.00000000000E+00  0.00000000000E+00 -0.64719967025E+03  0.89259167858E+03  0.61469707295E+03 0.  0.
        2    1    3    3  502    0 -0.18215627900E+03 -0.47027884912E+02  0.29321039062E+02  0.19040025020E+03  0.25500000920E-02 0.  1.
       -2    1    3    3    0  502  0.18215627900E+03  0.47027884912E+02 -0.67652070932E+03  0.70219142837E+03  0.25500000920E-02 0. -1.
</event>
<event>
 5   0  0.1513339E-01  0.5944560E+03  0.7818609E-02  0.9916975E-01
        2   -1    0    0  501    0  0.00000000000E+00  0.00000000000E+00  0.10927890966E+04  0.10927890966E+04  0.25500000920E-02 0. -1.
       -2   -1    0    0    0  501  0.00000000000E+00  0.00000000000E+00 -0.80843121545E+02  0.80843121585E+02  0.25500000920E-02 0.  1.
    10030    2    1    2    0    0  0.00000000000E+00  0.00000000000E+00  0.10119459750E+04  0.11736322182E+04  0.59445599259E+03 0.  0.
        3    1    3    3  502    0  0.72199324792E+02  0.28612111671E+03  0.43571367788E+03  0.52623612117E+03  0.10100000352E+00 0.  1.
       -3    1    3    3    0  502 -0.72199324792E+02 -0.28612111671E+03  0.57623229715E+03  0.64739609700E+03  0.10100000352E+00 0. -1.
</event>
<event>
 5   0  0.9497860E-02  0.6096456E+03  0.7818609E-02  0.9885594E-01
       -1   -1    0    0    0  501  0.00000000000E+00  0.00000000000E+00  0.51416210929E+03  0.51416210931E+03  0.50400001928E-02 0.  1.
        1   -1    0    0  501    0  0.00000000000E+00  0.00000000000E+00 -0.18071526911E+03  0.18071526918E+03  0.50400001928E-02 0. -1.
    10030    2    1    2    0    0  0.00000000000E+00  0.00000000000E+00  0.33344684018E+03  0.69487737849E+03  0.60964561502E+03 0.  0.
        5    1    3    3  502    0  0.20141250999E+03 -0.72808826460E+02  0.41389760340E+03  0.46604875334E+03  0.46999998093E+01 0.  1.
       -5    1    3    3    0  502 -0.20141250999E+03  0.72808826460E+02 -0.80450763222E+02  0.22882862516E+03  0.46999998093E+01 0. -1.
</event>
<event>
 5   0  0.8860626E-02  0.6019324E+03  0.7818609E-02  0.9901405E-01
       -1   -1    0    0    0  501  0.00000000000E+00  0.00000000000E+00  0.93749130770E+03  0.93749130771E+03  0.50400001928E-02 0. -1.
        1   -1    0    0  501    0  0.00000000000E+00  0.00000000000E+00 -0.96620245757E+02  0.96620245888E+02  0.50400001928E-02 0.  1.
    10030    2    1    2    0    0  0.00000000000E+00  0.00000000000E+00  0.84087106194E+03  0.10341115536E+04  0.60193235706E+03 0.  0.
        3    1    3    3  502    0 -0.44870315560E+01  0.29204991219E+03  0.54512093421E+03  0.61844169311E+03  0.10100000352E+00 0. -1.
       -3    1    3    3    0  502  0.44870315560E+01 -0.29204991219E+03  0.29575012774E+03  0.41566986049E+03  0.10100000352E+00 0.  1.
</event>
<event>
 5   0  0.1532571E-01  0.5957861E+03  0.7818609E-02  0.9914187E-01
       -2   -1    0    0    0  501  0.00000000000E+00  0.00000000000E+00  0.35616070374E+03  0.35616070375E+03  0.25500000920E-02 0. -1.
        2   -1    0    0  501    0  0.00000000000E+00  0.00000000000E+00 -0.24915792905E+03  0.24915792906E+03  0.25500000920E-02 0.  1.
    10030    2    1    2    0    0  0.00000000000E+00  0.00000000000E+00  0.10700277469E+03  0.60531863281E+03  0.59578608026E+03 0.  0.
        1    1    3    3  502    0 -0.13149747070E+03  0.78469606281E+01 -0.21795719170E+03  0.25467331433E+03  0.50400001928E-02 0.  1.
       -1    1    3    3    0  502  0.13149747070E+03 -0.78469606281E+01  0.32495996639E+03  0.35064531848E+03  0.50400001928E-02 0. -1.
</event>
<event>
 5   0  0.9177281E-02  0.5908694E+03  0.7818609E-02  0.9924532E-01
        1   -1    0    0  501    0  0.00000000000E+00  0.00000000000E+00  0.21858879096E+04  0.21858879096E+04  0.50400001928E-02 0. -1.
       -1   -1    0    0    0  501  0.00000000000E+00  0.00000000000E+00 -0.39929620593E+02  0.39929620911E+02  0.50400001928E-02 0.  1.
    10030    2    1    2    0    0  0.00000000000E+00  0.00000000000E+00  0.21459582890E+04  0.22258175305E+04  0.59086944497E+03 0.  0.
        1    1    3    3  502    0 -0.23065738658E+03 -0.17315350276E+03  0.83186892279E+03  0.88044924342E+03  0.50400001928E-02 0. -1.
       -1    1    3    3    0  502  0.23065738658E+03  0.17315350276E+03  0.13140893662E+04  0.13453682871E+04  0.50400001928E-02 0.  1.
</event>
<event>
 5   0  0.1483942E-01  0.6576178E+03  0.7818609E-02  0.9792589E-01
        2   -1    0    0  501    0  0.00000000000E+00  0.00000000000E+00  0.10457470441E+04  0.10457470441E+04  0.25500000920E-02 0. -1.
       -2   -1    0    0    0  501  0.00000000000E+00  0.00000000000E+00 -0.10338568868E+03  0.10338568871E+03  0.25500000920E-02 0.  1.
    10030    2    1    2    0    0  0.00000000000E+00  0.00000000000E+00  0.94236135545E+03  0.11491327328E+04  0.65761775633E+03 0.  0.
        4    1    3    3  502    0 -0.37197095227E+02 -0.22191721390E+03  0.89013395363E+03  0.91813449016E+03  0.12699999809E+01 0. -1.
       -4    1    3    3    0  502  0.37197095227E+02  0.22191721390E+03  0.52227401820E+02  0.23099824268E+03  0.12699999809E+01 0.  1.
</event>
<event>
 5   0  0.1483942E-01  0.3943853E+03  0.7818609E-02  0.1045741E+00
        2   -1    0    0  501    0  0.00000000000E+00  0.00000000000E+00  0.29078592421E+03  0.29078592422E+03  0.25500000920E-02 0.  1.
       -2   -1    0    0    0  501  0.00000000000E+00  0.00000000000E+00 -0.13372360667E+03  0.13372360670E+03  0.25500000920E-02 0. -1.
    10030    2    1    2    0    0  0.00000000000E+00  0.00000000000E+00  0.15706231754E+03  0.42450953092E+03  0.39438530684E+03 0.  0.
        4    1    3    3  502    0  0.51831169610E+02  0.18699374800E+03  0.40777923078E+02  0.19828662043E+03  0.12699999809E+01 0. -1.
       -4    1    3    3    0  502 -0.51831169610E+02 -0.18699374800E+03  0.11628439446E+03  0.22622291048E+03  0.12699999809E+01 0.  1.
</event>
<event>
 5   0  0.9497860E-02  0.5996948E+03  0.7818609E-02  0.9906040E-01
        1   -1    0    0  501    0  0.00000000000E+00  0.00000000000E+00  0.53949966007E+03  0.53949966009E+03  0.50400001928E-02 0. -1.
       -1   -1    0    0    0  501  0.00000000000E+00  0.00000000000E+00 -0.16665154101E+03  0.16665154109E+03  0.50400001928E-02 0.  1.
    10030    2    1    2    0    0  0.00000000000E+00  0.00000000000E+00  0.37284811906E+03  0.70615120118E+03  0.59969475489E+03 0.  0.
        5    1    3    3  502    0  0.27469790879E+03 -0.37178407765E+02  0.51933262470E+02  0.28206440549E+03  0.46999998093E+01 0.  1.
       -5    1    3    3    0  502 -0.27469790879E+03  0.37178407765E+02  0.32091485659E+03  0.42408679569E+03  0.46999998093E+01 0. -1.
</event>
<event>
 5   0  0.1483942E-01  0.6066279E+03  0.7818609E-02  0.9891750E-01
        2   -1    0    0  501    0  0.00000000000E+00  0.00000000000E+00  0.22235453935E+03  0.22235453936E+03  0.25500000920E-02 0.  1.
       -2   -1    0    0    0  501  0.00000000000E+00  0.00000000000E+00 -0.41375075889E+03  0.41375075889E+03  0.25500000920E-02 0. -1.
    10030    2    1    2    0    0  0.00000000000E+00  0.00000000000E+00 -0.19139621954E+03  0.63610529825E+03  0.60662792354E+03 0.  0.
        4    1    3    3  502    0  0.10451373907E+03 -0.20258827776E+03  0.11410580773E+03  0.25492524433E+03  0.12699999809E+01 0.  1.
       -4    1    3    3    0  502 -0.10451373907E+03  0.20258827776E+03 -0.30550202727E+03  0.38118005392E+03  0.12699999809E+01 0. -1.
</event>
<event>
 5   0  0.1532571E-01  0.5941973E+03  0.7818609E-02  0.9917518E-01
        2   -1    0    0  501    0  0.00000000000E+00  0.00000000000E+00  0.46291511317E+03  0.46291511317E+03  0.25500000920E-02 0.  1.
       -2   -1    0    0    0  501  0.00000000000E+00  0.00000000000E+00 -0.19067776079E+03  0.19067776080E+03  0.25500000920E-02 0. -1.
    10030    2    1    2    0    0  0.00000000000E+00  0.00000000000E+00  0.27223735238E+03  0.65359287398E+03  0.59419733160E+03 0.  0.
        1    1    3    3  502    0  0.75932794534E+02 -0.20931831286E+03  0.35247166985E+03  0.41691272882E+03  0.50400001928E-02 0.  1.
       -1    1    3    3    0  502 -0.75932794534E+02  0.20931831286E+03 -0.80234317468E+02  0.23668014515E+03  0.50400001928E-02 0. -1.
</event>
<event>
 5   0  0.9411028E-02  0.6006219E+03  0.7818609E-02  0.9904117E-01
        1   -1    0    0  501    0  0.00000000000E+00  0.00000000000E+00  0.48629004201E+03  0.48629004204E+03  0.50400001928E-02 0.  1.
       -1   -1    0    0    0  501  0.00000000000E+00  0.00000000000E+00 -0.18545857594E+03  0.18545857601E+03  0.50400001928E-02 0. -1.
    10030    2    1    2    0    0  0.00000000000E+00  0.00000000000E+00  0.30083146608E+03  0.67174861805E+03  0.60062187345E+03 0.  0.
        4    1    3    3  502    0  0.97670158992E+02  0.11477242513E+03  0.44093186245E+03  0.46597713437E+03  0.12699999809E+01 0.  1.
       -4    1    3    3    0  502 -0.97670158992E+02 -0.11477242513E+03 -0.14010039638E+03  0.20577148368E+03  0.12699999809E+01 0. -1.
</event>
<event>
 5   0  0.9497860E-02  0.3295859E+03  0.7818609E-02  0.1071320E+00
       -1   -1    0    0    0  501  0.00000000000E+00  0.00000000000E+00  0.10517628752E+03  0.10517628764E+03  0.50400001928E-02 0. -1.
        1   -1    0    0  501    0  0.00000000000E+00  0.00000000000E+00 -0.25820183798E+03  0.25820183803E+03  0.50400001928E-02 0.  1.
    10030    2    1    2    0    0  0.00000000000E+00  0.00000000000E+00 -0.15302555046E+03  0.36337812568E+03  0.32958586609E+03 0.  0.
        5    1    3    3  502    0  0.34891595001E+02 -0.35069615432E+02  0.96718845940E+02  0.10873787972E+03  0.46999998093E+01 0. -1.
       -5    1    3    3    0  502 -0.34891595001E+02  0.35069615432E+02 -0.24974439640E+03  0.25464024595E+03  0.46999998093E+01 0.  1.
</event>
<event>
 5   0  0.8860626E-02  0.5764112E+03  0.7818609E-02  0.9955591E-01
       -1   -1    0    0    0  501  0.00000000000E+00  0.00000000000E+00  0.27580770281E+03  0.27580770285E+03  0.50400001928E-02 0.  1.
        1   -1    0    0  501    0  0.00000000000E+00  0.00000000000E+00 -0.30116077004E+03  0.30116077008E+03  0.50400001928E-02 0. -1.
    10030    2    1    2    0    0  0.00000000000E+00  0.00000000000E+00 -0.25353067231E+02  0.57696847294E+03  0.57641117333E+03 0.  0.
        3    1    3    3  502    0 -0.20809925143E+03 -0.68845770425E+02 -0.19998685609E+03  0.29671500023E+03  0.10100000352E+00 0. -1.
       -3    1    3    3    0  502  0.20809925143E+03  0.68845770425E+02  0.17463378886E+03  0.28025347271E+03  0.10100000352E+00 0.  1.
</event>
<event>
 5   0  0.1483942E-01  0.5984104E+03  0.7818609E-02  0.9908709E-01
       -2   -1    0    0    0  501  0.00000000000E+00  0.00000000000E+00  0.42431527136E+03  0.42431527137E+03  0.25500000920E-02 0.  1.
        2   -1    0    0  501    0  0.00000000000E+00  0.00000000000E+00 -0.21098406209E+03  0.21098406210E+03  0.25500000920E-02 0. -1.
    10030    2    1    2    0    0  0.00000000000E+00  0.00000000000E+00  0.21333120927E+03  0.63529933347E+03  0.59841042626E+03 0.  0.
        4    1    3    3  502    0 -0.18663911558E+03 -0.21593394290E+03  0.11350711658E+02  0.28564327178E+03  0.12699999809E+01 0. -1.
       -4    1    3    3    0  502  0.18663911558E+03  0.21593394290E+03  0.20198049761E+03  0.34965606169E+03  0.12699999809E+01 0.  1.
</event>
<event>
 5   0  0.1532571E-01  0.6071674E+03  0.7818609E-02  0.9890647E-01
       -2   -1    0    0    0  501  0.00000000000E+00  0.00000000000E+00  0.86575228608E+02  0.86575228645E+02  0.25500000920E-02 0.  1.
        2   -1    0    0  501    0  0.00000000000E+00  0.00000000000E+00 -0.10645430612E+04  0.10645430612E+04  0.25500000920E-02 0. -1.
    10030    2    1    2    0    0  0.00000000000E+00  0.00000000000E+00 -0.97796783255E+03  0.11511182898E+04  0.60716738682E+03 0.  0.
        1    1    3    3  502    0  0.10053669351E+03  0.18306614978E+03 -0.71277331284E+02  0.22068371013E+03  0.50400001928E-02 0.  1.
       -1    1    3    3    0  502 -0.10053669351E+03 -0.18306614978E+03 -0.90669050126E+03  0.93043457967E+03  0.50400001928E-02 0. -1.
</event>
<event>
 5   0  0.1502642E-01  0.5970263E+03  0.7818609E-02  0.9911595E-01
       -2   -1    0    0    0  501  0.00000000000E+00  0.00000000000E+00  0.56834100769E+02  0.56834100826E+02  0.25500000920E-02 0.  1.
        2   -1    0    0  501    0  0.00000000000E+00  0.00000000000E+00 -0.15678985515E+04  0.15678985515E+04  0.25500000920E-02 0. -1.
    10030    2    1    2    0    0  0.00000000000E+00  0.00000000000E+00 -0.15110644507E+04  0.16247326523E+04  0.59702631204E+03 0.  0.
        2    1    3    3  502    0 -0.20776806366E+03  0.13583632718E+03 -0.30431680954E+03  0.39271846994E+03  0.25500000920E-02 0.  1.
       -2    1    3    3    0  502  0.20776806366E+03 -0.13583632718E+03 -0.12067476412E+04  0.12320141824E+04  0.25500000920E-02 0. -1.
</event>
<event>
 5   0  0.1488510E-01  0.5602730E+03  0.7818609E-02  0.9991437E-01
       -2   -1    0    0    0  501  0.00000000000E+00  0.00000000000E+00  0.14332852084E+03  0.14332852086E+03  0.25500000920E-02 0.  1.
        2   -1    0    0  501    0  0.00000000000E+00  0.00000000000E+00 -0.54752864520E+03  0.54752864521E+03  0.25500000920E-02 0. -1.
    10030    2    1    2    0    0  0.00000000000E+00  0.00000000000E+00 -0.40420012436E+03  0.69085716607E+03  0.56027304359E+03 0.  0.
        5    1    3    3  502    0  0.79530625819E+02  0.64818720931E+02  0.11927508891E+03  0.15740147350E+03  0.46999998093E+01 0.  1.
       -5    1    3    3    0  502 -0.79530625819E+02 -0.64818720931E+02 -0.52347521327E+03  0.53345569257E+03  0.46999998093E+01 0. -1.
</event>
<event>
 5   0  0.1502642E-01  0.6002221E+03  0.7818609E-02  0.9904945E-01
       -2   -1    0    0    0  501  0.00000000000E+00  0.00000000000E+00  0.26899562583E+03  0.26899562584E+03  0.25500000920E-02 0. -1.
        2   -1    0    0  501    0  0.00000000000E+00  0.00000000000E+00 -0.33482567814E+03  0.33482567815E+03  0.25500000920E-02 0.  1.
    10030    2    1    2    0    0  0.00000000000E+00  0.00000000000E+00 -0.65830052312E+02  0.60382130398E+03  0.60022210169E+03 0.  0.
        2    1    3    3  502    0 -0.25439034547E+01  0.26768231137E+03 -0.16939857452E+03  0.31679041703E+03  0.25500000920E-02 0.  1.
       -2    1    3    3    0  502  0.25439034547E+01 -0.26768231137E+03  0.10356852221E+03  0.28703088695E+03  0.25500000920E-02 0. -1.
</event>
<event>
 5   0  0.8860626E-02  0.5921271E+03  0.7818609E-02  0.9921876E-01
       -1   -1    0    0    0  501  0.00000000000E+00  0.00000000000E+00  0.66978934057E+02  0.66978934246E+02  0.50400001928E-02 0. -1.
        1   -1    0    0  501    0  0.00000000000E+00  0.00000000000E+00 -0.13086746406E+04  0.13086746406E+04  0.50400001928E-02 0.  1.
    10030    2    1    2    0    0  0.00000000000E+00  0.00000000000E+00 -0.12416957066E+04  0.13756535749E+04  0.59212712349E+03 0.  0.
        3    1    3    3  502    0  0.20418252220E+03 -0.15760211274E+03 -0.95851541365E+03  0.99261308511E+03  0.10100000352E+00 0.  1.
       -3    1    3    3    0  502 -0.20418252220E+03  0.15760211274E+03 -0.28318029292E+03  0.38304048978E+03  0.10100000352E+00 0. -1.
</event>
<event>
 5   0  0.1532571E-01  0.6032318E+03  0.7818609E-02  0.9898724E-01
        2   -1    0    0  501    0  0.00000000000E+00  0.00000000000E+00  0.18326997515E+03  0.18326997516E+03  0.25500000920E-02 0.  1.
       -2   -1    0    0    0  501  0.00000000000E+00  0.00000000000E+00 -0.49638321873E+03  0.49638321873E+03  0.25500000920E-02 0. -1.
    10030    2    1    2    0    0  0.00000000000E+00  0.00000000000E+00 -0.31311324358E+03  0.67965319390E+03  0.60323176364E+03 0.  0.
        1    1    3    3  502    0 -0.10469434322E+03 -0.26181435389E+02 -0.47388601462E+03  0.48601885553E+03  0.50400001928E-02 0. -1.
       -1    1    3    3    0  502  0.10469434322E+03  0.26181435389E+02  0.16077277104E+03  0.19363433836E+03  0.50400001928E-02 0.  1.
</event>
<event>
 5   0  0.9420349E-02  0.5938853E+03  0.7818609E-02  0.9918174E-01
       -1   -1    0    0    0  501  0.00000000000E+00  0.00000000000E+00  0.58588646191E+03  0.58588646193E+03  0.50400001928E-02 0.  1.
        1   -1    0    0  501    0  0.00000000000E+00  0.00000000000E+00 -0.15049833473E+03  0.15049833482E+03  0.50400001928E-02 0. -1.
    10030    2    1    2    0    0  0.00000000000E+00  0.00000000000E+00  0.43538812718E+03  0.73638479675E+03  0.59388529835E+03 0.  0.
        2    1    3    3  502    0 -0.25932118114E+03 -0.14349140944E+03  0.19490884570E+03  0.35472061924E+03  0.25500000920E-02 0.  1.
       -2    1    3    3    0  502  0.25932118114E+03  0.14349140944E+03  0.24047928147E+03  0.38166417751E+03  0.25500000920E-02 0. -1.
</event>
<event>
 5   0  0.9420349E-02  0.6213089E+03  0.7818609E-02  0.9862157E-01
        1   -1    0    0  501    0  0.00000000000E+00  0.00000000000E+00  0.48597515634E+03  0.48597515636E+03  0.50400001928E-02 0.  1.
       -1   -1    0    0    0  501  0.00000000000E+00  0.00000000000E+00 -0.19858252935E+03  0.19858252942E+03  0.50400001928E-02 0. -1.
    10030    2    1    2    0    0  0.00000000000E+00  0.00000000000E+00  0.28739262698E+03  0.68455768578E+03  0.62130886290E+03 0.  0.
        2    1    3    3  502    0 -0.46358436231E+02  0.14695188228E+03  0.44090086696E+03  0.46705196157E+03  0.25500000920E-02 0.  1.
       -2    1    3    3    0  502  0.46358436231E+02 -0.14695188228E+03 -0.15350823998E+03  0.21750572421E+03  0.25500000920E-02 0. -1.
</event>
<event>
 5   0  0.1513339E-01  0.5985730E+03  0.7818609E-02  0.9908371E-01
       -2   -1    0    0    0  501  0.00000000000E+00  0.00000000000E+00  0.10480136960E+03  0.10480136964E+03  0.25500000920E-02 0. -1.
        2   -1    0    0  501    0  0.00000000000E+00  0.00000000000E+00 -0.85468730395E+03  0.85468730395E+03  0.25500000920E-02 0.  1.
    10030    2    1    2    0    0  0.00000000000E+00  0.00000000000E+00 -0.74988593435E+03  0.95948867359E+03  0.59857296984E+03 0.  0.
        3    1    3    3  502    0  0.16189562279E+03 -0.23931897986E+03 -0.24986457354E+03  0.38198963613E+03  0.10100000352E+00 0. -1.
       -3    1    3    3    0  502 -0.16189562279E+03  0.23931897986E+03 -0.50002136080E+03  0.57749903745E+03  0.10100000352E+00 0.  1.
</event>
<event>
 5   0  0.1488510E-01  0.6866722E+03  0.7818609E-02  0.9740300E-01
        2   -1    0    0  501    0  0.00000000000E+00  0.00000000000E+00  0.14221512540E+04  0.14221512540E+04  0.25500000920E-02 0. -1.
       -2   -1    0    0    0  501  0.00000000000E+00  0.00000000000E+00 -0.82888274893E+02  0.82888274933E+02  0.25500000920E-02 0.  1.
    10030    2    1    2    0    0  0.00000000000E+00  0.00000000000E+00  0.13392629791E+04  0.15050395289E+04  0.68667216082E+03 0.  0.
        5    1    3    3  502    0  0.17609042406E+03  0.20377600021E+03  0.11362562157E+04  0.11677468790E+04  0.46999998093E+01 0. -1.
       -5    1    3    3    0  502 -0.17609042406E+03 -0.20377600021E+03  0.20300676340E+03  0.33729264992E+03  0.46999998093E+01 0.  1.
</event>
<event>
 5   0  0.6170500E-02  0.5780197E+03  0.7818609E-02  0.9952088E-01
        3   -1    0    0  501    0  0.00000000000E+00  0.00000000000E+00  0.93089575799E+03  0.93089576347E+03  0.10100000352E+00 0.  1.
       -3   -1    0    0    0  501  0.00000000000E+00  0.00000000000E+00 -0.89727195331E+02  0.89727252175E+02  0.10100000352E+00 0. -1.
    10030    2    1    2    0    0  0.00000000000E+00  0.00000000000E+00  0.84116856266E+03  0.10206230156E+04  0.57801971355E+03 0.  0.
        2    1    3    3  502    0  0.24129957235E+03 -0.12740093466E+03  0.25242086914E+03  0.37171598964E+03  0.25500000920E-02 0. -1.
       -2    1    3    3    0  502 -0.24129957235E+03  0.12740093466E+03  0.58874769352E+03  0.64890702601E+03  0.25500000920E-02 0.  1.
</event>
<event>
 5   0  0.9497860E-02  0.6040885E+03  0.7818609E-02  0.9896960E-01
       -1   -1    0    0    0  501  0.00000000000E+00  0.00000000000E+00  0.19080839097E+03  0.19080839104E+03  0.50400001928E-02 0. -1.
        1   -1    0    0  501    0  0.00000000000E+00  0.00000000000E+00 -0.47812742325E+03  0.47812742328E+03  0.50400001928E-02 0.  1.
    10030    2    1    2    0    0  0.00000000000E+00  0.00000000000E+00 -0.28731903228E+03  0.66893581432E+03  0.60408848471E+03 0.  0.
        5    1    3    3  502    0 -0.21069966715E+03  0.19434527831E+03 -0.24896934515E+03  0.37970022619E+03  0.46999998093E+01 0.  1.
       -5    1    3    3    0  502  0.21069966715E+03 -0.19434527831E+03 -0.38349687129E+02  0.28923558813E+03  0.46999998093E+01 0. -1.
</event>
<event>
 5   0  0.1488510E-01  0.5793553E+03  0.7818609E-02  0.9949188E-01
       -2   -1    0    0    0  501  0.00000000000E+00  0.00000000000E+00  0.16763558859E+03  0.16763558861E+03  0.25500000920E-02 0. -1.
        2   -1    0    0  501    0  0.00000000000E+00  0.00000000000E+00 -0.50056884837E+03  0.50056884838E+03  0.25500000920E-02 0.  1.
    10030    2    1    2    0    0  0.00000000000E+00  0.00000000000E+00 -0.33293325978E+03  0.66820443698E+03  0.57935534358E+03 0.  0.
        5    1    3    3  502    0 -0.11621458760E+03 -0.12052924998E+03  0.10612139244E+03  0.19828507358E+03  0.46999998093E+01 0. -1.
       -5    1    3    3    0  502  0.11621458760E+03  0.12052924998E+03 -0.43905465222E+03  0.46991936341E+03  0.46999998093E+01 0.  1.
</event>
<event>
 5   0  0.1532571E-01  0.5964414E+03  0.7818609E-02  0.9912817E-01
        2   -1    0    0  501    0  0.00000000000E+00  0.00000000000E+00  0.11315554472E+04  0.11315554472E+04  0.25500000920E-02 0.  1.
       -2   -1    0    0    0  501  0.00000000000E+00  0.00000000000E+00 -0.78595877106E+02  0.78595877147E+02  0.25500000920E-02 0. -1.
    10030    2    1    2    0    0  0.00000000000E+00  0.00000000000E+00  0.10529595701E+04  0.12101513243E+04  0.59644142342E+03 0.  0.
        1    1    3    3  502    0 -0.16931460326E+03  0.23091257997E+03  0.69559682178E+03  0.75222536049E+03  0.50400001928E-02 0.  1.
       -1    1    3    3    0  502  0.16931460326E+03 -0.23091257997E+03  0.35736274831E+03  0.45792596385E+03  0.50400001928E-02 0. -1.
</event>
<event>
 5   0  0.9411028E-02  0.6886966E+03  0.7818609E-02  0.9736760E-01
        1   -1    0    0  501    0  0.00000000000E+00  0.00000000000E+00  0.13912604065E+03  0.13912604074E+03  0.50400001928E-02 0.  1.
       -1   -1    0    0    0  501  0.00000000000E+00  0.00000000000E+00 -0.85229017803E+03  0.85229017804E+03  0.50400001928E-02 0. -1.
    10030    2    1    2    0    0  0.00000000000E+00  0.00000000000E+00 -0.71316413738E+03  0.99141621878E+03  0.68869661827E+03 0.  0.
        4    1    3    3  502    0 -0.23091126686E+03  0.96339298200E+00 -0.72431200683E+03  0.76023051598E+03  0.12699999809E+01 0. -1.
       -4    1    3    3    0  502  0.23091126686E+03 -0.96339298200E+00  0.11147869450E+02  0.23118570281E+03  0.12699999809E+01 0.  1.
</event>
<event>
 5   0  0.6170500E-02  0.6023567E+03  0.7818609E-02  0.9900529E-01
       -3   -1    0    0    0  501  0.00000000000E+00  0.00000000000E+00  0.25430826382E+03  0.25430828388E+03  0.10100000352E+00 0. -1.
        3   -1    0    0  501    0  0.00000000000E+00  0.00000000000E+00 -0.35668674814E+03  0.35668676244E+03  0.10100000352E+00 0.  1.
    10030    2    1    2    0    0  0.00000000000E+00  0.00000000000E+00 -0.10237848432E+03  0.61099504632E+03  0.60235669879E+03 0.  0.
        1    1    3    3  502    0  0.13133748777E+03 -0.12314416127E+03  0.19371554871E+03  0.26446121453E+03  0.50400001928E-02 0. -1.
       -1    1    3    3    0  502 -0.13133748777E+03  0.12314416127E+03 -0.29609403304E+03  0.34653383179E+03  0.50400001928E-02 0.  1.
</event>
<event>
 5   0  0.9497860E-02  0.5666809E+03  0.7818609E-02  0.9977050E-01
       -1   -1    0    0    0  501  0.00000000000E+00  0.00000000000E+00  0.26329379636E+03  0.26329379641E+03  0.50400001928E-02 0. -1.
        1   -1    0    0  501    0  0.00000000000E+00  0.00000000000E+00 -0.30491339664E+03  0.30491339668E+03  0.50400001928E-02 0.  1.
    10030    2    1    2    0    0  0.00000000000E+00  0.00000000000E+00 -0.41619600283E+02  0.56820719309E+03  0.56668088300E+03 0.  0.
        5    1    3    3  502    0  0.15111538706E+03  0.16358031693E+03  0.15477706516E+03  0.27124234587E+03  0.46999998093E+01 0. -1.
       -5    1    3    3    0  502 -0.15111538706E+03 -0.16358031693E+03 -0.19639666545E+03  0.29696484723E+03  0.46999998093E+01 0.  1.
</event>
<event>
 5   0  0.1488510E-01  0.6129921E+03  0.7818609E-02  0.9878812E-01
       -2   -1    0    0    0  501  0.00000000000E+00  0.00000000000E+00  0.50364699668E+03  0.50364699668E+03  0.25500000920E-02 0. -1.
        2   -1    0    0  501    0  0.00000000000E+00  0.00000000000E+00 -0.18651916794E+03  0.18651916796E+03  0.25500000920E-02 0.  1.
    10030    2    1    2    0    0  0.00000000000E+00  0.00000000000E+00  0.31712782873E+03  0.69016616464E+03  0.61299206770E+03 0.  0.
        5    1    3    3  502    0  0.26082014612E+03  0.81922251349E+02  0.26390167951E+01  0.27343638802E+03  0.46999998093E+01 0.  1.
       -5    1    3    3    0  502 -0.26082014612E+03 -0.81922251349E+02  0.31448881194E+03  0.41672977662E+03  0.46999998093E+01 0. -1.
</event>
<event>
 5   0  0.1502642E-01  0.5971879E+03  0.7818609E-02  0.9911258E-01
       -2   -1    0    0    0  501  0.00000000000E+00  0.00000000000E+00  0.91127565970E+02  0.91127566006E+02  0.25500000920E-02 0. -1.
        2   -1    0    0  501    0  0.00000000000E+00  0.00000000000E+00 -0.97839044338E+03  0.97839044338E+03  0.25500000920E-02 0.  1.
    10030    2    1    2    0    0  0.00000000000E+00  0.00000000000E+00 -0.88726287741E+03  0.10695180094E+04  0.59718787561E+03 0.  0.
        2    1    3    3  502    0  0.24759917773E+03 -0.22775456323E+02 -0.73972626843E+03  0.78039671094E+03  0.25500000920E-02 0.  1.
       -2    1    3    3    0  502 -0.24759917773E+03  0.22775456323E+02 -0.14753660898E+03  0.28912129845E+03  0.25500000920E-02 0. -1.
</event>
<event>
 5   0  0.1513339E-01  0.6094608E+03  0.7818609E-02  0.9885970E-01
        2   -1    0    0  501    0  0.00000000000E+00  0.00000000000E+00  0.19544057467E+04  0.19544057467E+04  0.25500000920E-02 0.  1.
       -2   -1    0    0    0  501  0.00000000000E+00  0.00000000000E+00 -0.47513483296E+02  0.47513483364E+02  0.25500000920E-02 0. -1.
    10030    2    1    2    0    0  0.00000000000E+00  0.00000000000E+00  0.19068922634E+04  0.20019192301E+04  0.60946082686E+03 0.  0.
        3    1    3    3  502    0  0.76487905367E+02 -0.20996186037E+03  0.16339994251E+04  0.16492084507E+04  0.10100000352E+00 0.  1.
       -3    1    3    3    0  502 -0.76487905367E+02  0.20996186037E+03  0.27289283833E+03  0.35271077938E+03  0.10100000352E+00 0. -1.
</event>
<event>
 5   0  0.9177281E-02  0.6012281E+03  0.7818609E-02  0.9902861E-01
       -1   -1    0    0    0  501  0.00000000000E+00  0.00000000000E+00  0.22649776067E+03  0.22649776073E+03  0.50400001928E-02 0. -1.
        1   -1    0    0  501    0  0.00000000000E+00  0.00000000000E+00 -0.39898324558E+03  0.39898324561E+03  0.50400001928E-02 0.  1.
    10030    2    1    2    0    0  0.00000000000E+00  0.00000000000E+00 -0.17248548491E+03  0.62548100634E+03  0.60122811543E+03 0.  0.
        1    1    3    3  502    0 -0.12186327348E+02  0.27652452811E+03 -0.20825321182E+03  0.34638666470E+03  0.50400001928E-02 0.  1.
       -1    1    3    3    0  502  0.12186327348E+02 -0.27652452811E+03  0.35767726911E+02  0.27909434164E+03  0.50400001928E-02 0. -1.
</event>
<event>
 5   0  0.1513339E-01  0.5859607E+03  0.7818609E-02  0.9934969E-01
       -2   -1    0    0    0  501  0.00000000000E+00  0.00000000000E+00  0.17779166290E+03  0.17779166292E+03  0.25500000920E-02 0. -1.
        2   -1    0    0  501    0  0.00000000000E+00  0.00000000000E+00 -0.48279814271E+03  0.48279814272E+03  0.25500000920E-02 0.  1.
    10030    2    1    2    0    0  0.00000000000E+00  0.00000000000E+00 -0.30500647981E+03  0.66058980564E+03  0.58596069714E+03 0.  0.
        3    1    3    3  502    0  0.19100663275E+03 -0.20971743858E+03 -0.69870324863E+02  0.29214176404E+03  0.10100000352E+00 0. -1.
       -3    1    3    3    0  502 -0.19100663275E+03  0.20971743858E+03 -0.23513615494E+03  0.36844804160E+03  0.10100000352E+00 0.  1.
</event>
<event>
 5   0  0.1488510E-01  0.5879984E+03  0.7818609E-02  0.9930623E-01
        2   -1    0    0  501    0  0.00000000000E+00  0.00000000000E+00  0.10889722540E+04  0.10889722540E+04  0.25500000920E-02 0. -1.
       -2   -1    0    0    0  501  0.00000000000E+00  0.00000000000E+00 -0.79373497168E+02  0.79373497209E+02  0.25500000920E-02 0.  1.
    10030    2    1    2    0    0  0.00000000000E+00  0.00000000000E+00  0.10095987568E+04  0.11683457512E+04  0.58799842226E+03 0.  0.
        5    1    3    3  502    0  0.18481512259E+03  0.12237512208E+03  0.12114527260E+03  0.25264711974E+03  0.46999998093E+01 0.  1.
       -5    1    3    3    0  502 -0.18481512259E+03 -0.12237512208E+03  0.88845348423E+03  0.91569863147E+03  0.46999998093E+01 0. -1.
</event>
<event>
 5   0  0.9411028E-02  0.6007252E+03  0.7818609E-02  0.9903903E-01
       -1   -1    0    0    0  501  0.00000000000E+00  0.00000000000E+00  0.90020904496E+02  0.90020904637E+02  0.50400001928E-02 0.  1.
        1   -1    0    0  501    0  0.00000000000E+00  0.00000000000E+00 -0.10021859123E+04  0.10021859123E+04  0.50400001928E-02 0. -1.
    10030    2    1    2    0    0  0.00000000000E+00  0.00000000000E+00 -0.91216500783E+03  0.10922068170E+04  0.60072516972E+03 0.  0.
        4    1    3    3  502    0  0.10326971317E+03  0.54552379799E+01  0.56627530163E+02  0.11790964062E+03  0.12699999809E+01 0.  1.
       -4    1    3    3    0  502 -0.10326971317E+03 -0.54552379799E+01 -0.96879253799E+03  0.97429717635E+03  0.12699999809E+01 0. -1.
</event>
<event>
 5   0  0.6170500E-02  0.5958893E+03  0.7818609E-02  0.9913971E-01
       -4   -1    0    0    0  501  0.00000000000E+00  0.00000000000E+00  0.51631900124E+03  0.51632056316E+03  0.12699999809E+01 0.  1.
        4   -1    0    0  501    0  0.00000000000E+00  0.00000000000E+00 -0.17192641978E+03  0.17193111038E+03  0.12699999809E+01 0. -1.
    10030    2    1    2    0    0  0.00000000000E+00  0.00000000000E+00  0.34439258146E+03  0.68825167354E+03  0.59588934876E+03 0.  0.
        3    1    3    3  502    0  0.14554089007E+02  0.84028720455E+02  0.50192451109E+03  0.50911773923E+03  0.10100000352E+00 0.  1.
       -3    1    3    3    0  502 -0.14554089007E+02 -0.84028720455E+02 -0.15753192963E+03  0.17913393431E+03  0.10100000352E+00 0. -1.
</event>
<event>
 5   0  0.1483942E-01  0.5492716E+03  0.7818609E-02  0.1001663E+00
        2   -1    0    0  501    0  0.00000000000E+00  0.00000000000E+00  0.54860775539E+03  0.54860775539E+03  0.25500000920E-02 0.  1.
       -2   -1    0    0    0  501  0.00000000000E+00  0.00000000000E+00 -0.13748405312E+03  0.13748405314E+03  0.25500000920E-02 0. -1.
    10030    2    1    2    0    0  0.00000000000E+00  0.00000000000E+00  0.41112370227E+03  0.68609180853E+03  0.54927158234E+03 0.  0.
        4    1    3    3  502    0  0.16076258992E+03 -0.22072558769E+03  0.16895658848E+03  0.32111109771E+03  0.12699999809E+01 0. -1.
       -4    1    3    3    0  502 -0.16076258992E+03  0.22072558769E+03  0.24216711379E+03  0.36498071083E+03  0.12699999809E+01 0.  1.
</event>
<event>
 5   0  0.1483942E-01  0.5512121E+03  0.7818609E-02  0.1001214E+00
        2   -1    0    0  501    0  0.00000000000E+00  0.00000000000E+00  0.56489605495E+03  0.56489605496E+03  0.25500000920E-02 0. -1.
       -2   -1    0    0    0  501  0.00000000000E+00  0.00000000000E+00 -0.13446492691E+03  0.13446492694E+03  0.25500000920E-02 0.  1.
    10030    2    1    2    0    0  0.00000000000E+00  0.00000000000E+00  0.43043112804E+03  0.69936098189E+03  0.55121214338E+03 0.  0.
        4    1    3    3  502    0  0.15554870279E+03  0.15457555686E+02  0.50320872677E+03  0.52692975867E+03  0.12699999809E+01 0. -1.
       -4    1    3    3    0  502 -0.15554870279E+03 -0.15457555686E+02 -0.72777598729E+02  0.17243122323E+03  0.12699999809E+01 0.  1.
</event>
<event>
 5   0  0.1502642E-01  0.6055395E+03  0.7818609E-02  0.9893979E-01
       -2   -1    0    0    0  501  0.00000000000E+00  0.00000000000E+00  0.32421391802E+03  0.32421391803E+03  0.25500000920E-02 0.  1.
        2   -1    0    0  501    0  0.00000000000E+00  0.00000000000E+00 -0.28274396955E+03  0.28274396956E+03  0.25500000920E-02 0. -1.
    10030    2    1    2    0    0  0.00000000000E+00  0.00000000000E+00  0.41469948477E+02  0.60695788759E+03  0.60553952859E+03 0.  0.
        2    1    3    3  502    0 -0.24373691815E+03 -0.13512820987E+03  0.13934308335E+03  0.31158275507E+03  0.25500000920E-02 0.  1.
       -2    1    3    3    0  502  0.24373691815E+03  0.13512820987E+03 -0.97873134873E+02  0.29537513252E+03  0.25500000920E-02 0. -1.
</event>
<event>
 5   0  0.1532571E-01  0.5986904E+03  0.7818609E-02  0.9908127E-01
       -2   -1    0    0    0  501  0.00000000000E+00  0.00000000000E+00  0.95087277856E+02  0.95087277890E+02  0.25500000920E-02 0.  1.
        2   -1    0    0  501    0  0.00000000000E+00  0.00000000000E+00 -0.94237147474E+03  0.94237147475E+03  0.25500000920E-02 0. -1.
    10030    2    1    2    0    0  0.00000000000E+00  0.00000000000E+00 -0.84728419689E+03  0.10374587526E+04  0.59869036499E+03 0.  0.
        1    1    3    3  502    0 -0.16870299843E+02  0.26784581208E+03 -0.19387005995E+03  0.33107640543E+03  0.50400001928E-02 0.  1.
       -1    1    3    3    0  502  0.16870299843E+02 -0.26784581208E+03 -0.65341413694E+03  0.70638234720E+03  0.50400001928E-02 0. -1.
</event>
<event>
 5   0  0.1483942E-01  0.5287915E+03  0.7818609E-02  0.1006526E+00
       -2   -1    0    0    0  501  0.00000000000E+00  0.00000000000E+00  0.61624669310E+02  0.61624669363E+02  0.25500000920E-02 0.  1.
        2   -1    0    0  501    0  0.00000000000E+00  0.00000000000E+00 -0.11343690508E+04  0.11343690508E+04  0.25500000920E-02 0. -1.
    10030    2    1    2    0    0  0.00000000000E+00  0.00000000000E+00 -0.10727443815E+04  0.11959937201E+04  0.52879151908E+03 0.  0.
        4    1    3    3  502    0  0.14671135527E+03 -0.15805262865E+03 -0.88234328467E+03  0.90831500047E+03  0.12699999809E+01 0. -1.
       -4    1    3    3    0  502 -0.14671135527E+03  0.15805262865E+03 -0.19040109680E+03  0.28767871967E+03  0.12699999809E+01 0.  1.
</event>
<event>
 5   0  0.6170500E-02  0.3876991E+03  0.7818609E-02  0.1048124E+00
        3   -1    0    0  501    0  0.00000000000E+00  0.00000000000E+00  0.50603605130E+02  0.50603705923E+02  0.10100000352E+00 0.  1.
       -3   -1    0    0    0  501  0.00000000000E+00  0.00000000000E+00 -0.74258746830E+03  0.74258747517E+03  0.10100000352E+00 0. -1.
    10030    2    1    2    0    0  0.00000000000E+00  0.00000000000E+00 -0.69198386317E+03  0.79319118109E+03  0.38769908805E+03 0.  0.
        5    1    3    3  502    0 -0.17828494437E+03  0.72701522811E+02 -0.30095795923E+03  0.35730773296E+03  0.46999998093E+01 0. -1.
       -5    1    3    3    0  502  0.17828494437E+03 -0.72701522811E+02 -0.39102590394E+03  0.43588344814E+03  0.46999998093E+01 0.  1.
</event>
<event>
 5   0  0.1513339E-01  0.5156331E+03  0.7818609E-02  0.1009777E+00
        2   -1    0    0  501    0  0.00000000000E+00  0.00000000000E+00  0.33845358563E+03  0.33845358563E+03  0.25500000920E-02 0.  1.
       -2   -1    0    0    0  501  0.00000000000E+00  0.00000000000E+00 -0.19639141372E+03  0.19639141374E+03  0.25500000920E-02 0. -1.
    10030    2    1    2    0    0  0.00000000000E+00  0.00000000000E+00  0.14206217190E+03  0.53484499937E+03  0.51563311828E+03 0.  0.
        3    1    3    3  502    0 -0.15468330722E+03 -0.94344101097E+02 -0.11921935435E+03  0.21688937180E+03  0.10100000352E+00 0. -1.
       -3    1    3    3    0  502  0.15468330722E+03  0.94344101097E+02  0.26128152625E+03  0.31795562758E+03  0.10100000352E+00 0.  1.
</event>
<event>
 5   0  0.6170500E-02  0.5952692E+03  0.7818609E-02  0.9915270E-01
        3   -1    0    0  501    0  0.00000000000E+00  0.00000000000E+00  0.48740533800E+03  0.48740534846E+03  0.10100000352E+00 0.  1.
       -3   -1    0    0    0  501  0.00000000000E+00  0.00000000000E+00 -0.18175085551E+03  0.18175088358E+03  0.10100000352E+00 0. -1.
    10030    2    1    2    0    0  0.00000000000E+00  0.00000000000E+00  0.30565448248E+03  0.66915623204E+03  0.59526918299E+03 0.  0.
        4    1    3    3  502    0  0.23165064165E+03 -0.12437907946E+03 -0.39570442156E+01  0.26296282300E+03  0.12699999809E+01 0. -1.
       -4    1    3    3    0  502 -0.23165064165E+03  0.12437907946E+03  0.30961152670E+03  0.40619340904E+03  0.12699999809E+01 0.  1.
</event>
<event>
 5   0  0.9177281E-02  0.5940089E+03  0.7818609E-02  0.9917914E-01
        1   -1    0    0  501    0  0.00000000000E+00  0.00000000000E+00  0.84063565062E+03  0.84063565063E+03  0.50400001928E-02 0.  1.
       -1   -1    0    0    0  501  0.00000000000E+00  0.00000000000E+00 -0.10493443944E+03  0.10493443956E+03  0.50400001928E-02 0. -1.
    10030    2    1    2    0    0  0.00000000000E+00  0.00000000000E+00  0.73570121118E+03  0.94557009019E+03  0.59400885796E+03 0.  0.
        1    1    3    3  502    0 -0.16425174898E+03 -0.11713090972E+03  0.71483392914E+03  0.74275556769E+03  0.50400001928E-02 0.  1.
       -1    1    3    3    0  502  0.16425174898E+03  0.11713090972E+03  0.20867282043E+02  0.20281452251E+03  0.50400001928E-02 0. -1.
</event>
<event>
 5   0  0.9177281E-02  0.5825590E+03  0.7818609E-02  0.9942266E-01
        1   -1    0    0  501    0  0.00000000000E+00  0.00000000000E+00  0.20188478914E+03  0.20188478920E+03  0.50400001928E-02 0. -1.
       -1   -1    0    0    0  501  0.00000000000E+00  0.00000000000E+00 -0.42025829075E+03  0.42025829078E+03  0.50400001928E-02 0.  1.
    10030    2    1    2    0    0  0.00000000000E+00  0.00000000000E+00 -0.21837350162E+03  0.62214307999E+03  0.58255903200E+03 0.  0.
        1    1    3    3  502    0  0.12817716214E+03 -0.20172489623E+03 -0.28699758133E+03  0.37348350749E+03  0.50400001928E-02 0.  1.
       -1    1    3    3    0  502 -0.12817716214E+03  0.20172489623E+03  0.68624079711E+02  0.24865957250E+03  0.50400001928E-02 0. -1.
</event>
<event>
 5   0  0.9411028E-02  0.5751576E+03  0.7818609E-02  0.9958330E-01
        1   -1    0    0  501    0  0.00000000000E+00  0.00000000000E+00  0.14085795945E+03  0.14085795954E+03  0.50400001928E-02 0.  1.
       -1   -1    0    0    0  501  0.00000000000E+00  0.00000000000E+00 -0.58712743786E+03  0.58712743788E+03  0.50400001928E-02 0. -1.
    10030    2    1    2    0    0  0.00000000000E+00  0.00000000000E+00 -0.44626947841E+03  0.72798539742E+03  0.57515762318E+03 0.  0.
        4    1    3    3  502    0 -0.71687035139E+02  0.50231552508E+01  0.12930643129E+03  0.14793927527E+03  0.12699999809E+01 0.  1.
       -4    1    3    3    0  502  0.71687035139E+02 -0.50231552508E+01 -0.57557590970E+03  0.58004612215E+03  0.12699999809E+01 0. -1.
</event>
<event>
 5   0  0.9177281E-02  0.6605140E+03  0.7818609E-02  0.9787248E-01
       -1   -1    0    0    0  501  0.00000000000E+00  0.00000000000E+00  0.22427521593E+03  0.22427521599E+03  0.50400001928E-02 0. -1.
        1   -1    0    0  501    0  0.00000000000E+00  0.00000000000E+00 -0.48632067169E+03  0.48632067171E+03  0.50400001928E-02 0.  1.
    10030    2    1    2    0    0  0.00000000000E+00  0.00000000000E+00 -0.26204545576E+03  0.71059588770E+03  0.66051396256E+03 0.  0.
        1    1    3    3  502    0  0.25936594318E+03 -0.28053664930E+02 -0.34889201832E+03  0.43564129863E+03  0.50400001928E-02 0.  1.
       -1    1    3    3    0  502 -0.25936594318E+03  0.28053664930E+02  0.86846562558E+02  0.27495458907E+03  0.50400001928E-02 0. -1.
</event>
<event>
 5   0  0.1532571E-01  0.6208450E+03  0.7818609E-02  0.9863079E-01
        2   -1    0    0  501    0  0.00000000000E+00  0.00000000000E+00  0.16823225790E+04  0.16823225790E+04  0.25500000920E-02 0.  1.
       -2   -1    0    0    0  501  0.00000000000E+00  0.00000000000E+00 -0.57279220040E+02  0.57279220097E+02  0.25500000920E-02 0. -1.
    10030    2    1    2    0    0  0.00000000000E+00  0.00000000000E+00  0.16250433589E+04  0.17396017991E+04  0.62084498945E+03 0.  0.
        1    1    3    3  502    0  0.25805748293E+03 -0.90167665591E+02  0.40035036550E+03  0.48477240804E+03  0.50400001928E-02 0. -1.
       -1    1    3    3    0  502 -0.25805748293E+03  0.90167665591E+02  0.12246929934E+04  0.12548293910E+04  0.50400001928E-02 0.  1.
</event>
<event>
 5   0  0.1483942E-01  0.5954584E+03  0.7818609E-02  0.9914873E-01
       -2   -1    0    0    0  501  0.00000000000E+00  0.00000000000E+00  0.33765977421E+03  0.33765977422E+03  0.25500000920E-02 0. -1.
        2   -1    0    0  501    0  0.00000000000E+00  0.00000000000E+00 -0.26252072881E+03  0.26252072882E+03  0.25500000920E-02 0.  1.
    10030    2    1    2    0    0  0.00000000000E+00  0.00000000000E+00  0.75139045403E+02  0.60018050304E+03  0.59545844531E+03 0.  0.
        4    1    3    3  502    0 -0.12206035200E+02  0.14927012273E+03 -0.22178505886E+03  0.26762059351E+03  0.12699999809E+01 0.  1.
       -4    1    3    3    0  502  0.12206035200E+02 -0.14927012273E+03  0.29692410426E+03  0.33255990953E+03  0.12699999809E+01 0. -1.
</event>
<event>
 5   0  0.1502642E-01  0.5879734E+03  0.7818609E-02  0.9930676E-01
       -2   -1    0    0    0  501  0.00000000000E+00  0.00000000000E+00  0.13428539513E+03  0.13428539515E+03  0.25500000920E-02 0. -1.
        2   -1    0    0  501    0  0.00000000000E+00  0.00000000000E+00 -0.64361553556E+03  0.64361553556E+03  0.25500000920E-02 0.  1.
    10030    2    1    2    0    0  0.00000000000E+00  0.00000000000E+00 -0.50933014043E+03  0.77790093072E+03  0.58797335489E+03 0.  0.
        2    1    3    3  502    0 -0.19544737682E+02  0.74823988269E+02  0.12058694311E+03  0.14325444791E+03  0.25500000920E-02 0. -1.
       -2    1    3    3    0  502  0.19544737682E+02 -0.74823988269E+02 -0.62991708354E+03  0.63464648280E+03  0.25500000920E-02 0.  1.
</event>
<event>
 5   0  0.9497860E-02  0.6017978E+03  0.7818609E-02  0.9901683E-01
        1   -1    0    0  501    0  0.00000000000E+00  0.00000000000E+00  0.11076574870E+04  0.11076574870E+04  0.50400001928E-02 0. -1.
       -1   -1    0    0    0  501  0.00000000000E+00  0.00000000000E+00 -0.81740198276E+02  0.81740198432E+02  0.50400001928E-02 0.  1.
    10030    2    1    2    0    0  0.00000000000E+00  0.00000000000E+00  0.10259172887E+04  0.11893976855E+04  0.60179778235E+03 0.  0.
        5    1    3    3  502    0  0.15184901997E+03 -0.25893262600E+03  0.55316399350E+03  0.62937804488E+03  0.46999998093E+01 0.  1.
       -5    1    3    3    0  502 -0.15184901997E+03  0.25893262600E+03  0.47275329525E+03  0.56001964058E+03  0.46999998093E+01 0. -1.
</event>
<event>
 5   0  0.8860626E-02  0.6050515E+03  0.7818609E-02  0.9894981E-01
       -1   -1    0    0    0  501  0.00000000000E+00  0.00000000000E+00  0.18934206874E+03  0.18934206880E+03  0.50400001928E-02 0.  1.
        1   -1    0    0  501    0  0.00000000000E+00  0.00000000000E+00 -0.48336768641E+03  0.48336768643E+03  0.50400001928E-02 0. -1.
    10030    2    1    2    0    0  0.00000000000E+00  0.00000000000E+00 -0.29402561767E+03  0.67270975524E+03  0.60505152751E+03 0.  0.
        3    1    3    3  502    0  0.19121204167E+03 -0.33344327542E+02  0.11098730916E+03  0.22358909199E+03  0.10100000352E+00 0.  1.
       -3    1    3    3    0  502 -0.19121204167E+03  0.33344327542E+02 -0.40501292683E+03  0.44912066325E+03  0.10100000352E+00 0. -1.
</event>
<event>
 5   0  0.1532571E-01  0.6261720E+03  0.7818609E-02  0.9852548E-01
       -2   -1    0    0    0  501  0.00000000000E+00  0.00000000000E+00  0.16693792355E+03  0.16693792357E+03  0.25500000920E-02 0. -1.
        2   -1    0    0  501    0  0.00000000000E+00  0.00000000000E+00 -0.58718135123E+03  0.58718135124E+03  0.25500000920E-02 0.  1.
    10030    2    1    2    0    0  0.00000000000E+00  0.00000000000E+00 -0.42024342768E+03  0.75411927480E+03  0.62617197487E+03 0.  0.
        1    1    3    3  502    0  0.21530918335E+02 -0.98485301134E+02 -0.56709997396E+03  0.57599072517E+03  0.50400001928E-02 0.  1.
       -1    1    3    3    0  502 -0.21530918335E+02  0.98485301134E+02  0.14685654628E+03  0.17812854963E+03  0.50400001928E-02 0. -1.
</event>
<event>
 5   0  0.6170500E-02  0.6555373E+03  0.7818609E-02  0.9796444E-01
       -3   -1    0    0    0  501  0.00000000000E+00  0.00000000000E+00  0.10261100416E+04  0.10261100466E+04  0.10100000352E+00 0. -1.
        3   -1    0    0  501    0  0.00000000000E+00  0.00000000000E+00 -0.10469858050E+03  0.10469862922E+03  0.10100000352E+00 0.  1.
    10030    2    1    2    0    0  0.00000000000E+00  0.00000000000E+00  0.92141146109E+03  0.11308086758E+04  0.65553732204E+03 0.  0.
        5    1    3    3  502    0  0.18906472270E+03  0.26428222054E+03  0.53428998376E+03  0.62536264535E+03  0.46999998093E+01 0. -1.
       -5    1    3    3    0  502 -0.18906472270E+03 -0.26428222054E+03  0.38712147733E+03  0.50544603042E+03  0.46999998093E+01 0.  1.
</event>
<event>
 5   0  0.9411028E-02  0.6114017E+03  0.7818609E-02  0.9882030E-01
       -1   -1    0    0    0  501  0.00000000000E+00  0.00000000000E+00  0.25464476193E+03  0.25464476198E+03  0.50400001928E-02 0.  1.
        1   -1    0    0  501    0  0.00000000000E+00  0.00000000000E+00 -0.36699359246E+03  0.36699359250E+03  0.50400001928E-02 0. -1.
    10030    2    1    2    0    0  0.00000000000E+00  0.00000000000E+00 -0.11234883053E+03  0.62163835448E+03  0.61140165525E+03 0.  0.
        4    1    3    3  502    0 -0.41802450879E+02  0.13942603596E+03  0.21714667743E+03  0.26142179868E+03  0.12699999809E+01 0.  1.
       -4    1    3    3    0  502  0.41802450879E+02 -0.13942603596E+03 -0.32949550797E+03  0.36021655580E+03  0.12699999809E+01 0. -1.
</event>
<event>
 5   0  0.9177281E-02  0.6149274E+03  0.7818609E-02  0.9874911E-01
        1   -1    0    0  501    0  0.00000000000E+00  0.00000000000E+00  0.50618532551E+03  0.50618532553E+03  0.50400001928E-02 0. -1.
       -1   -1    0    0    0  501  0.00000000000E+00  0.00000000000E+00 -0.18675755694E+03  0.18675755700E+03  0.50400001928E-02 0.  1.
    10030    2    1    2    0    0  0.00000000000E+00  0.00000000000E+00  0.31942776857E+03  0.69294288254E+03  0.61492742590E+03 0.  0.
        1    1    3    3  502    0  0.18269258627E+03  0.20332035871E+03  0.31835126072E+03  0.41959894491E+03  0.50400001928E-02 0. -1.
       -1    1    3    3    0  502 -0.18269258627E+03 -0.20332035871E+03  0.10765078540E+01  0.27334393763E+03  0.50400001928E-02 0.  1.
</event>
<event>
 5   0  0.9177281E-02  0.6072419E+03  0.7818609E-02  0.9890494E-01
        1   -1    0    0  501    0  0.00000000000E+00  0.00000000000E+00  0.47830426824E+03  0.47830426826E+03  0.50400001928E-02 0. -1.
       -1   -1    0    0    0  501  0.00000000000E+00  0.00000000000E+00 -0.19273440407E+03  0.19273440414E+03  0.50400001928E-02 0.  1.
    10030    2    1    2    0    0  0.00000000000E+00  0.00000000000E+00  0.28556986416E+03  0.67103867240E+03  0.60724192258E+03 0.  0.
        1    1    3    3  502    0 -0.29857051077E+03  0.52560216833E+02  0.12433467412E+03  0.32766757165E+03  0.50400001928E-02 0.  1.
       -1    1    3    3    0  502  0.29857051077E+03 -0.52560216833E+02  0.16123519004E+03  0.34337110075E+03  0.50400001928E-02 0. -1.
</event>
<event>
 5   0  0.6170500E-02  0.5834410E+03  0.7818609E-02  0.9940369E-01
       -3   -1    0    0    0  501  0.00000000000E+00  0.00000000000E+00  0.46465380344E+03  0.46465381442E+03  0.10100000352E+00 0. -1.
        3   -1    0    0  501    0  0.00000000000E+00  0.00000000000E+00 -0.18314890232E+03  0.18314893017E+03  0.10100000352E+00 0.  1.
    10030    2    1    2    0    0  0.00000000000E+00  0.00000000000E+00  0.28150490112E+03  0.64780274458E+03  0.58344098805E+03 0.  0.
        2    1    3    3  502    0  0.27577174709E+03  0.33668506575E+02  0.41958067503E+02  0.28096993480E+03  0.25500000920E-02 0.  1.
       -2    1    3    3    0  502 -0.27577174709E+03 -0.33668506575E+02  0.23954683362E+03  0.36683280978E+03  0.25500000920E-02 0. -1.
</event>
<event>
 5   0  0.9497860E-02  0.6016318E+03  0.7818609E-02  0.9902026E-01
        1   -1    0    0  501    0  0.00000000000E+00  0.00000000000E+00  0.22225142003E+03  0.22225142009E+03  0.50400001928E-02 0.  1.
       -1   -1    0    0    0  501  0.00000000000E+00  0.00000000000E+00 -0.40715248966E+03  0.40715248969E+03  0.50400001928E-02 0. -1.
    10030    2    1    2    0    0  0.00000000000E+00  0.00000000000E+00 -0.18490106963E+03  0.62940390978E+03  0.60163184431E+03 0.  0.
        5    1    3    3  502    0  0.36435362885E+02  0.43847907600E+02  0.21650897627E+03  0.22393838767E+03  0.46999998093E+01 0.  1.
       -5    1    3    3    0  502 -0.36435362885E+02 -0.43847907600E+02 -0.40141004590E+03  0.40546552211E+03  0.46999998093E+01 0. -1.
</event>
<event>
 5   0  0.8860626E-02  0.5972837E+03  0.7818609E-02  0.9911058E-01
       -1   -1    0    0    0  501  0.00000000000E+00  0.00000000000E+00  0.15298039893E+03  0.15298039902E+03  0.50400001928E-02 0. -1.
        1   -1    0    0  501    0  0.00000000000E+00  0.00000000000E+00 -0.58299595471E+03  0.58299595474E+03  0.50400001928E-02 0.  1.
    10030    2    1    2    0    0  0.00000000000E+00  0.00000000000E+00 -0.43001555578E+03  0.73597635375E+03  0.59728369731E+03 0.  0.
        3    1    3    3  502    0 -0.88869676531E+02  0.41961828407E+02 -0.56249923259E+03  0.57102014965E+03  0.10100000352E+00 0.  1.
       -3    1    3    3    0  502  0.88869676531E+02 -0.41961828407E+02  0.13248367681E+03  0.16495620410E+03  0.10100000352E+00 0. -1.
</event>
<event>
 5   0  0.1483942E-01  0.6108535E+03  0.7818609E-02  0.9883141E-01
        2   -1    0    0  501    0  0.00000000000E+00  0.00000000000E+00  0.78460035490E+03  0.78460035491E+03  0.25500000920E-02 0.  1.
       -2   -1    0    0    0  501  0.00000000000E+00  0.00000000000E+00 -0.11889555449E+03  0.11889555451E+03  0.25500000920E-02 0. -1.
    10030    2    1    2    0    0  0.00000000000E+00  0.00000000000E+00  0.66570480042E+03  0.90349590942E+03  0.61085348247E+03 0.  0.
        4    1    3    3  502    0  0.20237468866E+03 -0.60154418851E+02  0.65928788795E+03  0.69226887899E+03  0.12699999809E+01 0.  1.
       -4    1    3    3    0  502 -0.20237468866E+03  0.60154418851E+02  0.64169124665E+01  0.21122703043E+03  0.12699999809E+01 0. -1.
</event>
<event>
 5   0  0.1532571E-01  0.6569180E+03  0.7818609E-02  0.9793884E-01
        2   -1    0    0  501    0  0.00000000000E+00  0.00000000000E+00  0.34945156497E+03  0.34945156498E+03  0.25500000920E-02 0.  1.
       -2   -1    0    0    0  501  0.00000000000E+00  0.00000000000E+00 -0.30872747986E+03  0.30872747987E+03  0.25500000920E-02 0. -1.
    10030    2    1    2    0    0  0.00000000000E+00  0.00000000000E+00  0.40724085109E+02  0.65817904485E+03  0.65691795832E+03 0.  0.
        1    1    3    3  502    0  0.24655859057E+03  0.20586638535E+03 -0.48422454146E+02  0.32483355937E+03  0.50400001928E-02 0. -1.
       -1    1    3    3    0  502 -0.24655859057E+03 -0.20586638535E+03  0.89146539255E+02  0.33334548548E+03  0.50400001928E-02 0.  1.
</event>
<event>
 5   0  0.9411028E-02  0.6522657E+03  0.7818609E-02  0.9802537E-01
       -1   -1    0    0    0  501  0.00000000000E+00  0.00000000000E+00  0.42973565089E+03  0.42973565092E+03  0.50400001928E-02 0. -1.
        1   -1    0    0  501    0  0.00000000000E+00  0.00000000000E+00 -0.24750715057E+03  0.24750715062E+03  0.50400001928E-02 0.  1.
    10030    2    1    2    0    0  0.00000000000E+00  0.00000000000E+00  0.18222850032E+03  0.67724280155E+03  0.65226573259E+03 0.  0.
        4    1    3    3  502    0 -0.29759580829E+03  0.12519217206E+03  0.43254825860E+02  0.32574366904E+03  0.12699999809E+01 0.  1.
       -4    1    3    3    0  502  0.29759580829E+03 -0.12519217206E+03  0.13897367446E+03  0.35149913250E+03  0.12699999809E+01 0. -1.
</event>
<event>
 5   0  0.1488510E-01  0.6372155E+03  0.7818609E-02  0.9831069E-01
        2   -1    0    0  501    0  0.00000000000E+00  0.00000000000E+00  0.12355405553E+04  0.12355405553E+04  0.25500000920E-02 0.  1.
       -2   -1    0    0    0  501  0.00000000000E+00  0.00000000000E+00 -0.82159090656E+02  0.82159090696E+02  0.25500000920E-02 0. -1.
    10030    2    1    2    0    0  0.00000000000E+00  0.00000000000E+00  0.11533814647E+04  0.13176996460E+04  0.63721546912E+03 0.  0.
        5    1    3    3  502    0  0.18521556887E+03 -0.19161103118E+03  0.93765206007E+03  0.97479898952E+03  0.46999998093E+01 0.  1.
       -5    1    3    3    0  502 -0.18521556887E+03  0.19161103118E+03  0.21572940460E+03  0.34290065650E+03  0.46999998093E+01 0. -1.
</event>
<event>
 5   0  0.9420349E-02  0.5860050E+03  0.7818609E-02  0.9934874E-01
        1   -1    0    0  501    0  0.00000000000E+00  0.00000000000E+00  0.29499923335E+03  0.29499923339E+03  0.50400001928E-02 0.  1.
       -1   -1    0    0    0  501  0.00000000000E+00  0.00000000000E+00 -0.29101930255E+03  0.29101930260E+03  0.50400001928E-02 0. -1.
    10030    2    1    2    0    0  0.00000000000E+00  0.00000000000E+00  0.39799307906E+01  0.58601853599E+03  0.58600502103E+03 0.  0.
        2    1    3    3  502    0 -0.53437585031E+01  0.28253853962E+03 -0.75432030918E+02  0.29248345837E+03  0.25500000920E-02 0. -1.
       -2    1    3    3    0  502  0.53437585031E+01 -0.28253853962E+03  0.79411961708E+02  0.29353507762E+03  0.25500000920E-02 0.  1.
</event>
<event>
 5   0  0.9177281E-02  0.6006861E+03  0.7818609E-02  0.9903984E-01
       -1   -1    0    0    0  501  0.00000000000E+00  0.00000000000E+00  0.23854622908E+03  0.23854622914E+03  0.50400001928E-02 0. -1.
        1   -1    0    0  501    0  0.00000000000E+00  0.00000000000E+00 -0.37814870827E+03  0.37814870830E+03  0.50400001928E-02 0.  1.
    10030    2    1    2    0    0  0.00000000000E+00  0.00000000000E+00 -0.13960247918E+03  0.61669493744E+03  0.60068610244E+03 0.  0.
        1    1    3    3  502    0  0.21579291501E+02  0.13322601964E+03  0.20566110190E+03  0.24599050183E+03  0.50400001928E-02 0. -1.
       -1    1    3    3    0  502 -0.21579291501E+02 -0.13322601964E+03 -0.34526358108E+03  0.37070443561E+03  0.50400001928E-02 0.  1.
</event>
<event>
 5   0  0.9177281E-02  0.5973269E+03  0.7818609E-02  0.9910967E-01
        1   -1    0    0  501    0  0.00000000000E+00  0.00000000000E+00  0.13698937728E+04  0.13698937728E+04  0.50400001928E-02 0. -1.
       -1   -1    0    0    0  501  0.00000000000E+00  0.00000000000E+00 -0.65114439987E+02  0.65114440182E+02  0.50400001928E-02 0.  1.
    10030    2    1    2    0    0  0.00000000000E+00  0.00000000000E+00  0.13047793328E+04  0.14350082130E+04  0.59732693228E+03 0.  0.
        1    1    3    3  502    0  0.24562754531E+03 -0.99488185166E+02  0.32151358171E+03  0.41665546109E+03  0.50400001928E-02 0.  1.
       -1    1    3    3    0  502 -0.24562754531E+03  0.99488185166E+02  0.98326575112E+03  0.10183527519E+04  0.50400001928E-02 0. -1.
</event>
<event>
 5   0  0.8860626E-02  0.6053048E+03  0.7818609E-02  0.9894461E-01
       -1   -1    0    0    0  501  0.00000000000E+00  0.00000000000E+00  0.12194175350E+03  0.12194175361E+03  0.50400001928E-02 0.  1.
        1   -1    0    0  501    0  0.00000000000E+00  0.00000000000E+00 -0.75116588790E+03  0.75116588792E+03  0.50400001928E-02 0. -1.
    10030    2    1    2    0    0  0.00000000000E+00  0.00000000000E+00 -0.62922413440E+03  0.87310764152E+03  0.60530483426E+03 0.  0.
        3    1    3    3  502    0 -0.13024754416E+03 -0.27817822699E+02 -0.70662369509E+03  0.71906558163E+03  0.10100000352E+00 0. -1.
       -3    1    3    3    0  502  0.13024754416E+03  0.27817822699E+02  0.77399560695E+02  0.15404205990E+03  0.10100000352E+00 0.  1.
</event>
<event>
 5   0  0.6170500E-02  0.6144876E+03  0.7818609E-02  0.9875797E-01
        3   -1    0    0  501    0  0.00000000000E+00  0.00000000000E+00  0.25888468255E+03  0.25888470225E+03  0.10100000352E+00 0. -1.
       -3   -1    0    0    0  501  0.00000000000E+00  0.00000000000E+00 -0.36463623466E+03  0.36463624865E+03  0.10100000352E+00 0.  1.
    10030    2    1    2    0    0  0.00000000000E+00  0.00000000000E+00 -0.10575155211E+03  0.62352095090E+03  0.61448757956E+03 0.  0.
        5    1    3    3  502    0  0.10476080785E+03  0.56530985896E+00 -0.34591442164E+03  0.36146095713E+03  0.46999998093E+01 0.  1.
       -5    1    3    3    0  502 -0.10476080785E+03 -0.56530985896E+00  0.24016286953E+03  0.26205999377E+03  0.46999998093E+01 0. -1.
</event>
<event>
 5   0  0.1488510E-01  0.5963650E+03  0.7818609E-02  0.9912976E-01
        2   -1    0    0  501    0  0.00000000000E+00  0.00000000000E+00  0.90695229845E+03  0.90695229846E+03  0.25500000920E-02 0. -1.
       -2   -1    0    0    0  501  0.00000000000E+00  0.00000000000E+00 -0.98034697675E+02  0.98034697708E+02  0.25500000920E-02 0.  1.
    10030    2    1    2    0    0  0.00000000000E+00  0.00000000000E+00  0.80891760078E+03  0.10049869962E+04  0.59636497014E+03 0.  0.
        5    1    3    3  502    0  0.26168549336E+03 -0.24914112295E+02  0.64153001703E+03  0.69331296192E+03  0.46999998093E+01 0. -1.
       -5    1    3    3    0  502 -0.26168549336E+03  0.24914112295E+02  0.16738758375E+03  0.31167403424E+03  0.46999998093E+01 0.  1.
</event>
<event>
 5   0  0.1532571E-01  0.5293387E+03  0.7818609E-02  0.1006393E+00
        2   -1    0    0  501    0  0.00000000000E+00  0.00000000000E+00  0.90553972900E+03  0.90553972900E+03  0.25500000920E-02 0. -1.
       -2   -1    0    0    0  501  0.00000000000E+00  0.00000000000E+00 -0.77357030895E+02  0.77357030937E+02  0.25500000920E-02 0.  1.
    10030    2    1    2    0    0  0.00000000000E+00  0.00000000000E+00  0.82818269810E+03  0.98289675994E+03  0.52933869995E+03 0.  0.
        1    1    3    3  502    0  0.27438166616E+02 -0.22013549985E+03  0.14605373384E+03  0.26560155209E+03  0.50400001928E-02 0.  1.
       -1    1    3    3    0  502 -0.27438166616E+02  0.22013549985E+03  0.68212896427E+03  0.71729520784E+03  0.50400001928E-02 0. -1.
</event>
<event>
 5   0  0.9411028E-02  0.5821609E+03  0.7818609E-02  0.9943124E-01
       -1   -1    0    0    0  501  0.00000000000E+00  0.00000000000E+00  0.37185424886E+03  0.37185424889E+03  0.50400001928E-02 0.  1.
        1   -1    0    0  501    0  0.00000000000E+00  0.00000000000E+00 -0.22785223599E+03  0.22785223604E+03  0.50400001928E-02 0. -1.
    10030    2    1    2    0    0  0.00000000000E+00  0.00000000000E+00  0.14400201287E+03  0.59970648494E+03  0.58216087842E+03 0.  0.
        4    1    3    3  502    0 -0.16160550923E+03 -0.14946155427E+03  0.26819068938E+03  0.34696246999E+03  0.12699999809E+01 0.  1.
       -4    1    3    3    0  502  0.16160550923E+03  0.14946155427E+03 -0.12418867651E+03  0.25274401494E+03  0.12699999809E+01 0. -1.
</event>
<event>
 5   0  0.8860626E-02  0.6184889E+03  0.7818609E-02  0.9867773E-01
        1   -1    0    0  501    0  0.00000000000E+00  0.00000000000E+00  0.26419561329E+03  0.26419561334E+03  0.50400001928E-02 0.  1.
       -1   -1    0    0    0  501  0.00000000000E+00  0.00000000000E+00 -0.36197474909E+03  0.36197474913E+03  0.50400001928E-02 0. -1.
    10030    2    1    2    0    0  0.00000000000E+00  0.00000000000E+00 -0.97779135806E+02  0.62617036247E+03  0.61848893558E+03 0.  0.
        3    1    3    3  502    0 -0.24678948788E+02  0.28064269548E+03 -0.17799890994E+03  0.33324614803E+03  0.10100000352E+00 0. -1.
       -3    1    3    3    0  502  0.24678948788E+02 -0.28064269548E+03  0.80219774136E+02  0.29292421443E+03  0.10100000352E+00 0.  1.
</event>
<event>
 5   0  0.1488510E-01  0.6065855E+03  0.7818609E-02  0.9891837E-01
        2   -1    0    0  501    0  0.00000000000E+00  0.00000000000E+00  0.10352460985E+04  0.10352460985E+04  0.25500000920E-02 0. -1.
       -2   -1    0    0    0  501  0.00000000000E+00  0.00000000000E+00 -0.88854704465E+02  0.88854704502E+02  0.25500000920E-02 0.  1.
    10030    2    1    2    0    0  0.00000000000E+00  0.00000000000E+00  0.94639139406E+03  0.11241008030E+04  0.60658548006E+03 0.  0.
        5    1    3    3  502    0  0.11978675569E+03  0.20961748862E+03  0.81326994144E+03  0.84836221393E+03  0.46999998093E+01 0. -1.
       -5    1    3    3    0  502 -0.11978675569E+03 -0.20961748862E+03  0.13312145262E+03  0.27573858910E+03  0.46999998093E+01 0.  1.
</event>
<event>
 5   0  0.8860626E-02  0.5942058E+03  0.7818609E-02  0.9917501E-01
        1   -1    0    0  501    0  0.00000000000E+00  0.00000000000E+00  0.76473551888E+03  0.76473551890E+03  0.50400001928E-02 0.  1.
       -1   -1    0    0    0  501  0.00000000000E+00  0.00000000000E+00 -0.11542570384E+03  0.11542570395E+03  0.50400001928E-02 0. -1.
    10030    2    1    2    0    0  0.00000000000E+00  0.00000000000E+00  0.64930981504E+03  0.88016122285E+03  0.59420580803E+03 0.  0.
        3    1    3    3  502    0  0.61206145220E+02 -0.28697873471E+03  0.39361037718E+03  0.49095022723E+03  0.10100000352E+00 0. -1.
       -3    1    3    3    0  502 -0.61206145220E+02  0.28697873471E+03  0.25569943786E+03  0.38921099562E+03  0.10100000352E+00 0.  1.
</event>
<event>
 5   0  0.9177281E-02  0.4668302E+03  0.7818609E-02  0.1022819E+00
       -1   -1    0    0    0  501  0.00000000000E+00  0.00000000000E+00  0.43191285999E+02  0.43191286293E+02  0.50400001928E-02 0. -1.
        1   -1    0    0  501    0  0.00000000000E+00  0.00000000000E+00 -0.12614260863E+04  0.12614260863E+04  0.50400001928E-02 0.  1.
    10030    2    1    2    0    0  0.00000000000E+00  0.00000000000E+00 -0.12182348003E+04  0.13046173726E+04  0.46683022635E+03 0.  0.
        1    1    3    3  502    0  0.19027385819E+03  0.91723860141E+02 -0.88669045143E+03  0.91150280543E+03  0.50400001928E-02 0.  1.
       -1    1    3    3    0  502 -0.19027385819E+03 -0.91723860141E+02 -0.33154434890E+03  0.39311456719E+03  0.50400001928E-02 0. -1.
</event>
<event>
 5   0  0.1483942E-01  0.5667900E+03  0.7818609E-02  0.9976807E-01
        2   -1    0    0  501    0  0.00000000000E+00  0.00000000000E+00  0.59979964663E+02  0.59979964717E+02  0.25500000920E-02 0.  1.
       -2   -1    0    0    0  501  0.00000000000E+00  0.00000000000E+00 -0.13389925685E+04  0.13389925685E+04  0.25500000920E-02 0. -1.
    10030    2    1    2    0    0  0.00000000000E+00  0.00000000000E+00 -0.12790126039E+04  0.13989725333E+04  0.56679000338E+03 0.  0.
        4    1    3    3  502    0  0.14734713537E+03 -0.23945504496E+03 -0.72716236331E+03  0.77962594388E+03  0.12699999809E+01 0.  1.
       -4    1    3    3    0  502 -0.14734713537E+03  0.23945504496E+03 -0.55185024056E+03  0.61934658937E+03  0.12699999809E+01 0. -1.
</event>
<event>
 5   0  0.1502642E-01  0.6005491E+03  0.7818609E-02  0.9904267E-01
       -2   -1    0    0    0  501  0.00000000000E+00  0.00000000000E+00  0.11073843946E+03  0.11073843949E+03  0.25500000920E-02 0. -1.
        2   -1    0    0  501    0  0.00000000000E+00  0.00000000000E+00 -0.81421428896E+03  0.81421428896E+03  0.25500000920E-02 0.  1.
    10030    2    1    2    0    0  0.00000000000E+00  0.00000000000E+00 -0.70347584950E+03  0.92495272845E+03  0.60054914790E+03 0.  0.
        2    1    3    3  502    0 -0.28462018596E+03  0.53969326866E+02 -0.23003965916E+03  0.36991834679E+03  0.25500000920E-02 0. -1.
       -2    1    3    3    0  502  0.28462018596E+03 -0.53969326866E+02 -0.47343619034E+03  0.55503438166E+03  0.25500000920E-02 0.  1.
</event>
<event>
 5   0  0.9420349E-02  0.6102337E+03  0.7818609E-02  0.9884399E-01
        1   -1    0    0  501    0  0.00000000000E+00  0.00000000000E+00  0.78168224504E+03  0.78168224506E+03  0.50400001928E-02 0.  1.
       -1   -1    0    0    0  501  0.00000000000E+00  0.00000000000E+00 -0.11909734316E+03  0.11909734326E+03  0.50400001928E-02 0. -1.
    10030    2    1    2    0    0  0.00000000000E+00  0.00000000000E+00  0.66258490188E+03  0.90077958832E+03  0.61023365569E+03 0.  0.
        2    1    3    3  502    0  0.29242025361E+03  0.85455425637E+02  0.30641446075E+03  0.43209033344E+03  0.25500000920E-02 0. -1.
       -2    1    3    3    0  502 -0.29242025361E+03 -0.85455425637E+02  0.35617044114E+03  0.46868925488E+03  0.25500000920E-02 0.  1.
</event>
<event>
 5   0  0.1502642E-01  0.6048823E+03  0.7818609E-02  0.9895328E-01
       -2   -1    0    0    0  501  0.00000000000E+00  0.00000000000E+00  0.56491291077E+02  0.56491291134E+02  0.25500000920E-02 0.  1.
        2   -1    0    0  501    0  0.00000000000E+00  0.00000000000E+00 -0.16191993584E+04  0.16191993584E+04  0.25500000920E-02 0. -1.
    10030    2    1    2    0    0  0.00000000000E+00  0.00000000000E+00 -0.15627080674E+04  0.16756906496E+04  0.60488234333E+03 0.  0.
        2    1    3    3  502    0  0.27145088702E+03 -0.90881309989E+02 -0.51097649658E+03  0.58569785439E+03  0.25500000920E-02 0. -1.
       -2    1    3    3    0  502 -0.27145088702E+03  0.90881309989E+02 -0.10517315708E+04  0.10899927952E+04  0.25500000920E-02 0.  1.
</event>
<event>
 5   0  0.9420349E-02  0.5989243E+03  0.7818609E-02  0.9907640E-01
        1   -1    0    0  501    0  0.00000000000E+00  0.00000000000E+00  0.41301264357E+03  0.41301264360E+03  0.50400001928E-02 0. -1.
       -1   -1    0    0    0  501  0.00000000000E+00  0.00000000000E+00 -0.21713036572E+03  0.21713036578E+03  0.50400001928E-02 0.  1.
    10030    2    1    2    0    0  0.00000000000E+00  0.00000000000E+00  0.19588227786E+03  0.63014300938E+03  0.59892432368E+03 0.  0.
        2    1    3    3  502    0  0.21379491692E+03  0.11429907447E+03  0.28290285098E+03  0.37256753485E+03  0.25500000920E-02 0.  1.
       -2    1    3    3    0  502 -0.21379491692E+03 -0.11429907447E+03 -0.87020573122E+02  0.25757547453E+03  0.25500000920E-02 0. -1.
</event>
<event>
 5   0  0.9497860E-02  0.4538619E+03  0.7818609E-02  0.1026577E+00
       -1   -1    0    0    0  501  0.00000000000E+00  0.00000000000E+00  0.32405572168E+03  0.32405572172E+03  0.50400001928E-02 0.  1.
        1   -1    0    0  501    0  0.00000000000E+00  0.00000000000E+00 -0.15891602780E+03  0.15891602788E+03  0.50400001928E-02 0. -1.
    10030    2    1    2    0    0  0.00000000000E+00  0.00000000000E+00  0.16513969388E+03  0.48297174960E+03  0.45386186491E+03 0.  0.
        5    1    3    3  502    0 -0.76462253165E+02 -0.14891868629E+03 -0.80393831373E+02  0.18576466135E+03  0.46999998093E+01 0. -1.
       -5    1    3    3    0  502  0.76462253165E+02  0.14891868629E+03  0.24553352525E+03  0.29720708825E+03  0.46999998093E+01 0.  1.
</event>
<event>
 5   0  0.9177281E-02  0.5980714E+03  0.7818609E-02  0.9909415E-01
       -1   -1    0    0    0  501  0.00000000000E+00  0.00000000000E+00  0.16203149075E+03  0.16203149083E+03  0.50400001928E-02 0.  1.
        1   -1    0    0  501    0  0.00000000000E+00  0.00000000000E+00 -0.55188258854E+03  0.55188258856E+03  0.50400001928E-02 0. -1.
    10030    2    1    2    0    0  0.00000000000E+00  0.00000000000E+00 -0.38985109779E+03  0.71391407940E+03  0.59807142911E+03 0.  0.
        1    1    3    3  502    0  0.35416007399E+02  0.22773372396E+03  0.32520606091E+02  0.23275423187E+03  0.50400001928E-02 0.  1.
       -1    1    3    3    0  502 -0.35416007399E+02 -0.22773372396E+03 -0.42237170388E+03  0.48115984752E+03  0.50400001928E-02 0. -1.
</event>
<event>
 5   0  0.1502642E-01  0.6196624E+03  0.7818609E-02  0.9865432E-01
       -2   -1    0    0    0  501  0.00000000000E+00  0.00000000000E+00  0.15310747677E+03  0.15310747679E+03  0.25500000920E-02 0. -1.
        2   -1    0    0  501    0  0.00000000000E+00  0.00000000000E+00 -0.62698035688E+03  0.62698035688E+03  0.25500000920E-02 0.  1.
    10030    2    1    2    0    0  0.00000000000E+00  0.00000000000E+00 -0.47387288011E+03  0.78008783367E+03  0.61966242563E+03 0.  0.
        2    1    3    3  502    0  0.24385564655E+03 -0.11421846649E+03 -0.44017939233E+02  0.27285346511E+03  0.25500000920E-02 0. -1.
       -2    1    3    3    0  502 -0.24385564655E+03  0.11421846649E+03 -0.42985494088E+03  0.50723436856E+03  0.25500000920E-02 0.  1.
</event>
<event>
 5   0  0.1483942E-01  0.6045545E+03  0.7818609E-02  0.9896002E-01
        2   -1    0    0  501    0  0.00000000000E+00  0.00000000000E+00  0.62846570500E+03  0.62846570500E+03  0.25500000920E-02 0. -1.
       -2   -1    0    0    0  501  0.00000000000E+00  0.00000000000E+00 -0.14538826454E+03  0.14538826456E+03  0.25500000920E-02 0.  1.
    10030    2    1    2    0    0  0.00000000000E+00  0.00000000000E+00  0.48307744046E+03  0.77385396957E+03  0.60455450766E+03 0.  0.
        4    1    3    3  502    0 -0.27593483890E+03  0.35127485933E+01  0.83633703600E+02  0.28835496181E+03  0.12699999809E+01 0.  1.
       -4    1    3    3    0  502  0.27593483890E+03 -0.35127485933E+01  0.39944373686E+03  0.48549900776E+03  0.12699999809E+01 0. -1.
</event>
<event>
 5   0  0.1532571E-01  0.6714978E+03  0.7818609E-02  0.9767256E-01
        2   -1    0    0  501    0  0.00000000000E+00  0.00000000000E+00  0.27669554183E+04  0.27669554183E+04  0.25500000920E-02 0.  1.
       -2   -1    0    0    0  501  0.00000000000E+00  0.00000000000E+00 -0.40740558045E+02  0.40740558125E+02  0.25500000920E-02 0. -1.
    10030    2    1    2    0    0  0.00000000000E+00  0.00000000000E+00  0.27262148602E+04  0.28076959764E+04  0.67149775261E+03 0.  0.
        1    1    3    3  502    0  0.14049540726E+02  0.29762383340E+03  0.20101874976E+04  0.20321493822E+04  0.50400001928E-02 0.  1.
       -1    1    3    3    0  502 -0.14049540726E+02 -0.29762383340E+03  0.71602736257E+03  0.77554659420E+03  0.50400001928E-02 0. -1.
</event>
<event>
 5   0  0.1532571E-01  0.6026608E+03  0.7818609E-02  0.9899901E-01
       -2   -1    0    0    0  501  0.00000000000E+00  0.00000000000E+00  0.18949067188E+03  0.18949067190E+03  0.25500000920E-02 0.  1.
        2   -1    0    0  501    0  0.00000000000E+00  0.00000000000E+00 -0.47917925629E+03  0.47917925630E+03  0.25500000920E-02 0. -1.
    10030    2    1    2    0    0  0.00000000000E+00  0.00000000000E+00 -0.28968858441E+03  0.66866992820E+03  0.60266076439E+03 0.  0.
        1    1    3    3  502    0  0.96104498395E+02 -0.20556385430E+03  0.75132152777E+02  0.23903433480E+03  0.50400001928E-02 0.  1.
       -1    1    3    3    0  502 -0.96104498395E+02  0.20556385430E+03 -0.36482073719E+03  0.42963559340E+03  0.50400001928E-02 0. -1.
</event>
<event>
 5   0  0.6170500E-02  0.5928764E+03  0.7818609E-02  0.9920296E-01
       -4   -1    0    0    0  501  0.00000000000E+00  0.00000000000E+00  0.17847412777E+03  0.17847864629E+03  0.12699999809E+01 0.  1.
        4   -1    0    0  501    0  0.00000000000E+00  0.00000000000E+00 -0.49236013923E+03  0.49236177715E+03  0.12699999809E+01 0. -1.
    10030    2    1    2    0    0  0.00000000000E+00  0.00000000000E+00 -0.31388601146E+03  0.67084042344E+03  0.59287641675E+03 0.  0.
        1    1    3    3  502    0  0.73375626084E+01  0.14235797338E+03 -0.45103753428E+03  0.47302694401E+03  0.50400001928E-02 0. -1.
       -1    1    3    3    0  502 -0.73375626084E+01 -0.14235797338E+03  0.13715152281E+03  0.19781347943E+03  0.50400001928E-02 0.  1.
</event>
<event>
 5   0  0.1488510E-01  0.5858769E+03  0.7818609E-02  0.9935148E-01
       -2   -1    0    0    0  501  0.00000000000E+00  0.00000000000E+00  0.79659183926E+02  0.79659183967E+02  0.25500000920E-02 0.  1.
        2   -1    0    0  501    0  0.00000000000E+00  0.00000000000E+00 -0.10772508403E+04  0.10772508403E+04  0.25500000920E-02 0. -1.
    10030    2    1    2    0    0  0.00000000000E+00  0.00000000000E+00 -0.99759165634E+03  0.11569100242E+04  0.58587685684E+03 0.  0.
        5    1    3    3  502    0  0.55541650383E+02  0.27925579487E+03 -0.63449073337E+03  0.69546333809E+03  0.46999998093E+01 0. -1.
       -5    1    3    3    0  502 -0.55541650383E+02 -0.27925579487E+03 -0.36310092296E+03  0.46144668614E+03  0.46999998093E+01 0.  1.
</event>
<event>
 5   0  0.1532571E-01  0.3978577E+03  0.7818609E-02  0.1044524E+00
       -2   -1    0    0    0  501  0.00000000000E+00  0.00000000000E+00  0.23771516560E+02  0.23771516697E+02  0.25500000920E-02 0.  1.
        2   -1    0    0  501    0  0.00000000000E+00  0.00000000000E+00 -0.16647103685E+04  0.16647103685E+04  0.25500000920E-02 0. -1.
    10030    2    1    2    0    0  0.00000000000E+00  0.00000000000E+00 -0.16409388519E+04  0.16884818852E+04  0.39785771431E+03 0.  0.
        1    1    3    3  502    0  0.57289274567E+02  0.14488264685E+03 -0.13454090305E+04  0.13543996831E+04  0.50400001928E-02 0. -1.
       -1    1    3    3    0  502 -0.57289274567E+02 -0.14488264685E+03 -0.29552982141E+03  0.33408220202E+03  0.50400001928E-02 0.  1.
</event>
<event>
 5   0  0.1488510E-01  0.5193633E+03  0.7818609E-02  0.1008845E+00
        2   -1    0    0  501    0  0.00000000000E+00  0.00000000000E+00  0.40141829119E+03  0.40141829120E+03  0.25500000920E-02 0.  1.
       -2   -1    0    0    0  501  0.00000000000E+00  0.00000000000E+00 -0.16799076131E+03  0.16799076133E+03  0.25500000920E-02 0. -1.
    10030    2    1    2    0    0  0.00000000000E+00  0.00000000000E+00  0.23342752988E+03  0.56940905253E+03  0.51936331926E+03 0.  0.
        5    1    3    3  502    0  0.30582525666E+02 -0.89713294086E+02  0.38172619011E+03  0.39334557354E+03  0.46999998093E+01 0.  1.
       -5    1    3    3    0  502 -0.30582525666E+02  0.89713294086E+02 -0.14829866022E+03  0.17606347899E+03  0.46999998093E+01 0. -1.
</event>
<event>
 5   0  0.1483942E-01  0.5824919E+03  0.7818609E-02  0.9942411E-01
        2   -1    0    0  501    0  0.00000000000E+00  0.00000000000E+00  0.17927406696E+04  0.17927406696E+04  0.25500000920E-02 0.  1.
       -2   -1    0    0    0  501  0.00000000000E+00  0.00000000000E+00 -0.47315378949E+02  0.47315379018E+02  0.25500000920E-02 0. -1.
    10030    2    1    2    0    0  0.00000000000E+00  0.00000000000E+00  0.17454252907E+04  0.18400560487E+04  0.58249190280E+03 0.  0.
        4    1    3    3  502    0  0.18610093238E+03 -0.13454002938E+03  0.30684796970E+03  0.38326474655E+03  0.12699999809E+01 0. -1.
       -4    1    3    3    0  502 -0.18610093238E+03  0.13454002938E+03  0.14385773210E+04  0.14567913021E+04  0.12699999809E+01 0.  1.
</event>
<event>
 5   0  0.9177281E-02  0.5885350E+03  0.7818609E-02  0.9929482E-01
       -1   -1    0    0    0  501  0.00000000000E+00  0.00000000000E+00  0.28316842326E+03  0.28316842330E+03  0.50400001928E-02 0. -1.
        1   -1    0    0  501    0  0.00000000000E+00  0.00000000000E+00 -0.30580162329E+03  0.30580162333E+03  0.50400001928E-02 0.  1.
    10030    2    1    2    0    0  0.00000000000E+00  0.00000000000E+00 -0.22633200026E+02  0.58897004663E+03  0.58853500668E+03 0.  0.
        1    1    3    3  502    0  0.16149021397E+03 -0.15574813156E+02  0.23436782572E+03  0.28504375413E+03  0.50400001928E-02 0. -1.
       -1    1    3    3    0  502 -0.16149021397E+03  0.15574813156E+02 -0.25700102574E+03  0.30392629250E+03  0.50400001928E-02 0.  1.
</event>
<event>
 5   0  0.1513339E-01  0.6094308E+03  0.7818609E-02  0.9886031E-01
        2   -1    0    0  501    0  0.00000000000E+00  0.00000000000E+00  0.85332777053E+03  0.85332777053E+03  0.25500000920E-02 0.  1.
       -2   -1    0    0    0  501  0.00000000000E+00  0.00000000000E+00 -0.10881103822E+03  0.10881103825E+03  0.25500000920E-02 0. -1.
    10030    2    1    2    0    0  0.00000000000E+00  0.00000000000E+00  0.74451673231E+03  0.96213880878E+03  0.60943081861E+03 0.  0.
        3    1    3    3  502    0 -0.12995126602E+03  0.74104383461E+02 -0.46847473090E+02  0.15675932867E+03  0.10100000352E+00 0. -1.
       -3    1    3    3    0  502  0.12995126602E+03 -0.74104383461E+02  0.79136420540E+03  0.80537948011E+03  0.10100000352E+00 0.  1.
</event>
<event>
 5   0  0.1532571E-01  0.5886569E+03  0.7818609E-02  0.9929223E-01
       -2   -1    0    0    0  501  0.00000000000E+00  0.00000000000E+00  0.18366370772E+04  0.18366370772E+04  0.25500000920E-02 0. -1.
        2   -1    0    0  501    0  0.00000000000E+00  0.00000000000E+00 -0.47167318948E+02  0.47167319017E+02  0.25500000920E-02 0.  1.
    10030    2    1    2    0    0  0.00000000000E+00  0.00000000000E+00  0.17894697582E+04  0.18838043962E+04  0.58865693533E+03 0.  0.
        1    1    3    3  502    0 -0.16042031149E+03  0.18596475936E+03  0.14138310441E+04  0.14350037593E+04  0.50400001928E-02 0. -1.
       -1    1    3    3    0  502  0.16042031149E+03 -0.18596475936E+03  0.37563871418E+03  0.44880063689E+03  0.50400001928E-02 0.  1.
</event>
<event>
 5   0  0.9420349E-02  0.5982323E+03  0.7818609E-02  0.9909080E-01
        1   -1    0    0  501    0  0.00000000000E+00  0.00000000000E+00  0.12388361444E+04  0.12388361444E+04  0.50400001928E-02 0. -1.
       -1   -1    0    0    0  501  0.00000000000E+00  0.00000000000E+00 -0.72221398919E+02  0.72221399095E+02  0.50400001928E-02 0.  1.
    10030    2    1    2    0    0  0.00000000000E+00  0.00000000000E+00  0.11666147455E+04  0.13110575435E+04  0.59823232778E+03 0.  0.
        2    1    3    3  502    0 -0.16383425325E+03  0.10373683458E+03  0.84193690662E+02  0.21140381014E+03  0.25500000920E-02 0.  1.
       -2    1    3    3    0  502  0.16383425325E+03 -0.10373683458E+03  0.10824210548E+04  0.10996537333E+04  0.25500000920E-02 0. -1.
</event>
<event>
 5   0  0.1513339E-01  0.6101221E+03  0.7818609E-02  0.9884626E-01
        2   -1    0    0  501    0  0.00000000000E+00  0.00000000000E+00  0.84166665154E+03  0.84166665154E+03  0.25500000920E-02 0. -1.
       -2   -1    0    0    0  501  0.00000000000E+00  0.00000000000E+00 -0.11056900879E+03  0.11056900882E+03  0.25500000920E-02 0.  1.
    10030    2    1    2    0    0  0.00000000000E+00  0.00000000000E+00  0.73109764275E+03  0.95223566036E+03  0.61012211042E+03 0.  0.
        3    1    3    3  502    0 -0.25267449606E+03 -0.15166096096E+03  0.24249056786E+03  0.38163743755E+03  0.10100000352E+00 0.  1.
       -3    1    3    3    0  502  0.25267449606E+03  0.15166096096E+03  0.48860707489E+03  0.57059822281E+03  0.10100000352E+00 0. -1.
</event>
<event>
 5   0  0.1532571E-01  0.4685483E+03  0.7818609E-02  0.1022331E+00
        2   -1    0    0  501    0  0.00000000000E+00  0.00000000000E+00  0.53899414664E+03  0.53899414665E+03  0.25500000920E-02 0.  1.
       -2   -1    0    0    0  501  0.00000000000E+00  0.00000000000E+00 -0.10182742205E+03  0.10182742208E+03  0.25500000920E-02 0. -1.
    10030    2    1    2    0    0  0.00000000000E+00  0.00000000000E+00  0.43716672459E+03  0.64082156873E+03  0.46854833034E+03 0.  0.
        1    1    3    3  502    0 -0.17399584127E+02 -0.30057739301E+02  0.53545369643E+03  0.53657886118E+03  0.50400001928E-02 0.  1.
       -1    1    3    3    0  502  0.17399584127E+02  0.30057739301E+02 -0.98286971837E+02  0.10424270755E+03  0.50400001928E-02 0. -1.
</event>
<event>
 5   0  0.9420349E-02  0.5972951E+03  0.7818609E-02  0.9911034E-01
       -1   -1    0    0    0  501  0.00000000000E+00  0.00000000000E+00  0.10217835736E+03  0.10217835749E+03  0.50400001928E-02 0.  1.
        1   -1    0    0  501    0  0.00000000000E+00  0.00000000000E+00 -0.87288883217E+03  0.87288883218E+03  0.50400001928E-02 0. -1.
    10030    2    1    2    0    0  0.00000000000E+00  0.00000000000E+00 -0.77071047481E+03  0.97506718967E+03  0.59729505975E+03 0.  0.
        2    1    3    3  502    0  0.26609699019E+03 -0.10406232248E+03 -0.52723732007E+03  0.59967972021E+03  0.25500000920E-02 0.  1.
       -2    1    3    3    0  502 -0.26609699019E+03  0.10406232248E+03 -0.24347315474E+03  0.37538746947E+03  0.25500000920E-02 0. -1.
</event>
<event>
 5   0  0.1488510E-01  0.6030914E+03  0.7818609E-02  0.9899013E-01
       -2   -1    0    0    0  501  0.00000000000E+00  0.00000000000E+00  0.13118379739E+04  0.13118379739E+04  0.25500000920E-02 0. -1.
        2   -1    0    0  501    0  0.00000000000E+00  0.00000000000E+00 -0.69314818892E+02  0.69314818939E+02  0.25500000920E-02 0.  1.
    10030    2    1    2    0    0  0.00000000000E+00  0.00000000000E+00  0.12425231550E+04  0.13811527928E+04  0.60309140803E+03 0.  0.
        5    1    3    3  502    0 -0.15982683755E+01  0.27817832727E+03  0.35495688705E+03  0.45100135020E+03  0.46999998093E+01 0. -1.
       -5    1    3    3    0  502  0.15982683755E+01 -0.27817832727E+03  0.88756626794E+03  0.93015144262E+03  0.46999998093E+01 0.  1.
</event>
<event>
 5   0  0.9177281E-02  0.5958336E+03  0.7818609E-02  0.9914088E-01
        1   -1    0    0  501    0  0.00000000000E+00  0.00000000000E+00  0.66253350771E+03  0.66253350773E+03  0.50400001928E-02 0. -1.
       -1   -1    0    0    0  501  0.00000000000E+00  0.00000000000E+00 -0.13396213858E+03  0.13396213867E+03  0.50400001928E-02 0.  1.
    10030    2    1    2    0    0  0.00000000000E+00  0.00000000000E+00  0.52857136913E+03  0.79649564640E+03  0.59583355265E+03 0.  0.
        1    1    3    3  502    0 -0.25274052382E+03  0.11882196462E+03  0.40293690431E+03  0.49025970724E+03  0.50400001928E-02 0. -1.
       -1    1    3    3    0  502  0.25274052382E+03 -0.11882196462E+03  0.12563446482E+03  0.30623593916E+03  0.50400001928E-02 0.  1.
</event>
<event>
 5   0  0.1532571E-01  0.6124639E+03  0.7818609E-02  0.9879880E-01
       -2   -1    0    0    0  501  0.00000000000E+00  0.00000000000E+00  0.28431374194E+03  0.28431374196E+03  0.25500000920E-02 0.  1.
        2   -1    0    0  501    0  0.00000000000E+00  0.00000000000E+00 -0.32983982765E+03  0.32983982766E+03  0.25500000920E-02 0. -1.
    10030    2    1    2    0    0  0.00000000000E+00  0.00000000000E+00 -0.45526085705E+02  0.61415356961E+03  0.61246386227E+03 0.  0.
        1    1    3    3  502    0 -0.27525505865E+03  0.12496498387E+03  0.26325062300E+02  0.30343797296E+03  0.50400001928E-02 0.  1.
       -1    1    3    3    0  502  0.27525505865E+03 -0.12496498387E+03 -0.71851148005E+02  0.31071559665E+03  0.50400001928E-02 0. -1.
</event>
<event>
 5   0  0.1502642E-01  0.6146281E+03  0.7818609E-02  0.9875514E-01
        2   -1    0    0  501    0  0.00000000000E+00  0.00000000000E+00  0.21777954196E+03  0.21777954198E+03  0.25500000920E-02 0.  1.
       -2   -1    0    0    0  501  0.00000000000E+00  0.00000000000E+00 -0.43365835943E+03  0.43365835944E+03  0.25500000920E-02 0. -1.
    10030    2    1    2    0    0  0.00000000000E+00  0.00000000000E+00 -0.21587881747E+03  0.65143790141E+03  0.61462807906E+03 0.  0.
        2    1    3    3  502    0 -0.15893734152E+03 -0.24637296229E+03 -0.10330518381E+02  0.29337251864E+03  0.25500000920E-02 0.  1.
       -2    1    3    3    0  502  0.15893734152E+03  0.24637296229E+03 -0.20554829909E+03  0.35806538277E+03  0.25500000920E-02 0. -1.
</event>
<event>
 5   0  0.9497860E-02  0.6057753E+03  0.7818609E-02  0.9893496E-01
       -1   -1    0    0    0  501  0.00000000000E+00  0.00000000000E+00  0.14994097057E+03  0.14994097065E+03  0.50400001928E-02 0. -1.
        1   -1    0    0  501    0  0.00000000000E+00  0.00000000000E+00 -0.61184697782E+03  0.61184697784E+03  0.50400001928E-02 0.  1.
    10030    2    1    2    0    0  0.00000000000E+00  0.00000000000E+00 -0.46190600726E+03  0.76178794849E+03  0.60577530400E+03 0.  0.
        5    1    3    3  502    0  0.21269236471E+03 -0.17725183012E+03 -0.38529080522E+03  0.47447586648E+03  0.46999998093E+01 0. -1.
       -5    1    3    3    0  502 -0.21269236471E+03  0.17725183012E+03 -0.76615202034E+02  0.28731208201E+03  0.46999998093E+01 0.  1.
</event>
<event>
 5   0  0.8860626E-02  0.6012463E+03  0.7818609E-02  0.9902824E-01
       -1   -1    0    0    0  501  0.00000000000E+00  0.00000000000E+00  0.34810852083E+03  0.34810852087E+03  0.50400001928E-02 0.  1.
        1   -1    0    0  501    0  0.00000000000E+00  0.00000000000E+00 -0.25961520999E+03  0.25961521003E+03  0.50400001928E-02 0. -1.
    10030    2    1    2    0    0  0.00000000000E+00  0.00000000000E+00  0.88493310849E+02  0.60772373091E+03  0.60124626156E+03 0.  0.
        3    1    3    3  502    0 -0.28424939128E+03 -0.72067448301E+02 -0.22669467917E+02  0.29411791602E+03  0.10100000352E+00 0.  1.
       -3    1    3    3    0  502  0.28424939128E+03  0.72067448301E+02  0.11116277877E+03  0.31360581489E+03  0.10100000352E+00 0. -1.
</event>
<event>
 5   0  0.1532571E-01  0.6138726E+03  0.7818609E-02  0.9877036E-01
        2   -1    0    0  501    0  0.00000000000E+00  0.00000000000E+00  0.47006650956E+03  0.47006650957E+03  0.25500000920E-02 0. -1.
       -2   -1    0    0    0  501  0.00000000000E+00  0.00000000000E+00 -0.20041823202E+03  0.20041823204E+03  0.25500000920E-02 0.  1.
    10030    2    1    2    0    0  0.00000000000E+00  0.00000000000E+00  0.26964827754E+03  0.67048474161E+03  0.61387262127E+03 0.  0.
        1    1    3    3  502    0 -0.10186286053E+03 -0.26725441980E+03  0.13155729971E+02  0.28631109045E+03  0.50400001928E-02 0. -1.
       -1    1    3    3    0  502  0.10186286053E+03  0.26725441980E+03  0.25649254757E+03  0.38417365116E+03  0.50400001928E-02 0.  1.
</event>
<event>
 5   0  0.1488510E-01  0.6020701E+03  0.7818609E-02  0.9901121E-01
       -2   -1    0    0    0  501  0.00000000000E+00  0.00000000000E+00  0.36116574724E+02  0.36116574814E+02  0.25500000920E-02 0. -1.
        2   -1    0    0  501    0  0.00000000000E+00  0.00000000000E+00 -0.25091550921E+04  0.25091550921E+04  0.25500000920E-02 0.  1.
    10030    2    1    2    0    0  0.00000000000E+00  0.00000000000E+00 -0.24730385174E+04  0.25452716669E+04  0.60207005404E+03 0.  0.
        5    1    3    3  502    0  0.10888962765E+03  0.27912584099E+03 -0.11145923552E+04  0.11541691360E+04  0.46999998093E+01 0. -1.
       -5    1    3    3    0  502 -0.10888962765E+03 -0.27912584099E+03 -0.13584461622E+04  0.13911025310E+04  0.46999998093E+01 0.  1.
</event>
<event>
 5   0  0.9497860E-02  0.6438665E+03  0.7818609E-02  0.9818357E-01
       -1   -1    0    0    0  501  0.00000000000E+00  0.00000000000E+00  0.14156486397E+03  0.14156486406E+03  0.50400001928E-02 0.  1.
        1   -1    0    0  501    0  0.00000000000E+00  0.00000000000E+00 -0.73210975812E+03  0.73210975813E+03  0.50400001928E-02 0. -1.
    10030    2    1    2    0    0  0.00000000000E+00  0.00000000000E+00 -0.59054489415E+03  0.87367462220E+03  0.64386650283E+03 0.  0.
        5    1    3    3  502    0  0.71667043679E+02  0.23305726101E+03 -0.10102854493E+02  0.24408197337E+03  0.46999998093E+01 0.  1.
       -5    1    3    3    0  502 -0.71667043679E+02 -0.23305726101E+03 -0.58044203965E+03  0.62959264882E+03  0.46999998093E+01 0. -1.
</event>
<event>
 5   0  0.1532571E-01  0.5998966E+03  0.7818609E-02  0.9905621E-01
        2   -1    0    0  501    0  0.00000000000E+00  0.00000000000E+00  0.52595728663E+03  0.52595728664E+03  0.25500000920E-02 0.  1.
       -2   -1    0    0    0  501  0.00000000000E+00  0.00000000000E+00 -0.17105757378E+03  0.17105757380E+03  0.25500000920E-02 0. -1.
    10030    2    1    2    0    0  0.00000000000E+00  0.00000000000E+00  0.35489971285E+03  0.69701486044E+03  0.59989658233E+03 0.  0.
        1    1    3    3  502    0 -0.24181058650E+03  0.94627650343E+02  0.35189707270E+03  0.43733088360E+03  0.50400001928E-02 0.  1.
       -1    1    3    3    0  502  0.24181058650E+03 -0.94627650343E+02  0.30026401527E+01  0.25968397684E+03  0.50400001928E-02 0. -1.
</event>
<event>
 5   0  0.9411028E-02  0.6011888E+03  0.7818609E-02  0.9902943E-01
        1   -1    0    0  501    0  0.00000000000E+00  0.00000000000E+00  0.23450952218E+03  0.23450952223E+03  0.50400001928E-02 0.  1.
       -1   -1    0    0    0  501  0.00000000000E+00  0.00000000000E+00 -0.38530197123E+03  0.38530197126E+03  0.50400001928E-02 0. -1.
    10030    2    1    2    0    0  0.00000000000E+00  0.00000000000E+00 -0.15079244905E+03  0.61981149350E+03  0.60118875969E+03 0.  0.
        4    1    3    3  502    0 -0.12788885801E+03 -0.12074544799E+03  0.17591758768E+03  0.24876421320E+03  0.12699999809E+01 0.  1.
       -4    1    3    3    0  502  0.12788885801E+03  0.12074544799E+03 -0.32671003673E+03  0.37104728030E+03  0.12699999809E+01 0. -1.
</event>
<event>
 5   0  0.1513339E-01  0.6209134E+03  0.7818609E-02  0.9862943E-01
        2   -1    0    0  501    0  0.00000000000E+00  0.00000000000E+00  0.20092341293E+03  0.20092341294E+03  0.25500000920E-02 0.  1.
       -2   -1    0    0    0  501  0.00000000000E+00  0.00000000000E+00 -0.47970203263E+03  0.47970203263E+03  0.25500000920E-02 0. -1.
    10030    2    1    2    0    0  0.00000000000E+00  0.00000000000E+00 -0.27877861970E+03  0.68062544557E+03  0.62091342260E+03 0.  0.
        3    1    3    3  502    0 -0.10999175958E+03 -0.15708948166E+03 -0.40701614126E+03  0.44993048560E+03  0.10100000352E+00 0. -1.
       -3    1    3    3    0  502  0.10999175958E+03  0.15708948166E+03  0.12823752156E+03  0.23069495998E+03  0.10100000352E+00 0.  1.
</event>
<event>
 5   0  0.6170500E-02  0.5975906E+03  0.7818609E-02  0.9910417E-01
        3   -1    0    0  501    0  0.00000000000E+00  0.00000000000E+00  0.96045759482E+02  0.96045812587E+02  0.10100000352E+00 0.  1.
       -3   -1    0    0    0  501  0.00000000000E+00  0.00000000000E+00 -0.92954225944E+03  0.92954226493E+03  0.10100000352E+00 0. -1.
    10030    2    1    2    0    0  0.00000000000E+00  0.00000000000E+00 -0.83349649996E+03  0.10255880775E+04  0.59759056995E+03 0.  0.
        1    1    3    3  502    0 -0.29107829065E+02  0.29030463607E+03 -0.30612853826E+03  0.42289328370E+03  0.50400001928E-02 0. -1.
       -1    1    3    3    0  502  0.29107829065E+02 -0.29030463607E+03 -0.52736796170E+03  0.60269479381E+03  0.50400001928E-02 0.  1.
</event>
<event>
 5   0  0.1483942E-01  0.5924528E+03  0.7818609E-02  0.9921189E-01
        2   -1    0    0  501    0  0.00000000000E+00  0.00000000000E+00  0.45877924204E+03  0.45877924205E+03  0.25500000920E-02 0. -1.
       -2   -1    0    0    0  501  0.00000000000E+00  0.00000000000E+00 -0.19126866598E+03  0.19126866600E+03  0.25500000920E-02 0.  1.
    10030    2    1    2    0    0  0.00000000000E+00  0.00000000000E+00  0.26751057606E+03  0.65004790805E+03  0.59245284576E+03 0.  0.
        4    1    3    3  502    0  0.35731386028E+02  0.23503948425E+03 -0.60138983767E+02  0.24523172994E+03  0.12699999809E+01 0.  1.
       -4    1    3    3    0  502 -0.35731386028E+02 -0.23503948425E+03  0.32764955983E+03  0.40481617811E+03  0.12699999809E+01 0. -1.
</event>
<event>
 5   0  0.1502642E-01  0.4640093E+03  0.7818609E-02  0.1023625E+00
        2   -1    0    0  501    0  0.00000000000E+00  0.00000000000E+00  0.27025569663E+04  0.27025569663E+04  0.25500000920E-02 0.  1.
       -2   -1    0    0    0  501  0.00000000000E+00  0.00000000000E+00 -0.19916751618E+02  0.19916751782E+02  0.25500000920E-02 0. -1.
    10030    2    1    2    0    0  0.00000000000E+00  0.00000000000E+00  0.26826402147E+04  0.27224737181E+04  0.46400929325E+03 0.  0.
        2    1    3    3  502    0 -0.54286840983E+02  0.72530120497E+02  0.25944826525E+04  0.25960639271E+04  0.25500000920E-02 0.  1.
       -2    1    3    3    0  502  0.54286840983E+02 -0.72530120497E+02  0.88157562238E+02  0.12640979103E+03  0.25500000920E-02 0. -1.
</event>
<event>
 5   0  0.1502642E-01  0.6035876E+03  0.7818609E-02  0.9897991E-01
       -2   -1    0    0    0  501  0.00000000000E+00  0.00000000000E+00  0.20399334879E+03  0.20399334881E+03  0.25500000920E-02 0. -1.
        2   -1    0    0  501    0  0.00000000000E+00  0.00000000000E+00 -0.44648267900E+03  0.44648267901E+03  0.25500000920E-02 0.  1.
    10030    2    1    2    0    0  0.00000000000E+00  0.00000000000E+00 -0.24248933020E+03  0.65047602781E+03  0.60358759720E+03 0.  0.
        2    1    3    3  502    0  0.39282130621E+02 -0.28511946170E+03 -0.21909034100E+03  0.36171365851E+03  0.25500000920E-02 0.  1.
       -2    1    3    3    0  502 -0.39282130621E+02  0.28511946170E+03 -0.23398989206E+02  0.28876236931E+03  0.25500000920E-02 0. -1.
</event>
<event>
 5   0  0.1532571E-01  0.6095473E+03  0.7818609E-02  0.9885794E-01
       -2   -1    0    0    0  501  0.00000000000E+00  0.00000000000E+00  0.45387857675E+02  0.45387857746E+02  0.25500000920E-02 0.  1.
        2   -1    0    0  501    0  0.00000000000E+00  0.00000000000E+00 -0.20465162068E+04  0.20465162068E+04  0.25500000920E-02 0. -1.
    10030    2    1    2    0    0  0.00000000000E+00  0.00000000000E+00 -0.20011283491E+04  0.20919040646E+04  0.60954732843E+03 0.  0.
        1    1    3    3  502    0 -0.43258863549E+02  0.61530804267E+02  0.13035155836E+02  0.76336652156E+02  0.50400001928E-02 0.  1.
       -1    1    3    3    0  502  0.43258863549E+02 -0.61530804267E+02 -0.20141635050E+04  0.20155674124E+04  0.50400001928E-02 0. -1.
</event>
<event>
 5   0  0.9497860E-02  0.5819485E+03  0.7818609E-02  0.9943581E-01
       -1   -1    0    0    0  501  0.00000000000E+00  0.00000000000E+00  0.59465630811E+02  0.59465631024E+02  0.50400001928E-02 0.  1.
        1   -1    0    0  501    0  0.00000000000E+00  0.00000000000E+00 -0.14237806865E+04  0.14237806865E+04  0.50400001928E-02 0. -1.
    10030    2    1    2    0    0  0.00000000000E+00  0.00000000000E+00 -0.13643150557E+04  0.14832463175E+04  0.58194850914E+03 0.  0.
        5    1    3    3  502    0 -0.39879577108E+02 -0.14987490462E+03 -0.13095408807E+04  0.13187009804E+04  0.46999998093E+01 0. -1.
       -5    1    3    3    0  502  0.39879577108E+02  0.14987490462E+03 -0.54774175003E+02  0.16454533706E+03  0.46999998093E+01 0.  1.
</event>
<event>
 5   0  0.9177281E-02  0.5849864E+03  0.7818609E-02  0.9937054E-01
        1   -1    0    0  501    0  0.00000000000E+00  0.00000000000E+00  0.45332112593E+03  0.45332112595E+03  0.50400001928E-02 0. -1.
       -1   -1    0    0    0  501  0.00000000000E+00  0.00000000000E+00 -0.18872330948E+03  0.18872330955E+03  0.50400001928E-02 0.  1.
    10030    2    1    2    0    0  0.00000000000E+00  0.00000000000E+00  0.26459781645E+03  0.64204443550E+03  0.58498636966E+03 0.  0.
        1    1    3    3  502    0  0.23253648674E+03 -0.58217132330E+02  0.31624634808E+03  0.39683019651E+03  0.50400001928E-02 0. -1.
       -1    1    3    3    0  502 -0.23253648674E+03  0.58217132330E+02 -0.51648531634E+02  0.24521423899E+03  0.50400001928E-02 0.  1.
</event>
<event>
 5   0  0.1532571E-01  0.6046171E+03  0.7818609E-02  0.9895873E-01
       -2   -1    0    0    0  501  0.00000000000E+00  0.00000000000E+00  0.44549698445E+03  0.44549698446E+03  0.25500000920E-02 0.  1.
        2   -1    0    0  501    0  0.00000000000E+00  0.00000000000E+00 -0.20514268590E+03  0.20514268592E+03  0.25500000920E-02 0. -1.
    10030    2    1    2    0    0  0.00000000000E+00  0.00000000000E+00  0.24035429855E+03  0.65063967038E+03  0.60461706214E+03 0.  0.
        1    1    3    3  502    0  0.64471989789E+02  0.41879233652E+02 -0.19444713858E+03  0.20909375267E+03  0.50400001928E-02 0. -1.
       -1    1    3    3    0  502 -0.64471989789E+02 -0.41879233652E+02  0.43480143713E+03  0.44154591770E+03  0.50400001928E-02 0.  1.
</event>
<event>
 5   0  0.9420349E-02  0.5804144E+03  0.7818609E-02  0.9946894E-01
       -1   -1    0    0    0  501  0.00000000000E+00  0.00000000000E+00  0.24932633209E+03  0.24932633214E+03  0.50400001928E-02 0. -1.
        1   -1    0    0  501    0  0.00000000000E+00  0.00000000000E+00 -0.33779106521E+03  0.33779106524E+03  0.50400001928E-02 0.  1.
    10030    2    1    2    0    0  0.00000000000E+00  0.00000000000E+00 -0.88464733113E+02  0.58711739739E+03  0.58041436001E+03 0.  0.
        2    1    3    3  502    0  0.14382031032E+03  0.24623360419E+03 -0.98752288039E+02  0.30177356394E+03  0.25500000920E-02 0.  1.
       -2    1    3    3    0  502 -0.14382031032E+03 -0.24623360419E+03  0.10287554926E+02  0.28534383345E+03  0.25500000920E-02 0. -1.
</event>
<event>
 5   0  0.8860626E-02  0.5413736E+03  0.7818609E-02  0.1003511E+00
        1   -1    0    0  501    0  0.00000000000E+00  0.00000000000E+00  0.44880192512E+03  0.44880192515E+03  0.50400001928E-02 0. -1.
       -1   -1    0    0    0  501  0.00000000000E+00  0.00000000000E+00 -0.16325985310E+03  0.16325985318E+03  0.50400001928E-02 0.  1.
    10030    2    1    2    0    0  0.00000000000E+00  0.00000000000E+00  0.28554207202E+03  0.61206177833E+03  0.54137357305E+03 0.  0.
        3    1    3    3  502    0 -0.46693399408E+02  0.24901121143E+03  0.25052865507E+03  0.35630250375E+03  0.10100000352E+00 0. -1.
       -3    1    3    3    0  502  0.46693399408E+02 -0.24901121143E+03  0.35013416955E+02  0.25575927458E+03  0.10100000352E+00 0.  1.
</event>
<event>
 5   0  0.9411028E-02  0.6047130E+03  0.7818609E-02  0.9895676E-01
        1   -1    0    0  501    0  0.00000000000E+00  0.00000000000E+00  0.20767325850E+04  0.20767325850E+04  0.50400001928E-02 0. -1.
       -1   -1    0    0    0  501  0.00000000000E+00  0.00000000000E+00 -0.44020804676E+02  0.44020804964E+02  0.50400001928E-02 0.  1.
    10030    2    1    2    0    0  0.00000000000E+00  0.00000000000E+00  0.20327117803E+04  0.21207533900E+04  0.60471295604E+03 0.  0.
        4    1    3    3  502    0  0.21349543222E+03 -0.37604491635E+02  0.27718145501E+03  0.35188857507E+03  0.12699999809E+01 0.  1.
       -4    1    3    3    0  502 -0.21349543222E+03  0.37604491635E+02  0.17555303253E+04  0.17688648149E+04  0.12699999809E+01 0. -1.
</event>
<event>
 5   0  0.1532571E-01  0.6008478E+03  0.7818609E-02  0.9903649E-01
        2   -1    0    0  501    0  0.00000000000E+00  0.00000000000E+00  0.14703494026E+04  0.14703494026E+04  0.25500000920E-02 0.  1.
       -2   -1    0    0    0  501  0.00000000000E+00  0.00000000000E+00 -0.61383035162E+02  0.61383035215E+02  0.25500000920E-02 0. -1.
    10030    2    1    2    0    0  0.00000000000E+00  0.00000000000E+00  0.14089663674E+04  0.15317324378E+04  0.60084776481E+03 0.  0.
        1    1    3    3  502    0  0.10369395681E+03 -0.27647503033E+03  0.56338006337E+03  0.63607230320E+03  0.50400001928E-02 0. -1.
       -1    1    3    3    0  502 -0.10369395681E+03  0.27647503033E+03  0.84558630403E+03  0.89566013457E+03  0.50400001928E-02 0.  1.
</event>
<event>
 5   0  0.9420349E-02  0.6039080E+03  0.7818609E-02  0.9897331E-01
       -1   -1    0    0    0  501  0.00000000000E+00  0.00000000000E+00  0.53395770589E+03  0.53395770591E+03  0.50400001928E-02 0. -1.
        1   -1    0    0  501    0  0.00000000000E+00  0.00000000000E+00 -0.17075551520E+03  0.17075551528E+03  0.50400001928E-02 0.  1.
    10030    2    1    2    0    0  0.00000000000E+00  0.00000000000E+00  0.36320219068E+03  0.70471322119E+03  0.60390801684E+03 0.  0.
        2    1    3    3  502    0  0.23128948978E+03 -0.10111372926E+03 -0.11761025086E+02  0.25269969538E+03  0.25500000920E-02 0.  1.
       -2    1    3    3    0  502 -0.23128948978E+03  0.10111372926E+03  0.37496321577E+03  0.45201352581E+03  0.25500000920E-02 0. -1.
</event>
<event>
 5   0  0.8860626E-02  0.5834213E+03  0.7818609E-02  0.9940411E-01
       -1   -1    0    0    0  501  0.00000000000E+00  0.00000000000E+00  0.22876202301E+03  0.22876202307E+03  0.50400001928E-02 0.  1.
        1   -1    0    0  501    0  0.00000000000E+00  0.00000000000E+00 -0.37198094897E+03  0.37198094900E+03  0.50400001928E-02 0. -1.
    10030    2    1    2    0    0  0.00000000000E+00  0.00000000000E+00 -0.14321892595E+03  0.60074297207E+03  0.58342133809E+03 0.  0.
        3    1    3    3  502    0  0.25663491751E+03 -0.12940967559E+03 -0.20261495489E+02  0.28812997661E+03  0.10100000352E+00 0. -1.
       -3    1    3    3    0  502 -0.25663491751E+03  0.12940967559E+03 -0.12295743047E+03  0.31261299546E+03  0.10100000352E+00 0.  1.
</event>
<event>
 5   0  0.9497860E-02  0.5941282E+03  0.7818609E-02  0.9917664E-01
        1   -1    0    0  501    0  0.00000000000E+00  0.00000000000E+00  0.94584992860E+03  0.94584992861E+03  0.50400001928E-02 0. -1.
       -1   -1    0    0    0  501  0.00000000000E+00  0.00000000000E+00 -0.93299232673E+02  0.93299232809E+02  0.50400001928E-02 0.  1.
    10030    2    1    2    0    0  0.00000000000E+00  0.00000000000E+00  0.85255069592E+03  0.10391491614E+04  0.59412817688E+03 0.  0.
        5    1    3    3  502    0  0.13516683190E+03  0.14406427246E+03  0.38319735303E+02  0.20128357896E+03  0.46999998093E+01 0.  1.
       -5    1    3    3    0  502 -0.13516683190E+03 -0.14406427246E+03  0.81423096062E+03  0.83786558246E+03  0.46999998093E+01 0. -1.
</event>
<event>
 5   0  0.1532571E-01  0.5949598E+03  0.7818609E-02  0.9915918E-01
       -2   -1    0    0    0  501  0.00000000000E+00  0.00000000000E+00  0.17097079980E+03  0.17097079982E+03  0.25500000920E-02 0.  1.
        2   -1    0    0  501    0  0.00000000000E+00  0.00000000000E+00 -0.51759888302E+03  0.51759888302E+03  0.25500000920E-02 0. -1.
    10030    2    1    2    0    0  0.00000000000E+00  0.00000000000E+00 -0.34662808322E+03  0.68856968284E+03  0.59495981382E+03 0.  0.
        1    1    3    3  502    0  0.10656515619E+03  0.12599287374E+03 -0.45977325240E+03  0.48848928380E+03  0.50400001928E-02 0. -1.
       -1    1    3    3    0  502 -0.10656515619E+03 -0.12599287374E+03  0.11314516918E+03  0.20008039904E+03  0.50400001928E-02 0.  1.
</event>
<event>
 5   0  0.9497860E-02  0.6234860E+03  0.7818609E-02  0.9857843E-01
       -1   -1    0    0    0  501  0.00000000000E+00  0.00000000000E+00  0.96407417839E+02  0.96407417971E+02  0.50400001928E-02 0. -1.
        1   -1    0    0  501    0  0.00000000000E+00  0.00000000000E+00 -0.10080522097E+04  0.10080522097E+04  0.50400001928E-02 0.  1.
    10030    2    1    2    0    0  0.00000000000E+00  0.00000000000E+00 -0.91164479182E+03  0.11044596276E+04  0.62348604045E+03 0.  0.
        5    1    3    3  502    0  0.14974606003E+03 -0.20523565897E+03 -0.77574054320E+03  0.81629715091E+03  0.46999998093E+01 0.  1.
       -5    1    3    3    0  502 -0.14974606003E+03  0.20523565897E+03 -0.13590424861E+03  0.28816247674E+03  0.46999998093E+01 0. -1.
</event>
<event>
 5   0  0.8860626E-02  0.5858505E+03  0.7818609E-02  0.9935205E-01
       -1   -1    0    0    0  501  0.00000000000E+00  0.00000000000E+00  0.36600315493E+03  0.36600315496E+03  0.50400001928E-02 0.  1.
        1   -1    0    0  501    0  0.00000000000E+00  0.00000000000E+00 -0.23443839624E+03  0.23443839630E+03  0.50400001928E-02 0. -1.
    10030    2    1    2    0    0  0.00000000000E+00  0.00000000000E+00  0.13156475868E+03  0.60044155126E+03  0.58585046791E+03 0.  0.
        3    1    3    3  502    0 -0.14785545298E+03  0.25285534218E+03  0.68703529890E+02  0.30086083871E+03  0.10100000352E+00 0.  1.
       -3    1    3    3    0  502  0.14785545298E+03 -0.25285534218E+03  0.62861228792E+02  0.29958071255E+03  0.10100000352E+00 0. -1.
</event>
<event>
 5   0  0.6170500E-02  0.5890158E+03  0.7818609E-02  0.9928460E-01
        3   -1    0    0  501    0  0.00000000000E+00  0.00000000000E+00  0.24603406113E+03  0.24603408186E+03  0.10100000352E+00 0. -1.
       -3   -1    0    0    0  501  0.00000000000E+00  0.00000000000E+00 -0.35253208964E+03  0.35253210411E+03  0.10100000352E+00 0.  1.
    10030    2    1    2    0    0  0.00000000000E+00  0.00000000000E+00 -0.10649802851E+03  0.59856618597E+03  0.58901583078E+03 0.  0.
        4    1    3    3  502    0 -0.53937486873E+02 -0.72297585151E+01  0.24087743285E+03  0.24695155893E+03  0.12699999809E+01 0. -1.
       -4    1    3    3    0  502  0.53937486873E+02  0.72297585151E+01 -0.34737546136E+03  0.35161462705E+03  0.12699999809E+01 0.  1.
</event>
<event>
 5   0  0.1502642E-01  0.6199975E+03  0.7818609E-02  0.9864765E-01
        2   -1    0    0  501    0  0.00000000000E+00  0.00000000000E+00  0.26818300882E+04  0.26818300882E+04  0.25500000920E-02 0. -1.
       -2   -1    0    0    0  501  0.00000000000E+00  0.00000000000E+00 -0.35833452634E+02  0.35833452725E+02  0.25500000920E-02 0.  1.
    10030    2    1    2    0    0  0.00000000000E+00  0.00000000000E+00  0.26459966356E+04  0.27176635409E+04  0.61999752117E+03 0.  0.
        2    1    3    3  502    0  0.52974021272E+02 -0.27938421750E+03  0.78191793189E+03  0.83202009599E+03  0.25500000920E-02 0.  1.
       -2    1    3    3    0  502 -0.52974021272E+02  0.27938421750E+03  0.18640787037E+04  0.18856434449E+04  0.25500000920E-02 0. -1.
</event>
<event>
 5   0  0.9420349E-02  0.6210974E+03  0.7818609E-02  0.9862577E-01
       -1   -1    0    0    0  501  0.00000000000E+00  0.00000000000E+00  0.46757840639E+03  0.46757840642E+03  0.50400001928E-02 0. -1.
        1   -1    0    0  501    0  0.00000000000E+00  0.00000000000E+00 -0.20625522087E+03  0.20625522093E+03  0.50400001928E-02 0.  1.
    10030    2    1    2    0    0  0.00000000000E+00  0.00000000000E+00  0.26132318552E+03  0.67383362735E+03  0.62109737567E+03 0.  0.
        2    1    3    3  502    0  0.15712677945E+03  0.26321229049E+03  0.76732239358E+02  0.31600216969E+03  0.25500000920E-02 0. -1.
       -2    1    3    3    0  502 -0.15712677945E+03 -0.26321229049E+03  0.18459094616E+03  0.35783145767E+03  0.25500000920E-02 0.  1.
</event>
<event>
 5   0  0.1488510E-01  0.5895581E+03  0.7818609E-02  0.9927310E-01
        2   -1    0    0  501    0  0.00000000000E+00  0.00000000000E+00  0.26821750870E+03  0.26821750872E+03  0.25500000920E-02 0.  1.
       -2   -1    0    0    0  501  0.00000000000E+00  0.00000000000E+00 -0.32397099341E+03  0.32397099342E+03  0.25500000920E-02 0. -1.
    10030    2    1    2    0    0  0.00000000000E+00  0.00000000000E+00 -0.55753484709E+02  0.59218850214E+03  0.58955811504E+03 0.  0.
        5    1    3    3  502    0  0.23070600627E+03  0.16559768046E+03 -0.10712583419E+03  0.30355541084E+03  0.46999998093E+01 0. -1.
       -5    1    3    3    0  502 -0.23070600627E+03 -0.16559768046E+03  0.51372349480E+02  0.28863309130E+03  0.46999998093E+01 0.  1.
</event>
<event>
 5   0  0.1483942E-01  0.6058745E+03  0.7818609E-02  0.9893293E-01
       -2   -1    0    0    0  501  0.00000000000E+00  0.00000000000E+00  0.20362796783E+03  0.20362796785E+03  0.25500000920E-02 0.  1.
        2   -1    0    0  501    0  0.00000000000E+00  0.00000000000E+00 -0.45067963628E+03  0.45067963629E+03  0.25500000920E-02 0. -1.
    10030    2    1    2    0    0  0.00000000000E+00  0.00000000000E+00 -0.24705166845E+03  0.65430760414E+03  0.60587450347E+03 0.  0.
        4    1    3    3  502    0 -0.17168030912E+03  0.11532686369E+03  0.11551657489E+03  0.23689682564E+03  0.12699999809E+01 0.  1.
       -4    1    3    3    0  502  0.17168030912E+03 -0.11532686369E+03 -0.36256824334E+03  0.41741077850E+03  0.12699999809E+01 0. -1.
</event>
<event>
 5   0  0.1483942E-01  0.6042202E+03  0.7818609E-02  0.9896689E-01
       -2   -1    0    0    0  501  0.00000000000E+00  0.00000000000E+00  0.16630768091E+03  0.16630768093E+03  0.25500000920E-02 0.  1.
        2   -1    0    0  501    0  0.00000000000E+00  0.00000000000E+00 -0.54880506939E+03  0.54880506939E+03  0.25500000920E-02 0. -1.
    10030    2    1    2    0    0  0.00000000000E+00  0.00000000000E+00 -0.38249738848E+03  0.71511275033E+03  0.60422015316E+03 0.  0.
        4    1    3    3  502    0  0.21222842600E+03  0.79304622788E+02 -0.42777344288E+03  0.48406803172E+03  0.12699999809E+01 0. -1.
       -4    1    3    3    0  502 -0.21222842600E+03 -0.79304622788E+02  0.45276054402E+02  0.23104471861E+03  0.12699999809E+01 0.  1.
</event>
<event>
 5   0  0.9497860E-02  0.5938563E+03  0.7818609E-02  0.9918235E-01
       -1   -1    0    0    0  501  0.00000000000E+00  0.00000000000E+00  0.16742649651E+03  0.16742649659E+03  0.50400001928E-02 0. -1.
        1   -1    0    0  501    0  0.00000000000E+00  0.00000000000E+00 -0.52659720169E+03  0.52659720171E+03  0.50400001928E-02 0.  1.
    10030    2    1    2    0    0  0.00000000000E+00  0.00000000000E+00 -0.35917070517E+03  0.69402369830E+03  0.59385629436E+03 0.  0.
        5    1    3    3  502    0 -0.27452267750E+03  0.42038270079E+01 -0.31161880693E+03  0.41534171889E+03  0.46999998093E+01 0.  1.
       -5    1    3    3    0  502  0.27452267750E+03 -0.42038270079E+01 -0.47551898240E+02  0.27868197941E+03  0.46999998093E+01 0. -1.
</event>
<event>
 5   0  0.9497860E-02  0.6041604E+03  0.7818609E-02  0.9896812E-01
       -1   -1    0    0    0  501  0.00000000000E+00  0.00000000000E+00  0.81033631162E+02  0.81033631318E+02  0.50400001928E-02 0. -1.
        1   -1    0    0  501    0  0.00000000000E+00  0.00000000000E+00 -0.11261058996E+04  0.11261058996E+04  0.50400001928E-02 0.  1.
    10030    2    1    2    0    0  0.00000000000E+00  0.00000000000E+00 -0.10450722684E+04  0.12071395309E+04  0.60416040988E+03 0.  0.
        5    1    3    3  502    0  0.69625984149E+02 -0.27936649079E+03 -0.34010090222E+03  0.44562779035E+03  0.46999998093E+01 0. -1.
       -5    1    3    3    0  502 -0.69625984149E+02  0.27936649079E+03 -0.70497136618E+03  0.76151174054E+03  0.46999998093E+01 0.  1.
</event>
<event>
 5   0  0.9497860E-02  0.5849073E+03  0.7818609E-02  0.9937223E-01
        1   -1    0    0  501    0  0.00000000000E+00  0.00000000000E+00  0.45414234216E+03  0.45414234219E+03  0.50400001928E-02 0.  1.
       -1   -1    0    0    0  501  0.00000000000E+00  0.00000000000E+00 -0.18833109940E+03  0.18833109947E+03  0.50400001928E-02 0. -1.
    10030    2    1    2    0    0  0.00000000000E+00  0.00000000000E+00  0.26581124276E+03  0.64247344166E+03  0.58490726313E+03 0.  0.
        5    1    3    3  502    0 -0.92769009794E+02 -0.14634496400E+03  0.39163898479E+03  0.42828275949E+03  0.46999998093E+01 0.  1.
       -5    1    3    3    0  502  0.92769009794E+02  0.14634496400E+03 -0.12582774204E+03  0.21419068217E+03  0.46999998093E+01 0. -1.
</event>
<event>
 5   0  0.1483942E-01  0.5791447E+03  0.7818609E-02  0.9949644E-01
       -2   -1    0    0    0  501  0.00000000000E+00  0.00000000000E+00  0.19972055601E+03  0.19972055603E+03  0.25500000920E-02 0. -1.
        2   -1    0    0  501    0  0.00000000000E+00  0.00000000000E+00 -0.41984737837E+03  0.41984737838E+03  0.25500000920E-02 0.  1.
    10030    2    1    2    0    0  0.00000000000E+00  0.00000000000E+00 -0.22012682236E+03  0.61956793440E+03  0.57914472062E+03 0.  0.
        4    1    3    3  502    0 -0.17511297868E+03 -0.18892047636E+03 -0.25156433233E+03  0.36005795074E+03  0.12699999809E+01 0.  1.
       -4    1    3    3    0  502  0.17511297868E+03  0.18892047636E+03  0.31437509968E+02  0.25950998367E+03  0.12699999809E+01 0. -1.
</event>
<event>
 5   0  0.1488510E-01  0.6052791E+03  0.7818609E-02  0.9894514E-01
       -2   -1    0    0    0  501  0.00000000000E+00  0.00000000000E+00  0.13503888460E+03  0.13503888462E+03  0.25500000920E-02 0.  1.
        2   -1    0    0  501    0  0.00000000000E+00  0.00000000000E+00 -0.67825431738E+03  0.67825431738E+03  0.25500000920E-02 0. -1.
    10030    2    1    2    0    0  0.00000000000E+00  0.00000000000E+00 -0.54321543278E+03  0.81329320201E+03  0.60527913067E+03 0.  0.
        5    1    3    3  502    0  0.39557241197E+02  0.11417319769E+03  0.10116786103E+03  0.15766204523E+03  0.46999998093E+01 0.  1.
       -5    1    3    3    0  502 -0.39557241197E+02 -0.11417319769E+03 -0.64438329381E+03  0.65563115678E+03  0.46999998093E+01 0. -1.
</event>
<event>
 5   0  0.8860626E-02  0.5936857E+03  0.7818609E-02  0.9918594E-01
       -1   -1    0    0    0  501  0.00000000000E+00  0.00000000000E+00  0.28555190439E+03  0.28555190443E+03  0.50400001928E-02 0.  1.
        1   -1    0    0  501    0  0.00000000000E+00  0.00000000000E+00 -0.30858021109E+03  0.30858021113E+03  0.50400001928E-02 0. -1.
    10030    2    1    2    0    0  0.00000000000E+00  0.00000000000E+00 -0.23028306707E+02  0.59413211556E+03  0.59368566416E+03 0.  0.
        3    1    3    3  502    0 -0.20461486705E+03  0.10369150087E+03 -0.20006094422E+03  0.30437405076E+03  0.10100000352E+00 0. -1.
       -3    1    3    3    0  502  0.20461486705E+03 -0.10369150087E+03  0.17703263752E+03  0.28975806480E+03  0.10100000352E+00 0.  1.
</event>
<event>
 5   0  0.1483942E-01  0.5996951E+03  0.7818609E-02  0.9906039E-01
        2   -1    0    0  501    0  0.00000000000E+00  0.00000000000E+00  0.35557880733E+03  0.35557880734E+03  0.25500000920E-02 0.  1.
       -2   -1    0    0    0  501  0.00000000000E+00  0.00000000000E+00 -0.25285129891E+03  0.25285129892E+03  0.25500000920E-02 0. -1.
    10030    2    1    2    0    0  0.00000000000E+00  0.00000000000E+00  0.10272750842E+03  0.60843010627E+03  0.59969513357E+03 0.  0.
        4    1    3    3  502    0 -0.95843307318E+02  0.16951679477E+03 -0.17995959713E+03  0.26515835413E+03  0.12699999809E+01 0. -1.
       -4    1    3    3    0  502  0.95843307318E+02 -0.16951679477E+03  0.28268710555E+03  0.34327175213E+03  0.12699999809E+01 0.  1.
</event>
<event>
 5   0  0.1532571E-01  0.5928726E+03  0.7818609E-02  0.9920304E-01
       -2   -1    0    0    0  501  0.00000000000E+00  0.00000000000E+00  0.10682619391E+03  0.10682619394E+03  0.25500000920E-02 0.  1.
        2   -1    0    0  501    0  0.00000000000E+00  0.00000000000E+00 -0.82259309305E+03  0.82259309305E+03  0.25500000920E-02 0. -1.
    10030    2    1    2    0    0  0.00000000000E+00  0.00000000000E+00 -0.71576689914E+03  0.92941928699E+03  0.59287263146E+03 0.  0.
        1    1    3    3  502    0 -0.29558144490E+03  0.21600783772E+02 -0.36773660562E+03  0.47229778273E+03  0.50400001928E-02 0. -1.
       -1    1    3    3    0  502  0.29558144490E+03 -0.21600783772E+02 -0.34803029352E+03  0.45712150426E+03  0.50400001928E-02 0.  1.
</event>
<event>
 5   0  0.6170500E-02  0.5863979E+03  0.7818609E-02  0.9934035E-01
        3   -1    0    0  501    0  0.00000000000E+00  0.00000000000E+00  0.14210856904E+03  0.14210860493E+03  0.10100000352E+00 0.  1.
       -3   -1    0    0    0  501  0.00000000000E+00  0.00000000000E+00 -0.60492908141E+03  0.60492908985E+03  0.10100000352E+00 0. -1.
    10030    2    1    2    0    0  0.00000000000E+00  0.00000000000E+00 -0.46282051238E+03  0.74703769478E+03  0.58639789456E+03 0.  0.
        4    1    3    3  502    0 -0.27116249392E+03  0.31487591169E+02 -0.95131401568E+02  0.28908850370E+03  0.12699999809E+01 0.  1.
       -4    1    3    3    0  502  0.27116249392E+03 -0.31487591169E+02 -0.36768911081E+03  0.45794919108E+03  0.12699999809E+01 0. -1.
</event>
<event>
 5   0  0.9177281E-02  0.6028939E+03  0.7818609E-02  0.9899420E-01
        1   -1    0    0  501    0  0.00000000000E+00  0.00000000000E+00  0.11450122999E+04  0.11450122999E+04  0.50400001928E-02 0.  1.
       -1   -1    0    0    0  501  0.00000000000E+00  0.00000000000E+00 -0.79361829333E+02  0.79361829493E+02  0.50400001928E-02 0. -1.
    10030    2    1    2    0    0  0.00000000000E+00  0.00000000000E+00  0.10656504706E+04  0.12243741294E+04  0.60289392378E+03 0.  0.
        1    1    3    3  502    0 -0.15285040608E+03  0.20722987046E+03  0.85110733723E+03  0.88920816762E+03  0.50400001928E-02 0.  1.
       -1    1    3    3    0  502  0.15285040608E+03 -0.20722987046E+03  0.21454313333E+03  0.33516596178E+03  0.50400001928E-02 0. -1.
</event>
<event>
 5   0  0.1513339E-01  0.5852598E+03  0.7818609E-02  0.9936468E-01
        2   -1    0    0  501    0  0.00000000000E+00  0.00000000000E+00  0.19756567443E+04  0.19756567443E+04  0.25500000920E-02 0. -1.
       -2   -1    0    0    0  501  0.00000000000E+00  0.00000000000E+00 -0.43343685851E+02  0.43343685926E+02  0.25500000920E-02 0.  1.
    10030    2    1    2    0    0  0.00000000000E+00  0.00000000000E+00  0.19323130584E+04  0.20190004302E+04  0.58525975550E+03 0.  0.
        3    1    3    3  502    0  0.16064334851E+02  0.25438540948E+03  0.47027674215E+03  0.53491141680E+03  0.10100000352E+00 0.  1.
       -3    1    3    3    0  502 -0.16064334851E+02 -0.25438540948E+03  0.14620363163E+04  0.14840890134E+04  0.10100000352E+00 0. -1.
</event>
<event>
 5   0  0.8860626E-02  0.5915131E+03  0.7818609E-02  0.9923172E-01
        1   -1    0    0  501    0  0.00000000000E+00  0.00000000000E+00  0.15992423719E+04  0.15992423719E+04  0.50400001928E-02 0.  1.
       -1   -1    0    0    0  501  0.00000000000E+00  0.00000000000E+00 -0.54695855331E+02  0.54695855563E+02  0.50400001928E-02 0. -1.
    10030    2    1    2    0    0  0.00000000000E+00  0.00000000000E+00  0.15445465166E+04  0.16539382275E+04  0.59151307547E+03 0.  0.
        3    1    3    3  502    0 -0.14842167803E+03 -0.13145880255E+03  0.13859009851E+04  0.14000114149E+04  0.10100000352E+00 0.  1.
       -3    1    3    3    0  502  0.14842167803E+03  0.13145880255E+03  0.15864553153E+03  0.25392681258E+03  0.10100000352E+00 0. -1.
</event>
<event>
 5   0  0.9497860E-02  0.6180275E+03  0.7818609E-02  0.9868695E-01
       -1   -1    0    0    0  501  0.00000000000E+00  0.00000000000E+00  0.18121502972E+03  0.18121502979E+03  0.50400001928E-02 0. -1.
        1   -1    0    0  501    0  0.00000000000E+00  0.00000000000E+00 -0.52694021378E+03  0.52694021380E+03  0.50400001928E-02 0.  1.
    10030    2    1    2    0    0  0.00000000000E+00  0.00000000000E+00 -0.34572518405E+03  0.70815524359E+03  0.61802746390E+03 0.  0.
        5    1    3    3  502    0  0.13380199229E+03  0.77210613062E+02 -0.47947246975E+03  0.50376620685E+03  0.46999998093E+01 0.  1.
       -5    1    3    3    0  502 -0.13380199229E+03 -0.77210613062E+02  0.13374728570E+03  0.20438903675E+03  0.46999998093E+01 0. -1.
</event>
<event>
 5   0  0.6170500E-02  0.6045715E+03  0.7818609E-02  0.9895967E-01
        3   -1    0    0  501    0  0.00000000000E+00  0.00000000000E+00  0.95051688334E+03  0.95051688870E+03  0.10100000352E+00 0.  1.
       -3   -1    0    0    0  501  0.00000000000E+00  0.00000000000E+00 -0.96133642346E+02  0.96133695402E+02  0.10100000352E+00 0. -1.
    10030    2    1    2    0    0  0.00000000000E+00  0.00000000000E+00  0.85438324099E+03  0.10466505841E+04  0.60457151994E+03 0.  0.
        4    1    3    3  502    0  0.11766866212E+03  0.19662937743E+03  0.76849390203E+03  0.80193111703E+03  0.12699999809E+01 0.  1.
       -4    1    3    3    0  502 -0.11766866212E+03 -0.19662937743E+03  0.85889338967E+02  0.24471946707E+03  0.12699999809E+01 0. -1.
</event>
<event>
 5   0  0.9177281E-02  0.6077045E+03  0.7818609E-02  0.9889549E-01
       -1   -1    0    0    0  501  0.00000000000E+00  0.00000000000E+00  0.27741780114E+03  0.27741780118E+03  0.50400001928E-02 0. -1.
        1   -1    0    0  501    0  0.00000000000E+00  0.00000000000E+00 -0.33280555720E+03  0.33280555724E+03  0.50400001928E-02 0.  1.
    10030    2    1    2    0    0  0.00000000000E+00  0.00000000000E+00 -0.55387756066E+02  0.61022335843E+03  0.60770448711E+03 0.  0.
        1    1    3    3  502    0  0.10853426563E+03 -0.28379185761E+03 -0.24735375733E+02  0.30484314671E+03  0.50400001928E-02 0.  1.
       -1    1    3    3    0  502 -0.10853426563E+03  0.28379185761E+03 -0.30652380333E+02  0.30538021171E+03  0.50400001928E-02 0. -1.
</event>
<event>
 5   0  0.9411028E-02  0.5913892E+03  0.7818609E-02  0.9923433E-01
        1   -1    0    0  501    0  0.00000000000E+00  0.00000000000E+00  0.22407415004E+03  0.22407415010E+03  0.50400001928E-02 0.  1.
       -1   -1    0    0    0  501  0.00000000000E+00  0.00000000000E+00 -0.39020700046E+03  0.39020700049E+03  0.50400001928E-02 0. -1.
    10030    2    1    2    0    0  0.00000000000E+00  0.00000000000E+00 -0.16613285042E+03  0.61428115059E+03  0.59138921869E+03 0.  0.
        4    1    3    3  502    0 -0.25971453197E+03 -0.10843505999E+03  0.11129561423E+02  0.28166519201E+03  0.12699999809E+01 0. -1.
       -4    1    3    3    0  502  0.25971453197E+03  0.10843505999E+03 -0.17726241184E+03  0.33261595858E+03  0.12699999809E+01 0.  1.
</event>
<event>
 5   0  0.6170500E-02  0.6025784E+03  0.7818609E-02  0.9900071E-01
       -3   -1    0    0    0  501  0.00000000000E+00  0.00000000000E+00  0.29698000079E+03  0.29698001796E+03  0.10100000352E+00 0. -1.
        3   -1    0    0  501    0  0.00000000000E+00  0.00000000000E+00 -0.30566092666E+03  0.30566094334E+03  0.10100000352E+00 0.  1.
    10030    2    1    2    0    0  0.00000000000E+00  0.00000000000E+00 -0.86809258712E+01  0.60264096131E+03  0.60257843454E+03 0.  0.
        4    1    3    3  502    0 -0.21183477163E+03  0.24724115827E+02  0.20849216232E+03  0.29825466807E+03  0.12699999809E+01 0. -1.
       -4    1    3    3    0  502  0.21183477163E+03 -0.24724115827E+02 -0.21717308819E+03  0.30438629324E+03  0.12699999809E+01 0.  1.
</event>
<event>
 5   0  0.1513339E-01  0.5950114E+03  0.7818609E-02  0.9915810E-01
       -2   -1    0    0    0  501  0.00000000000E+00  0.00000000000E+00  0.44909611301E+02  0.44909611374E+02  0.25500000920E-02 0. -1.
        2   -1    0    0  501    0  0.00000000000E+00  0.00000000000E+00 -0.19708396751E+04  0.19708396751E+04  0.25500000920E-02 0.  1.
    10030    2    1    2    0    0  0.00000000000E+00  0.00000000000E+00 -0.19259300638E+04  0.20157492865E+04  0.59501140770E+03 0.  0.
        3    1    3    3  502    0 -0.79129501594E+02 -0.21261374858E+03 -0.16149949440E+04  0.16308509324E+04  0.10100000352E+00 0.  1.
       -3    1    3    3    0  502  0.79129501594E+02  0.21261374858E+03 -0.31093511981E+03  0.38489835416E+03  0.10100000352E+00 0. -1.
</event>
<event>
 5   0  0.6170500E-02  0.6210754E+03  0.7818609E-02  0.9862621E-01
        3   -1    0    0  501    0  0.00000000000E+00  0.00000000000E+00  0.11190599627E+04  0.11190599673E+04  0.10100000352E+00 0.  1.
       -3   -1    0    0    0  501  0.00000000000E+00  0.00000000000E+00 -0.86173781708E+02  0.86173840897E+02  0.10100000352E+00 0. -1.
    10030    2    1    2    0    0  0.00000000000E+00  0.00000000000E+00  0.10328861810E+04  0.12052338082E+04  0.62107541365E+03 0.  0.
        1    1    3    3  502    0  0.51072354480E+02  0.15891019610E+03  0.82801263114E+01  0.16712090335E+03  0.50400001928E-02 0. -1.
       -1    1    3    3    0  502 -0.51072354480E+02 -0.15891019610E+03  0.10246060547E+04  0.10381129048E+04  0.50400001928E-02 0.  1.
</event>
<event>
 5   0  0.9177281E-02  0.6182059E+03  0.7818609E-02  0.9868338E-01
        1   -1    0    0  501    0  0.00000000000E+00  0.00000000000E+00  0.10865241643E+04  0.10865241643E+04  0.50400001928E-02 0. -1.
       -1   -1    0    0    0  501  0.00000000000E+00  0.00000000000E+00 -0.87936055340E+02  0.87936055484E+02  0.50400001928E-02 0.  1.
    10030    2    1    2    0    0  0.00000000000E+00  0.00000000000E+00  0.99858810899E+03  0.11744602198E+04  0.61820594994E+03 0.  0.
        1    1    3    3  502    0  0.49181954601E+02 -0.29703936537E+03  0.63218961829E+03  0.70022493724E+03  0.50400001928E-02 0.  1.
       -1    1    3    3    0  502 -0.49181954601E+02  0.29703936537E+03  0.36639849071E+03  0.47423528259E+03  0.50400001928E-02 0. -1.
</event>
<event>
 5   0  0.9420349E-02  0.5307691E+03  0.7818609E-02  0.1006046E+00
        1   -1    0    0  501    0  0.00000000000E+00  0.00000000000E+00  0.10453486709E+04  0.10453486709E+04  0.50400001928E-02 0.  1.
       -1   -1    0    0    0  501  0.00000000000E+00  0.00000000000E+00 -0.67373641001E+02  0.67373641190E+02  0.50400001928E-02 0. -1.
    10030    2    1    2    0    0  0.00000000000E+00  0.00000000000E+00  0.97797502988E+03  0.11127223121E+04  0.53076905028E+03 0.  0.
        2    1    3    3  502    0 -0.11643769953E+03 -0.15403495733E+03  0.10731881104E+03  0.22091136947E+03  0.25500000920E-02 0. -1.
       -2    1    3    3    0  502  0.11643769953E+03  0.15403495733E+03  0.87065621884E+03  0.89181094261E+03  0.25500000920E-02 0.  1.
</event>
<event>
 5   0  0.8860626E-02  0.6759727E+03  0.7818609E-02  0.9759228E-01
       -1   -1    0    0    0  501  0.00000000000E+00  0.00000000000E+00  0.14578380368E+03  0.14578380377E+03  0.50400001928E-02 0.  1.
        1   -1    0    0  501    0  0.00000000000E+00  0.00000000000E+00 -0.78359040176E+03  0.78359040178E+03  0.50400001928E-02 0. -1.
    10030    2    1    2    0    0  0.00000000000E+00  0.00000000000E+00 -0.63780659808E+03  0.92937420555E+03  0.67597274899E+03 0.  0.
        3    1    3    3  502    0  0.25976269783E+03  0.21154820709E+03 -0.25733315567E+03  0.42243303175E+03  0.10100000352E+00 0.  1.
       -3    1    3    3    0  502 -0.25976269783E+03 -0.21154820709E+03 -0.38047344241E+03  0.50694117379E+03  0.10100000352E+00 0. -1.
</event>
<event>
 5   0  0.1483942E-01  0.5871327E+03  0.7818609E-02  0.9932467E-01
        2   -1    0    0  501    0  0.00000000000E+00  0.00000000000E+00  0.78642313795E+03  0.78642313795E+03  0.25500000920E-02 0. -1.
       -2   -1    0    0    0  501  0.00000000000E+00  0.00000000000E+00 -0.10958629131E+03  0.10958629134E+03  0.25500000920E-02 0.  1.
    10030    2    1    2    0    0  0.00000000000E+00  0.00000000000E+00  0.67683684664E+03  0.89600942929E+03  0.58713267701E+03 0.  0.
        4    1    3    3  502    0  0.21557311621E+03 -0.16532091111E+03  0.50819614150E+03  0.57625315897E+03  0.12699999809E+01 0. -1.
       -4    1    3    3    0  502 -0.21557311621E+03  0.16532091111E+03  0.16864070513E+03  0.31975627032E+03  0.12699999809E+01 0.  1.
</event>
<event>
 5   0  0.1513339E-01  0.6580158E+03  0.7818609E-02  0.9791853E-01
       -2   -1    0    0    0  501  0.00000000000E+00  0.00000000000E+00  0.12678685573E+03  0.12678685576E+03  0.25500000920E-02 0.  1.
        2   -1    0    0  501    0  0.00000000000E+00  0.00000000000E+00 -0.85376512517E+03  0.85376512517E+03  0.25500000920E-02 0. -1.
    10030    2    1    2    0    0  0.00000000000E+00  0.00000000000E+00 -0.72697826944E+03  0.98055198093E+03  0.65801579242E+03 0.  0.
        3    1    3    3  502    0  0.13306481500E+03  0.25527089353E+03 -0.60087342556E+03  0.66627198487E+03  0.10100000352E+00 0.  1.
       -3    1    3    3    0  502 -0.13306481500E+03 -0.25527089353E+03 -0.12610484387E+03  0.31427999606E+03  0.10100000352E+00 0. -1.
</event>
<event>
 5   0  0.6170500E-02  0.6097198E+03  0.7818609E-02  0.9885443E-01
       -3   -1    0    0    0  501  0.00000000000E+00  0.00000000000E+00  0.42794578559E+03  0.42794579750E+03  0.10100000352E+00 0. -1.
        3   -1    0    0  501    0  0.00000000000E+00  0.00000000000E+00 -0.21717599160E+03  0.21717601509E+03  0.10100000352E+00 0.  1.
    10030    2    1    2    0    0  0.00000000000E+00  0.00000000000E+00  0.21076979398E+03  0.64512181259E+03  0.60971981026E+03 0.  0.
        3    1    3    3  502    0 -0.11638998844E+03 -0.27661440200E+03  0.16214081387E+03  0.34110381195E+03  0.10100000352E+00 0. -1.
       -3    1    3    3    0  502  0.11638998844E+03  0.27661440200E+03  0.48628980112E+02  0.30401800064E+03  0.10100000352E+00 0.  1.
</event>
<event>
 5   0  0.9411028E-02  0.5866392E+03  0.7818609E-02  0.9933520E-01
        1   -1    0    0  501    0  0.00000000000E+00  0.00000000000E+00  0.53805207750E+03  0.53805207752E+03  0.50400001928E-02 0.  1.
       -1   -1    0    0    0  501  0.00000000000E+00  0.00000000000E+00 -0.15990345002E+03  0.15990345010E+03  0.50400001928E-02 0. -1.
    10030    2    1    2    0    0  0.00000000000E+00  0.00000000000E+00  0.37814862748E+03  0.69795552762E+03  0.58663918559E+03 0.  0.
        4    1    3    3  502    0  0.26268963623E+03  0.11648605330E+03  0.25905690605E+03  0.38689396360E+03  0.12699999809E+01 0. -1.
       -4    1    3    3    0  502 -0.26268963623E+03 -0.11648605330E+03  0.11909172142E+03  0.31106156402E+03  0.12699999809E+01 0.  1.
</event>
<event>
 5   0  0.6170500E-02  0.6118031E+03  0.7818609E-02  0.9881217E-01
       -4   -1    0    0    0  501  0.00000000000E+00  0.00000000000E+00  0.44250369854E+03  0.44250552101E+03  0.12699999809E+01 0.  1.
        4   -1    0    0  501    0  0.00000000000E+00  0.00000000000E+00 -0.21146469525E+03  0.21146850885E+03  0.12699999809E+01 0. -1.
    10030    2    1    2    0    0  0.00000000000E+00  0.00000000000E+00  0.23103900329E+03  0.65397402986E+03  0.61180308162E+03 0.  0.
        5    1    3    3  502    0 -0.15106332555E+03 -0.10627257323E+03 -0.14508808439E+03  0.23491834832E+03  0.46999998093E+01 0. -1.
       -5    1    3    3    0  502  0.15106332555E+03  0.10627257323E+03  0.37612708768E+03  0.41905568154E+03  0.46999998093E+01 0.  1.
</event>
<event>
 5   0  0.9420349E-02  0.5996006E+03  0.7818609E-02  0.9906235E-01
       -1   -1    0    0    0  501  0.00000000000E+00  0.00000000000E+00  0.65032143672E+03  0.65032143674E+03  0.50400001928E-02 0.  1.
        1   -1    0    0  501    0  0.00000000000E+00  0.00000000000E+00 -0.13820890003E+03  0.13820890012E+03  0.50400001928E-02 0. -1.
    10030    2    1    2    0    0  0.00000000000E+00  0.00000000000E+00  0.51211253669E+03  0.78853033686E+03  0.59960056864E+03 0.  0.
        2    1    3    3  502    0  0.25015093288E+03  0.15897366692E+03  0.31533901516E+03  0.43276646183E+03  0.25500000920E-02 0.  1.
       -2    1    3    3    0  502 -0.25015093288E+03 -0.15897366692E+03  0.19677352153E+03  0.35576387503E+03  0.25500000920E-02 0. -1.
</event>
<event>
 5   0  0.9177281E-02  0.7314995E+03  0.7818609E-02  0.9664830E-01
        1   -1    0    0  501    0  0.00000000000E+00  0.00000000000E+00  0.28739265372E+03  0.28739265376E+03  0.50400001928E-02 0.  1.
       -1   -1    0    0    0  501  0.00000000000E+00  0.00000000000E+00 -0.46547077565E+03  0.46547077568E+03  0.50400001928E-02 0. -1.
    10030    2    1    2    0    0  0.00000000000E+00  0.00000000000E+00 -0.17807812193E+03  0.75286342944E+03  0.73149950504E+03 0.  0.
        1    1    3    3  502    0  0.11857955769E+03  0.13766548186E+03  0.23765874079E+03  0.29915643649E+03  0.50400001928E-02 0.  1.
       -1    1    3    3    0  502 -0.11857955769E+03 -0.13766548186E+03 -0.41573686272E+03  0.45370699295E+03  0.50400001928E-02 0. -1.
</event>
<event>
 5   0  0.9497860E-02  0.5799513E+03  0.7818609E-02  0.9947896E-01
       -1   -1    0    0    0  501  0.00000000000E+00  0.00000000000E+00  0.57883717089E+03  0.57883717091E+03  0.50400001928E-02 0.  1.
        1   -1    0    0  501    0  0.00000000000E+00  0.00000000000E+00 -0.14526690917E+03  0.14526690926E+03  0.50400001928E-02 0. -1.
    10030    2    1    2    0    0  0.00000000000E+00  0.00000000000E+00  0.43357026171E+03  0.72410408016E+03  0.57995133164E+03 0.  0.
        5    1    3    3  502    0  0.48118186001E+02  0.23751714616E+03  0.18055928360E+02  0.24305937770E+03  0.46999998093E+01 0. -1.
       -5    1    3    3    0  502 -0.48118186001E+02 -0.23751714616E+03  0.41551433335E+03  0.48104470246E+03  0.46999998093E+01 0.  1.
</event>
<event>
 5   0  0.9411028E-02  0.6139650E+03  0.7818609E-02  0.9876849E-01
        1   -1    0    0  501    0  0.00000000000E+00  0.00000000000E+00  0.79411762763E+02  0.79411762923E+02  0.50400001928E-02 0.  1.
       -1   -1    0    0    0  501  0.00000000000E+00  0.00000000000E+00 -0.11867038238E+04  0.11867038238E+04  0.50400001928E-02 0. -1.
    10030    2    1    2    0    0  0.00000000000E+00  0.00000000000E+00 -0.11072920611E+04  0.12661155868E+04  0.61396495873E+03 0.  0.
        4    1    3    3  502    0 -0.17314911307E+03 -0.11150798276E+03 -0.84198791846E+02  0.22249875286E+03  0.12699999809E+01 0.  1.
       -4    1    3    3    0  502  0.17314911307E+03  0.11150798276E+03 -0.10230932692E+04  0.10436168339E+04  0.12699999809E+01 0. -1.
</event>
<event>
 5   0  0.1483942E-01  0.5803505E+03  0.7818609E-02  0.9947032E-01
        2   -1    0    0  501    0  0.00000000000E+00  0.00000000000E+00  0.10961430981E+04  0.10961430981E+04  0.25500000920E-02 0. -1.
       -2   -1    0    0    0  501  0.00000000000E+00  0.00000000000E+00 -0.76816316617E+02  0.76816316659E+02  0.25500000920E-02 0.  1.
    10030    2    1    2    0    0  0.00000000000E+00  0.00000000000E+00  0.10193267815E+04  0.11729594147E+04  0.58035049860E+03 0.  0.
        4    1    3    3  502    0 -0.17709628079E+03  0.22986293652E+03  0.50968804763E+03  0.58650113474E+03  0.12699999809E+01 0. -1.
       -4    1    3    3    0  502  0.17709628079E+03 -0.22986293652E+03  0.50963873382E+03  0.58645827999E+03  0.12699999809E+01 0.  1.
</event>
<event>
 5   0  0.9497860E-02  0.6140601E+03  0.7818609E-02  0.9876658E-01
        1   -1    0    0  501    0  0.00000000000E+00  0.00000000000E+00  0.70533120938E+03  0.70533120940E+03  0.50400001928E-02 0. -1.
       -1   -1    0    0    0  501  0.00000000000E+00  0.00000000000E+00 -0.13364988822E+03  0.13364988832E+03  0.50400001928E-02 0.  1.
    10030    2    1    2    0    0  0.00000000000E+00  0.00000000000E+00  0.57168132116E+03  0.83898109771E+03  0.61406005355E+03 0.  0.
        5    1    3    3  502    0 -0.11951923896E+03 -0.10078766015E+03 -0.75133687733E+02  0.17352279951E+03  0.46999998093E+01 0.  1.
       -5    1    3    3    0  502  0.11951923896E+03  0.10078766015E+03  0.64681500889E+03  0.66545829820E+03  0.46999998093E+01 0. -1.
</event>
<event>
 5   0  0.1483942E-01  0.6055061E+03  0.7818609E-02  0.9894048E-01
       -2   -1    0    0    0  501  0.00000000000E+00  0.00000000000E+00  0.35845001610E+03  0.35845001611E+03  0.25500000920E-02 0. -1.
        2   -1    0    0  501    0  0.00000000000E+00  0.00000000000E+00 -0.25571044432E+03  0.25571044433E+03  0.25500000920E-02 0.  1.
    10030    2    1    2    0    0  0.00000000000E+00  0.00000000000E+00  0.10273957178E+03  0.61416046044E+03  0.60550611191E+03 0.  0.
        4    1    3    3  502    0 -0.16243798954E+03 -0.13565281422E+03 -0.16821935593E+03  0.27034635389E+03  0.12699999809E+01 0.  1.
       -4    1    3    3    0  502  0.16243798954E+03  0.13565281422E+03  0.27095892771E+03  0.34381410655E+03  0.12699999809E+01 0. -1.
</event>
<event>
 5   0  0.9177281E-02  0.5964023E+03  0.7818609E-02  0.9912898E-01
        1   -1    0    0  501    0  0.00000000000E+00  0.00000000000E+00  0.94643167199E+03  0.94643167200E+03  0.50400001928E-02 0. -1.
       -1   -1    0    0    0  501  0.00000000000E+00  0.00000000000E+00 -0.93957032160E+02  0.93957032295E+02  0.50400001928E-02 0.  1.
    10030    2    1    2    0    0  0.00000000000E+00  0.00000000000E+00  0.85247463983E+03  0.10403887043E+04  0.59640225056E+03 0.  0.
        1    1    3    3  502    0  0.17184972612E+02  0.30719050562E+02  0.94279500712E+03  0.94345185824E+03  0.50400001928E-02 0. -1.
       -1    1    3    3    0  502 -0.17184972612E+02 -0.30719050562E+02 -0.90320367286E+02  0.96936846056E+02  0.50400001928E-02 0.  1.
</event>
<event>
 5   0  0.9420349E-02  0.5980514E+03  0.7818609E-02  0.9909457E-01
        1   -1    0    0  501    0  0.00000000000E+00  0.00000000000E+00  0.19124952032E+03  0.19124952038E+03  0.50400001928E-02 0.  1.
       -1   -1    0    0    0  501  0.00000000000E+00  0.00000000000E+00 -0.46753768122E+03  0.46753768125E+03  0.50400001928E-02 0. -1.
    10030    2    1    2    0    0  0.00000000000E+00  0.00000000000E+00 -0.27628816090E+03  0.65878720163E+03  0.59805135998E+03 0.  0.
        2    1    3    3  502    0 -0.99932152833E+02 -0.18552826636E+03  0.95555128993E+02  0.23138270348E+03  0.25500000920E-02 0.  1.
       -2    1    3    3    0  502  0.99932152833E+02  0.18552826636E+03 -0.37184328990E+03  0.42740449815E+03  0.25500000920E-02 0. -1.
</event>
<event>
 5   0  0.1483942E-01  0.6271852E+03  0.7818609E-02  0.9850557E-01
        2   -1    0    0  501    0  0.00000000000E+00  0.00000000000E+00  0.10847235830E+04  0.10847235830E+04  0.25500000920E-02 0.  1.
       -2   -1    0    0    0  501  0.00000000000E+00  0.00000000000E+00 -0.90659324474E+02  0.90659324509E+02  0.25500000920E-02 0. -1.
    10030    2    1    2    0    0  0.00000000000E+00  0.00000000000E+00  0.99406425856E+03  0.11753829075E+04  0.62718516341E+03 0.  0.
        4    1    3    3  502    0  0.19758499186E+03  0.14118021848E+03  0.12519751403E+03  0.27321733751E+03  0.12699999809E+01 0. -1.
       -4    1    3    3    0  502 -0.19758499186E+03 -0.14118021848E+03  0.86886674453E+03  0.90216557003E+03  0.12699999809E+01 0.  1.
</event>
<event>
 5   0  0.1483942E-01  0.6217687E+03  0.7818609E-02  0.9861244E-01
       -2   -1    0    0    0  501  0.00000000000E+00  0.00000000000E+00  0.55709199668E+03  0.55709199669E+03  0.25500000920E-02 0. -1.
        2   -1    0    0  501    0  0.00000000000E+00  0.00000000000E+00 -0.17348855741E+03  0.17348855743E+03  0.25500000920E-02 0.  1.
    10030    2    1    2    0    0  0.00000000000E+00  0.00000000000E+00  0.38360343927E+03  0.73058055412E+03  0.62176872504E+03 0.  0.
        4    1    3    3  502    0 -0.14994096770E+03 -0.87240435894E+02 -0.11132711588E+03  0.20612745348E+03  0.12699999809E+01 0.  1.
       -4    1    3    3    0  502  0.14994096770E+03  0.87240435894E+02  0.49493055515E+03  0.52445310064E+03  0.12699999809E+01 0. -1.
</event>
<event>
 5   0  0.1488510E-01  0.6264475E+03  0.7818609E-02  0.9852006E-01
       -2   -1    0    0    0  501  0.00000000000E+00  0.00000000000E+00  0.54653957657E+03  0.54653957658E+03  0.25500000920E-02 0.  1.
        2   -1    0    0  501    0  0.00000000000E+00  0.00000000000E+00 -0.17950961493E+03  0.17950961495E+03  0.25500000920E-02 0. -1.
    10030    2    1    2    0    0  0.00000000000E+00  0.00000000000E+00  0.36702996164E+03  0.72604919153E+03  0.62644747248E+03 0.  0.
        5    1    3    3  502    0 -0.21441224924E+03  0.47232946702E+02 -0.75341860827E+02  0.23216814999E+03  0.46999998093E+01 0. -1.
       -5    1    3    3    0  502  0.21441224924E+03 -0.47232946702E+02  0.44237182246E+03  0.49388104154E+03  0.46999998093E+01 0.  1.
</event>
<event>
 5   0  0.1532571E-01  0.5947439E+03  0.7818609E-02  0.9916371E-01
       -2   -1    0    0    0  501  0.00000000000E+00  0.00000000000E+00  0.10099238990E+03  0.10099238993E+03  0.25500000920E-02 0.  1.
        2   -1    0    0  501    0  0.00000000000E+00  0.00000000000E+00 -0.87561135275E+03  0.87561135275E+03  0.25500000920E-02 0. -1.
    10030    2    1    2    0    0  0.00000000000E+00  0.00000000000E+00 -0.77461896285E+03  0.97660374268E+03  0.59474392187E+03 0.  0.
        1    1    3    3  502    0 -0.18195483840E+03 -0.23381883314E+03 -0.34540408353E+03  0.45506350205E+03  0.50400001928E-02 0. -1.
       -1    1    3    3    0  502  0.18195483840E+03  0.23381883314E+03 -0.42921487932E+03  0.52154024063E+03  0.50400001928E-02 0.  1.
</event>
<event>
 5   0  0.9497860E-02  0.5806618E+03  0.7818609E-02  0.9946359E-01
       -1   -1    0    0    0  501  0.00000000000E+00  0.00000000000E+00  0.17476719248E+03  0.17476719256E+03  0.50400001928E-02 0. -1.
        1   -1    0    0  501    0  0.00000000000E+00  0.00000000000E+00 -0.48231030351E+03  0.48231030353E+03  0.50400001928E-02 0.  1.
    10030    2    1    2    0    0  0.00000000000E+00  0.00000000000E+00 -0.30754311102E+03  0.65707749609E+03  0.58066175242E+03 0.  0.
        5    1    3    3  502    0 -0.18289969115E+03 -0.17163707832E+03  0.11606225981E+02  0.25113418356E+03  0.46999998093E+01 0. -1.
       -5    1    3    3    0  502  0.18289969115E+03  0.17163707832E+03 -0.31914933701E+03  0.40594331253E+03  0.46999998093E+01 0.  1.
</event>
<event>
 5   0  0.1488510E-01  0.6244286E+03  0.7818609E-02  0.9855982E-01
       -2   -1    0    0    0  501  0.00000000000E+00  0.00000000000E+00  0.21206773713E+03  0.21206773715E+03  0.25500000920E-02 0. -1.
        2   -1    0    0  501    0  0.00000000000E+00  0.00000000000E+00 -0.45965390128E+03  0.45965390128E+03  0.25500000920E-02 0.  1.
    10030    2    1    2    0    0  0.00000000000E+00  0.00000000000E+00 -0.24758616415E+03  0.67172163843E+03  0.62442857947E+03 0.  0.
        5    1    3    3  502    0 -0.26473458377E+03 -0.12330249453E+03 -0.51309843134E+01  0.29212381279E+03  0.46999998093E+01 0. -1.
       -5    1    3    3    0  502  0.26473458377E+03  0.12330249453E+03 -0.24245517983E+03  0.37959782564E+03  0.46999998093E+01 0.  1.
</event>
<event>
 5   0  0.6170500E-02  0.5746805E+03  0.7818609E-02  0.9959374E-01
       -4   -1    0    0    0  501  0.00000000000E+00  0.00000000000E+00  0.87457341181E+03  0.87457433392E+03  0.12699999809E+01 0. -1.
        4   -1    0    0  501    0  0.00000000000E+00  0.00000000000E+00 -0.94400127002E+02  0.94408669506E+02  0.12699999809E+01 0.  1.
    10030    2    1    2    0    0  0.00000000000E+00  0.00000000000E+00  0.78017328481E+03  0.96898300342E+03  0.57468052568E+03 0.  0.
        4    1    3    3  502    0  0.24763291435E+02 -0.26812897766E+03  0.22099898428E+03  0.34835116365E+03  0.12699999809E+01 0.  1.
       -4    1    3    3    0  502 -0.24763291435E+02  0.26812897766E+03  0.55917430053E+03  0.62063183977E+03  0.12699999809E+01 0. -1.
</event>
<event>
 5   0  0.1488510E-01  0.6140854E+03  0.7818609E-02  0.9876607E-01
       -2   -1    0    0    0  501  0.00000000000E+00  0.00000000000E+00  0.57279221097E+02  0.57279221153E+02  0.25500000920E-02 0. -1.
        2   -1    0    0  501    0  0.00000000000E+00  0.00000000000E+00 -0.16458888422E+04  0.16458888422E+04  0.25500000920E-02 0.  1.
    10030    2    1    2    0    0  0.00000000000E+00  0.00000000000E+00 -0.15886096211E+04  0.17031680634E+04  0.61408543687E+03 0.  0.
        5    1    3    3  502    0  0.40283390153E+02 -0.19566358445E+03 -0.14408711673E+04  0.14546610604E+04  0.46999998093E+01 0.  1.
       -5    1    3    3    0  502 -0.40283390153E+02  0.19566358445E+03 -0.14773845380E+03  0.24850700299E+03  0.46999998093E+01 0. -1.
</event>
<event>
 5   0  0.9177281E-02  0.6047494E+03  0.7818609E-02  0.9895601E-01
       -1   -1    0    0    0  501  0.00000000000E+00  0.00000000000E+00  0.30433610339E+03  0.30433610343E+03  0.50400001928E-02 0. -1.
        1   -1    0    0  501    0  0.00000000000E+00  0.00000000000E+00 -0.30042591465E+03  0.30042591469E+03  0.50400001928E-02 0.  1.
    10030    2    1    2    0    0  0.00000000000E+00  0.00000000000E+00  0.39101887367E+01  0.60476201812E+03  0.60474937700E+03 0.  0.
        1    1    3    3  502    0  0.10023272608E+03 -0.21137896267E+03 -0.18962862468E+03  0.30114229288E+03  0.50400001928E-02 0.  1.
       -1    1    3    3    0  502 -0.10023272608E+03  0.21137896267E+03  0.19353881342E+03  0.30361972525E+03  0.50400001928E-02 0. -1.
</event>
<event>
 5   0  0.9420349E-02  0.6094254E+03  0.7818609E-02  0.9886042E-01
        1   -1    0    0  501    0  0.00000000000E+00  0.00000000000E+00  0.42505195401E+02  0.42505195700E+02  0.50400001928E-02 0.  1.
       -1   -1    0    0    0  501  0.00000000000E+00  0.00000000000E+00 -0.21844348081E+04  0.21844348081E+04  0.50400001928E-02 0. -1.
    10030    2    1    2    0    0  0.00000000000E+00  0.00000000000E+00 -0.21419296127E+04  0.22269400038E+04  0.60942539724E+03 0.  0.
        2    1    3    3  502    0 -0.42155213018E+02  0.79583918617E+02 -0.72381023730E+01  0.90349611065E+02  0.25500000920E-02 0.  1.
       -2    1    3    3    0  502  0.42155213018E+02 -0.79583918617E+02 -0.21346915104E+04  0.21365903928E+04  0.25500000920E-02 0. -1.
</event>
<event>
 5   0  0.8860626E-02  0.6091925E+03  0.7818609E-02  0.9886516E-01
        1   -1    0    0  501    0  0.00000000000E+00  0.00000000000E+00  0.17018122387E+03  0.17018122395E+03  0.50400001928E-02 0.  1.
       -1   -1    0    0    0  501  0.00000000000E+00  0.00000000000E+00 -0.54517693146E+03  0.54517693148E+03  0.50400001928E-02 0. -1.
    10030    2    1    2    0    0  0.00000000000E+00  0.00000000000E+00 -0.37499570758E+03  0.71535815543E+03  0.60919250638E+03 0.  0.
        3    1    3    3  502    0  0.22550557331E+03  0.19591245105E+03 -0.25740817132E+03  0.39432655114E+03  0.10100000352E+00 0. -1.
       -3    1    3    3    0  502 -0.22550557331E+03 -0.19591245105E+03 -0.11758753626E+03  0.32103160429E+03  0.10100000352E+00 0.  1.
</event>
<event>
 5   0  0.6170500E-02  0.5966295E+03  0.7818609E-02  0.9912423E-01
        3   -1    0    0  501    0  0.00000000000E+00  0.00000000000E+00  0.76134861158E+03  0.76134861828E+03  0.10100000352E+00 0.  1.
       -3   -1    0    0    0  501  0.00000000000E+00  0.00000000000E+00 -0.11688689457E+03  0.11688693820E+03  0.10100000352E+00 0. -1.
    10030    2    1    2    0    0  0.00000000000E+00  0.00000000000E+00  0.64446171702E+03  0.87823555648E+03  0.59662952322E+03 0.  0.
        3    1    3    3  502    0  0.25763265642E+03 -0.13803582462E+03  0.23436359054E+03  0.37463952982E+03  0.10100000352E+00 0.  1.
       -3    1    3    3    0  502 -0.25763265642E+03  0.13803582462E+03  0.41009812648E+03  0.50359602667E+03  0.10100000352E+00 0. -1.
</event>
<event>
 5   0  0.8860626E-02  0.6008595E+03  0.7818609E-02  0.9903625E-01
       -1   -1    0    0    0  501  0.00000000000E+00  0.00000000000E+00  0.14034397560E+03  0.14034397569E+03  0.50400001928E-02 0. -1.
        1   -1    0    0  501    0  0.00000000000E+00  0.00000000000E+00 -0.64312004521E+03  0.64312004523E+03  0.50400001928E-02 0.  1.
    10030    2    1    2    0    0  0.00000000000E+00  0.00000000000E+00 -0.50277606961E+03  0.78346402093E+03  0.60085946436E+03 0.  0.
        3    1    3    3  502    0  0.43373955240E+02 -0.95587854544E+01 -0.63881554551E+03  0.64035769829E+03  0.10100000352E+00 0.  1.
       -3    1    3    3    0  502 -0.43373955240E+02  0.95587854544E+01  0.13603947590E+03  0.14310632263E+03  0.10100000352E+00 0. -1.
</event>
<event>
 5   0  0.1502642E-01  0.6308930E+03  0.7818609E-02  0.9843308E-01
       -2   -1    0    0    0  501  0.00000000000E+00  0.00000000000E+00  0.76649776241E+02  0.76649776283E+02  0.25500000920E-02 0.  1.
        2   -1    0    0  501    0  0.00000000000E+00  0.00000000000E+00 -0.12981966728E+04  0.12981966728E+04  0.25500000920E-02 0. -1.
    10030    2    1    2    0    0  0.00000000000E+00  0.00000000000E+00 -0.12215468965E+04  0.13748464491E+04  0.63089296879E+03 0.  0.
        2    1    3    3  502    0  0.30947129422E+03  0.59468195067E+02 -0.64140168626E+03  0.71463632101E+03  0.25500000920E-02 0.  1.
       -2    1    3    3    0  502 -0.30947129422E+03 -0.59468195067E+02 -0.58014521029E+03  0.66021012806E+03  0.25500000920E-02 0. -1.
</event>
<event>
 5   0  0.8860626E-02  0.5932888E+03  0.7818609E-02  0.9919428E-01
        1   -1    0    0  501    0  0.00000000000E+00  0.00000000000E+00  0.46748050147E+03  0.46748050149E+03  0.50400001928E-02 0.  1.
       -1   -1    0    0    0  501  0.00000000000E+00  0.00000000000E+00 -0.18823866558E+03  0.18823866565E+03  0.50400001928E-02 0. -1.
    10030    2    1    2    0    0  0.00000000000E+00  0.00000000000E+00  0.27924183589E+03  0.65571916714E+03  0.59328881942E+03 0.  0.
        3    1    3    3  502    0  0.10073112691E+03  0.27048505663E+02 -0.16730520720E+03  0.19715330112E+03  0.10100000352E+00 0. -1.
       -3    1    3    3    0  502 -0.10073112691E+03 -0.27048505663E+02  0.44654704309E+03  0.45856586602E+03  0.10100000352E+00 0.  1.
</event>
<event>
 5   0  0.6170500E-02  0.5947503E+03  0.7818609E-02  0.9916358E-01
       -4   -1    0    0    0  501  0.00000000000E+00  0.00000000000E+00  0.42618590972E+03  0.42618780197E+03  0.12699999809E+01 0. -1.
        4   -1    0    0  501    0  0.00000000000E+00  0.00000000000E+00 -0.20749195696E+03  0.20749584358E+03  0.12699999809E+01 0.  1.
    10030    2    1    2    0    0  0.00000000000E+00  0.00000000000E+00  0.21869395276E+03  0.63368364555E+03  0.59475029858E+03 0.  0.
        5    1    3    3  502    0  0.23589987762E+03  0.16616406205E+03  0.18581299833E+03  0.34323142066E+03  0.46999998093E+01 0. -1.
       -5    1    3    3    0  502 -0.23589987762E+03 -0.16616406205E+03  0.32880954424E+02  0.29045222489E+03  0.46999998093E+01 0.  1.
</event>
<event>
 5   0  0.9177281E-02  0.6050180E+03  0.7818609E-02  0.9895050E-01
       -1   -1    0    0    0  501  0.00000000000E+00  0.00000000000E+00  0.80592314863E+03  0.80592314865E+03  0.50400001928E-02 0. -1.
        1   -1    0    0  501    0  0.00000000000E+00  0.00000000000E+00 -0.11354889631E+03  0.11354889642E+03  0.50400001928E-02 0.  1.
    10030    2    1    2    0    0  0.00000000000E+00  0.00000000000E+00  0.69237425232E+03  0.91947204507E+03  0.60501796368E+03 0.  0.
        1    1    3    3  502    0 -0.22639112299E+03 -0.53305226559E+02  0.64015946112E+03  0.68110096420E+03  0.50400001928E-02 0. -1.
       -1    1    3    3    0  502  0.22639112299E+03  0.53305226559E+02  0.52214791208E+02  0.23837108087E+03  0.50400001928E-02 0.  1.
</event>
<event>
 5   0  0.1532571E-01  0.6079305E+03  0.7818609E-02  0.9889088E-01
        2   -1    0    0  501    0  0.00000000000E+00  0.00000000000E+00  0.48577941915E+03  0.48577941915E+03  0.25500000920E-02 0.  1.
       -2   -1    0    0    0  501  0.00000000000E+00  0.00000000000E+00 -0.19019923604E+03  0.19019923606E+03  0.25500000920E-02 0. -1.
    10030    2    1    2    0    0  0.00000000000E+00  0.00000000000E+00  0.29558018311E+03  0.67597865521E+03  0.60793050396E+03 0.  0.
        1    1    3    3  502    0  0.25877183887E+03 -0.14570093260E+03  0.75700667339E+02  0.30646731867E+03  0.50400001928E-02 0. -1.
       -1    1    3    3    0  502 -0.25877183887E+03  0.14570093260E+03  0.21987951577E+03  0.36951133654E+03  0.50400001928E-02 0.  1.
</event>
<event>
 5   0  0.1502642E-01  0.3593638E+03  0.7818609E-02  0.1058836E+00
       -2   -1    0    0    0  501  0.00000000000E+00  0.00000000000E+00  0.31053964908E+02  0.31053965013E+02  0.25500000920E-02 0.  1.
        2   -1    0    0  501    0  0.00000000000E+00  0.00000000000E+00 -0.10396608204E+04  0.10396608204E+04  0.25500000920E-02 0. -1.
    10030    2    1    2    0    0  0.00000000000E+00  0.00000000000E+00 -0.10086068555E+04  0.10707147854E+04  0.35936383063E+03 0.  0.
        2    1    3    3  502    0  0.10124292799E+03  0.79339910017E+00 -0.94658036682E+03  0.95197959579E+03  0.25500000920E-02 0. -1.
       -2    1    3    3    0  502 -0.10124292799E+03 -0.79339910017E+00 -0.62026488660E+02  0.11873518961E+03  0.25500000920E-02 0.  1.
</event>
<event>
 5   0  0.6170500E-02  0.5856730E+03  0.7818609E-02  0.9935584E-01
        3   -1    0    0  501    0  0.00000000000E+00  0.00000000000E+00  0.79581127623E+02  0.79581191714E+02  0.10100000352E+00 0.  1.
       -3   -1    0    0    0  501  0.00000000000E+00  0.00000000000E+00 -0.10775568256E+04  0.10775568304E+04  0.10100000352E+00 0. -1.
    10030    2    1    2    0    0  0.00000000000E+00  0.00000000000E+00 -0.99797569800E+03  0.11571380221E+04  0.58567303875E+03 0.  0.
        3    1    3    3  502    0  0.23772354686E+03 -0.13243669921E+03 -0.71270831592E+03  0.76289259913E+03  0.10100000352E+00 0.  1.
       -3    1    3    3    0  502 -0.23772354686E+03  0.13243669921E+03 -0.28526738208E+03  0.39424542294E+03  0.10100000352E+00 0. -1.
</event>
<event>
 5   0  0.8860626E-02  0.5972947E+03  0.7818609E-02  0.9911035E-01
        1   -1    0    0  501    0  0.00000000000E+00  0.00000000000E+00  0.12364740290E+04  0.12364740290E+04  0.50400001928E-02 0.  1.
       -1   -1    0    0    0  501  0.00000000000E+00  0.00000000000E+00 -0.72132733145E+02  0.72132733321E+02  0.50400001928E-02 0. -1.
    10030    2    1    2    0    0  0.00000000000E+00  0.00000000000E+00  0.11643412959E+04  0.13086067623E+04  0.59729473896E+03 0.  0.
        3    1    3    3  502    0 -0.93151862727E+01  0.15044903531E+03  0.17326552344E+02  0.15172970881E+03  0.10100000352E+00 0. -1.
       -3    1    3    3    0  502  0.93151862727E+01 -0.15044903531E+03  0.11470147435E+04  0.11568770535E+04  0.10100000352E+00 0.  1.
</event>
<event>
 5   0  0.1532571E-01  0.6107312E+03  0.7818609E-02  0.9883389E-01
        2   -1    0    0  501    0  0.00000000000E+00  0.00000000000E+00  0.77735862837E+03  0.77735862837E+03  0.25500000920E-02 0. -1.
       -2   -1    0    0    0  501  0.00000000000E+00  0.00000000000E+00 -0.11995514117E+03  0.11995514120E+03  0.25500000920E-02 0.  1.
    10030    2    1    2    0    0  0.00000000000E+00  0.00000000000E+00  0.65740348720E+03  0.89731376957E+03  0.61073124701E+03 0.  0.
        1    1    3    3  502    0 -0.26424445469E+03  0.92225962064E+02  0.14925283609E+03  0.31718633171E+03  0.50400001928E-02 0.  1.
       -1    1    3    3    0  502  0.26424445469E+03 -0.92225962064E+02  0.50815065111E+03  0.58012743786E+03  0.50400001928E-02 0. -1.
</event>
<event>
 5   0  0.9177281E-02  0.6107208E+03  0.7818609E-02  0.9883410E-01
       -1   -1    0    0    0  501  0.00000000000E+00  0.00000000000E+00  0.11698800855E+03  0.11698800866E+03  0.50400001928E-02 0.  1.
        1   -1    0    0  501    0  0.00000000000E+00  0.00000000000E+00 -0.79704731839E+03  0.79704731840E+03  0.50400001928E-02 0. -1.
    10030    2    1    2    0    0  0.00000000000E+00  0.00000000000E+00 -0.68005930983E+03  0.91403532707E+03  0.61072081529E+03 0.  0.
        1    1    3    3  502    0  0.14966634211E+03  0.26575571729E+03 -0.31788817059E+03  0.44054398675E+03  0.50400001928E-02 0. -1.
       -1    1    3    3    0  502 -0.14966634211E+03 -0.26575571729E+03 -0.36217113925E+03  0.47349134032E+03  0.50400001928E-02 0.  1.
</event>
<event>
 5   0  0.8860626E-02  0.6050128E+03  0.7818609E-02  0.9895060E-01
       -1   -1    0    0    0  501  0.00000000000E+00  0.00000000000E+00  0.54651606687E+03  0.54651606690E+03  0.50400001928E-02 0. -1.
        1   -1    0    0  501    0  0.00000000000E+00  0.00000000000E+00 -0.16744271431E+03  0.16744271439E+03  0.50400001928E-02 0.  1.
    10030    2    1    2    0    0  0.00000000000E+00  0.00000000000E+00  0.37907335256E+03  0.71395878128E+03  0.60501283850E+03 0.  0.
        3    1    3    3  502    0  0.26187768788E+03  0.12554541997E+03  0.89623184795E+02  0.30393075089E+03  0.10100000352E+00 0.  1.
       -3    1    3    3    0  502 -0.26187768788E+03 -0.12554541997E+03  0.28945016777E+03  0.41002803039E+03  0.10100000352E+00 0. -1.
</event>
<event>
 5   0  0.1483942E-01  0.6613947E+03  0.7818609E-02  0.9785630E-01
       -2   -1    0    0    0  501  0.00000000000E+00  0.00000000000E+00  0.93445947744E+02  0.93445947779E+02  0.25500000920E-02 0. -1.
        2   -1    0    0  501    0  0.00000000000E+00  0.00000000000E+00 -0.11703100681E+04  0.11703100681E+04  0.25500000920E-02 0.  1.
    10030    2    1    2    0    0  0.00000000000E+00  0.00000000000E+00 -0.10768641204E+04  0.12637560159E+04  0.66139468849E+03 0.  0.
        4    1    3    3  502    0 -0.72772025987E+02  0.32157307758E+03 -0.48956373421E+03  0.59023662607E+03  0.12699999809E+01 0.  1.
       -4    1    3    3    0  502  0.72772025987E+02 -0.32157307758E+03 -0.58730038614E+03  0.67351938981E+03  0.12699999809E+01 0. -1.
</event>
<event>
 5   0  0.1488510E-01  0.5929856E+03  0.7818609E-02  0.9920066E-01
        2   -1    0    0  501    0  0.00000000000E+00  0.00000000000E+00  0.95395665930E+03  0.95395665930E+03  0.25500000920E-02 0. -1.
       -2   -1    0    0    0  501  0.00000000000E+00  0.00000000000E+00 -0.92150918311E+02  0.92150918346E+02  0.25500000920E-02 0.  1.
    10030    2    1    2    0    0  0.00000000000E+00  0.00000000000E+00  0.86180574099E+03  0.10461075776E+04  0.59298560591E+03 0.  0.
        5    1    3    3  502    0 -0.22907809950E+03 -0.18721332307E+03  0.46438840329E+03  0.55063988515E+03  0.46999998093E+01 0.  1.
       -5    1    3    3    0  502  0.22907809950E+03  0.18721332307E+03  0.39741733770E+03  0.49546769250E+03  0.46999998093E+01 0. -1.
</event>
<event>
 5   0  0.9497860E-02  0.6086985E+03  0.7818609E-02  0.9887522E-01
        1   -1    0    0  501    0  0.00000000000E+00  0.00000000000E+00  0.15371575130E+03  0.15371575138E+03  0.50400001928E-02 0.  1.
       -1   -1    0    0    0  501  0.00000000000E+00  0.00000000000E+00 -0.60259572217E+03  0.60259572219E+03  0.50400001928E-02 0. -1.
    10030    2    1    2    0    0  0.00000000000E+00  0.00000000000E+00 -0.44887997087E+03  0.75631147358E+03  0.60869846132E+03 0.  0.
        5    1    3    3  502    0 -0.16882160151E+03 -0.15369359412E+03 -0.47443981428E+03  0.52653364696E+03  0.46999998093E+01 0. -1.
       -5    1    3    3    0  502  0.16882160151E+03  0.15369359412E+03  0.25559843410E+02  0.22977782661E+03  0.46999998093E+01 0.  1.
</event>
<event>
 5   0  0.1532571E-01  0.6131822E+03  0.7818609E-02  0.9878428E-01
       -2   -1    0    0    0  501  0.00000000000E+00  0.00000000000E+00  0.76362432492E+02  0.76362432534E+02  0.25500000920E-02 0.  1.
        2   -1    0    0  501    0  0.00000000000E+00  0.00000000000E+00 -0.12309469837E+04  0.12309469837E+04  0.25500000920E-02 0. -1.
    10030    2    1    2    0    0  0.00000000000E+00  0.00000000000E+00 -0.11545845512E+04  0.13073094162E+04  0.61318221101E+03 0.  0.
        1    1    3    3  502    0  0.25264473867E+02 -0.20801964620E+03 -0.10014316020E+03  0.23224796965E+03  0.50400001928E-02 0.  1.
       -1    1    3    3    0  502 -0.25264473867E+02  0.20801964620E+03 -0.10544413910E+04  0.10750614466E+04  0.50400001928E-02 0. -1.
</event>
<event>
 5   0  0.1488510E-01  0.5922994E+03  0.7818609E-02  0.9921512E-01
        2   -1    0    0  501    0  0.00000000000E+00  0.00000000000E+00  0.78067115522E+03  0.78067115522E+03  0.25500000920E-02 0. -1.
       -2   -1    0    0    0  501  0.00000000000E+00  0.00000000000E+00 -0.11234520024E+03  0.11234520027E+03  0.25500000920E-02 0.  1.
    10030    2    1    2    0    0  0.00000000000E+00  0.00000000000E+00  0.66832595498E+03  0.89301635549E+03  0.59229944206E+03 0.  0.
        5    1    3    3  502    0 -0.21328008481E+03  0.13315389137E+03  0.98341301197E+02  0.27002121192E+03  0.46999998093E+01 0.  1.
       -5    1    3    3    0  502  0.21328008481E+03 -0.13315389137E+03  0.56998465379E+03  0.62299514357E+03  0.46999998093E+01 0. -1.
</event>
<event>
 5   0  0.1483942E-01  0.6115600E+03  0.7818609E-02  0.9881709E-01
       -2   -1    0    0    0  501  0.00000000000E+00  0.00000000000E+00  0.39003619246E+02  0.39003619329E+02  0.25500000920E-02 0.  1.
        2   -1    0    0  501    0  0.00000000000E+00  0.00000000000E+00 -0.23972493785E+04  0.23972493785E+04  0.25500000920E-02 0. -1.
    10030    2    1    2    0    0  0.00000000000E+00  0.00000000000E+00 -0.23582457593E+04  0.24362529979E+04  0.61155997940E+03 0.  0.
        4    1    3    3  502    0  0.29064310780E+03 -0.22023063703E+01 -0.80074716178E+03  0.85186612579E+03  0.12699999809E+01 0.  1.
       -4    1    3    3    0  502 -0.29064310780E+03  0.22023063703E+01 -0.15574985975E+04  0.15843868721E+04  0.12699999809E+01 0. -1.
</event>
<event>
 5   0  0.8860626E-02  0.5946268E+03  0.7818609E-02  0.9916617E-01
       -1   -1    0    0    0  501  0.00000000000E+00  0.00000000000E+00  0.10967725687E+03  0.10967725698E+03  0.50400001928E-02 0. -1.
        1   -1    0    0  501    0  0.00000000000E+00  0.00000000000E+00 -0.80595802890E+03  0.80595802891E+03  0.50400001928E-02 0.  1.
    10030    2    1    2    0    0  0.00000000000E+00  0.00000000000E+00 -0.69628077203E+03  0.91563528590E+03  0.59462682690E+03 0.  0.
        3    1    3    3  502    0  0.16495149202E+03  0.24313730955E+03 -0.27807288210E+03  0.40453588713E+03  0.10100000352E+00 0. -1.
       -3    1    3    3    0  502 -0.16495149202E+03 -0.24313730955E+03 -0.41820788994E+03  0.51109939877E+03  0.10100000352E+00 0.  1.
</event>
<event>
 5   0  0.8860626E-02  0.6087908E+03  0.7818609E-02  0.9887334E-01
        1   -1    0    0  501    0  0.00000000000E+00  0.00000000000E+00  0.31355243030E+03  0.31355243034E+03  0.50400001928E-02 0.  1.
       -1   -1    0    0    0  501  0.00000000000E+00  0.00000000000E+00 -0.29550582776E+03  0.29550582780E+03  0.50400001928E-02 0. -1.
    10030    2    1    2    0    0  0.00000000000E+00  0.00000000000E+00  0.18046602543E+02  0.60905825814E+03  0.60879083596E+03 0.  0.
        3    1    3    3  502    0  0.31008545659E+02  0.75283871281E+02  0.30245636656E+03  0.31322365021E+03  0.10100000352E+00 0.  1.
       -3    1    3    3    0  502 -0.31008545659E+02 -0.75283871281E+02 -0.28440976402E+03  0.29583460793E+03  0.10100000352E+00 0. -1.
</event>
<event>
 5   0  0.1513339E-01  0.6073647E+03  0.7818609E-02  0.9890243E-01
        2   -1    0    0  501    0  0.00000000000E+00  0.00000000000E+00  0.64644633480E+03  0.64644633480E+03  0.25500000920E-02 0. -1.
       -2   -1    0    0    0  501  0.00000000000E+00  0.00000000000E+00 -0.14266145381E+03  0.14266145383E+03  0.25500000920E-02 0.  1.
    10030    2    1    2    0    0  0.00000000000E+00  0.00000000000E+00  0.50378488099E+03  0.78910778863E+03  0.60736471396E+03 0.  0.
        3    1    3    3  502    0  0.16685151210E+02  0.29655027610E+03  0.16969607446E+03  0.34207781047E+03  0.10100000352E+00 0.  1.
       -3    1    3    3    0  502 -0.16685151210E+02 -0.29655027610E+03  0.33408880653E+03  0.44702997816E+03  0.10100000352E+00 0. -1.
</event>
<event>
 5   0  0.1483942E-01  0.5614661E+03  0.7818609E-02  0.9988743E-01
       -2   -1    0    0    0  501  0.00000000000E+00  0.00000000000E+00  0.90500439789E+02  0.90500439825E+02  0.25500000920E-02 0.  1.
        2   -1    0    0  501    0  0.00000000000E+00  0.00000000000E+00 -0.87083593334E+03  0.87083593334E+03  0.25500000920E-02 0. -1.
    10030    2    1    2    0    0  0.00000000000E+00  0.00000000000E+00 -0.78033549355E+03  0.96133637316E+03  0.56146606298E+03 0.  0.
        4    1    3    3  502    0 -0.35820721178E+02  0.20619081573E+03 -0.71054238211E+03  0.74072252985E+03  0.12699999809E+01 0. -1.
       -4    1    3    3    0  502  0.35820721178E+02 -0.20619081573E+03 -0.69793111434E+02  0.22061384331E+03  0.12699999809E+01 0.  1.
</event>
<event>
 5   0  0.9420349E-02  0.6172938E+03  0.7818609E-02  0.9870163E-01
       -1   -1    0    0    0  501  0.00000000000E+00  0.00000000000E+00  0.21110385567E+03  0.21110385573E+03  0.50400001928E-02 0.  1.
        1   -1    0    0  501    0  0.00000000000E+00  0.00000000000E+00 -0.45126081305E+03  0.45126081308E+03  0.50400001928E-02 0. -1.
    10030    2    1    2    0    0  0.00000000000E+00  0.00000000000E+00 -0.24015695738E+03  0.66236466881E+03  0.61729376338E+03 0.  0.
        2    1    3    3  502    0  0.39712474457E+02  0.88481872927E+02  0.19432877373E+03  0.21718608328E+03  0.25500000920E-02 0.  1.
       -2    1    3    3    0  502 -0.39712474457E+02 -0.88481872927E+02 -0.43448573111E+03  0.44517858553E+03  0.25500000920E-02 0. -1.
</event>
<event>
 5   0  0.9177281E-02  0.5942407E+03  0.7818609E-02  0.9917427E-01
       -1   -1    0    0    0  501  0.00000000000E+00  0.00000000000E+00  0.63026172516E+02  0.63026172718E+02  0.50400001928E-02 0. -1.
        1   -1    0    0  501    0  0.00000000000E+00  0.00000000000E+00 -0.14006960202E+04  0.14006960202E+04  0.50400001928E-02 0.  1.
    10030    2    1    2    0    0  0.00000000000E+00  0.00000000000E+00 -0.13376698477E+04  0.14637221929E+04  0.59424072282E+03 0.  0.
        1    1    3    3  502    0 -0.17790510489E+03 -0.59931084900E+02 -0.10156199371E+03  0.21344038951E+03  0.50400001928E-02 0. -1.
       -1    1    3    3    0  502  0.17790510489E+03  0.59931084900E+02 -0.12361078540E+04  0.12502818034E+04  0.50400001928E-02 0.  1.
</event>
<event>
 5   0  0.6170500E-02  0.6114261E+03  0.7818609E-02  0.9881980E-01
        4   -1    0    0  501    0  0.00000000000E+00  0.00000000000E+00  0.63909289959E+03  0.63909416146E+03  0.12699999809E+01 0.  1.
       -4   -1    0    0    0  501  0.00000000000E+00  0.00000000000E+00 -0.14623510695E+03  0.14624062160E+03  0.12699999809E+01 0. -1.
    10030    2    1    2    0    0  0.00000000000E+00  0.00000000000E+00  0.49285779264E+03  0.78533478306E+03  0.61142613431E+03 0.  0.
        5    1    3    3  502    0 -0.29156283487E+03  0.28242425015E+02  0.13422026490E+03  0.32224787161E+03  0.46999998093E+01 0. -1.
       -5    1    3    3    0  502  0.29156283487E+03 -0.28242425015E+02  0.35863752774E+03  0.46308691144E+03  0.46999998093E+01 0.  1.
</event>
<event>
 5   0  0.9497860E-02  0.4797418E+03  0.7818609E-02  0.1019206E+00
       -1   -1    0    0    0  501  0.00000000000E+00  0.00000000000E+00  0.12728241534E+03  0.12728241544E+03  0.50400001928E-02 0. -1.
        1   -1    0    0  501    0  0.00000000000E+00  0.00000000000E+00 -0.45205025880E+03  0.45205025883E+03  0.50400001928E-02 0.  1.
    10030    2    1    2    0    0  0.00000000000E+00  0.00000000000E+00 -0.32476784347E+03  0.57933267427E+03  0.47974180068E+03 0.  0.
        5    1    3    3  502    0 -0.23017599410E+03 -0.99093702388E+01 -0.81947236945E+02  0.24457437216E+03  0.46999998093E+01 0. -1.
       -5    1    3    3    0  502  0.23017599410E+03  0.99093702388E+01 -0.24282060652E+03  0.33475830211E+03  0.46999998093E+01 0.  1.
</event>
<event>
 5   0  0.1483942E-01  0.6638991E+03  0.7818609E-02  0.9781042E-01
        2   -1    0    0  501    0  0.00000000000E+00  0.00000000000E+00  0.16424815564E+04  0.16424815564E+04  0.25500000920E-02 0.  1.
       -2   -1    0    0    0  501  0.00000000000E+00  0.00000000000E+00 -0.67087821370E+02  0.67087821418E+02  0.25500000920E-02 0. -1.
    10030    2    1    2    0    0  0.00000000000E+00  0.00000000000E+00  0.15753937350E+04  0.17095693778E+04  0.66389911674E+03 0.  0.
        4    1    3    3  502    0 -0.29594199441E+03 -0.56374264346E+02  0.11466285672E+04  0.11855456152E+04  0.12699999809E+01 0.  1.
       -4    1    3    3    0  502  0.29594199441E+03  0.56374264346E+02  0.42876516787E+03  0.52402376264E+03  0.12699999809E+01 0. -1.
</event>
<event>
 5   0  0.1483942E-01  0.6037357E+03  0.7818609E-02  0.9897686E-01
        2   -1    0    0  501    0  0.00000000000E+00  0.00000000000E+00  0.79073613323E+03  0.79073613323E+03  0.25500000920E-02 0. -1.
       -2   -1    0    0    0  501  0.00000000000E+00  0.00000000000E+00 -0.11523971684E+03  0.11523971687E+03  0.25500000920E-02 0.  1.
    10030    2    1    2    0    0  0.00000000000E+00  0.00000000000E+00  0.67549641639E+03  0.90597585010E+03  0.60373573061E+03 0.  0.
        4    1    3    3  502    0 -0.18570609786E+02  0.23403616891E+03  0.53007252010E+02  0.24068480960E+03  0.12699999809E+01 0.  1.
       -4    1    3    3    0  502  0.18570609786E+02 -0.23403616891E+03  0.62248916438E+03  0.66529104050E+03  0.12699999809E+01 0. -1.
</event>
<event>
 5   0  0.1488510E-01  0.4876367E+03  0.7818609E-02  0.1017057E+00
       -2   -1    0    0    0  501  0.00000000000E+00  0.00000000000E+00  0.11159010941E+03  0.11159010944E+03  0.25500000920E-02 0.  1.
        2   -1    0    0  501    0  0.00000000000E+00  0.00000000000E+00 -0.53272998407E+03  0.53272998407E+03  0.25500000920E-02 0. -1.
    10030    2    1    2    0    0  0.00000000000E+00  0.00000000000E+00 -0.42113987465E+03  0.64432009352E+03  0.48763673866E+03 0.  0.
        5    1    3    3  502    0 -0.61067062048E+02 -0.21978923683E+03 -0.32414750953E+03  0.39639650935E+03  0.46999998093E+01 0. -1.
       -5    1    3    3    0  502  0.61067062048E+02  0.21978923683E+03 -0.96992365119E+02  0.24792358416E+03  0.46999998093E+01 0.  1.
</event>
<event>
 5   0  0.6170500E-02  0.5960259E+03  0.7818609E-02  0.9913685E-01
       -3   -1    0    0    0  501  0.00000000000E+00  0.00000000000E+00  0.53055868502E+03  0.53055869463E+03  0.10100000352E+00 0.  1.
        3   -1    0    0  501    0  0.00000000000E+00  0.00000000000E+00 -0.16739282746E+03  0.16739285793E+03  0.10100000352E+00 0. -1.
    10030    2    1    2    0    0  0.00000000000E+00  0.00000000000E+00  0.36316585756E+03  0.69795155256E+03  0.59602594710E+03 0.  0.
        4    1    3    3  502    0 -0.23341475927E+03 -0.17317938993E+03  0.25869692676E+03  0.38910058309E+03  0.12699999809E+01 0.  1.
       -4    1    3    3    0  502  0.23341475927E+03  0.17317938993E+03  0.10446893080E+03  0.30885096947E+03  0.12699999809E+01 0. -1.
</event>
<event>
 5   0  0.8860626E-02  0.5874897E+03  0.7818609E-02  0.9931706E-01
        1   -1    0    0  501    0  0.00000000000E+00  0.00000000000E+00  0.65600267962E+03  0.65600267964E+03  0.50400001928E-02 0.  1.
       -1   -1    0    0    0  501  0.00000000000E+00  0.00000000000E+00 -0.13153305987E+03  0.13153305997E+03  0.50400001928E-02 0. -1.
    10030    2    1    2    0    0  0.00000000000E+00  0.00000000000E+00  0.52446961975E+03  0.78753573961E+03  0.58748970980E+03 0.  0.
        3    1    3    3  502    0  0.12231013359E+02 -0.11210162510E+03  0.62583104278E+03  0.63590948754E+03  0.10100000352E+00 0.  1.
       -3    1    3    3    0  502 -0.12231013359E+02  0.11210162510E+03 -0.10136142303E+03  0.15162625207E+03  0.10100000352E+00 0. -1.
</event>
<event>
 5   0  0.9420349E-02  0.5830997E+03  0.7818609E-02  0.9941103E-01
       -1   -1    0    0    0  501  0.00000000000E+00  0.00000000000E+00  0.29440739608E+03  0.29440739612E+03  0.50400001928E-02 0. -1.
        1   -1    0    0  501    0  0.00000000000E+00  0.00000000000E+00 -0.28872001828E+03  0.28872001832E+03  0.50400001928E-02 0.  1.
    10030    2    1    2    0    0  0.00000000000E+00  0.00000000000E+00  0.56873777967E+01  0.58312741444E+03  0.58309967862E+03 0.  0.
        2    1    3    3  502    0  0.12317643894E+03 -0.26424164203E+03  0.51303456461E+01  0.29158600952E+03  0.25500000920E-02 0. -1.
       -2    1    3    3    0  502 -0.12317643894E+03  0.26424164203E+03  0.55703215061E+00  0.29154140492E+03  0.25500000920E-02 0.  1.
</event>
<event>
 5   0  0.1532571E-01  0.6099824E+03  0.7818609E-02  0.9884909E-01
       -2   -1    0    0    0  501  0.00000000000E+00  0.00000000000E+00  0.79678195498E+02  0.79678195539E+02  0.25500000920E-02 0.  1.
        2   -1    0    0  501    0  0.00000000000E+00  0.00000000000E+00 -0.11674415381E+04  0.11674415381E+04  0.25500000920E-02 0. -1.
    10030    2    1    2    0    0  0.00000000000E+00  0.00000000000E+00 -0.10877633426E+04  0.12471197336E+04  0.60998241001E+03 0.  0.
        1    1    3    3  502    0 -0.15956753064E+03 -0.33415464143E+02 -0.16882756649E+02  0.16390063324E+03  0.50400001928E-02 0.  1.
       -1    1    3    3    0  502  0.15956753064E+03  0.33415464143E+02 -0.10708805859E+04  0.10832191004E+04  0.50400001928E-02 0. -1.
</event>
<event>
 5   0  0.9420349E-02  0.6071316E+03  0.7818609E-02  0.9890720E-01
        1   -1    0    0  501    0  0.00000000000E+00  0.00000000000E+00  0.94178091810E+03  0.94178091811E+03  0.50400001928E-02 0.  1.
       -1   -1    0    0    0  501  0.00000000000E+00  0.00000000000E+00 -0.97848870915E+02  0.97848871045E+02  0.50400001928E-02 0. -1.
    10030    2    1    2    0    0  0.00000000000E+00  0.00000000000E+00  0.84393204718E+03  0.10396297892E+04  0.60713161525E+03 0.  0.
        2    1    3    3  502    0 -0.21306496622E+03  0.18217450143E+03  0.62142487598E+03  0.68172802883E+03  0.25500000920E-02 0. -1.
       -2    1    3    3    0  502  0.21306496622E+03 -0.18217450143E+03  0.22250717120E+03  0.35790176032E+03  0.25500000920E-02 0.  1.
</event>
<event>
 5   0  0.1483942E-01  0.5960308E+03  0.7818609E-02  0.9913675E-01
       -2   -1    0    0    0  501  0.00000000000E+00  0.00000000000E+00  0.51949864550E+03  0.51949864551E+03  0.25500000920E-02 0. -1.
        2   -1    0    0  501    0  0.00000000000E+00  0.00000000000E+00 -0.17095939040E+03  0.17095939042E+03  0.25500000920E-02 0.  1.
    10030    2    1    2    0    0  0.00000000000E+00  0.00000000000E+00  0.34853925510E+03  0.69045803593E+03  0.59603077692E+03 0.  0.
        4    1    3    3  502    0 -0.39417505978E+02 -0.29763164114E+02 -0.16618169319E+03  0.17337114456E+03  0.12699999809E+01 0.  1.
       -4    1    3    3    0  502  0.39417505978E+02  0.29763164114E+02  0.51472094829E+03  0.51708689137E+03  0.12699999809E+01 0. -1.
</event>
<event>
 5   0  0.9497860E-02  0.5829862E+03  0.7818609E-02  0.9941347E-01
        1   -1    0    0  501    0  0.00000000000E+00  0.00000000000E+00  0.27853898931E+03  0.27853898935E+03  0.50400001928E-02 0. -1.
       -1   -1    0    0    0  501  0.00000000000E+00  0.00000000000E+00 -0.30504972013E+03  0.30504972017E+03  0.50400001928E-02 0.  1.
    10030    2    1    2    0    0  0.00000000000E+00  0.00000000000E+00 -0.26510730818E+02  0.58358870952E+03  0.58298624601E+03 0.  0.
        5    1    3    3  502    0  0.28754118249E+03  0.60127962360E+01  0.34017004303E+02  0.28964690905E+03  0.46999998093E+01 0. -1.
       -5    1    3    3    0  502 -0.28754118249E+03 -0.60127962360E+01 -0.60527735121E+02  0.29394180047E+03  0.46999998093E+01 0.  1.
</event>
<event>
 5   0  0.1502642E-01  0.6080574E+03  0.7818609E-02  0.9888829E-01
       -2   -1    0    0    0  501  0.00000000000E+00  0.00000000000E+00  0.51443465070E+02  0.51443465133E+02  0.25500000920E-02 0.  1.
        2   -1    0    0  501    0  0.00000000000E+00  0.00000000000E+00 -0.17967965487E+04  0.17967965487E+04  0.25500000920E-02 0. -1.
    10030    2    1    2    0    0  0.00000000000E+00  0.00000000000E+00 -0.17453530836E+04  0.18482400138E+04  0.60805736753E+03 0.  0.
        2    1    3    3  502    0  0.15343377984E+03 -0.48015400200E+02 -0.16570184087E+04  0.16647995105E+04  0.25500000920E-02 0. -1.
       -2    1    3    3    0  502 -0.15343377984E+03  0.48015400200E+02 -0.88334674924E+02  0.18344050331E+03  0.25500000920E-02 0.  1.
</event>
<event>
 5   0  0.9411028E-02  0.6081995E+03  0.7818609E-02  0.9888539E-01
       -1   -1    0    0    0  501  0.00000000000E+00  0.00000000000E+00  0.20028294822E+03  0.20028294828E+03  0.50400001928E-02 0.  1.
        1   -1    0    0  501    0  0.00000000000E+00  0.00000000000E+00 -0.46173005116E+03  0.46173005119E+03  0.50400001928E-02 0. -1.
    10030    2    1    2    0    0  0.00000000000E+00  0.00000000000E+00 -0.26144710294E+03  0.66201299947E+03  0.60819949345E+03 0.  0.
        4    1    3    3  502    0 -0.18740216332E+03  0.11866742423E+03  0.95705187731E+02  0.24158357612E+03  0.12699999809E+01 0.  1.
       -4    1    3    3    0  502  0.18740216332E+03 -0.11866742423E+03 -0.35715229067E+03  0.42042942335E+03  0.12699999809E+01 0. -1.
</event>
<event>
 5   0  0.1483942E-01  0.5535669E+03  0.7818609E-02  0.1000672E+00
        2   -1    0    0  501    0  0.00000000000E+00  0.00000000000E+00  0.11062048476E+04  0.11062048476E+04  0.25500000920E-02 0. -1.
       -2   -1    0    0    0  501  0.00000000000E+00  0.00000000000E+00 -0.69253982378E+02  0.69253982425E+02  0.25500000920E-02 0.  1.
    10030    2    1    2    0    0  0.00000000000E+00  0.00000000000E+00  0.10369508652E+04  0.11754588300E+04  0.55356694645E+03 0.  0.
        4    1    3    3  502    0  0.97586546645E+01  0.11760979273E+03 -0.13145902478E+02  0.11875067300E+03  0.12699999809E+01 0.  1.
       -4    1    3    3    0  502 -0.97586546645E+01 -0.11760979273E+03  0.10500967677E+04  0.10567081570E+04  0.12699999809E+01 0. -1.
</event>
<event>
 5   0  0.8860626E-02  0.6137919E+03  0.7818609E-02  0.9877198E-01
       -1   -1    0    0    0  501  0.00000000000E+00  0.00000000000E+00  0.17373961441E+03  0.17373961448E+03  0.50400001928E-02 0. -1.
        1   -1    0    0  501    0  0.00000000000E+00  0.00000000000E+00 -0.54210509766E+03  0.54210509768E+03  0.50400001928E-02 0.  1.
    10030    2    1    2    0    0  0.00000000000E+00  0.00000000000E+00 -0.36836548325E+03  0.71584471216E+03  0.61379192132E+03 0.  0.
        3    1    3    3  502    0 -0.18756274304E+02 -0.13381347460E+03 -0.50554625351E+03  0.52329233555E+03  0.10100000352E+00 0.  1.
       -3    1    3    3    0  502  0.18756274304E+02  0.13381347460E+03  0.13718077025E+03  0.19255237661E+03  0.10100000352E+00 0. -1.
</event>
<event>
 5   0  0.1488510E-01  0.6012206E+03  0.7818609E-02  0.9902877E-01
        2   -1    0    0  501    0  0.00000000000E+00  0.00000000000E+00  0.13602885496E+04  0.13602885496E+04  0.25500000920E-02 0. -1.
       -2   -1    0    0    0  501  0.00000000000E+00  0.00000000000E+00 -0.66431905108E+02  0.66431905157E+02  0.25500000920E-02 0.  1.
    10030    2    1    2    0    0  0.00000000000E+00  0.00000000000E+00  0.12938566445E+04  0.14267204548E+04  0.60122062468E+03 0.  0.
        5    1    3    3  502    0  0.15457583820E+03  0.61183593923E+02  0.52685103877E+02  0.17445610361E+03  0.46999998093E+01 0.  1.
       -5    1    3    3    0  502 -0.15457583820E+03 -0.61183593923E+02  0.12411715406E+04  0.12522643512E+04  0.46999998093E+01 0. -1.
</event>
<event>
 5   0  0.1488510E-01  0.5939123E+03  0.7818609E-02  0.9918117E-01
       -2   -1    0    0    0  501  0.00000000000E+00  0.00000000000E+00  0.93276073066E+02  0.93276073101E+02  0.25500000920E-02 0. -1.
        2   -1    0    0  501    0  0.00000000000E+00  0.00000000000E+00 -0.94539745436E+03  0.94539745436E+03  0.25500000920E-02 0.  1.
    10030    2    1    2    0    0  0.00000000000E+00  0.00000000000E+00 -0.85212138129E+03  0.10386735275E+04  0.59391232366E+03 0.  0.
        5    1    3    3  502    0 -0.11219527304E+03  0.64513194625E+02  0.41286579799E+02  0.13592793400E+03  0.46999998093E+01 0. -1.
       -5    1    3    3    0  502  0.11219527304E+03 -0.64513194625E+02 -0.89340796109E+03  0.90274559346E+03  0.46999998093E+01 0.  1.
</event>
<event>
 5   0  0.1532571E-01  0.5733851E+03  0.7818609E-02  0.9962216E-01
        2   -1    0    0  501    0  0.00000000000E+00  0.00000000000E+00  0.17325982302E+04  0.17325982302E+04  0.25500000920E-02 0. -1.
       -2   -1    0    0    0  501  0.00000000000E+00  0.00000000000E+00 -0.47438930467E+02  0.47438930535E+02  0.25500000920E-02 0.  1.
    10030    2    1    2    0    0  0.00000000000E+00  0.00000000000E+00  0.16851592998E+04  0.17800371608E+04  0.57338506096E+03 0.  0.
        1    1    3    3  502    0 -0.27623821991E+02  0.23113468480E+03  0.32304983266E+03  0.39818025123E+03  0.50400001928E-02 0.  1.
       -1    1    3    3    0  502  0.27623821991E+02 -0.23113468480E+03  0.13621094671E+04  0.13818569095E+04  0.50400001928E-02 0. -1.
</event>
<event>
 5   0  0.9420349E-02  0.4984823E+03  0.7818609E-02  0.1014176E+00
        1   -1    0    0  501    0  0.00000000000E+00  0.00000000000E+00  0.10933496607E+04  0.10933496607E+04  0.50400001928E-02 0. -1.
       -1   -1    0    0    0  501  0.00000000000E+00  0.00000000000E+00 -0.56817284518E+02  0.56817284742E+02  0.50400001928E-02 0.  1.
    10030    2    1    2    0    0  0.00000000000E+00  0.00000000000E+00  0.10365323762E+04  0.11501669454E+04  0.49848233222E+03 0.  0.
        2    1    3    3  502    0  0.93762787852E+02 -0.16884587077E+03  0.88177817871E+03  0.90268108705E+03  0.25500000920E-02 0. -1.
       -2    1    3    3    0  502 -0.93762787852E+02  0.16884587077E+03  0.15475419745E+03  0.24748585838E+03  0.25500000920E-02 0.  1.
</event>
<event>
 5   0  0.8860626E-02  0.5962338E+03  0.7818609E-02  0.9913251E-01
        1   -1    0    0  501    0  0.00000000000E+00  0.00000000000E+00  0.35304145109E+03  0.35304145113E+03  0.50400001928E-02 0. -1.
       -1   -1    0    0    0  501  0.00000000000E+00  0.00000000000E+00 -0.25173729323E+03  0.25173729328E+03  0.50400001928E-02 0.  1.
    10030    2    1    2    0    0  0.00000000000E+00  0.00000000000E+00  0.10130415786E+03  0.60477874440E+03  0.59623384446E+03 0.  0.
        3    1    3    3  502    0  0.13197533714E+03 -0.12186409318E+03  0.29198057417E+03  0.34281337884E+03  0.10100000352E+00 0. -1.
       -3    1    3    3    0  502 -0.13197533714E+03  0.12186409318E+03 -0.19067641630E+03  0.26196536556E+03  0.10100000352E+00 0.  1.
</event>
<event>
 5   0  0.9177281E-02  0.6017266E+03  0.7818609E-02  0.9901830E-01
        1   -1    0    0  501    0  0.00000000000E+00  0.00000000000E+00  0.13129126493E+04  0.13129126493E+04  0.50400001928E-02 0. -1.
       -1   -1    0    0    0  501  0.00000000000E+00  0.00000000000E+00 -0.68944969105E+02  0.68944969289E+02  0.50400001928E-02 0.  1.
    10030    2    1    2    0    0  0.00000000000E+00  0.00000000000E+00  0.12439676802E+04  0.13818576186E+04  0.60172658966E+03 0.  0.
        1    1    3    3  502    0  0.43107774603E+02  0.95139938203E+02 -0.25970981743E+02  0.10763075764E+03  0.50400001928E-02 0.  1.
       -1    1    3    3    0  502 -0.43107774603E+02 -0.95139938203E+02  0.12699386619E+04  0.12742268609E+04  0.50400001928E-02 0. -1.
</event>
<event>
 5   0  0.1483942E-01  0.3088989E+03  0.7818609E-02  0.1080875E+00
        2   -1    0    0  501    0  0.00000000000E+00  0.00000000000E+00  0.74451675504E+03  0.74451675504E+03  0.25500000920E-02 0.  1.
       -2   -1    0    0    0  501  0.00000000000E+00  0.00000000000E+00 -0.32040429463E+02  0.32040429565E+02  0.25500000920E-02 0. -1.
    10030    2    1    2    0    0  0.00000000000E+00  0.00000000000E+00  0.71247632557E+03  0.77655718461E+03  0.30889892596E+03 0.  0.
        4    1    3    3  502    0 -0.19516860916E+02 -0.39502585182E+02  0.72836817747E+03  0.72970074479E+03  0.12699999809E+01 0.  1.
       -4    1    3    3    0  502  0.19516860916E+02  0.39502585182E+02 -0.15891851892E+02  0.46856439820E+02  0.12699999809E+01 0. -1.
</event>
<event>
 5   0  0.9497860E-02  0.5860895E+03  0.7818609E-02  0.9934694E-01
       -1   -1    0    0    0  501  0.00000000000E+00  0.00000000000E+00  0.18739000669E+03  0.18739000676E+03  0.50400001928E-02 0. -1.
        1   -1    0    0  501    0  0.00000000000E+00  0.00000000000E+00 -0.45827004886E+03  0.45827004888E+03  0.50400001928E-02 0.  1.
    10030    2    1    2    0    0  0.00000000000E+00  0.00000000000E+00 -0.27088004217E+03  0.64566005564E+03  0.58608950699E+03 0.  0.
        5    1    3    3  502    0 -0.10643083762E+03  0.13260507658E+03  0.12743810815E+03  0.21254220978E+03  0.46999998093E+01 0. -1.
       -5    1    3    3    0  502  0.10643083762E+03 -0.13260507658E+03 -0.39831815032E+03  0.43311784586E+03  0.46999998093E+01 0.  1.
</event>
<event>
 5   0  0.9411028E-02  0.5949998E+03  0.7818609E-02  0.9915834E-01
        1   -1    0    0  501    0  0.00000000000E+00  0.00000000000E+00  0.39546675411E+03  0.39546675415E+03  0.50400001928E-02 0. -1.
       -1   -1    0    0    0  501  0.00000000000E+00  0.00000000000E+00 -0.22380187170E+03  0.22380187176E+03  0.50400001928E-02 0.  1.
    10030    2    1    2    0    0  0.00000000000E+00  0.00000000000E+00  0.17166488241E+03  0.61926862590E+03  0.59499983124E+03 0.  0.
        4    1    3    3  502    0 -0.61668869748E+02  0.36058619337E+01  0.38871519541E+03  0.39359518261E+03  0.12699999809E+01 0. -1.
       -4    1    3    3    0  502  0.61668869748E+02 -0.36058619337E+01 -0.21705031299E+03  0.22567344329E+03  0.12699999809E+01 0.  1.
</event>
<event>
 5   0  0.9420349E-02  0.6135470E+03  0.7818609E-02  0.9877692E-01
        1   -1    0    0  501    0  0.00000000000E+00  0.00000000000E+00  0.16906573299E+04  0.16906573299E+04  0.50400001928E-02 0.  1.
       -1   -1    0    0    0  501  0.00000000000E+00  0.00000000000E+00 -0.55664736829E+02  0.55664737057E+02  0.50400001928E-02 0. -1.
    10030    2    1    2    0    0  0.00000000000E+00  0.00000000000E+00  0.16349925931E+04  0.17463220670E+04  0.61354704968E+03 0.  0.
        2    1    3    3  502    0 -0.51062231563E+02 -0.28841308512E+03  0.10771246575E+04  0.11162378720E+04  0.25500000920E-02 0. -1.
       -2    1    3    3    0  502  0.51062231563E+02  0.28841308512E+03  0.55786793563E+03  0.63008419499E+03  0.25500000920E-02 0.  1.
</event>
<event>
 5   0  0.1513339E-01  0.6060844E+03  0.7818609E-02  0.9892863E-01
        2   -1    0    0  501    0  0.00000000000E+00  0.00000000000E+00  0.49560654107E+03  0.49560654108E+03  0.25500000920E-02 0.  1.
       -2   -1    0    0    0  501  0.00000000000E+00  0.00000000000E+00 -0.18529736986E+03  0.18529736988E+03  0.25500000920E-02 0. -1.
    10030    2    1    2    0    0  0.00000000000E+00  0.00000000000E+00  0.31030917121E+03  0.68090391096E+03  0.60608444479E+03 0.  0.
        3    1    3    3  502    0 -0.15156329947E+03 -0.46946578194E+01  0.44992005512E+03  0.47478578302E+03  0.10100000352E+00 0.  1.
       -3    1    3    3    0  502  0.15156329947E+03  0.46946578194E+01 -0.13961088391E+03  0.20611812794E+03  0.10100000352E+00 0. -1.
</event>
<event>
 5   0  0.1483942E-01  0.5922009E+03  0.7818609E-02  0.9921720E-01
        2   -1    0    0  501    0  0.00000000000E+00  0.00000000000E+00  0.64694379911E+02  0.64694379962E+02  0.25500000920E-02 0. -1.
       -2   -1    0    0    0  501  0.00000000000E+00  0.00000000000E+00 -0.13552257596E+04  0.13552257596E+04  0.25500000920E-02 0.  1.
    10030    2    1    2    0    0  0.00000000000E+00  0.00000000000E+00 -0.12905313797E+04  0.14199201396E+04  0.59220094629E+03 0.  0.
        4    1    3    3  502    0 -0.13070184179E+03 -0.10621353447E+03 -0.61340398055E+02  0.17924436863E+03  0.12699999809E+01 0. -1.
       -4    1    3    3    0  502  0.13070184179E+03  0.10621353447E+03 -0.12291909817E+04  0.12406757710E+04  0.12699999809E+01 0.  1.
</event>
<event>
 5   0  0.1532571E-01  0.6134256E+03  0.7818609E-02  0.9877937E-01
       -2   -1    0    0    0  501  0.00000000000E+00  0.00000000000E+00  0.56379103371E+02  0.56379103429E+02  0.25500000920E-02 0.  1.
        2   -1    0    0  501    0  0.00000000000E+00  0.00000000000E+00 -0.16685743951E+04  0.16685743951E+04  0.25500000920E-02 0. -1.
    10030    2    1    2    0    0  0.00000000000E+00  0.00000000000E+00 -0.16121952917E+04  0.17249534985E+04  0.61342555654E+03 0.  0.
        1    1    3    3  502    0  0.61268378566E+02  0.20665926894E+03 -0.14196738981E+04  0.14359442345E+04  0.50400001928E-02 0. -1.
       -1    1    3    3    0  502 -0.61268378566E+02 -0.20665926894E+03 -0.19252139359E+03  0.28900926398E+03  0.50400001928E-02 0.  1.
</event>
<event>
 5   0  0.1513339E-01  0.5946463E+03  0.7818609E-02  0.9916576E-01
        2   -1    0    0  501    0  0.00000000000E+00  0.00000000000E+00  0.53260897895E+03  0.53260897895E+03  0.25500000920E-02 0.  1.
       -2   -1    0    0    0  501  0.00000000000E+00  0.00000000000E+00 -0.16597738265E+03  0.16597738267E+03  0.25500000920E-02 0. -1.
    10030    2    1    2    0    0  0.00000000000E+00  0.00000000000E+00  0.36663159630E+03  0.69858636162E+03  0.59464626228E+03 0.  0.
        3    1    3    3  502    0 -0.90917989219E+02 -0.27739854403E+03  0.11701538973E+03  0.31449744773E+03  0.10100000352E+00 0. -1.
       -3    1    3    3    0  502  0.90917989219E+02  0.27739854403E+03  0.24961620657E+03  0.38408891389E+03  0.10100000352E+00 0.  1.
</event>
<event>
 5   0  0.9497860E-02  0.5968981E+03  0.7818609E-02  0.9911863E-01
       -1   -1    0    0    0  501  0.00000000000E+00  0.00000000000E+00  0.29833725755E+03  0.29833725759E+03  0.50400001928E-02 0.  1.
        1   -1    0    0  501    0  0.00000000000E+00  0.00000000000E+00 -0.29856085529E+03  0.29856085533E+03  0.50400001928E-02 0. -1.
    10030    2    1    2    0    0  0.00000000000E+00  0.00000000000E+00 -0.22359774600E+00  0.59689811292E+03  0.59689807104E+03 0.  0.
        5    1    3    3  502    0 -0.25051933205E+03 -0.13353755135E+03  0.91853002219E+02  0.29841460649E+03  0.46999998093E+01 0.  1.
       -5    1    3    3    0  502  0.25051933205E+03  0.13353755135E+03 -0.92076599965E+02  0.29848350643E+03  0.46999998093E+01 0. -1.
</event>
<event>
 5   0  0.9420349E-02  0.5931788E+03  0.7818609E-02  0.9919660E-01
        1   -1    0    0  501    0  0.00000000000E+00  0.00000000000E+00  0.10870676929E+04  0.10870676929E+04  0.50400001928E-02 0. -1.
       -1   -1    0    0    0  501  0.00000000000E+00  0.00000000000E+00 -0.80919766387E+02  0.80919766544E+02  0.50400001928E-02 0.  1.
    10030    2    1    2    0    0  0.00000000000E+00  0.00000000000E+00  0.10061479265E+04  0.11679874595E+04  0.59317877189E+03 0.  0.
        2    1    3    3  502    0 -0.29391067473E+03  0.37039025773E+02  0.47454748606E+03  0.55941995914E+03  0.25500000920E-02 0. -1.
       -2    1    3    3    0  502  0.29391067473E+03 -0.37039025773E+02  0.53160044046E+03  0.60856750033E+03  0.25500000920E-02 0.  1.
</event>
<event>
 5   0  0.6170500E-02  0.5930878E+03  0.7818609E-02  0.9919851E-01
        3   -1    0    0  501    0  0.00000000000E+00  0.00000000000E+00  0.15419620363E+03  0.15419623671E+03  0.10100000352E+00 0.  1.
       -3   -1    0    0    0  501  0.00000000000E+00  0.00000000000E+00 -0.57030111696E+03  0.57030112590E+03  0.10100000352E+00 0. -1.
    10030    2    1    2    0    0  0.00000000000E+00  0.00000000000E+00 -0.41610491333E+03  0.72449736262E+03  0.59308779244E+03 0.  0.
        5    1    3    3  502    0  0.47216657367E+02  0.94245138029E+02 -0.54659366089E+03  0.55668508054E+03  0.46999998093E+01 0. -1.
       -5    1    3    3    0  502 -0.47216657367E+02 -0.94245138029E+02  0.13048874756E+03  0.16781228207E+03  0.46999998093E+01 0.  1.
</event>
<event>
 5   0  0.8860626E-02  0.5956137E+03  0.7818609E-02  0.9914548E-01
        1   -1    0    0  501    0  0.00000000000E+00  0.00000000000E+00  0.21117214908E+03  0.21117214914E+03  0.50400001928E-02 0.  1.
       -1   -1    0    0    0  501  0.00000000000E+00  0.00000000000E+00 -0.41998393909E+03  0.41998393912E+03  0.50400001928E-02 0. -1.
    10030    2    1    2    0    0  0.00000000000E+00  0.00000000000E+00 -0.20881179002E+03  0.63115608826E+03  0.59561367017E+03 0.  0.
        3    1    3    3  502    0 -0.23497809450E+03  0.13468678802E+03  0.26812615990E+02  0.27216568913E+03  0.10100000352E+00 0.  1.
       -3    1    3    3    0  502  0.23497809450E+03 -0.13468678802E+03 -0.23562440601E+03  0.35899039913E+03  0.10100000352E+00 0. -1.
</event>
<event>
 5   0  0.9177281E-02  0.6030339E+03  0.7818609E-02  0.9899132E-01
       -1   -1    0    0    0  501  0.00000000000E+00  0.00000000000E+00  0.28663170549E+03  0.28663170554E+03  0.50400001928E-02 0.  1.
        1   -1    0    0  501    0  0.00000000000E+00  0.00000000000E+00 -0.31717517284E+03  0.31717517288E+03  0.50400001928E-02 0. -1.
    10030    2    1    2    0    0  0.00000000000E+00  0.00000000000E+00 -0.30543467343E+02  0.60380687841E+03  0.60303386557E+03 0.  0.
        1    1    3    3  502    0  0.27676581847E+03  0.11068587799E+03 -0.60736754663E+02  0.30420327949E+03  0.50400001928E-02 0.  1.
       -1    1    3    3    0  502 -0.27676581847E+03 -0.11068587799E+03  0.30193287320E+02  0.29960359892E+03  0.50400001928E-02 0. -1.
</event>
<event>
 5   0  0.1483942E-01  0.6002574E+03  0.7818609E-02  0.9904872E-01
       -2   -1    0    0    0  501  0.00000000000E+00  0.00000000000E+00  0.33582707363E+03  0.33582707364E+03  0.25500000920E-02 0.  1.
        2   -1    0    0  501    0  0.00000000000E+00  0.00000000000E+00 -0.26822503281E+03  0.26822503282E+03  0.25500000920E-02 0. -1.
    10030    2    1    2    0    0  0.00000000000E+00  0.00000000000E+00  0.67602040824E+02  0.60405210646E+03  0.60025737096E+03 0.  0.
        4    1    3    3  502    0  0.24483000504E+03  0.15389396580E+02  0.20780175055E+03  0.32149921513E+03  0.12699999809E+01 0.  1.
       -4    1    3    3    0  502 -0.24483000504E+03 -0.15389396580E+02 -0.14019970972E+03  0.28255289134E+03  0.12699999809E+01 0. -1.
</event>
<event>
 5   0  0.1532571E-01  0.5827682E+03  0.7818609E-02  0.9941816E-01
        2   -1    0    0  501    0  0.00000000000E+00  0.00000000000E+00  0.66029015763E+03  0.66029015764E+03  0.25500000920E-02 0.  1.
       -2   -1    0    0    0  501  0.00000000000E+00  0.00000000000E+00 -0.12858693960E+03  0.12858693962E+03  0.25500000920E-02 0. -1.
    10030    2    1    2    0    0  0.00000000000E+00  0.00000000000E+00  0.53170321803E+03  0.78887709726E+03  0.58276818935E+03 0.  0.
        1    1    3    3  502    0 -0.16461351077E+03  0.23316539074E+03  0.18644534038E+03  0.34091871809E+03  0.50400001928E-02 0. -1.
       -1    1    3    3    0  502  0.16461351077E+03 -0.23316539074E+03  0.34525787765E+03  0.44795837917E+03  0.50400001928E-02 0.  1.
</event>
<event>
 5   0  0.1502642E-01  0.6034676E+03  0.7818609E-02  0.9898238E-01
        2   -1    0    0  501    0  0.00000000000E+00  0.00000000000E+00  0.20635800895E+03  0.20635800897E+03  0.25500000920E-02 0. -1.
       -2   -1    0    0    0  501  0.00000000000E+00  0.00000000000E+00 -0.44119090842E+03  0.44119090843E+03  0.25500000920E-02 0.  1.
    10030    2    1    2    0    0  0.00000000000E+00  0.00000000000E+00 -0.23483289947E+03  0.64754891740E+03  0.60346757141E+03 0.  0.
        2    1    3    3  502    0  0.64168071359E+02  0.28357153234E+03 -0.20401419528E+03  0.35517903545E+03  0.25500000920E-02 0.  1.
       -2    1    3    3    0  502 -0.64168071359E+02 -0.28357153234E+03 -0.30818704181E+02  0.29236988195E+03  0.25500000920E-02 0. -1.
</event>
<event>
 5   0  0.9177281E-02  0.6011308E+03  0.7818609E-02  0.9903063E-01
       -1   -1    0    0    0  501  0.00000000000E+00  0.00000000000E+00  0.18337019454E+03  0.18337019461E+03  0.50400001928E-02 0.  1.
        1   -1    0    0  501    0  0.00000000000E+00  0.00000000000E+00 -0.49266222331E+03  0.49266222334E+03  0.50400001928E-02 0. -1.
    10030    2    1    2    0    0  0.00000000000E+00  0.00000000000E+00 -0.30929202877E+03  0.67603241795E+03  0.60113082691E+03 0.  0.
        1    1    3    3  502    0 -0.93954861018E+02  0.50626591564E+02  0.16134289453E+03  0.19344791889E+03  0.50400001928E-02 0.  1.
       -1    1    3    3    0  502  0.93954861018E+02 -0.50626591564E+02 -0.47063492330E+03  0.48258449906E+03  0.50400001928E-02 0. -1.
</event>
<event>
 5   0  0.1513339E-01  0.5738784E+03  0.7818609E-02  0.9961133E-01
        2   -1    0    0  501    0  0.00000000000E+00  0.00000000000E+00  0.52960525559E+03  0.52960525560E+03  0.25500000920E-02 0.  1.
       -2   -1    0    0    0  501  0.00000000000E+00  0.00000000000E+00 -0.15546317226E+03  0.15546317228E+03  0.25500000920E-02 0. -1.
    10030    2    1    2    0    0  0.00000000000E+00  0.00000000000E+00  0.37414208333E+03  0.68506842787E+03  0.57387842994E+03 0.  0.
        3    1    3    3  502    0  0.12758144193E+03  0.17013180165E+03  0.41704183642E+03  0.46813006503E+03  0.10100000352E+00 0. -1.
       -3    1    3    3    0  502 -0.12758144193E+03 -0.17013180165E+03 -0.42899753088E+02  0.21693836284E+03  0.10100000352E+00 0.  1.
</event>
<event>
 5   0  0.1488510E-01  0.6249883E+03  0.7818609E-02  0.9854878E-01
       -2   -1    0    0    0  501  0.00000000000E+00  0.00000000000E+00  0.25103795038E+03  0.25103795039E+03  0.25500000920E-02 0. -1.
        2   -1    0    0  501    0  0.00000000000E+00  0.00000000000E+00 -0.38899539949E+03  0.38899539950E+03  0.25500000920E-02 0.  1.
    10030    2    1    2    0    0  0.00000000000E+00  0.00000000000E+00 -0.13795744911E+03  0.64003334989E+03  0.62498834486E+03 0.  0.
        5    1    3    3  502    0 -0.29707039585E+03 -0.89281925409E+02 -0.10741127165E+03  0.32830070602E+03  0.46999998093E+01 0. -1.
       -5    1    3    3    0  502  0.29707039585E+03  0.89281925409E+02 -0.30546177458E+02  0.31173264387E+03  0.46999998093E+01 0.  1.
</event>
<event>
 5   0  0.1532571E-01  0.5715300E+03  0.7818609E-02  0.9966299E-01
        2   -1    0    0  501    0  0.00000000000E+00  0.00000000000E+00  0.63235854525E+03  0.63235854526E+03  0.25500000920E-02 0. -1.
       -2   -1    0    0    0  501  0.00000000000E+00  0.00000000000E+00 -0.12913817830E+03  0.12913817833E+03  0.25500000920E-02 0.  1.
    10030    2    1    2    0    0  0.00000000000E+00  0.00000000000E+00  0.50322036695E+03  0.76149672359E+03  0.57152998374E+03 0.  0.
        1    1    3    3  502    0 -0.21809135202E+03  0.18198418325E+03  0.29331078070E+03  0.40830539413E+03  0.50400001928E-02 0. -1.
       -1    1    3    3    0  502  0.21809135202E+03 -0.18198418325E+03  0.20990958625E+03  0.35319132945E+03  0.50400001928E-02 0.  1.
</event>
<event>
 5   0  0.9177281E-02  0.6350891E+03  0.7818609E-02  0.9835168E-01
       -1   -1    0    0    0  501  0.00000000000E+00  0.00000000000E+00  0.67954487339E+03  0.67954487341E+03  0.50400001928E-02 0.  1.
        1   -1    0    0  501    0  0.00000000000E+00  0.00000000000E+00 -0.14838541742E+03  0.14838541750E+03  0.50400001928E-02 0. -1.
    10030    2    1    2    0    0  0.00000000000E+00  0.00000000000E+00  0.53115945597E+03  0.82793029091E+03  0.63508912677E+03 0.  0.
        1    1    3    3  502    0  0.12383200503E+03 -0.20090830146E+03 -0.11382672783E+02  0.23627965704E+03  0.50400001928E-02 0. -1.
       -1    1    3    3    0  502 -0.12383200503E+03  0.20090830146E+03  0.54254212875E+03  0.59165063387E+03  0.50400001928E-02 0.  1.
</event>
<event>
 5   0  0.9411028E-02  0.5981597E+03  0.7818609E-02  0.9909231E-01
       -1   -1    0    0    0  501  0.00000000000E+00  0.00000000000E+00  0.10406542355E+03  0.10406542367E+03  0.50400001928E-02 0. -1.
        1   -1    0    0  501    0  0.00000000000E+00  0.00000000000E+00 -0.85954357281E+03  0.85954357283E+03  0.50400001928E-02 0.  1.
    10030    2    1    2    0    0  0.00000000000E+00  0.00000000000E+00 -0.75547814926E+03  0.96360899650E+03  0.59815973129E+03 0.  0.
        4    1    3    3  502    0 -0.21412974359E+03  0.13422103670E+03 -0.12008521385E+03  0.27980154622E+03  0.12699999809E+01 0. -1.
       -4    1    3    3    0  502  0.21412974359E+03 -0.13422103670E+03 -0.63539293541E+03  0.68380745028E+03  0.12699999809E+01 0.  1.
</event>
<event>
 5   0  0.8860626E-02  0.5994646E+03  0.7818609E-02  0.9906517E-01
        1   -1    0    0  501    0  0.00000000000E+00  0.00000000000E+00  0.14817458312E+03  0.14817458321E+03  0.50400001928E-02 0. -1.
       -1   -1    0    0    0  501  0.00000000000E+00  0.00000000000E+00 -0.60630809718E+03  0.60630809720E+03  0.50400001928E-02 0.  1.
    10030    2    1    2    0    0  0.00000000000E+00  0.00000000000E+00 -0.45813351406E+03  0.75448268041E+03  0.59946459306E+03 0.  0.
        3    1    3    3  502    0 -0.20161752861E+03  0.22160165665E+03 -0.21763380796E+03  0.37029907729E+03  0.10100000352E+00 0. -1.
       -3    1    3    3    0  502  0.20161752861E+03 -0.22160165665E+03 -0.24049970610E+03  0.38418360312E+03  0.10100000352E+00 0.  1.
</event>
<event>
 5   0  0.1483942E-01  0.5990746E+03  0.7818609E-02  0.9907328E-01
        2   -1    0    0  501    0  0.00000000000E+00  0.00000000000E+00  0.12808605441E+04  0.12808605441E+04  0.25500000920E-02 0. -1.
       -2   -1    0    0    0  501  0.00000000000E+00  0.00000000000E+00 -0.70048673742E+02  0.70048673788E+02  0.25500000920E-02 0.  1.
    10030    2    1    2    0    0  0.00000000000E+00  0.00000000000E+00  0.12108118704E+04  0.13509092179E+04  0.59907456095E+03 0.  0.
        4    1    3    3  502    0  0.67147432128E+02 -0.15252432866E+02 -0.51952913906E+02  0.86267795341E+02  0.12699999809E+01 0.  1.
       -4    1    3    3    0  502 -0.67147432128E+02  0.15252432866E+02  0.12627647843E+04  0.12646414225E+04  0.12699999809E+01 0. -1.
</event>
<event>
 5   0  0.1488510E-01  0.6057063E+03  0.7818609E-02  0.9893637E-01
        2   -1    0    0  501    0  0.00000000000E+00  0.00000000000E+00  0.17126864078E+04  0.17126864078E+04  0.25500000920E-02 0.  1.
       -2   -1    0    0    0  501  0.00000000000E+00  0.00000000000E+00 -0.53553315097E+02  0.53553315157E+02  0.25500000920E-02 0. -1.
    10030    2    1    2    0    0  0.00000000000E+00  0.00000000000E+00  0.16591330927E+04  0.17662397229E+04  0.60570631468E+03 0.  0.
        5    1    3    3  502    0 -0.21161012032E+03  0.11194556251E+03  0.13703041108E+04  0.13910665326E+04  0.46999998093E+01 0.  1.
       -5    1    3    3    0  502  0.21161012032E+03 -0.11194556251E+03  0.28882898188E+03  0.37517319035E+03  0.46999998093E+01 0. -1.
</event>
<event>
 5   0  0.1502642E-01  0.3782467E+03  0.7818609E-02  0.1051584E+00
       -2   -1    0    0    0  501  0.00000000000E+00  0.00000000000E+00  0.15982165356E+02  0.15982165559E+02  0.25500000920E-02 0.  1.
        2   -1    0    0  501    0  0.00000000000E+00  0.00000000000E+00 -0.22379723775E+04  0.22379723775E+04  0.25500000920E-02 0. -1.
    10030    2    1    2    0    0  0.00000000000E+00  0.00000000000E+00 -0.22219902122E+04  0.22539545431E+04  0.37824671753E+03 0.  0.
        2    1    3    3  502    0  0.11943931825E+03  0.14039269469E+03 -0.85875567577E+03  0.87831496067E+03  0.25500000920E-02 0.  1.
       -2    1    3    3    0  502 -0.11943931825E+03 -0.14039269469E+03 -0.13632345364E+04  0.13756395824E+04  0.25500000920E-02 0. -1.
</event>
<event>
 5   0  0.1513339E-01  0.6073153E+03  0.7818609E-02  0.9890344E-01
       -2   -1    0    0    0  501  0.00000000000E+00  0.00000000000E+00  0.81645993909E+02  0.81645993949E+02  0.25500000920E-02 0.  1.
        2   -1    0    0  501    0  0.00000000000E+00  0.00000000000E+00 -0.11293630030E+04  0.11293630030E+04  0.25500000920E-02 0. -1.
    10030    2    1    2    0    0  0.00000000000E+00  0.00000000000E+00 -0.10477170091E+04  0.12110089970E+04  0.60731528843E+03 0.  0.
        3    1    3    3  502    0 -0.77288126993E+02  0.18328537075E+03 -0.98136273001E+03  0.10013190300E+04  0.10100000352E+00 0. -1.
       -3    1    3    3    0  502  0.77288126993E+02 -0.18328537075E+03 -0.66354279087E+02  0.20968996700E+03  0.10100000352E+00 0.  1.
</event>
<event>
 5   0  0.1502642E-01  0.6020108E+03  0.7818609E-02  0.9901243E-01
       -2   -1    0    0    0  501  0.00000000000E+00  0.00000000000E+00  0.19264871717E+03  0.19264871719E+03  0.25500000920E-02 0. -1.
        2   -1    0    0  501    0  0.00000000000E+00  0.00000000000E+00 -0.47030812092E+03  0.47030812093E+03  0.25500000920E-02 0.  1.
    10030    2    1    2    0    0  0.00000000000E+00  0.00000000000E+00 -0.27765940374E+03  0.66295683812E+03  0.60201081778E+03 0.  0.
        2    1    3    3  502    0 -0.25354965725E+03 -0.11881787358E+03 -0.26046106502E+03  0.38242003370E+03  0.25500000920E-02 0.  1.
       -2    1    3    3    0  502  0.25354965725E+03  0.11881787358E+03 -0.17198338721E+02  0.28053680442E+03  0.25500000920E-02 0. -1.
</event>
<event>
 5   0  0.1513339E-01  0.6009625E+03  0.7818609E-02  0.9903411E-01
        2   -1    0    0  501    0  0.00000000000E+00  0.00000000000E+00  0.23696956048E+03  0.23696956049E+03  0.25500000920E-02 0.  1.
       -2   -1    0    0    0  501  0.00000000000E+00  0.00000000000E+00 -0.38101508398E+03  0.38101508398E+03  0.25500000920E-02 0. -1.
    10030    2    1    2    0    0  0.00000000000E+00  0.00000000000E+00 -0.14404552350E+03  0.61798464447E+03  0.60096248466E+03 0.  0.
        3    1    3    3  502    0  0.29203674033E+03 -0.65565158472E+02 -0.44724289762E+02  0.30262934425E+03  0.10100000352E+00 0.  1.
       -3    1    3    3    0  502 -0.29203674033E+03  0.65565158472E+02 -0.99321233738E+02  0.31535530022E+03  0.10100000352E+00 0. -1.
</event>
<event>
 5   0  0.1513339E-01  0.6881142E+03  0.7818609E-02  0.9737777E-01
       -2   -1    0    0    0  501  0.00000000000E+00  0.00000000000E+00  0.96568517536E+02  0.96568517570E+02  0.25500000920E-02 0.  1.
        2   -1    0    0  501    0  0.00000000000E+00  0.00000000000E+00 -0.12258165524E+04  0.12258165524E+04  0.25500000920E-02 0. -1.
    10030    2    1    2    0    0  0.00000000000E+00  0.00000000000E+00 -0.11292480348E+04  0.13223850699E+04  0.68811419766E+03 0.  0.
        3    1    3    3  502    0 -0.20145218161E+02  0.22168455723E+03 -0.10687879859E+04  0.10917223282E+04  0.10100000352E+00 0. -1.
       -3    1    3    3    0  502  0.20145218161E+02 -0.22168455723E+03 -0.60460048889E+02  0.23066274177E+03  0.10100000352E+00 0.  1.
</event>
<event>
 5   0  0.1483942E-01  0.6076502E+03  0.7818609E-02  0.9889660E-01
        2   -1    0    0  501    0  0.00000000000E+00  0.00000000000E+00  0.17496311970E+04  0.17496311970E+04  0.25500000920E-02 0.  1.
       -2   -1    0    0    0  501  0.00000000000E+00  0.00000000000E+00 -0.52759518706E+02  0.52759518767E+02  0.25500000920E-02 0. -1.
    10030    2    1    2    0    0  0.00000000000E+00  0.00000000000E+00  0.16968716783E+04  0.18023907158E+04  0.60765022809E+03 0.  0.
        4    1    3    3  502    0 -0.21839202888E+03  0.10452552436E+03  0.13928497009E+04  0.14137370921E+04  0.12699999809E+01 0.  1.
       -4    1    3    3    0  502  0.21839202888E+03 -0.10452552436E+03  0.30402197743E+03  0.38865362366E+03  0.12699999809E+01 0. -1.
</event>
<event>
 5   0  0.8860626E-02  0.6028765E+03  0.7818609E-02  0.9899456E-01
       -1   -1    0    0    0  501  0.00000000000E+00  0.00000000000E+00  0.17802162749E+03  0.17802162756E+03  0.50400001928E-02 0.  1.
        1   -1    0    0  501    0  0.00000000000E+00  0.00000000000E+00 -0.51041566702E+03  0.51041566704E+03  0.50400001928E-02 0. -1.
    10030    2    1    2    0    0  0.00000000000E+00  0.00000000000E+00 -0.33239403953E+03  0.68843729460E+03  0.60287653054E+03 0.  0.
        3    1    3    3  502    0 -0.11843594589E+03  0.17429955135E+03 -0.41232696039E+03  0.46305608661E+03  0.10100000352E+00 0. -1.
       -3    1    3    3    0  502  0.11843594589E+03 -0.17429955135E+03  0.79932920859E+02  0.22538120799E+03  0.10100000352E+00 0.  1.
</event>
<event>
 5   0  0.9420349E-02  0.6079004E+03  0.7818609E-02  0.9889149E-01
       -1   -1    0    0    0  501  0.00000000000E+00  0.00000000000E+00  0.52159258995E+03  0.52159258998E+03  0.50400001928E-02 0. -1.
        1   -1    0    0  501    0  0.00000000000E+00  0.00000000000E+00 -0.17712238177E+03  0.17712238184E+03  0.50400001928E-02 0.  1.
    10030    2    1    2    0    0  0.00000000000E+00  0.00000000000E+00  0.34447020818E+03  0.69871497182E+03  0.60790039276E+03 0.  0.
        2    1    3    3  502    0  0.93410968476E+02  0.20509000567E+03  0.40666063445E+03  0.46493052285E+03  0.25500000920E-02 0. -1.
       -2    1    3    3    0  502 -0.93410968476E+02 -0.20509000567E+03 -0.62190426267E+02  0.23378444897E+03  0.25500000920E-02 0.  1.
</event>
<event>
 5   0  0.6170500E-02  0.5568455E+03  0.7818609E-02  0.9999218E-01
        3   -1    0    0  501    0  0.00000000000E+00  0.00000000000E+00  0.20133995269E+03  0.20133997802E+03  0.10100000352E+00 0. -1.
       -3   -1    0    0    0  501  0.00000000000E+00  0.00000000000E+00 -0.38501649705E+03  0.38501651030E+03  0.10100000352E+00 0.  1.
    10030    2    1    2    0    0  0.00000000000E+00  0.00000000000E+00 -0.18367654436E+03  0.58635648833E+03  0.55684545293E+03 0.  0.
        5    1    3    3  502    0  0.14360416210E+02 -0.26868377431E+03 -0.16703678832E+03  0.31673422736E+03  0.46999998093E+01 0.  1.
       -5    1    3    3    0  502 -0.14360416210E+02  0.26868377431E+03 -0.16639756039E+02  0.26962226097E+03  0.46999998093E+01 0. -1.
</event>
<event>
 5   0  0.6170500E-02  0.5938171E+03  0.7818609E-02  0.9918317E-01
       -3   -1    0    0    0  501  0.00000000000E+00  0.00000000000E+00  0.19743125334E+03  0.19743127917E+03  0.10100000352E+00 0. -1.
        3   -1    0    0  501    0  0.00000000000E+00  0.00000000000E+00 -0.44650825167E+03  0.44650826309E+03  0.10100000352E+00 0.  1.
    10030    2    1    2    0    0  0.00000000000E+00  0.00000000000E+00 -0.24907699833E+03  0.64393954226E+03  0.59381712925E+03 0.  0.
        5    1    3    3  502    0 -0.21402368151E+03 -0.12511438855E+02  0.98147970865E+02  0.23583423529E+03  0.46999998093E+01 0. -1.
       -5    1    3    3    0  502  0.21402368151E+03  0.12511438855E+02 -0.34722496920E+03  0.40810530698E+03  0.46999998093E+01 0.  1.
</event>
<event>
 5   0  0.9420349E-02  0.6298964E+03  0.7818609E-02  0.9845251E-01
        1   -1    0    0  501    0  0.00000000000E+00  0.00000000000E+00  0.14547167585E+03  0.14547167594E+03  0.50400001928E-02 0.  1.
       -1   -1    0    0    0  501  0.00000000000E+00  0.00000000000E+00 -0.68186733084E+03  0.68186733086E+03  0.50400001928E-02 0. -1.
    10030    2    1    2    0    0  0.00000000000E+00  0.00000000000E+00 -0.53639565499E+03  0.82733900679E+03  0.62989644663E+03 0.  0.
        2    1    3    3  502    0 -0.21164035754E+03  0.23323785333E+03 -0.26940605938E+03  0.41445284653E+03  0.25500000920E-02 0. -1.
       -2    1    3    3    0  502  0.21164035754E+03 -0.23323785333E+03 -0.26698959561E+03  0.41288616026E+03  0.25500000920E-02 0.  1.
</event>
<event>
 5   0  0.8860626E-02  0.5981785E+03  0.7818609E-02  0.9909192E-01
        1   -1    0    0  501    0  0.00000000000E+00  0.00000000000E+00  0.76058957847E+03  0.76058957849E+03  0.50400001928E-02 0. -1.
       -1   -1    0    0    0  501  0.00000000000E+00  0.00000000000E+00 -0.11761188117E+03  0.11761188128E+03  0.50400001928E-02 0.  1.
    10030    2    1    2    0    0  0.00000000000E+00  0.00000000000E+00  0.64297769730E+03  0.87820145977E+03  0.59817847229E+03 0.  0.
        3    1    3    3  502    0 -0.12815489074E+03 -0.12469514551E+03 -0.30499733794E+02  0.18139128782E+03  0.10100000352E+00 0.  1.
       -3    1    3    3    0  502  0.12815489074E+03  0.12469514551E+03  0.67347743110E+03  0.69681017195E+03  0.10100000352E+00 0. -1.
</event>
<event>
 5   0  0.1532571E-01  0.5921952E+03  0.7818609E-02  0.9921732E-01
        2   -1    0    0  501    0  0.00000000000E+00  0.00000000000E+00  0.12198982635E+03  0.12198982637E+03  0.25500000920E-02 0. -1.
       -2   -1    0    0    0  501  0.00000000000E+00  0.00000000000E+00 -0.71869760988E+03  0.71869760988E+03  0.25500000920E-02 0.  1.
    10030    2    1    2    0    0  0.00000000000E+00  0.00000000000E+00 -0.59670778353E+03  0.84068743625E+03  0.59219522672E+03 0.  0.
        1    1    3    3  502    0 -0.21530689560E+02  0.37213342737E+02 -0.71424300823E+03  0.71553579806E+03  0.50400001928E-02 0.  1.
       -1    1    3    3    0  502  0.21530689560E+02 -0.37213342737E+02  0.11753522471E+03  0.12515163819E+03  0.50400001928E-02 0. -1.
</event>
<event>
 5   0  0.8860626E-02  0.6220679E+03  0.7818609E-02  0.9860651E-01
       -1   -1    0    0    0  501  0.00000000000E+00  0.00000000000E+00  0.95703444423E+02  0.95703444556E+02  0.50400001928E-02 0.  1.
        1   -1    0    0  501    0  0.00000000000E+00  0.00000000000E+00 -0.10108528901E+04  0.10108528901E+04  0.50400001928E-02 0. -1.
    10030    2    1    2    0    0  0.00000000000E+00  0.00000000000E+00 -0.91514944564E+03  0.11065563346E+04  0.62206785310E+03 0.  0.
        3    1    3    3  502    0  0.22820932277E+03  0.16226885560E+03 -0.69841758827E+03  0.75246117129E+03  0.10100000352E+00 0.  1.
       -3    1    3    3    0  502 -0.22820932277E+03 -0.16226885560E+03 -0.21673185737E+03  0.35409516333E+03  0.10100000352E+00 0. -1.
</event>
<event>
 5   0  0.1513339E-01  0.5948611E+03  0.7818609E-02  0.9916125E-01
        2   -1    0    0  501    0  0.00000000000E+00  0.00000000000E+00  0.61328817548E+03  0.61328817549E+03  0.25500000920E-02 0. -1.
       -2   -1    0    0    0  501  0.00000000000E+00  0.00000000000E+00 -0.14424690258E+03  0.14424690260E+03  0.25500000920E-02 0.  1.
    10030    2    1    2    0    0  0.00000000000E+00  0.00000000000E+00  0.46904127290E+03  0.75753507809E+03  0.59486105845E+03 0.  0.
        3    1    3    3  502    0  0.94287654977E+01  0.28519467643E+03  0.12767084604E+03  0.31260959712E+03  0.10100000352E+00 0. -1.
       -3    1    3    3    0  502 -0.94287654977E+01 -0.28519467643E+03  0.34137042686E+03  0.44492548097E+03  0.10100000352E+00 0.  1.
</event>
<event>
 5   0  0.9177281E-02  0.5493238E+03  0.7818609E-02  0.1001651E+00
       -1   -1    0    0    0  501  0.00000000000E+00  0.00000000000E+00  0.18317497664E+03  0.18317497671E+03  0.50400001928E-02 0.  1.
        1   -1    0    0  501    0  0.00000000000E+00  0.00000000000E+00 -0.41184209257E+03  0.41184209260E+03  0.50400001928E-02 0. -1.
    10030    2    1    2    0    0  0.00000000000E+00  0.00000000000E+00 -0.22866711593E+03  0.59501706932E+03  0.54932382332E+03 0.  0.
        1    1    3    3  502    0 -0.10243807710E+03  0.94994626475E+02  0.14181439507E+03  0.19906999114E+03  0.50400001928E-02 0.  1.
       -1    1    3    3    0  502  0.10243807710E+03 -0.94994626475E+02 -0.37048151100E+03  0.39594707818E+03  0.50400001928E-02 0. -1.
</event>
<event>
 5   0  0.1483942E-01  0.5996445E+03  0.7818609E-02  0.9906144E-01
       -2   -1    0    0    0  501  0.00000000000E+00  0.00000000000E+00  0.36096022228E+03  0.36096022228E+03  0.25500000920E-02 0. -1.
        2   -1    0    0  501    0  0.00000000000E+00  0.00000000000E+00 -0.24903958426E+03  0.24903958428E+03  0.25500000920E-02 0.  1.
    10030    2    1    2    0    0  0.00000000000E+00  0.00000000000E+00  0.11192063801E+03  0.60999980656E+03  0.59964450701E+03 0.  0.
        4    1    3    3  502    0  0.27555819676E+03  0.42238982439E+02  0.16820764874E+03  0.32559465204E+03  0.12699999809E+01 0. -1.
       -4    1    3    3    0  502 -0.27555819676E+03 -0.42238982439E+02 -0.56287010727E+02  0.28440515452E+03  0.12699999809E+01 0.  1.
</event>
<event>
 5   0  0.1483942E-01  0.6348700E+03  0.7818609E-02  0.9835591E-01
        2   -1    0    0  501    0  0.00000000000E+00  0.00000000000E+00  0.58485881538E+03  0.58485881539E+03  0.25500000920E-02 0. -1.
       -2   -1    0    0    0  501  0.00000000000E+00  0.00000000000E+00 -0.17228940587E+03  0.17228940588E+03  0.25500000920E-02 0.  1.
    10030    2    1    2    0    0  0.00000000000E+00  0.00000000000E+00  0.41256940952E+03  0.75714822127E+03  0.63486999559E+03 0.  0.
        4    1    3    3  502    0  0.68072902883E+02  0.36876838396E+02  0.57342368602E+03  0.57862782331E+03  0.12699999809E+01 0. -1.
       -4    1    3    3    0  502 -0.68072902883E+02 -0.36876838396E+02 -0.16085427651E+03  0.17852039796E+03  0.12699999809E+01 0.  1.
</event>
<event>
 5   0  0.8860626E-02  0.6143976E+03  0.7818609E-02  0.9875978E-01
        1   -1    0    0  501    0  0.00000000000E+00  0.00000000000E+00  0.34853842865E+03  0.34853842868E+03  0.50400001928E-02 0.  1.
       -1   -1    0    0    0  501  0.00000000000E+00  0.00000000000E+00 -0.27076241769E+03  0.27076241774E+03  0.50400001928E-02 0. -1.
    10030    2    1    2    0    0  0.00000000000E+00  0.00000000000E+00  0.77776010953E+02  0.61930084642E+03  0.61439761596E+03 0.  0.
        3    1    3    3  502    0 -0.11651119263E+03  0.16409910615E+03  0.27283445576E+03  0.33903100905E+03  0.10100000352E+00 0.  1.
       -3    1    3    3    0  502  0.11651119263E+03 -0.16409910615E+03 -0.19505844481E+03  0.28026983737E+03  0.10100000352E+00 0. -1.
</event>
<event>
 5   0  0.9177281E-02  0.6124753E+03  0.7818609E-02  0.9879857E-01
       -1   -1    0    0    0  501  0.00000000000E+00  0.00000000000E+00  0.11288166210E+03  0.11288166221E+03  0.50400001928E-02 0.  1.
        1   -1    0    0  501    0  0.00000000000E+00  0.00000000000E+00 -0.83079468789E+03  0.83079468790E+03  0.50400001928E-02 0. -1.
    10030    2    1    2    0    0  0.00000000000E+00  0.00000000000E+00 -0.71791302579E+03  0.94367635012E+03  0.61247525760E+03 0.  0.
        1    1    3    3  502    0  0.25634423066E+03  0.10574397226E+03 -0.15873300963E+03  0.31951575960E+03  0.50400001928E-02 0.  1.
       -1    1    3    3    0  502 -0.25634423066E+03 -0.10574397226E+03 -0.55918001615E+03  0.62416059051E+03  0.50400001928E-02 0. -1.
</event>
<event>
 5   0  0.9420349E-02  0.6001848E+03  0.7818609E-02  0.9905023E-01
        1   -1    0    0  501    0  0.00000000000E+00  0.00000000000E+00  0.36372775125E+03  0.36372775129E+03  0.50400001928E-02 0.  1.
       -1   -1    0    0    0  501  0.00000000000E+00  0.00000000000E+00 -0.24759028476E+03  0.24759028481E+03  0.50400001928E-02 0. -1.
    10030    2    1    2    0    0  0.00000000000E+00  0.00000000000E+00  0.11613746649E+03  0.61131803610E+03  0.60018482998E+03 0.  0.
        2    1    3    3  502    0 -0.27008423422E+03 -0.87145374518E+02  0.15742639703E+03  0.32453486772E+03  0.25500000920E-02 0.  1.
       -2    1    3    3    0  502  0.27008423422E+03  0.87145374518E+02 -0.41288930540E+02  0.28678316838E+03  0.25500000920E-02 0. -1.
</event>
<event>
 5   0  0.1483942E-01  0.8242272E+03  0.7818609E-02  0.9525597E-01
       -2   -1    0    0    0  501  0.00000000000E+00  0.00000000000E+00  0.24647705404E+03  0.24647705405E+03  0.25500000920E-02 0. -1.
        2   -1    0    0  501    0  0.00000000000E+00  0.00000000000E+00 -0.68906051727E+03  0.68906051727E+03  0.25500000920E-02 0.  1.
    10030    2    1    2    0    0  0.00000000000E+00  0.00000000000E+00 -0.44258346323E+03  0.93553757132E+03  0.82422716858E+03 0.  0.
        4    1    3    3  502    0  0.10099849165E+03  0.39951979499E+03 -0.22626934843E+03  0.47012359316E+03  0.12699999809E+01 0.  1.
       -4    1    3    3    0  502 -0.10099849165E+03 -0.39951979499E+03 -0.21631411479E+03  0.46541397816E+03  0.12699999809E+01 0. -1.
</event>
<event>
 5   0  0.8860626E-02  0.6407483E+03  0.7818609E-02  0.9824296E-01
       -1   -1    0    0    0  501  0.00000000000E+00  0.00000000000E+00  0.25431902777E+03  0.25431902782E+03  0.50400001928E-02 0. -1.
        1   -1    0    0  501    0  0.00000000000E+00  0.00000000000E+00 -0.40358601372E+03  0.40358601375E+03  0.50400001928E-02 0.  1.
    10030    2    1    2    0    0  0.00000000000E+00  0.00000000000E+00 -0.14926698595E+03  0.65790504157E+03  0.64074832081E+03 0.  0.
        3    1    3    3  502    0  0.22105006252E+03  0.21789001253E+03 -0.15613393478E+03  0.34744352561E+03  0.10100000352E+00 0. -1.
       -3    1    3    3    0  502 -0.22105006252E+03 -0.21789001253E+03  0.68669488269E+01  0.31046151595E+03  0.10100000352E+00 0.  1.
</event>
<event>
 5   0  0.1502642E-01  0.6039082E+03  0.7818609E-02  0.9897331E-01
        2   -1    0    0  501    0  0.00000000000E+00  0.00000000000E+00  0.10222796172E+04  0.10222796172E+04  0.25500000920E-02 0.  1.
       -2   -1    0    0    0  501  0.00000000000E+00  0.00000000000E+00 -0.89189175189E+02  0.89189175226E+02  0.25500000920E-02 0. -1.
    10030    2    1    2    0    0  0.00000000000E+00  0.00000000000E+00  0.93309044200E+03  0.11114687924E+04  0.60390819134E+03 0.  0.
        2    1    3    3  502    0  0.77054175380E+02 -0.22369425464E+03  0.81184517048E+03  0.84561755323E+03  0.25500000920E-02 0.  1.
       -2    1    3    3    0  502 -0.77054175380E+02  0.22369425464E+03  0.12124527153E+03  0.26585123919E+03  0.25500000920E-02 0. -1.
</event>
<event>
 5   0  0.1483942E-01  0.5905946E+03  0.7818609E-02  0.9925114E-01
        2   -1    0    0  501    0  0.00000000000E+00  0.00000000000E+00  0.17907492681E+04  0.17907492681E+04  0.25500000920E-02 0.  1.
       -2   -1    0    0    0  501  0.00000000000E+00  0.00000000000E+00 -0.48694969283E+02  0.48694969350E+02  0.25500000920E-02 0. -1.
    10030    2    1    2    0    0  0.00000000000E+00  0.00000000000E+00  0.17420542988E+04  0.18394442375E+04  0.59059455016E+03 0.  0.
        4    1    3    3  502    0 -0.13215306181E+03  0.32736113340E+02  0.16871544247E+04  0.16926392855E+04  0.12699999809E+01 0.  1.
       -4    1    3    3    0  502  0.13215306181E+03 -0.32736113340E+02  0.54899874113E+02  0.14680495203E+03  0.12699999809E+01 0. -1.
</event>
<event>
 5   0  0.9497860E-02  0.6018215E+03  0.7818609E-02  0.9901634E-01
        1   -1    0    0  501    0  0.00000000000E+00  0.00000000000E+00  0.12912819836E+03  0.12912819846E+03  0.50400001928E-02 0. -1.
       -1   -1    0    0    0  501  0.00000000000E+00  0.00000000000E+00 -0.70122012253E+03  0.70122012255E+03  0.50400001928E-02 0.  1.
    10030    2    1    2    0    0  0.00000000000E+00  0.00000000000E+00 -0.57209192417E+03  0.83034832101E+03  0.60182153874E+03 0.  0.
        5    1    3    3  502    0 -0.41744827423E+02  0.20507677862E+03  0.12198428516E+02  0.20969026540E+03  0.46999998093E+01 0. -1.
       -5    1    3    3    0  502  0.41744827423E+02 -0.20507677862E+03 -0.58429035269E+03  0.62065805561E+03  0.46999998093E+01 0.  1.
</event>
<event>
 5   0  0.6170500E-02  0.5358063E+03  0.7818609E-02  0.1004834E+00
       -4   -1    0    0    0  501  0.00000000000E+00  0.00000000000E+00  0.49643089205E+02  0.49659331508E+02  0.12699999809E+01 0. -1.
        4   -1    0    0  501    0  0.00000000000E+00  0.00000000000E+00 -0.14455092318E+04  0.14455097897E+04  0.12699999809E+01 0.  1.
    10030    2    1    2    0    0  0.00000000000E+00  0.00000000000E+00 -0.13958661426E+04  0.14951691212E+04  0.53580632039E+03 0.  0.
        2    1    3    3  502    0 -0.12373439710E+03 -0.51900958520E+02 -0.50872098258E+02  0.14349871396E+03  0.25500000920E-02 0. -1.
       -2    1    3    3    0  502  0.12373439710E+03  0.51900958520E+02 -0.13449940443E+04  0.13516704072E+04  0.25500000920E-02 0.  1.
</event>
<event>
 5   0  0.1502642E-01  0.5942423E+03  0.7818609E-02  0.9917424E-01
        2   -1    0    0  501    0  0.00000000000E+00  0.00000000000E+00  0.61302591024E+03  0.61302591024E+03  0.25500000920E-02 0.  1.
       -2   -1    0    0    0  501  0.00000000000E+00  0.00000000000E+00 -0.14400854208E+03  0.14400854210E+03  0.25500000920E-02 0. -1.
    10030    2    1    2    0    0  0.00000000000E+00  0.00000000000E+00  0.46901736816E+03  0.75703445235E+03  0.59424226575E+03 0.  0.
        2    1    3    3  502    0  0.26017554713E+03  0.10206828687E+03  0.10602462671E+03  0.29891549305E+03  0.25500000920E-02 0.  1.
       -2    1    3    3    0  502 -0.26017554713E+03 -0.10206828687E+03  0.36299274146E+03  0.45811895930E+03  0.25500000920E-02 0. -1.
</event>
<event>
 5   0  0.1513339E-01  0.6255828E+03  0.7818609E-02  0.9853707E-01
        2   -1    0    0  501    0  0.00000000000E+00  0.00000000000E+00  0.17767037364E+04  0.17767037364E+04  0.25500000920E-02 0. -1.
       -2   -1    0    0    0  501  0.00000000000E+00  0.00000000000E+00 -0.55067398448E+02  0.55067398507E+02  0.25500000920E-02 0.  1.
    10030    2    1    2    0    0  0.00000000000E+00  0.00000000000E+00  0.17216363380E+04  0.18317711349E+04  0.62558277673E+03 0.  0.
        3    1    3    3  502    0 -0.15550445510E+03 -0.29513630697E+02  0.70849956957E+02  0.17341400334E+03  0.10100000352E+00 0.  1.
       -3    1    3    3    0  502  0.15550445510E+03  0.29513630697E+02  0.16507863810E+04  0.16583571316E+04  0.10100000352E+00 0. -1.
</event>
<event>
 5   0  0.1488510E-01  0.5981745E+03  0.7818609E-02  0.9909201E-01
        2   -1    0    0  501    0  0.00000000000E+00  0.00000000000E+00  0.41883674419E+03  0.41883674420E+03  0.25500000920E-02 0.  1.
       -2   -1    0    0    0  501  0.00000000000E+00  0.00000000000E+00 -0.21357531897E+03  0.21357531899E+03  0.25500000920E-02 0. -1.
    10030    2    1    2    0    0  0.00000000000E+00  0.00000000000E+00  0.20526142522E+03  0.63241206319E+03  0.59817452719E+03 0.  0.
        5    1    3    3  502    0  0.17166072788E+03 -0.21269122045E+03 -0.25666346169E+02  0.27456476845E+03  0.46999998093E+01 0.  1.
       -5    1    3    3    0  502 -0.17166072788E+03  0.21269122045E+03  0.23092777139E+03  0.35784729473E+03  0.46999998093E+01 0. -1.
</event>
<event>
 5   0  0.9420349E-02  0.5905808E+03  0.7818609E-02  0.9925143E-01
       -1   -1    0    0    0  501  0.00000000000E+00  0.00000000000E+00  0.12388119830E+03  0.12388119840E+03  0.50400001928E-02 0. -1.
        1   -1    0    0  501    0  0.00000000000E+00  0.00000000000E+00 -0.70387123941E+03  0.70387123943E+03  0.50400001928E-02 0.  1.
    10030    2    1    2    0    0  0.00000000000E+00  0.00000000000E+00 -0.57999004111E+03  0.82775243783E+03  0.59058077394E+03 0.  0.
        2    1    3    3  502    0  0.11492119874E+02 -0.25829418259E+03 -0.48992914591E+03  0.55396617370E+03  0.25500000920E-02 0.  1.
       -2    1    3    3    0  502 -0.11492119874E+02  0.25829418259E+03 -0.90060895200E+02  0.27378626414E+03  0.25500000920E-02 0. -1.
</event>
<event>
 5   0  0.1502642E-01  0.5954630E+03  0.7818609E-02  0.9914864E-01
        2   -1    0    0  501    0  0.00000000000E+00  0.00000000000E+00  0.55966787209E+03  0.55966787210E+03  0.25500000920E-02 0. -1.
       -2   -1    0    0    0  501  0.00000000000E+00  0.00000000000E+00 -0.15838690103E+03  0.15838690105E+03  0.25500000920E-02 0.  1.
    10030    2    1    2    0    0  0.00000000000E+00  0.00000000000E+00  0.40128097107E+03  0.71805477315E+03  0.59546304629E+03 0.  0.
        2    1    3    3  502    0 -0.28425250797E+02  0.25765151227E+03  0.37725819811E+03  0.45772922641E+03  0.25500000920E-02 0. -1.
       -2    1    3    3    0  502  0.28425250797E+02 -0.25765151227E+03  0.24022772954E+02  0.26032554674E+03  0.25500000920E-02 0.  1.
</event>
<event>
 5   0  0.6170500E-02  0.5985770E+03  0.7818609E-02  0.9908363E-01
        4   -1    0    0  501    0  0.00000000000E+00  0.00000000000E+00  0.16688913990E+03  0.16689397208E+03  0.12699999809E+01 0.  1.
       -4   -1    0    0    0  501  0.00000000000E+00  0.00000000000E+00 -0.53671185697E+03  0.53671335954E+03  0.12699999809E+01 0. -1.
    10030    2    1    2    0    0  0.00000000000E+00  0.00000000000E+00 -0.36982271707E+03  0.70360733162E+03  0.59857700845E+03 0.  0.
        4    1    3    3  502    0  0.12097863680E+03  0.20290958379E+03 -0.40090273365E+03  0.46533079041E+03  0.12699999809E+01 0. -1.
       -4    1    3    3    0  502 -0.12097863680E+03 -0.20290958379E+03  0.31080016582E+02  0.23827654120E+03  0.12699999809E+01 0.  1.
</event>
<event>
 5   0  0.1488510E-01  0.6003901E+03  0.7818609E-02  0.9904597E-01
        2   -1    0    0  501    0  0.00000000000E+00  0.00000000000E+00  0.90832334948E+03  0.90832334949E+03  0.25500000920E-02 0. -1.
       -2   -1    0    0    0  501  0.00000000000E+00  0.00000000000E+00 -0.99212531472E+02  0.99212531504E+02  0.25500000920E-02 0.  1.
    10030    2    1    2    0    0  0.00000000000E+00  0.00000000000E+00  0.80911081801E+03  0.10075358810E+04  0.60039006959E+03 0.  0.
        5    1    3    3  502    0 -0.30637114777E+02 -0.13854842503E+03  0.84842357743E+03  0.86022029481E+03  0.46999998093E+01 0. -1.
       -5    1    3    3    0  502  0.30637114777E+02  0.13854842503E+03 -0.39312759417E+02  0.14731558618E+03  0.46999998093E+01 0.  1.
</event>
<event>
 5   0  0.9411028E-02  0.5912328E+03  0.7818609E-02  0.9923764E-01
       -1   -1    0    0    0  501  0.00000000000E+00  0.00000000000E+00  0.10924367856E+03  0.10924367867E+03  0.50400001928E-02 0.  1.
        1   -1    0    0  501    0  0.00000000000E+00  0.00000000000E+00 -0.79994598129E+03  0.79994598131E+03  0.50400001928E-02 0. -1.
    10030    2    1    2    0    0  0.00000000000E+00  0.00000000000E+00 -0.69070230273E+03  0.90918965998E+03  0.59123275181E+03 0.  0.
        4    1    3    3  502    0 -0.13138110858E+03 -0.25930792441E+03 -0.42796096364E+03  0.51735267918E+03  0.12699999809E+01 0. -1.
       -4    1    3    3    0  502  0.13138110858E+03  0.25930792441E+03 -0.26274133910E+03  0.39183698080E+03  0.12699999809E+01 0.  1.
</event>
<event>
 5   0  0.9420349E-02  0.6900838E+03  0.7818609E-02  0.9734342E-01
       -1   -1    0    0    0  501  0.00000000000E+00  0.00000000000E+00  0.49912222110E+03  0.49912222112E+03  0.50400001928E-02 0. -1.
        1   -1    0    0  501    0  0.00000000000E+00  0.00000000000E+00 -0.23852656151E+03  0.23852656156E+03  0.50400001928E-02 0.  1.
    10030    2    1    2    0    0  0.00000000000E+00  0.00000000000E+00  0.26059565958E+03  0.73764878268E+03  0.69008378390E+03 0.  0.
        2    1    3    3  502    0 -0.21271438456E+03 -0.13305782233E+02 -0.15975265638E+03  0.26635571041E+03  0.25500000920E-02 0.  1.
       -2    1    3    3    0  502  0.21271438456E+03  0.13305782233E+02  0.42034831596E+03  0.47129307228E+03  0.25500000920E-02 0. -1.
</event>
<event>
 5   0  0.9177281E-02  0.5639800E+03  0.7818609E-02  0.9983089E-01
        1   -1    0    0  501    0  0.00000000000E+00  0.00000000000E+00  0.11229653080E+04  0.11229653080E+04  0.50400001928E-02 0.  1.
       -1   -1    0    0    0  501  0.00000000000E+00  0.00000000000E+00 -0.70811060261E+02  0.70811060441E+02  0.50400001928E-02 0. -1.
    10030    2    1    2    0    0  0.00000000000E+00  0.00000000000E+00  0.10521542478E+04  0.11937763685E+04  0.56398001458E+03 0.  0.
        1    1    3    3  502    0 -0.12890034787E+03 -0.64574963984E+02  0.10390576369E+04  0.10490119153E+04  0.50400001928E-02 0.  1.
       -1    1    3    3    0  502  0.12890034787E+03  0.64574963984E+02  0.13096610852E+02  0.14476445315E+03  0.50400001928E-02 0. -1.
</event>
<event>
 5   0  0.1488510E-01  0.6057532E+03  0.7818609E-02  0.9893541E-01
       -2   -1    0    0    0  501  0.00000000000E+00  0.00000000000E+00  0.40810021324E+02  0.40810021404E+02  0.25500000920E-02 0. -1.
        2   -1    0    0  501    0  0.00000000000E+00  0.00000000000E+00 -0.22478359587E+04  0.22478359587E+04  0.25500000920E-02 0.  1.
    10030    2    1    2    0    0  0.00000000000E+00  0.00000000000E+00 -0.22070259374E+04  0.22886459801E+04  0.60575319562E+03 0.  0.
        5    1    3    3  502    0 -0.73965349000E+02  0.48191061647E+02 -0.21980054340E+04  0.21997825413E+04  0.46999998093E+01 0.  1.
       -5    1    3    3    0  502  0.73965349000E+02 -0.48191061647E+02 -0.90205034068E+01  0.88863438799E+02  0.46999998093E+01 0. -1.
</event>
<event>
 5   0  0.9497860E-02  0.4502015E+03  0.7818609E-02  0.1027662E+00
       -1   -1    0    0    0  501  0.00000000000E+00  0.00000000000E+00  0.30551711154E+02  0.30551711569E+02  0.50400001928E-02 0.  1.
        1   -1    0    0  501    0  0.00000000000E+00  0.00000000000E+00 -0.16585111551E+04  0.16585111552E+04  0.50400001928E-02 0. -1.
    10030    2    1    2    0    0  0.00000000000E+00  0.00000000000E+00 -0.16279594440E+04  0.16890628667E+04  0.45020152872E+03 0.  0.
        5    1    3    3  502    0  0.20384037059E+03 -0.94427894791E+02 -0.86441868322E+03  0.89314571817E+03  0.46999998093E+01 0. -1.
       -5    1    3    3    0  502 -0.20384037059E+03  0.94427894791E+02 -0.76354076077E+03  0.79591714855E+03  0.46999998093E+01 0.  1.
</event>
<event>
 5   0  0.9177281E-02  0.5997827E+03  0.7818609E-02  0.9905857E-01
       -1   -1    0    0    0  501  0.00000000000E+00  0.00000000000E+00  0.18865983183E+03  0.18865983190E+03  0.50400001928E-02 0.  1.
        1   -1    0    0  501    0  0.00000000000E+00  0.00000000000E+00 -0.47670353891E+03  0.47670353894E+03  0.50400001928E-02 0. -1.
    10030    2    1    2    0    0  0.00000000000E+00  0.00000000000E+00 -0.28804370708E+03  0.66536337084E+03  0.59978265902E+03 0.  0.
        1    1    3    3  502    0  0.68466837481E+02 -0.29196283966E+03 -0.14159092540E+03  0.33162930775E+03  0.50400001928E-02 0.  1.
       -1    1    3    3    0  502 -0.68466837481E+02  0.29196283966E+03 -0.14645278168E+03  0.33373406309E+03  0.50400001928E-02 0. -1.
</event>
<event>
 5   0  0.1532571E-01  0.6169779E+03  0.7818609E-02  0.9870795E-01
        2   -1    0    0  501    0  0.00000000000E+00  0.00000000000E+00  0.29176796097E+03  0.29176796098E+03  0.25500000920E-02 0.  1.
       -2   -1    0    0    0  501  0.00000000000E+00  0.00000000000E+00 -0.32616820351E+03  0.32616820352E+03  0.25500000920E-02 0. -1.
    10030    2    1    2    0    0  0.00000000000E+00  0.00000000000E+00 -0.34400242537E+02  0.61793616450E+03  0.61697789808E+03 0.  0.
        1    1    3    3  502    0  0.10735664966E+03 -0.11160123643E+03 -0.28441995821E+03  0.32384409652E+03  0.50400001928E-02 0. -1.
       -1    1    3    3    0  502 -0.10735664966E+03  0.11160123643E+03  0.25001971567E+03  0.29409206798E+03  0.50400001928E-02 0.  1.
</event>
<event>
 5   0  0.9177281E-02  0.5992192E+03  0.7818609E-02  0.9907027E-01
       -1   -1    0    0    0  501  0.00000000000E+00  0.00000000000E+00  0.17693133619E+04  0.17693133619E+04  0.50400001928E-02 0. -1.
        1   -1    0    0  501    0  0.00000000000E+00  0.00000000000E+00 -0.50734880501E+02  0.50734880751E+02  0.50400001928E-02 0.  1.
    10030    2    1    2    0    0  0.00000000000E+00  0.00000000000E+00  0.17185784814E+04  0.18200482427E+04  0.59921916599E+03 0.  0.
        1    1    3    3  502    0 -0.26602867645E+03 -0.47432388175E+02  0.12523297994E+04  0.12811522215E+04  0.50400001928E-02 0. -1.
       -1    1    3    3    0  502  0.26602867645E+03  0.47432388175E+02  0.46624868200E+03  0.53889602117E+03  0.50400001928E-02 0.  1.
</event>
<event>
 5   0  0.1513339E-01  0.5932365E+03  0.7818609E-02  0.9919538E-01
        2   -1    0    0  501    0  0.00000000000E+00  0.00000000000E+00  0.18161317322E+04  0.18161317322E+04  0.25500000920E-02 0. -1.
       -2   -1    0    0    0  501  0.00000000000E+00  0.00000000000E+00 -0.48444929825E+02  0.48444929892E+02  0.25500000920E-02 0.  1.
    10030    2    1    2    0    0  0.00000000000E+00  0.00000000000E+00  0.17676868024E+04  0.18645766621E+04  0.59323646006E+03 0.  0.
        3    1    3    3  502    0 -0.56325716558E+02  0.19450592357E+03  0.15650770354E+04  0.15781227068E+04  0.10100000352E+00 0. -1.
       -3    1    3    3    0  502  0.56325716558E+02 -0.19450592357E+03  0.20260976695E+03  0.28645395532E+03  0.10100000352E+00 0.  1.
</event>
<event>
 5   0  0.9177281E-02  0.5885178E+03  0.7818609E-02  0.9929518E-01
       -1   -1    0    0    0  501  0.00000000000E+00  0.00000000000E+00  0.23105781007E+03  0.23105781012E+03  0.50400001928E-02 0. -1.
        1   -1    0    0  501    0  0.00000000000E+00  0.00000000000E+00 -0.37474735079E+03  0.37474735083E+03  0.50400001928E-02 0.  1.
    10030    2    1    2    0    0  0.00000000000E+00  0.00000000000E+00 -0.14368954073E+03  0.60580516095E+03  0.58851780680E+03 0.  0.
        1    1    3    3  502    0  0.11403602458E+03  0.23942982418E+03 -0.20309483591E+03  0.33403348337E+03  0.50400001928E-02 0. -1.
       -1    1    3    3    0  502 -0.11403602458E+03 -0.23942982418E+03  0.59405295187E+02  0.27177167758E+03  0.50400001928E-02 0.  1.
</event>
<event>
 5   0  0.9411028E-02  0.5959755E+03  0.7818609E-02  0.9913791E-01
        1   -1    0    0  501    0  0.00000000000E+00  0.00000000000E+00  0.15721701752E+04  0.15721701753E+04  0.50400001928E-02 0.  1.
       -1   -1    0    0    0  501  0.00000000000E+00  0.00000000000E+00 -0.56480336600E+02  0.56480336825E+02  0.50400001928E-02 0. -1.
    10030    2    1    2    0    0  0.00000000000E+00  0.00000000000E+00  0.15156898386E+04  0.16286505121E+04  0.59597550580E+03 0.  0.
        4    1    3    3  502    0 -0.26901288072E+03 -0.84229988183E+02  0.49384869082E+03  0.56863939648E+03  0.12699999809E+01 0. -1.
       -4    1    3    3    0  502  0.26901288072E+03  0.84229988183E+02  0.10218411478E+04  0.10600111156E+04  0.12699999809E+01 0.  1.
</event>
<event>
 5   0  0.1532571E-01  0.7116953E+03  0.7818609E-02  0.9697438E-01
       -2   -1    0    0    0  501  0.00000000000E+00  0.00000000000E+00  0.60966770843E+03  0.60966770843E+03  0.25500000920E-02 0. -1.
        2   -1    0    0  501    0  0.00000000000E+00  0.00000000000E+00 -0.20769931812E+03  0.20769931813E+03  0.25500000920E-02 0.  1.
    10030    2    1    2    0    0  0.00000000000E+00  0.00000000000E+00  0.40196839031E+03  0.81736702657E+03  0.71169534866E+03 0.  0.
        1    1    3    3  502    0  0.11686210660E+03 -0.10868851639E+03  0.56626116507E+03  0.58832104556E+03  0.50400001928E-02 0. -1.
       -1    1    3    3    0  502 -0.11686210660E+03  0.10868851639E+03 -0.16429277476E+03  0.22904598101E+03  0.50400001928E-02 0.  1.
</event>
<event>
 5   0  0.9177281E-02  0.5947535E+03  0.7818609E-02  0.9916351E-01
       -1   -1    0    0    0  501  0.00000000000E+00  0.00000000000E+00  0.11212704559E+04  0.11212704559E+04  0.50400001928E-02 0. -1.
        1   -1    0    0  501    0  0.00000000000E+00  0.00000000000E+00 -0.78868509724E+02  0.78868509885E+02  0.50400001928E-02 0.  1.
    10030    2    1    2    0    0  0.00000000000E+00  0.00000000000E+00  0.10424019461E+04  0.12001389658E+04  0.59475349500E+03 0.  0.
        1    1    3    3  502    0  0.26888897794E+03  0.10161222688E+03  0.67496530093E+03  0.73362421210E+03  0.50400001928E-02 0. -1.
       -1    1    3    3    0  502 -0.26888897794E+03 -0.10161222688E+03  0.36743664522E+03  0.46651475366E+03  0.50400001928E-02 0.  1.
</event>
<event>
 5   0  0.9177281E-02  0.5868456E+03  0.7818609E-02  0.9933080E-01
       -1   -1    0    0    0  501  0.00000000000E+00  0.00000000000E+00  0.11139166003E+03  0.11139166014E+03  0.50400001928E-02 0. -1.
        1   -1    0    0  501    0  0.00000000000E+00  0.00000000000E+00 -0.77292075766E+03  0.77292075768E+03  0.50400001928E-02 0.  1.
    10030    2    1    2    0    0  0.00000000000E+00  0.00000000000E+00 -0.66152909763E+03  0.88431241782E+03  0.58684555490E+03 0.  0.
        1    1    3    3  502    0 -0.21894659311E+03 -0.18449926875E+03 -0.23404918132E+03  0.36980617911E+03  0.50400001928E-02 0. -1.
       -1    1    3    3    0  502  0.21894659311E+03  0.18449926875E+03 -0.42747991631E+03  0.51450623871E+03  0.50400001928E-02 0.  1.
</event>
<event>
 5   0  0.1513339E-01  0.5846304E+03  0.7818609E-02  0.9937816E-01
        2   -1    0    0  501    0  0.00000000000E+00  0.00000000000E+00  0.11060158450E+04  0.11060158450E+04  0.25500000920E-02 0. -1.
       -2   -1    0    0    0  501  0.00000000000E+00  0.00000000000E+00 -0.77257631810E+02  0.77257631853E+02  0.25500000920E-02 0.  1.
    10030    2    1    2    0    0  0.00000000000E+00  0.00000000000E+00  0.10287582132E+04  0.11832734769E+04  0.58463036170E+03 0.  0.
        3    1    3    3  502    0 -0.14805795077E+03  0.53573032241E+02  0.15903431282E+02  0.15825345461E+03  0.10100000352E+00 0.  1.
       -3    1    3    3    0  502  0.14805795077E+03 -0.53573032241E+02  0.10128547819E+04  0.10250200222E+04  0.10100000352E+00 0. -1.
</event>
<event>
 5   0  0.1488510E-01  0.6236953E+03  0.7818609E-02  0.9857430E-01
        2   -1    0    0  501    0  0.00000000000E+00  0.00000000000E+00  0.17101544264E+03  0.17101544266E+03  0.25500000920E-02 0. -1.
       -2   -1    0    0    0  501  0.00000000000E+00  0.00000000000E+00 -0.56865590682E+03  0.56865590682E+03  0.25500000920E-02 0.  1.
    10030    2    1    2    0    0  0.00000000000E+00  0.00000000000E+00 -0.39764046417E+03  0.73967134949E+03  0.62369525131E+03 0.  0.
        5    1    3    3  502    0 -0.13163080099E+03 -0.22350234523E+03  0.64104038562E+01  0.25950558639E+03  0.46999998093E+01 0. -1.
       -5    1    3    3    0  502  0.13163080099E+03  0.22350234523E+03 -0.40405086803E+03  0.48016576309E+03  0.46999998093E+01 0.  1.
</event>
<event>
 5   0  0.6170500E-02  0.6041064E+03  0.7818609E-02  0.9896923E-01
       -3   -1    0    0    0  501  0.00000000000E+00  0.00000000000E+00  0.27980406667E+03  0.27980408490E+03  0.10100000352E+00 0. -1.
        3   -1    0    0  501    0  0.00000000000E+00  0.00000000000E+00 -0.32607147294E+03  0.32607148859E+03  0.10100000352E+00 0.  1.
    10030    2    1    2    0    0  0.00000000000E+00  0.00000000000E+00 -0.46267406276E+02  0.60587557348E+03  0.60410639598E+03 0.  0.
        1    1    3    3  502    0  0.63803466697E+01  0.12345109941E+03 -0.29954062423E+03  0.32404547267E+03  0.50400001928E-02 0.  1.
       -1    1    3    3    0  502 -0.63803466697E+01 -0.12345109941E+03  0.25327321795E+03  0.28183010081E+03  0.50400001928E-02 0. -1.
</event>
<event>
 5   0  0.1502642E-01  0.4757705E+03  0.7818609E-02  0.1020304E+00
        2   -1    0    0  501    0  0.00000000000E+00  0.00000000000E+00  0.93258435850E+03  0.93258435850E+03  0.25500000920E-02 0. -1.
       -2   -1    0    0    0  501  0.00000000000E+00  0.00000000000E+00 -0.60680180594E+02  0.60680180647E+02  0.25500000920E-02 0.  1.
    10030    2    1    2    0    0  0.00000000000E+00  0.00000000000E+00  0.87190417790E+03  0.99326453915E+03  0.47577047962E+03 0.  0.
        2    1    3    3  502    0  0.10126467119E+03  0.19484602634E+03  0.62694930948E+03  0.66429281516E+03  0.25500000920E-02 0. -1.
       -2    1    3    3    0  502 -0.10126467119E+03 -0.19484602634E+03  0.24495486842E+03  0.32897172398E+03  0.25500000920E-02 0.  1.
</event>
<event>
 5   0  0.1502642E-01  0.6206628E+03  0.7818609E-02  0.9863441E-01
       -2   -1    0    0    0  501  0.00000000000E+00  0.00000000000E+00  0.48118614358E+03  0.48118614359E+03  0.25500000920E-02 0.  1.
        2   -1    0    0  501    0  0.00000000000E+00  0.00000000000E+00 -0.20014201528E+03  0.20014201529E+03  0.25500000920E-02 0. -1.
    10030    2    1    2    0    0  0.00000000000E+00  0.00000000000E+00  0.28104412830E+03  0.68132815888E+03  0.62066275708E+03 0.  0.
        2    1    3    3  502    0 -0.11170514632E+03  0.42994448810E+02  0.45482755351E+03  0.47031336976E+03  0.25500000920E-02 0.  1.
       -2    1    3    3    0  502  0.11170514632E+03 -0.42994448810E+02 -0.17378342520E+03  0.21101478912E+03  0.25500000920E-02 0. -1.
</event>
<event>
 5   0  0.1513339E-01  0.5651237E+03  0.7818609E-02  0.9980528E-01
       -2   -1    0    0    0  501  0.00000000000E+00  0.00000000000E+00  0.60587943826E+02  0.60587943880E+02  0.25500000920E-02 0. -1.
        2   -1    0    0  501    0  0.00000000000E+00  0.00000000000E+00 -0.13177736584E+04  0.13177736584E+04  0.25500000920E-02 0.  1.
    10030    2    1    2    0    0  0.00000000000E+00  0.00000000000E+00 -0.12571857146E+04  0.13783616023E+04  0.56512369065E+03 0.  0.
        3    1    3    3  502    0 -0.43873367095E+02 -0.22461009477E+03 -0.22436870793E+03  0.32049320479E+03  0.10100000352E+00 0. -1.
       -3    1    3    3    0  502  0.43873367095E+02  0.22461009477E+03 -0.10328170067E+04  0.10578683975E+04  0.10100000352E+00 0.  1.
</event>
<event>
 5   0  0.9420349E-02  0.5919076E+03  0.7818609E-02  0.9922339E-01
       -1   -1    0    0    0  501  0.00000000000E+00  0.00000000000E+00  0.23175431249E+03  0.23175431255E+03  0.50400001928E-02 0. -1.
        1   -1    0    0  501    0  0.00000000000E+00  0.00000000000E+00 -0.37793754086E+03  0.37793754089E+03  0.50400001928E-02 0.  1.
    10030    2    1    2    0    0  0.00000000000E+00  0.00000000000E+00 -0.14618322836E+03  0.60969185344E+03  0.59190761094E+03 0.  0.
        2    1    3    3  502    0 -0.57611264370E+02  0.70997153024E+02  0.21684199313E+03  0.23532977608E+03  0.25500000920E-02 0. -1.
       -2    1    3    3    0  502  0.57611264370E+02 -0.70997153024E+02 -0.36302522149E+03  0.37436207736E+03  0.25500000920E-02 0.  1.
</event>
<event>
 5   0  0.1532571E-01  0.5801149E+03  0.7818609E-02  0.9947542E-01
       -2   -1    0    0    0  501  0.00000000000E+00  0.00000000000E+00  0.99477806752E+02  0.99477806785E+02  0.25500000920E-02 0.  1.
        2   -1    0    0  501    0  0.00000000000E+00  0.00000000000E+00 -0.84574982881E+03  0.84574982881E+03  0.25500000920E-02 0. -1.
    10030    2    1    2    0    0  0.00000000000E+00  0.00000000000E+00 -0.74627202206E+03  0.94522763560E+03  0.58011494740E+03 0.  0.
        1    1    3    3  502    0 -0.15433682749E+03 -0.20239977637E+03 -0.14649511068E+03  0.29367727742E+03  0.50400001928E-02 0.  1.
       -1    1    3    3    0  502  0.15433682749E+03  0.20239977637E+03 -0.59977691138E+03  0.65155035818E+03  0.50400001928E-02 0. -1.
</event>
<event>
 5   0  0.9177281E-02  0.5972748E+03  0.7818609E-02  0.9911076E-01
       -1   -1    0    0    0  501  0.00000000000E+00  0.00000000000E+00  0.35174665351E+03  0.35174665355E+03  0.50400001928E-02 0.  1.
        1   -1    0    0  501    0  0.00000000000E+00  0.00000000000E+00 -0.25354698432E+03  0.25354698437E+03  0.50400001928E-02 0. -1.
    10030    2    1    2    0    0  0.00000000000E+00  0.00000000000E+00  0.98199669190E+02  0.60529363791E+03  0.59727482206E+03 0.  0.
        1    1    3    3  502    0 -0.70418956050E+01  0.51999951204E+02 -0.24883821272E+03  0.25431091081E+03  0.50400001928E-02 0. -1.
       -1    1    3    3    0  502  0.70418956050E+01 -0.51999951204E+02  0.34703788191E+03  0.35098272711E+03  0.50400001928E-02 0.  1.
</event>
<event>
 5   0  0.8860626E-02  0.6049620E+03  0.7818609E-02  0.9895165E-01
        1   -1    0    0  501    0  0.00000000000E+00  0.00000000000E+00  0.40537722277E+03  0.40537722280E+03  0.50400001928E-02 0.  1.
       -1   -1    0    0    0  501  0.00000000000E+00  0.00000000000E+00 -0.22570277217E+03  0.22570277223E+03  0.50400001928E-02 0. -1.
    10030    2    1    2    0    0  0.00000000000E+00  0.00000000000E+00  0.17967445060E+03  0.63107999503E+03  0.60496202520E+03 0.  0.
        3    1    3    3  502    0  0.15666709982E+03  0.21784013661E+03  0.23549288316E+03  0.35700954260E+03  0.10100000352E+00 0.  1.
       -3    1    3    3    0  502 -0.15666709982E+03 -0.21784013661E+03 -0.55818432558E+02  0.27407045244E+03  0.10100000352E+00 0. -1.
</event>
<event>
 5   0  0.9420349E-02  0.5957022E+03  0.7818609E-02  0.9914363E-01
        1   -1    0    0  501    0  0.00000000000E+00  0.00000000000E+00  0.56115642328E+03  0.56115642330E+03  0.50400001928E-02 0. -1.
       -1   -1    0    0    0  501  0.00000000000E+00  0.00000000000E+00 -0.15809366706E+03  0.15809366714E+03  0.50400001928E-02 0.  1.
    10030    2    1    2    0    0  0.00000000000E+00  0.00000000000E+00  0.40306275621E+03  0.71925009044E+03  0.59570219670E+03 0.  0.
        2    1    3    3  502    0  0.27398840782E+03  0.80900319980E+02  0.99788652784E+02  0.30260912845E+03  0.25500000920E-02 0.  1.
       -2    1    3    3    0  502 -0.27398840782E+03 -0.80900319980E+02  0.30327410343E+03  0.41664096199E+03  0.25500000920E-02 0. -1.
</event>
<event>
 5   0  0.1483942E-01  0.6141643E+03  0.7818609E-02  0.9876448E-01
        2   -1    0    0  501    0  0.00000000000E+00  0.00000000000E+00  0.91160637697E+03  0.91160637697E+03  0.25500000920E-02 0. -1.
       -2   -1    0    0    0  501  0.00000000000E+00  0.00000000000E+00 -0.10344315609E+03  0.10344315612E+03  0.25500000920E-02 0.  1.
    10030    2    1    2    0    0  0.00000000000E+00  0.00000000000E+00  0.80816322088E+03  0.10150495331E+04  0.61416428017E+03 0.  0.
        4    1    3    3  502    0  0.17244170673E+02 -0.20334936380E+03  0.24854114708E+02  0.20559101414E+03  0.12699999809E+01 0.  1.
       -4    1    3    3    0  502 -0.17244170673E+02  0.20334936380E+03  0.78330910617E+03  0.80945851895E+03  0.12699999809E+01 0. -1.
</event>
<event>
 5   0  0.8860626E-02  0.6133246E+03  0.7818609E-02  0.9878141E-01
       -1   -1    0    0    0  501  0.00000000000E+00  0.00000000000E+00  0.13923776664E+03  0.13923776673E+03  0.50400001928E-02 0.  1.
        1   -1    0    0  501    0  0.00000000000E+00  0.00000000000E+00 -0.67540418507E+03  0.67540418508E+03  0.50400001928E-02 0. -1.
    10030    2    1    2    0    0  0.00000000000E+00  0.00000000000E+00 -0.53616641843E+03  0.81464195181E+03  0.61332461340E+03 0.  0.
        3    1    3    3  502    0 -0.90744233336E+02  0.22860830092E+03 -0.24810472284E+02  0.24720809224E+03  0.10100000352E+00 0.  1.
       -3    1    3    3    0  502  0.90744233336E+02 -0.22860830092E+03 -0.51135594614E+03  0.56743385957E+03  0.10100000352E+00 0. -1.
</event>
<event>
 5   0  0.1488510E-01  0.6035767E+03  0.7818609E-02  0.9898013E-01
       -2   -1    0    0    0  501  0.00000000000E+00  0.00000000000E+00  0.10530054772E+03  0.10530054775E+03  0.25500000920E-02 0.  1.
        2   -1    0    0  501    0  0.00000000000E+00  0.00000000000E+00 -0.86491682851E+03  0.86491682851E+03  0.25500000920E-02 0. -1.
    10030    2    1    2    0    0  0.00000000000E+00  0.00000000000E+00 -0.75961628079E+03  0.97021737626E+03  0.60357672517E+03 0.  0.
        5    1    3    3  502    0  0.10278323747E+03 -0.24553474506E+03 -0.60828292212E+03  0.66398938868E+03  0.46999998093E+01 0. -1.
       -5    1    3    3    0  502 -0.10278323747E+03  0.24553474506E+03 -0.15133335867E+03  0.30622798759E+03  0.46999998093E+01 0.  1.
</event>
<event>
 5   0  0.8860626E-02  0.5515603E+03  0.7818609E-02  0.1001133E+00
        1   -1    0    0  501    0  0.00000000000E+00  0.00000000000E+00  0.11010817092E+04  0.11010817092E+04  0.50400001928E-02 0.  1.
       -1   -1    0    0    0  501  0.00000000000E+00  0.00000000000E+00 -0.69072697244E+02  0.69072697428E+02  0.50400001928E-02 0. -1.
    10030    2    1    2    0    0  0.00000000000E+00  0.00000000000E+00  0.10320090119E+04  0.11701544066E+04  0.55156027287E+03 0.  0.
        3    1    3    3  502    0 -0.37824558749E+02  0.24485482574E+03  0.77296513775E+03  0.81170172928E+03  0.10100000352E+00 0.  1.
       -3    1    3    3    0  502  0.37824558749E+02 -0.24485482574E+03  0.25904387416E+03  0.35845267732E+03  0.10100000352E+00 0. -1.
</event>
<event>
 5   0  0.1532571E-01  0.6112995E+03  0.7818609E-02  0.9882237E-01
        2   -1    0    0  501    0  0.00000000000E+00  0.00000000000E+00  0.18486613641E+04  0.18486613641E+04  0.25500000920E-02 0. -1.
       -2   -1    0    0    0  501  0.00000000000E+00  0.00000000000E+00 -0.50534824789E+02  0.50534824854E+02  0.25500000920E-02 0.  1.
    10030    2    1    2    0    0  0.00000000000E+00  0.00000000000E+00  0.17981265393E+04  0.18991961889E+04  0.61129952786E+03 0.  0.
        1    1    3    3  502    0  0.18080245550E+03  0.24627899270E+03  0.92666118676E+03  0.97572733139E+03  0.50400001928E-02 0.  1.
       -1    1    3    3    0  502 -0.18080245550E+03 -0.24627899270E+03  0.87146535252E+03  0.92346885753E+03  0.50400001928E-02 0. -1.
</event>
<event>
 5   0  0.8860626E-02  0.6018119E+03  0.7818609E-02  0.9901654E-01
        1   -1    0    0  501    0  0.00000000000E+00  0.00000000000E+00  0.14505977469E+04  0.14505977469E+04  0.50400001928E-02 0.  1.
       -1   -1    0    0    0  501  0.00000000000E+00  0.00000000000E+00 -0.62418679375E+02  0.62418679578E+02  0.50400001928E-02 0. -1.
    10030    2    1    2    0    0  0.00000000000E+00  0.00000000000E+00  0.13881790675E+04  0.15130164265E+04  0.60181191688E+03 0.  0.
        3    1    3    3  502    0  0.13468632693E+02  0.23730672141E+03  0.11579975334E+04  0.11821396625E+04  0.10100000352E+00 0.  1.
       -3    1    3    3    0  502 -0.13468632693E+02 -0.23730672141E+03  0.23018153414E+03  0.33087676400E+03  0.10100000352E+00 0. -1.
</event>
<event>
 5   0  0.1488510E-01  0.6038919E+03  0.7818609E-02  0.9897364E-01
       -2   -1    0    0    0  501  0.00000000000E+00  0.00000000000E+00  0.34997801961E+03  0.34997801961E+03  0.25500000920E-02 0.  1.
        2   -1    0    0  501    0  0.00000000000E+00  0.00000000000E+00 -0.26050597777E+03  0.26050597778E+03  0.25500000920E-02 0. -1.
    10030    2    1    2    0    0  0.00000000000E+00  0.00000000000E+00  0.89472041833E+02  0.61048399740E+03  0.60389193140E+03 0.  0.
        5    1    3    3  502    0  0.58707841515E+01  0.12529328950E+02  0.34962034347E+03  0.34992559889E+03  0.46999998093E+01 0.  1.
       -5    1    3    3    0  502 -0.58707841515E+01 -0.12529328950E+02 -0.26014830164E+03  0.26055839851E+03  0.46999998093E+01 0. -1.
</event>
<event>
 5   0  0.1513339E-01  0.6274332E+03  0.7818609E-02  0.9850070E-01
       -2   -1    0    0    0  501  0.00000000000E+00  0.00000000000E+00  0.51091681554E+02  0.51091681617E+02  0.25500000920E-02 0. -1.
        2   -1    0    0  501    0  0.00000000000E+00  0.00000000000E+00 -0.19263041910E+04  0.19263041910E+04  0.25500000920E-02 0.  1.
    10030    2    1    2    0    0  0.00000000000E+00  0.00000000000E+00 -0.18752125095E+04  0.19773958726E+04  0.62743324862E+03 0.  0.
        3    1    3    3  502    0 -0.19470422281E+03  0.94965227204E+02 -0.16527403132E+04  0.16668769247E+04  0.10100000352E+00 0.  1.
       -3    1    3    3    0  502  0.19470422281E+03 -0.94965227204E+02 -0.22247219622E+03  0.31051894798E+03  0.10100000352E+00 0. -1.
</event>
<event>
 5   0  0.6170500E-02  0.6017526E+03  0.7818609E-02  0.9901777E-01
        3   -1    0    0  501    0  0.00000000000E+00  0.00000000000E+00  0.27379935007E+03  0.27379936870E+03  0.10100000352E+00 0.  1.
       -3   -1    0    0    0  501  0.00000000000E+00  0.00000000000E+00 -0.33063095774E+03  0.33063097316E+03  0.10100000352E+00 0. -1.
    10030    2    1    2    0    0  0.00000000000E+00  0.00000000000E+00 -0.56831607666E+02  0.60443034186E+03  0.60175261240E+03 0.  0.
        4    1    3    3  502    0 -0.69529249385E+02  0.17803433062E+03  0.20498515194E+03  0.28026962877E+03  0.12699999809E+01 0.  1.
       -4    1    3    3    0  502  0.69529249385E+02 -0.17803433062E+03 -0.26181675960E+03  0.32416071309E+03  0.12699999809E+01 0. -1.
</event>
<event>
 5   0  0.1513339E-01  0.6040269E+03  0.7818609E-02  0.9897087E-01
        2   -1    0    0  501    0  0.00000000000E+00  0.00000000000E+00  0.79337876799E+03  0.79337876800E+03  0.25500000920E-02 0.  1.
       -2   -1    0    0    0  501  0.00000000000E+00  0.00000000000E+00 -0.11496667808E+03  0.11496667811E+03  0.25500000920E-02 0. -1.
    10030    2    1    2    0    0  0.00000000000E+00  0.00000000000E+00  0.67841208991E+03  0.90834544611E+03  0.60402689156E+03 0.  0.
        3    1    3    3  502    0 -0.12367226624E+03 -0.26998877024E+03  0.42189331928E+03  0.51592901503E+03  0.10100000352E+00 0. -1.
       -3    1    3    3    0  502  0.12367226624E+03  0.26998877024E+03  0.25651877063E+03  0.39241643108E+03  0.10100000352E+00 0.  1.
</event>
<event>
 5   0  0.9411028E-02  0.5384621E+03  0.7818609E-02  0.1004200E+00
        1   -1    0    0  501    0  0.00000000000E+00  0.00000000000E+00  0.87837461429E+03  0.87837461430E+03  0.50400001928E-02 0. -1.
       -1   -1    0    0    0  501  0.00000000000E+00  0.00000000000E+00 -0.82522160216E+02  0.82522160370E+02  0.50400001928E-02 0.  1.
    10030    2    1    2    0    0  0.00000000000E+00  0.00000000000E+00  0.79585245407E+03  0.96089677467E+03  0.53846214623E+03 0.  0.
        4    1    3    3  502    0  0.37479769509E+02 -0.22035447874E+03  0.13011178929E+03  0.25863394989E+03  0.12699999809E+01 0.  1.
       -4    1    3    3    0  502 -0.37479769509E+02  0.22035447874E+03  0.66574066478E+03  0.70226282478E+03  0.12699999809E+01 0. -1.
</event>
<event>
 5   0  0.9411028E-02  0.5751807E+03  0.7818609E-02  0.9958280E-01
       -1   -1    0    0    0  501  0.00000000000E+00  0.00000000000E+00  0.19547350594E+03  0.19547350601E+03  0.50400001928E-02 0. -1.
        1   -1    0    0  501    0  0.00000000000E+00  0.00000000000E+00 -0.42311726555E+03  0.42311726558E+03  0.50400001928E-02 0.  1.
    10030    2    1    2    0    0  0.00000000000E+00  0.00000000000E+00 -0.22764375960E+03  0.61859077159E+03  0.57518072065E+03 0.  0.
        4    1    3    3  502    0 -0.74444435990E+02  0.27266767230E+03 -0.56741067975E+02  0.28828942967E+03  0.12699999809E+01 0.  1.
       -4    1    3    3    0  502  0.74444435990E+02 -0.27266767230E+03 -0.17090269163E+03  0.33030134191E+03  0.12699999809E+01 0. -1.
</event>
<event>
 5   0  0.9177281E-02  0.5971633E+03  0.7818609E-02  0.9911309E-01
        1   -1    0    0  501    0  0.00000000000E+00  0.00000000000E+00  0.34478220035E+03  0.34478220039E+03  0.50400001928E-02 0.  1.
       -1   -1    0    0    0  501  0.00000000000E+00  0.00000000000E+00 -0.25857192333E+03  0.25857192338E+03  0.50400001928E-02 0. -1.
    10030    2    1    2    0    0  0.00000000000E+00  0.00000000000E+00  0.86210277023E+02  0.60335412376E+03  0.59716328319E+03 0.  0.
        1    1    3    3  502    0 -0.25156849620E+03 -0.15925815662E+03  0.20487175041E+02  0.29844529331E+03  0.50400001928E-02 0. -1.
       -1    1    3    3    0  502  0.25156849620E+03  0.15925815662E+03  0.65723101982E+02  0.30490883045E+03  0.50400001928E-02 0.  1.
</event>
<event>
 5   0  0.9497860E-02  0.5768146E+03  0.7818609E-02  0.9954711E-01
       -1   -1    0    0    0  501  0.00000000000E+00  0.00000000000E+00  0.47497703360E+03  0.47497703363E+03  0.50400001928E-02 0.  1.
        1   -1    0    0  501    0  0.00000000000E+00  0.00000000000E+00 -0.17512168153E+03  0.17512168160E+03  0.50400001928E-02 0. -1.
    10030    2    1    2    0    0  0.00000000000E+00  0.00000000000E+00  0.29985535207E+03  0.65009871523E+03  0.57681462133E+03 0.  0.
        5    1    3    3  502    0 -0.72511781028E+02  0.43831835253E+02 -0.16073247071E+03  0.18175864576E+03  0.46999998093E+01 0. -1.
       -5    1    3    3    0  502  0.72511781028E+02 -0.43831835253E+02  0.46058782279E+03  0.46834006947E+03  0.46999998093E+01 0.  1.
</event>
<event>
 5   0  0.8860626E-02  0.6095824E+03  0.7818609E-02  0.9885723E-01
       -1   -1    0    0    0  501  0.00000000000E+00  0.00000000000E+00  0.98190705265E+02  0.98190705395E+02  0.50400001928E-02 0. -1.
        1   -1    0    0  501    0  0.00000000000E+00  0.00000000000E+00 -0.94609451575E+03  0.94609451577E+03  0.50400001928E-02 0.  1.
    10030    2    1    2    0    0  0.00000000000E+00  0.00000000000E+00 -0.84790381049E+03  0.10442852212E+04  0.60958244011E+03 0.  0.
        3    1    3    3  502    0 -0.82123991706E+02 -0.43630821973E+02  0.73293537148E+02  0.11840587582E+03  0.10100000352E+00 0. -1.
       -3    1    3    3    0  502  0.82123991706E+02  0.43630821973E+02 -0.92119734764E+03  0.92587934534E+03  0.10100000352E+00 0.  1.
</event>
<event>
 5   0  0.9420349E-02  0.5826329E+03  0.7818609E-02  0.9942107E-01
        1   -1    0    0  501    0  0.00000000000E+00  0.00000000000E+00  0.14659528457E+04  0.14659528457E+04  0.50400001928E-02 0. -1.
       -1   -1    0    0    0  501  0.00000000000E+00  0.00000000000E+00 -0.57890863746E+02  0.57890863965E+02  0.50400001928E-02 0.  1.
    10030    2    1    2    0    0  0.00000000000E+00  0.00000000000E+00  0.14080619820E+04  0.15238437097E+04  0.58263290887E+03 0.  0.
        2    1    3    3  502    0 -0.14660248234E+03 -0.33929240523E+02  0.51626886421E+02  0.15908744953E+03  0.25500000920E-02 0.  1.
       -2    1    3    3    0  502  0.14660248234E+03  0.33929240523E+02  0.13564350956E+04  0.13647562602E+04  0.25500000920E-02 0. -1.
</event>
<event>
 5   0  0.6170500E-02  0.6005086E+03  0.7818609E-02  0.9904351E-01
        4   -1    0    0  501    0  0.00000000000E+00  0.00000000000E+00  0.28393483513E+03  0.28393767538E+03  0.12699999809E+01 0.  1.
       -4   -1    0    0    0  501  0.00000000000E+00  0.00000000000E+00 -0.31750601379E+03  0.31750855374E+03  0.12699999809E+01 0. -1.
    10030    2    1    2    0    0  0.00000000000E+00  0.00000000000E+00 -0.33571178662E+02  0.60144622912E+03  0.60050856987E+03 0.  0.
        3    1    3    3  502    0  0.23793710056E+03  0.16580755022E+03  0.61094542225E+02  0.29637604630E+03  0.10100000352E+00 0.  1.
       -3    1    3    3    0  502 -0.23793710056E+03 -0.16580755022E+03 -0.94665720887E+02  0.30507018282E+03  0.10100000352E+00 0. -1.
</event>
<event>
 5   0  0.1502642E-01  0.5532750E+03  0.7818609E-02  0.1000739E+00
        2   -1    0    0  501    0  0.00000000000E+00  0.00000000000E+00  0.12276505475E+04  0.12276505475E+04  0.25500000920E-02 0.  1.
       -2   -1    0    0    0  501  0.00000000000E+00  0.00000000000E+00 -0.62337207175E+02  0.62337207227E+02  0.25500000920E-02 0. -1.
    10030    2    1    2    0    0  0.00000000000E+00  0.00000000000E+00  0.11653133403E+04  0.12899877547E+04  0.55327500053E+03 0.  0.
        2    1    3    3  502    0 -0.11300265735E+03 -0.11733542519E+03  0.11039604865E+04  0.11159148526E+04  0.25500000920E-02 0.  1.
       -2    1    3    3    0  502  0.11300265735E+03  0.11733542519E+03  0.61352853856E+02  0.17407290213E+03  0.25500000920E-02 0. -1.
</event>
<event>
 5   0  0.8860626E-02  0.5959360E+03  0.7818609E-02  0.9913874E-01
       -1   -1    0    0    0  501  0.00000000000E+00  0.00000000000E+00  0.12974127722E+03  0.12974127731E+03  0.50400001928E-02 0. -1.
        1   -1    0    0  501    0  0.00000000000E+00  0.00000000000E+00 -0.68432292249E+03  0.68432292251E+03  0.50400001928E-02 0.  1.
    10030    2    1    2    0    0  0.00000000000E+00  0.00000000000E+00 -0.55458164527E+03  0.81406419982E+03  0.59593600341E+03 0.  0.
        3    1    3    3  502    0  0.23757715879E+02  0.14088778884E+03 -0.63447760925E+03  0.65036577781E+03  0.10100000352E+00 0.  1.
       -3    1    3    3    0  502 -0.23757715879E+02 -0.14088778884E+03  0.79895963973E+02  0.16369842201E+03  0.10100000352E+00 0. -1.
</event>
<event>
 5   0  0.9177281E-02  0.6330285E+03  0.7818609E-02  0.9839157E-01
       -1   -1    0    0    0  501  0.00000000000E+00  0.00000000000E+00  0.40320185596E+03  0.40320185599E+03  0.50400001928E-02 0.  1.
        1   -1    0    0  501    0  0.00000000000E+00  0.00000000000E+00 -0.24846427717E+03  0.24846427722E+03  0.50400001928E-02 0. -1.
    10030    2    1    2    0    0  0.00000000000E+00  0.00000000000E+00  0.15473757879E+03  0.65166613321E+03  0.63302845978E+03 0.  0.
        1    1    3    3  502    0 -0.28583387191E+03 -0.12308229674E+03  0.13678288170E+03  0.33994089318E+03  0.50400001928E-02 0. -1.
       -1    1    3    3    0  502  0.28583387191E+03  0.12308229674E+03  0.17954697090E+02  0.31172524004E+03  0.50400001928E-02 0.  1.
</event>
<event>
 5   0  0.1502642E-01  0.6059668E+03  0.7818609E-02  0.9893104E-01
        2   -1    0    0  501    0  0.00000000000E+00  0.00000000000E+00  0.55761572947E+03  0.55761572948E+03  0.25500000920E-02 0.  1.
       -2   -1    0    0    0  501  0.00000000000E+00  0.00000000000E+00 -0.16462757952E+03  0.16462757954E+03  0.25500000920E-02 0. -1.
    10030    2    1    2    0    0  0.00000000000E+00  0.00000000000E+00  0.39298814995E+03  0.72224330902E+03  0.60596675769E+03 0.  0.
        2    1    3    3  502    0  0.22493526234E+03  0.19806757493E+03  0.24942631390E+03  0.38992322648E+03  0.25500000920E-02 0.  1.
       -2    1    3    3    0  502 -0.22493526234E+03 -0.19806757493E+03  0.14356183605E+03  0.33232008254E+03  0.25500000920E-02 0. -1.
</event>
<event>
 5   0  0.9420349E-02  0.5974691E+03  0.7818609E-02  0.9910671E-01
        1   -1    0    0  501    0  0.00000000000E+00  0.00000000000E+00  0.38744559519E+03  0.38744559522E+03  0.50400001928E-02 0.  1.
       -1   -1    0    0    0  501  0.00000000000E+00  0.00000000000E+00 -0.23033515508E+03  0.23033515514E+03  0.50400001928E-02 0. -1.
    10030    2    1    2    0    0  0.00000000000E+00  0.00000000000E+00  0.15711044011E+03  0.61778075035E+03  0.59746913319E+03 0.  0.
        2    1    3    3  502    0 -0.54638305858E+02 -0.86885343195E+02 -0.21153170510E+03  0.23511714017E+03  0.25500000920E-02 0. -1.
       -2    1    3    3    0  502  0.54638305858E+02  0.86885343195E+02  0.36864214521E+03  0.38266361019E+03  0.25500000920E-02 0.  1.
</event>
<event>
 5   0  0.8860626E-02  0.6034029E+03  0.7818609E-02  0.9898371E-01
        1   -1    0    0  501    0  0.00000000000E+00  0.00000000000E+00  0.30711621357E+03  0.30711621361E+03  0.50400001928E-02 0. -1.
       -1   -1    0    0    0  501  0.00000000000E+00  0.00000000000E+00 -0.29638213715E+03  0.29638213719E+03  0.50400001928E-02 0.  1.
    10030    2    1    2    0    0  0.00000000000E+00  0.00000000000E+00  0.10734076416E+02  0.60349835080E+03  0.60340288284E+03 0.  0.
        3    1    3    3  502    0  0.16631652151E+03  0.21924669683E+03  0.12905329400E+03  0.30394911136E+03  0.10100000352E+00 0. -1.
       -3    1    3    3    0  502 -0.16631652151E+03 -0.21924669683E+03 -0.11831921759E+03  0.29954923944E+03  0.10100000352E+00 0.  1.
</event>
<event>
 5   0  0.1532571E-01  0.5998126E+03  0.7818609E-02  0.9905795E-01
        2   -1    0    0  501    0  0.00000000000E+00  0.00000000000E+00  0.50613201856E+03  0.50613201856E+03  0.25500000920E-02 0. -1.
       -2   -1    0    0    0  501  0.00000000000E+00  0.00000000000E+00 -0.17770816026E+03  0.17770816028E+03  0.25500000920E-02 0.  1.
    10030    2    1    2    0    0  0.00000000000E+00  0.00000000000E+00  0.32842385829E+03  0.68384017884E+03  0.59981260366E+03 0.  0.
        1    1    3    3  502    0 -0.54445927717E+02 -0.16612019913E+03 -0.11361347819E+03  0.20849053229E+03  0.50400001928E-02 0.  1.
       -1    1    3    3    0  502  0.54445927717E+02  0.16612019913E+03  0.44203733648E+03  0.47534964655E+03  0.50400001928E-02 0. -1.
</event>
<event>
 5   0  0.1502642E-01  0.6131272E+03  0.7818609E-02  0.9878539E-01
       -2   -1    0    0    0  501  0.00000000000E+00  0.00000000000E+00  0.71237940287E+02  0.71237940332E+02  0.25500000920E-02 0. -1.
        2   -1    0    0  501    0  0.00000000000E+00  0.00000000000E+00 -0.13192583602E+04  0.13192583602E+04  0.25500000920E-02 0.  1.
    10030    2    1    2    0    0  0.00000000000E+00  0.00000000000E+00 -0.12480204200E+04  0.13904963006E+04  0.61312722439E+03 0.  0.
        2    1    3    3  502    0 -0.17798414712E+03 -0.21969725098E+03 -0.35532666742E+03  0.45409501131E+03  0.25500000920E-02 0. -1.
       -2    1    3    3    0  502  0.17798414712E+03  0.21969725098E+03 -0.89269375254E+03  0.93640128927E+03  0.25500000920E-02 0.  1.
</event>
<event>
 5   0  0.1483942E-01  0.5772314E+03  0.7818609E-02  0.9953803E-01
       -2   -1    0    0    0  501  0.00000000000E+00  0.00000000000E+00  0.76450533320E+02  0.76450533362E+02  0.25500000920E-02 0.  1.
        2   -1    0    0  501    0  0.00000000000E+00  0.00000000000E+00 -0.10895805448E+04  0.10895805448E+04  0.25500000920E-02 0. -1.
    10030    2    1    2    0    0  0.00000000000E+00  0.00000000000E+00 -0.10131300115E+04  0.11660310782E+04  0.57723137050E+03 0.  0.
        4    1    3    3  502    0  0.76304585869E+02  0.25646688082E+03 -0.28806648908E+03  0.39316862262E+03  0.12699999809E+01 0.  1.
       -4    1    3    3    0  502 -0.76304585869E+02 -0.25646688082E+03 -0.72506352241E+03  0.77286245555E+03  0.12699999809E+01 0. -1.
</event>
<event>
 5   0  0.1488510E-01  0.5969011E+03  0.7818609E-02  0.9911856E-01
        2   -1    0    0  501    0  0.00000000000E+00  0.00000000000E+00  0.72315067151E+03  0.72315067152E+03  0.25500000920E-02 0. -1.
       -2   -1    0    0    0  501  0.00000000000E+00  0.00000000000E+00 -0.12317312446E+03  0.12317312449E+03  0.25500000920E-02 0.  1.
    10030    2    1    2    0    0  0.00000000000E+00  0.00000000000E+00  0.59997754705E+03  0.84632379600E+03  0.59690108956E+03 0.  0.
        5    1    3    3  502    0 -0.19116006701E+03  0.18243765414E+03  0.49658129929E+03  0.56253066199E+03  0.46999998093E+01 0. -1.
       -5    1    3    3    0  502  0.19116006701E+03 -0.18243765414E+03  0.10339624776E+03  0.28379313402E+03  0.46999998093E+01 0.  1.
</event>
<event>
 5   0  0.1483942E-01  0.6062820E+03  0.7818609E-02  0.9892458E-01
        2   -1    0    0  501    0  0.00000000000E+00  0.00000000000E+00  0.12370203381E+03  0.12370203383E+03  0.25500000920E-02 0. -1.
       -2   -1    0    0    0  501  0.00000000000E+00  0.00000000000E+00 -0.74286954741E+03  0.74286954741E+03  0.25500000920E-02 0.  1.
    10030    2    1    2    0    0  0.00000000000E+00  0.00000000000E+00 -0.61916751360E+03  0.86657158125E+03  0.60628202639E+03 0.  0.
        4    1    3    3  502    0  0.88267583755E+02 -0.21811884164E+02 -0.72291691436E+03  0.72861334231E+03  0.12699999809E+01 0.  1.
       -4    1    3    3    0  502 -0.88267583755E+02  0.21811884164E+02  0.10374940075E+03  0.13795823893E+03  0.12699999809E+01 0. -1.
</event>
<event>
 5   0  0.1532571E-01  0.6036547E+03  0.7818609E-02  0.9897853E-01
        2   -1    0    0  501    0  0.00000000000E+00  0.00000000000E+00  0.22367142778E+03  0.22367142780E+03  0.25500000920E-02 0. -1.
       -2   -1    0    0    0  501  0.00000000000E+00  0.00000000000E+00 -0.40729267963E+03  0.40729267964E+03  0.25500000920E-02 0.  1.
    10030    2    1    2    0    0  0.00000000000E+00  0.00000000000E+00 -0.18362125185E+03  0.63096410744E+03  0.60365465355E+03 0.  0.
        1    1    3    3  502    0  0.24161934299E+03 -0.16042523069E+03 -0.17915902704E+03  0.34090191924E+03  0.50400001928E-02 0. -1.
       -1    1    3    3    0  502 -0.24161934299E+03  0.16042523069E+03 -0.44622248096E+01  0.29006218820E+03  0.50400001928E-02 0.  1.
</event>
<event>
 5   0  0.9420349E-02  0.6013426E+03  0.7818609E-02  0.9902625E-01
       -1   -1    0    0    0  501  0.00000000000E+00  0.00000000000E+00  0.27912361718E+03  0.27912361722E+03  0.50400001928E-02 0. -1.
        1   -1    0    0  501    0  0.00000000000E+00  0.00000000000E+00 -0.32388240105E+03  0.32388240109E+03  0.50400001928E-02 0.  1.
    10030    2    1    2    0    0  0.00000000000E+00  0.00000000000E+00 -0.44758783871E+02  0.60300601831E+03  0.60134258903E+03 0.  0.
        2    1    3    3  502    0 -0.20443598635E+02  0.95483451954E+02 -0.30753936421E+03  0.32266932123E+03  0.25500000920E-02 0.  1.
       -2    1    3    3    0  502  0.20443598635E+02 -0.95483451954E+02  0.26278058033E+03  0.28033669708E+03  0.25500000920E-02 0. -1.
</event>
<event>
 5   0  0.1502642E-01  0.6098720E+03  0.7818609E-02  0.9885134E-01
       -2   -1    0    0    0  501  0.00000000000E+00  0.00000000000E+00  0.14508135653E+03  0.14508135655E+03  0.25500000920E-02 0. -1.
        2   -1    0    0  501    0  0.00000000000E+00  0.00000000000E+00 -0.64092296846E+03  0.64092296847E+03  0.25500000920E-02 0.  1.
    10030    2    1    2    0    0  0.00000000000E+00  0.00000000000E+00 -0.49584161194E+03  0.78600432502E+03  0.60987203151E+03 0.  0.
        2    1    3    3  502    0  0.18073279625E+02 -0.90246125152E+02  0.12675274126E+03  0.15664374857E+03  0.25500000920E-02 0. -1.
       -2    1    3    3    0  502 -0.18073279625E+02  0.90246125152E+02 -0.62259435320E+03  0.62936057645E+03  0.25500000920E-02 0.  1.
</event>
<event>
 5   0  0.1513339E-01  0.5996061E+03  0.7818609E-02  0.9906224E-01
       -2   -1    0    0    0  501  0.00000000000E+00  0.00000000000E+00  0.16139428537E+03  0.16139428539E+03  0.25500000920E-02 0.  1.
        2   -1    0    0  501    0  0.00000000000E+00  0.00000000000E+00 -0.55690864423E+03  0.55690864424E+03  0.25500000920E-02 0. -1.
    10030    2    1    2    0    0  0.00000000000E+00  0.00000000000E+00 -0.39551435886E+03  0.71830292962E+03  0.59960611291E+03 0.  0.
        3    1    3    3  502    0 -0.27995853266E+03 -0.30883414981E+02 -0.32081083291E+03  0.42690767860E+03  0.10100000352E+00 0. -1.
       -3    1    3    3    0  502  0.27995853266E+03  0.30883414981E+02 -0.74703525950E+02  0.29139525103E+03  0.10100000352E+00 0.  1.
</event>
<event>
 5   0  0.1488510E-01  0.5958066E+03  0.7818609E-02  0.9914144E-01
        2   -1    0    0  501    0  0.00000000000E+00  0.00000000000E+00  0.10969377931E+03  0.10969377934E+03  0.25500000920E-02 0. -1.
       -2   -1    0    0    0  501  0.00000000000E+00  0.00000000000E+00 -0.80903745372E+03  0.80903745373E+03  0.25500000920E-02 0.  1.
    10030    2    1    2    0    0  0.00000000000E+00  0.00000000000E+00 -0.69934367441E+03  0.91873123307E+03  0.59580659923E+03 0.  0.
        5    1    3    3  502    0  0.23223631000E+03  0.18649319643E+03 -0.35475573058E+03  0.46323550639E+03  0.46999998093E+01 0.  1.
       -5    1    3    3    0  502 -0.23223631000E+03 -0.18649319643E+03 -0.34458794383E+03  0.45549572668E+03  0.46999998093E+01 0. -1.
</event>
<event>
 5   0  0.1532571E-01  0.6151858E+03  0.7818609E-02  0.9874392E-01
       -2   -1    0    0    0  501  0.00000000000E+00  0.00000000000E+00  0.21655283496E+03  0.21655283498E+03  0.25500000920E-02 0.  1.
        2   -1    0    0  501    0  0.00000000000E+00  0.00000000000E+00 -0.43690677642E+03  0.43690677643E+03  0.25500000920E-02 0. -1.
    10030    2    1    2    0    0  0.00000000000E+00  0.00000000000E+00 -0.22035394146E+03  0.65345961140E+03  0.61518582901E+03 0.  0.
        1    1    3    3  502    0 -0.28383870637E+03 -0.98798618348E+02 -0.17973236913E+03  0.35018466951E+03  0.50400001928E-02 0. -1.
       -1    1    3    3    0  502  0.28383870637E+03  0.98798618348E+02 -0.40621572327E+02  0.30327494190E+03  0.50400001928E-02 0.  1.
</event>
<event>
 5   0  0.9177281E-02  0.5768622E+03  0.7818609E-02  0.9954607E-01
        1   -1    0    0  501    0  0.00000000000E+00  0.00000000000E+00  0.64580650200E+03  0.64580650202E+03  0.50400001928E-02 0.  1.
       -1   -1    0    0    0  501  0.00000000000E+00  0.00000000000E+00 -0.12881955658E+03  0.12881955668E+03  0.50400001928E-02 0. -1.
    10030    2    1    2    0    0  0.00000000000E+00  0.00000000000E+00  0.51698694542E+03  0.77462605869E+03  0.57686222712E+03 0.  0.
        1    1    3    3  502    0 -0.60521338691E+02  0.28035974231E+02 -0.11832119185E+03  0.13582618582E+03  0.50400001928E-02 0. -1.
       -1    1    3    3    0  502  0.60521338691E+02 -0.28035974231E+02  0.63530813726E+03  0.63879987288E+03  0.50400001928E-02 0.  1.
</event>
<event>
 5   0  0.1502642E-01  0.6034794E+03  0.7818609E-02  0.9898214E-01
        2   -1    0    0  501    0  0.00000000000E+00  0.00000000000E+00  0.19674490341E+04  0.19674490341E+04  0.25500000920E-02 0. -1.
       -2   -1    0    0    0  501  0.00000000000E+00  0.00000000000E+00 -0.46276595150E+02  0.46276595221E+02  0.25500000920E-02 0.  1.
    10030    2    1    2    0    0  0.00000000000E+00  0.00000000000E+00  0.19211724389E+04  0.20137256293E+04  0.60347938656E+03 0.  0.
        2    1    3    3  502    0 -0.13987397321E+03 -0.18511684352E+03  0.16042962341E+04  0.16209871625E+04  0.25500000920E-02 0. -1.
       -2    1    3    3    0  502  0.13987397321E+03  0.18511684352E+03  0.31687620483E+03  0.39273846683E+03  0.25500000920E-02 0.  1.
</event>
<event>
 5   0  0.8860626E-02  0.6080190E+03  0.7818609E-02  0.9888907E-01
        1   -1    0    0  501    0  0.00000000000E+00  0.00000000000E+00  0.37426571378E+03  0.37426571381E+03  0.50400001928E-02 0. -1.
       -1   -1    0    0    0  501  0.00000000000E+00  0.00000000000E+00 -0.24694158529E+03  0.24694158534E+03  0.50400001928E-02 0.  1.
    10030    2    1    2    0    0  0.00000000000E+00  0.00000000000E+00  0.12732412849E+03  0.62120729915E+03  0.60801897571E+03 0.  0.
        3    1    3    3  502    0 -0.98816686056E+02 -0.17379634560E+00  0.35739944093E+03  0.37080876233E+03  0.10100000352E+00 0. -1.
       -3    1    3    3    0  502  0.98816686056E+02  0.17379634560E+00 -0.23007531243E+03  0.25039853682E+03  0.10100000352E+00 0.  1.
</event>
<event>
 5   0  0.1488510E-01  0.6115112E+03  0.7818609E-02  0.9881808E-01
       -2   -1    0    0    0  501  0.00000000000E+00  0.00000000000E+00  0.42204649510E+03  0.42204649511E+03  0.25500000920E-02 0. -1.
        2   -1    0    0  501    0  0.00000000000E+00  0.00000000000E+00 -0.22150758384E+03  0.22150758386E+03  0.25500000920E-02 0.  1.
    10030    2    1    2    0    0  0.00000000000E+00  0.00000000000E+00  0.20053891126E+03  0.64355407897E+03  0.61151124080E+03 0.  0.
        5    1    3    3  502    0 -0.12538902719E+03 -0.65098931626E+02  0.38559225383E+03  0.41068693094E+03  0.46999998093E+01 0. -1.
       -5    1    3    3    0  502  0.12538902719E+03  0.65098931626E+02 -0.18505334256E+03  0.23286714803E+03  0.46999998093E+01 0.  1.
</event>
<event>
 5   0  0.9420349E-02  0.7584639E+03  0.7818609E-02  0.9622165E-01
        1   -1    0    0  501    0  0.00000000000E+00  0.00000000000E+00  0.80544328735E+02  0.80544328892E+02  0.50400001928E-02 0.  1.
       -1   -1    0    0    0  501  0.00000000000E+00  0.00000000000E+00 -0.17855619617E+04  0.17855619617E+04  0.50400001928E-02 0. -1.
    10030    2    1    2    0    0  0.00000000000E+00  0.00000000000E+00 -0.17050176330E+04  0.18661062906E+04  0.75846394713E+03 0.  0.
        2    1    3    3  502    0  0.29214489467E+03  0.10555279437E+03 -0.31726054809E+03  0.44400933241E+03  0.25500000920E-02 0.  1.
       -2    1    3    3    0  502 -0.29214489467E+03 -0.10555279437E+03 -0.13877570849E+04  0.14220969582E+04  0.25500000920E-02 0. -1.
</event>
<event>
 5   0  0.1483942E-01  0.5905482E+03  0.7818609E-02  0.9925212E-01
        2   -1    0    0  501    0  0.00000000000E+00  0.00000000000E+00  0.41351180182E+03  0.41351180183E+03  0.25500000920E-02 0. -1.
       -2   -1    0    0    0  501  0.00000000000E+00  0.00000000000E+00 -0.21084476848E+03  0.21084476849E+03  0.25500000920E-02 0.  1.
    10030    2    1    2    0    0  0.00000000000E+00  0.00000000000E+00  0.20266703334E+03  0.62435657032E+03  0.59054822030E+03 0.  0.
        4    1    3    3  502    0 -0.13036203094E+03  0.50714788249E+02 -0.17358974977E+03  0.22293780071E+03  0.12699999809E+01 0.  1.
       -4    1    3    3    0  502  0.13036203094E+03 -0.50714788249E+02  0.37625678312E+03  0.40141876961E+03  0.12699999809E+01 0. -1.
</event>
<event>
 5   0  0.9177281E-02  0.5690922E+03  0.7818609E-02  0.9971689E-01
        1   -1    0    0  501    0  0.00000000000E+00  0.00000000000E+00  0.38782394450E+03  0.38782394453E+03  0.50400001928E-02 0.  1.
       -1   -1    0    0    0  501  0.00000000000E+00  0.00000000000E+00 -0.20877122409E+03  0.20877122415E+03  0.50400001928E-02 0. -1.
    10030    2    1    2    0    0  0.00000000000E+00  0.00000000000E+00  0.17905272041E+03  0.59659516868E+03  0.56909218814E+03 0.  0.
        1    1    3    3  502    0 -0.95720103681E+02  0.26204144725E+03  0.14825537689E+03  0.31592359064E+03  0.50400001928E-02 0.  1.
       -1    1    3    3    0  502  0.95720103681E+02 -0.26204144725E+03  0.30797343525E+02  0.28067157804E+03  0.50400001928E-02 0. -1.
</event>
<event>
 5   0  0.1532571E-01  0.5940439E+03  0.7818609E-02  0.9917841E-01
        2   -1    0    0  501    0  0.00000000000E+00  0.00000000000E+00  0.19434103110E+04  0.19434103110E+04  0.25500000920E-02 0. -1.
       -2   -1    0    0    0  501  0.00000000000E+00  0.00000000000E+00 -0.45395483644E+02  0.45395483716E+02  0.25500000920E-02 0.  1.
    10030    2    1    2    0    0  0.00000000000E+00  0.00000000000E+00  0.18980148274E+04  0.19888057947E+04  0.59404394134E+03 0.  0.
        1    1    3    3  502    0  0.95297990786E+02  0.69449054778E+02  0.18616871234E+04  0.18654178684E+04  0.50400001928E-02 0. -1.
       -1    1    3    3    0  502 -0.95297990786E+02 -0.69449054778E+02  0.36327703925E+02  0.12338792630E+03  0.50400001928E-02 0.  1.
</event>
<event>
 5   0  0.9420349E-02  0.6024458E+03  0.7818609E-02  0.9900345E-01
       -1   -1    0    0    0  501  0.00000000000E+00  0.00000000000E+00  0.17879103411E+03  0.17879103418E+03  0.50400001928E-02 0.  1.
        1   -1    0    0  501    0  0.00000000000E+00  0.00000000000E+00 -0.50749319998E+03  0.50749320000E+03  0.50400001928E-02 0. -1.
    10030    2    1    2    0    0  0.00000000000E+00  0.00000000000E+00 -0.32870216587E+03  0.68628423418E+03  0.60244579527E+03 0.  0.
        2    1    3    3  502    0 -0.18847863944E+03  0.23182154491E+03 -0.20802441469E+03  0.36405986228E+03  0.25500000920E-02 0. -1.
       -2    1    3    3    0  502  0.18847863944E+03 -0.23182154491E+03 -0.12067775118E+03  0.32222437190E+03  0.25500000920E-02 0.  1.
</event>
<event>
 5   0  0.9497860E-02  0.5586107E+03  0.7818609E-02  0.9995203E-01
        1   -1    0    0  501    0  0.00000000000E+00  0.00000000000E+00  0.82881202725E+03  0.82881202727E+03  0.50400001928E-02 0. -1.
       -1   -1    0    0    0  501  0.00000000000E+00  0.00000000000E+00 -0.94124461559E+02  0.94124461694E+02  0.50400001928E-02 0.  1.
    10030    2    1    2    0    0  0.00000000000E+00  0.00000000000E+00  0.73468756569E+03  0.92293648896E+03  0.55861072624E+03 0.  0.
        5    1    3    3  502    0 -0.56831414283E+02  0.19019621927E+03  0.69188638229E+03  0.71981474524E+03  0.46999998093E+01 0. -1.
       -5    1    3    3    0  502  0.56831414283E+02 -0.19019621927E+03  0.42801183403E+02  0.20312174372E+03  0.46999998093E+01 0.  1.
</event>
<event>
 5   0  0.1513339E-01  0.4956696E+03  0.7818609E-02  0.1014915E+00
        2   -1    0    0  501    0  0.00000000000E+00  0.00000000000E+00  0.76003778953E+03  0.76003778953E+03  0.25500000920E-02 0.  1.
       -2   -1    0    0    0  501  0.00000000000E+00  0.00000000000E+00 -0.80814511345E+02  0.80814511385E+02  0.25500000920E-02 0. -1.
    10030    2    1    2    0    0  0.00000000000E+00  0.00000000000E+00  0.67922327818E+03  0.84085230092E+03  0.49566957778E+03 0.  0.
        3    1    3    3  502    0  0.76371959816E+02  0.17664700182E+03  0.60451709699E+03  0.63441135728E+03  0.10100000352E+00 0.  1.
       -3    1    3    3    0  502 -0.76371959816E+02 -0.17664700182E+03  0.74706181195E+02  0.20644094363E+03  0.10100000352E+00 0. -1.
</event>
<event>
 5   0  0.8860626E-02  0.6094968E+03  0.7818609E-02  0.9885897E-01
       -1   -1    0    0    0  501  0.00000000000E+00  0.00000000000E+00  0.38870544632E+03  0.38870544636E+03  0.50400001928E-02 0. -1.
        1   -1    0    0  501    0  0.00000000000E+00  0.00000000000E+00 -0.23892532761E+03  0.23892532766E+03  0.50400001928E-02 0.  1.
    10030    2    1    2    0    0  0.00000000000E+00  0.00000000000E+00  0.14978011872E+03  0.62763077402E+03  0.60949676335E+03 0.  0.
        3    1    3    3  502    0  0.45980500677E+02  0.34343102452E+02  0.38309052515E+03  0.38736548089E+03  0.10100000352E+00 0. -1.
       -3    1    3    3    0  502 -0.45980500677E+02 -0.34343102452E+02 -0.23331040643E+03  0.24026529312E+03  0.10100000352E+00 0.  1.
</event>
<event>
 5   0  0.1532571E-01  0.5732690E+03  0.7818609E-02  0.9962471E-01
        2   -1    0    0  501    0  0.00000000000E+00  0.00000000000E+00  0.57199808539E+03  0.57199808540E+03  0.25500000920E-02 0. -1.
       -2   -1    0    0    0  501  0.00000000000E+00  0.00000000000E+00 -0.14363568017E+03  0.14363568019E+03  0.25500000920E-02 0.  1.
    10030    2    1    2    0    0  0.00000000000E+00  0.00000000000E+00  0.42836240522E+03  0.71563376559E+03  0.57326899118E+03 0.  0.
        1    1    3    3  502    0  0.23860682508E+03 -0.12025639020E+03  0.34369906271E+03  0.43534338411E+03  0.50400001928E-02 0. -1.
       -1    1    3    3    0  502 -0.23860682508E+03  0.12025639020E+03  0.84663342508E+02  0.28029038147E+03  0.50400001928E-02 0.  1.
</event>
<event>
 5   0  0.9411028E-02  0.4866065E+03  0.7818609E-02  0.1017335E+00
        1   -1    0    0  501    0  0.00000000000E+00  0.00000000000E+00  0.54070288437E+03  0.54070288440E+03  0.50400001928E-02 0.  1.
       -1   -1    0    0    0  501  0.00000000000E+00  0.00000000000E+00 -0.10948061238E+03  0.10948061249E+03  0.50400001928E-02 0. -1.
    10030    2    1    2    0    0  0.00000000000E+00  0.00000000000E+00  0.43122227200E+03  0.65018349689E+03  0.48660654718E+03 0.  0.
        4    1    3    3  502    0 -0.21771070573E+03  0.36903793168E+01  0.36065236023E+03  0.42128767859E+03  0.12699999809E+01 0.  1.
       -4    1    3    3    0  502  0.21771070573E+03 -0.36903793168E+01  0.70569911763E+02  0.22889581830E+03  0.12699999809E+01 0. -1.
</event>
<event>
 5   0  0.1513339E-01  0.5853257E+03  0.7818609E-02  0.9936327E-01
        2   -1    0    0  501    0  0.00000000000E+00  0.00000000000E+00  0.42356686961E+03  0.42356686961E+03  0.25500000920E-02 0.  1.
       -2   -1    0    0    0  501  0.00000000000E+00  0.00000000000E+00 -0.20221489573E+03  0.20221489575E+03  0.25500000920E-02 0. -1.
    10030    2    1    2    0    0  0.00000000000E+00  0.00000000000E+00  0.22135197387E+03  0.62578176536E+03  0.58532565425E+03 0.  0.
        3    1    3    3  502    0  0.97801176352E+02 -0.17679512282E+03 -0.11568907535E+03  0.23282087086E+03  0.10100000352E+00 0. -1.
       -3    1    3    3    0  502 -0.97801176352E+02  0.17679512282E+03  0.33704104922E+03  0.39296089451E+03  0.10100000352E+00 0.  1.
</event>
<event>
 5   0  0.9411028E-02  0.5996009E+03  0.7818609E-02  0.9906234E-01
        1   -1    0    0  501    0  0.00000000000E+00  0.00000000000E+00  0.42303605512E+03  0.42303605515E+03  0.50400001928E-02 0. -1.
       -1   -1    0    0    0  501  0.00000000000E+00  0.00000000000E+00 -0.21246490303E+03  0.21246490309E+03  0.50400001928E-02 0.  1.
    10030    2    1    2    0    0  0.00000000000E+00  0.00000000000E+00  0.21057115209E+03  0.63550095824E+03  0.59960091547E+03 0.  0.
        4    1    3    3  502    0  0.35729536461E+02  0.22667287491E+03  0.30976561242E+03  0.38550426655E+03  0.12699999809E+01 0. -1.
       -4    1    3    3    0  502 -0.35729536461E+02 -0.22667287491E+03 -0.99194460329E+02  0.24999669169E+03  0.12699999809E+01 0.  1.
</event>
<event>
 5   0  0.9497860E-02  0.6079595E+03  0.7818609E-02  0.9889029E-01
        1   -1    0    0  501    0  0.00000000000E+00  0.00000000000E+00  0.31459053664E+03  0.31459053668E+03  0.50400001928E-02 0. -1.
       -1   -1    0    0    0  501  0.00000000000E+00  0.00000000000E+00 -0.29372681325E+03  0.29372681329E+03  0.50400001928E-02 0.  1.
    10030    2    1    2    0    0  0.00000000000E+00  0.00000000000E+00  0.20863723395E+02  0.60831734998E+03  0.60795945862E+03 0.  0.
        5    1    3    3  502    0 -0.11603243413E+03 -0.11775996485E+03 -0.24476857099E+03  0.29540595531E+03  0.46999998093E+01 0.  1.
       -5    1    3    3    0  502  0.11603243413E+03  0.11775996485E+03  0.26563229439E+03  0.31291139466E+03  0.46999998093E+01 0. -1.
</event>
<event>
 5   0  0.9420349E-02  0.5813254E+03  0.7818609E-02  0.9944926E-01
       -1   -1    0    0    0  501  0.00000000000E+00  0.00000000000E+00  0.18932797716E+03  0.18932797723E+03  0.50400001928E-02 0. -1.
        1   -1    0    0  501    0  0.00000000000E+00  0.00000000000E+00 -0.44623525336E+03  0.44623525338E+03  0.50400001928E-02 0.  1.
    10030    2    1    2    0    0  0.00000000000E+00  0.00000000000E+00 -0.25690727619E+03  0.63556323062E+03  0.58132544375E+03 0.  0.
        2    1    3    3  502    0  0.13912917978E+03  0.22984936192E+03 -0.24969249829E+03  0.36678876965E+03  0.25500000920E-02 0.  1.
       -2    1    3    3    0  502 -0.13912917978E+03 -0.22984936192E+03 -0.72147779062E+01  0.26877446096E+03  0.25500000920E-02 0. -1.
</event>
<event>
 5   0  0.8860626E-02  0.5954947E+03  0.7818609E-02  0.9914798E-01
        1   -1    0    0  501    0  0.00000000000E+00  0.00000000000E+00  0.53421209660E+03  0.53421209662E+03  0.50400001928E-02 0.  1.
       -1   -1    0    0    0  501  0.00000000000E+00  0.00000000000E+00 -0.16595182906E+03  0.16595182913E+03  0.50400001928E-02 0. -1.
    10030    2    1    2    0    0  0.00000000000E+00  0.00000000000E+00  0.36826026754E+03  0.70016392576E+03  0.59549466688E+03 0.  0.
        3    1    3    3  502    0  0.17560933994E+03 -0.14786269251E+03  0.40706605425E+03  0.46733799208E+03  0.10100000352E+00 0.  1.
       -3    1    3    3    0  502 -0.17560933994E+03  0.14786269251E+03 -0.38805786712E+02  0.23282593368E+03  0.10100000352E+00 0. -1.
</event>
<event>
 5   0  0.1502642E-01  0.6706712E+03  0.7818609E-02  0.9768746E-01
       -2   -1    0    0    0  501  0.00000000000E+00  0.00000000000E+00  0.23883466829E+03  0.23883466830E+03  0.25500000920E-02 0.  1.
        2   -1    0    0  501    0  0.00000000000E+00  0.00000000000E+00 -0.47082768387E+03  0.47082768388E+03  0.25500000920E-02 0. -1.
    10030    2    1    2    0    0  0.00000000000E+00  0.00000000000E+00 -0.23199301559E+03  0.70966235218E+03  0.67067122707E+03 0.  0.
        2    1    3    3  502    0  0.13782382538E+03  0.30251408776E+03 -0.16260014884E+03  0.37006619482E+03  0.25500000920E-02 0.  1.
       -2    1    3    3    0  502 -0.13782382538E+03 -0.30251408776E+03 -0.69392866744E+02  0.33959615737E+03  0.25500000920E-02 0. -1.
</event>
<event>
 5   0  0.1483942E-01  0.5845716E+03  0.7818609E-02  0.9937942E-01
       -2   -1    0    0    0  501  0.00000000000E+00  0.00000000000E+00  0.41797700796E+03  0.41797700797E+03  0.25500000920E-02 0.  1.
        2   -1    0    0  501    0  0.00000000000E+00  0.00000000000E+00 -0.20439158273E+03  0.20439158274E+03  0.25500000920E-02 0. -1.
    10030    2    1    2    0    0  0.00000000000E+00  0.00000000000E+00  0.21358542524E+03  0.62236859071E+03  0.58457157717E+03 0.  0.
        4    1    3    3  502    0  0.17066552255E+03  0.23725633571E+03  0.10309237470E+03  0.30991440761E+03  0.12699999809E+01 0.  1.
       -4    1    3    3    0  502 -0.17066552255E+03 -0.23725633571E+03  0.11049305053E+03  0.31245418310E+03  0.12699999809E+01 0. -1.
</event>
<event>
 5   0  0.1513339E-01  0.5980765E+03  0.7818609E-02  0.9909405E-01
       -2   -1    0    0    0  501  0.00000000000E+00  0.00000000000E+00  0.15548523373E+03  0.15548523375E+03  0.25500000920E-02 0. -1.
        2   -1    0    0  501    0  0.00000000000E+00  0.00000000000E+00 -0.57512784740E+03  0.57512784740E+03  0.25500000920E-02 0.  1.
    10030    2    1    2    0    0  0.00000000000E+00  0.00000000000E+00 -0.41964261366E+03  0.73061308116E+03  0.59807654289E+03 0.  0.
        3    1    3    3  502    0  0.42025237763E+02 -0.22612224113E+03 -0.44329321839E+03  0.49940592329E+03  0.10100000352E+00 0.  1.
       -3    1    3    3    0  502 -0.42025237763E+02  0.22612224113E+03  0.23650604729E+02  0.23120715787E+03  0.10100000352E+00 0. -1.
</event>
<event>
 5   0  0.1488510E-01  0.5936176E+03  0.7818609E-02  0.9918737E-01
        2   -1    0    0  501    0  0.00000000000E+00  0.00000000000E+00  0.32699776006E+03  0.32699776007E+03  0.25500000920E-02 0.  1.
       -2   -1    0    0    0  501  0.00000000000E+00  0.00000000000E+00 -0.26940691093E+03  0.26940691094E+03  0.25500000920E-02 0. -1.
    10030    2    1    2    0    0  0.00000000000E+00  0.00000000000E+00  0.57590849133E+02  0.59640467102E+03  0.59361757530E+03 0.  0.
        5    1    3    3  502    0  0.18328325801E+03 -0.25877033511E+02 -0.20426567349E+03  0.27569716882E+03  0.46999998093E+01 0. -1.
       -5    1    3    3    0  502 -0.18328325801E+03  0.25877033511E+02  0.26185652262E+03  0.32070750220E+03  0.46999998093E+01 0.  1.
</event>
<event>
 5   0  0.9420349E-02  0.6055171E+03  0.7818609E-02  0.9894026E-01
        1   -1    0    0  501    0  0.00000000000E+00  0.00000000000E+00  0.30493092602E+03  0.30493092606E+03  0.50400001928E-02 0. -1.
       -1   -1    0    0    0  501  0.00000000000E+00  0.00000000000E+00 -0.30060162262E+03  0.30060162266E+03  0.50400001928E-02 0.  1.
    10030    2    1    2    0    0  0.00000000000E+00  0.00000000000E+00  0.43293033996E+01  0.60553254872E+03  0.60551707217E+03 0.  0.
        2    1    3    3  502    0 -0.19872245700E+03 -0.10688242936E+03  0.20403180000E+03  0.30420953969E+03  0.25500000920E-02 0. -1.
       -2    1    3    3    0  502  0.19872245700E+03  0.10688242936E+03 -0.19970249660E+03  0.30132300904E+03  0.25500000920E-02 0.  1.
</event>
<event>
 5   0  0.9411028E-02  0.6030264E+03  0.7818609E-02  0.9899147E-01
        1   -1    0    0  501    0  0.00000000000E+00  0.00000000000E+00  0.55326869382E+03  0.55326869385E+03  0.50400001928E-02 0. -1.
       -1   -1    0    0    0  501  0.00000000000E+00  0.00000000000E+00 -0.16431477818E+03  0.16431477825E+03  0.50400001928E-02 0.  1.
    10030    2    1    2    0    0  0.00000000000E+00  0.00000000000E+00  0.38895391565E+03  0.71758347210E+03  0.60302644298E+03 0.  0.
        4    1    3    3  502    0  0.18338724376E+03 -0.15370528183E+03 -0.23818243314E+02  0.24046853527E+03  0.12699999809E+01 0. -1.
       -4    1    3    3    0  502 -0.18338724376E+03  0.15370528183E+03  0.41277215896E+03  0.47711493683E+03  0.12699999809E+01 0.  1.
</event>
<event>
 5   0  0.1513339E-01  0.6024590E+03  0.7818609E-02  0.9900318E-01
       -2   -1    0    0    0  501  0.00000000000E+00  0.00000000000E+00  0.48604720733E+03  0.48604720734E+03  0.25500000920E-02 0. -1.
        2   -1    0    0  501    0  0.00000000000E+00  0.00000000000E+00 -0.18668806302E+03  0.18668806304E+03  0.25500000920E-02 0.  1.
    10030    2    1    2    0    0  0.00000000000E+00  0.00000000000E+00  0.29935914432E+03  0.67273527038E+03  0.60245900004E+03 0.  0.
        3    1    3    3  502    0  0.17265212789E+03 -0.95625236741E+02  0.40379086610E+03  0.44944411990E+03  0.10100000352E+00 0. -1.
       -3    1    3    3    0  502 -0.17265212789E+03  0.95625236741E+02 -0.10443172178E+03  0.22329115048E+03  0.10100000352E+00 0.  1.
</event>
<event>
 5   0  0.1532571E-01  0.5960864E+03  0.7818609E-02  0.9913559E-01
        2   -1    0    0  501    0  0.00000000000E+00  0.00000000000E+00  0.12328641611E+04  0.12328641611E+04  0.25500000920E-02 0.  1.
       -2   -1    0    0    0  501  0.00000000000E+00  0.00000000000E+00 -0.72051537804E+02  0.72051537849E+02  0.25500000920E-02 0. -1.
    10030    2    1    2    0    0  0.00000000000E+00  0.00000000000E+00  0.11608126233E+04  0.13049156989E+04  0.59608643246E+03 0.  0.
        1    1    3    3  502    0 -0.25192848896E+03 -0.80344139864E+02  0.88141574207E+03  0.92022652361E+03  0.50400001928E-02 0.  1.
       -1    1    3    3    0  502  0.25192848896E+03  0.80344139864E+02  0.27939688120E+03  0.38468917532E+03  0.50400001928E-02 0. -1.
</event>
<event>
 5   0  0.9497860E-02  0.6039751E+03  0.7818609E-02  0.9897193E-01
       -1   -1    0    0    0  501  0.00000000000E+00  0.00000000000E+00  0.11316701102E+03  0.11316701113E+03  0.50400001928E-02 0. -1.
        1   -1    0    0  501    0  0.00000000000E+00  0.00000000000E+00 -0.80585734173E+03  0.80585734175E+03  0.50400001928E-02 0.  1.
    10030    2    1    2    0    0  0.00000000000E+00  0.00000000000E+00 -0.69269033071E+03  0.91902435288E+03  0.60397505489E+03 0.  0.
        5    1    3    3  502    0  0.22856921911E+03  0.19257132067E+03 -0.28095460743E+03  0.41022577064E+03  0.46999998093E+01 0.  1.
       -5    1    3    3    0  502 -0.22856921911E+03 -0.19257132067E+03 -0.41173572328E+03  0.50879858224E+03  0.46999998093E+01 0. -1.
</event>
<event>
 5   0  0.1513339E-01  0.5954963E+03  0.7818609E-02  0.9914794E-01
       -2   -1    0    0    0  501  0.00000000000E+00  0.00000000000E+00  0.57798330178E+03  0.57798330179E+03  0.25500000920E-02 0. -1.
        2   -1    0    0  501    0  0.00000000000E+00  0.00000000000E+00 -0.15338499501E+03  0.15338499503E+03  0.25500000920E-02 0.  1.
    10030    2    1    2    0    0  0.00000000000E+00  0.00000000000E+00  0.42459830678E+03  0.73136829682E+03  0.59549631693E+03 0.  0.
        3    1    3    3  502    0 -0.53857942272E+02  0.29130263865E+03  0.17553510918E+03  0.34434065979E+03  0.10100000352E+00 0.  1.
       -3    1    3    3    0  502  0.53857942272E+02 -0.29130263865E+03  0.24906319760E+03  0.38702763703E+03  0.10100000352E+00 0. -1.
</event>
<event>
 5   0  0.8860626E-02  0.6111724E+03  0.7818609E-02  0.9882494E-01
       -1   -1    0    0    0  501  0.00000000000E+00  0.00000000000E+00  0.99865413154E+02  0.99865413281E+02  0.50400001928E-02 0. -1.
        1   -1    0    0  501    0  0.00000000000E+00  0.00000000000E+00 -0.93508768976E+03  0.93508768977E+03  0.50400001928E-02 0.  1.
    10030    2    1    2    0    0  0.00000000000E+00  0.00000000000E+00 -0.83522227661E+03  0.10349531031E+04  0.61117237682E+03 0.  0.
        3    1    3    3  502    0 -0.14199055700E+03 -0.15183779715E+03 -0.38326309605E+02  0.21138815277E+03  0.10100000352E+00 0. -1.
       -3    1    3    3    0  502  0.14199055700E+03  0.15183779715E+03 -0.79689596700E+03  0.82356495029E+03  0.10100000352E+00 0.  1.
</event>
<event>
 5   0  0.9497860E-02  0.6151917E+03  0.7818609E-02  0.9874380E-01
       -1   -1    0    0    0  501  0.00000000000E+00  0.00000000000E+00  0.21490206587E+03  0.21490206593E+03  0.50400001928E-02 0.  1.
        1   -1    0    0  501    0  0.00000000000E+00  0.00000000000E+00 -0.44027128964E+03  0.44027128967E+03  0.50400001928E-02 0. -1.
    10030    2    1    2    0    0  0.00000000000E+00  0.00000000000E+00 -0.22536922377E+03  0.65517335559E+03  0.61519170903E+03 0.  0.
        5    1    3    3  502    0  0.24363731733E+03 -0.79178924160E+01  0.87043808413E+02  0.25888327485E+03  0.46999998093E+01 0.  1.
       -5    1    3    3    0  502 -0.24363731733E+03  0.79178924160E+01 -0.31241303218E+03  0.39629008074E+03  0.46999998093E+01 0. -1.
</event>
<event>
 5   0  0.1502642E-01  0.5995920E+03  0.7818609E-02  0.9906253E-01
        2   -1    0    0  501    0  0.00000000000E+00  0.00000000000E+00  0.66944334589E+03  0.66944334590E+03  0.25500000920E-02 0. -1.
       -2   -1    0    0    0  501  0.00000000000E+00  0.00000000000E+00 -0.13425727473E+03  0.13425727475E+03  0.25500000920E-02 0.  1.
    10030    2    1    2    0    0  0.00000000000E+00  0.00000000000E+00  0.53518607117E+03  0.80370062065E+03  0.59959199200E+03 0.  0.
        2    1    3    3  502    0  0.30830740260E+00  0.82137683830E+02 -0.11888056980E+03  0.14449665754E+03  0.25500000920E-02 0.  1.
       -2    1    3    3    0  502 -0.30830740260E+00 -0.82137683830E+02  0.65406664096E+03  0.65920396311E+03  0.25500000920E-02 0. -1.
</event>
<event>
 5   0  0.9177281E-02  0.6000857E+03  0.7818609E-02  0.9905228E-01
       -1   -1    0    0    0  501  0.00000000000E+00  0.00000000000E+00  0.48606366452E+03  0.48606366455E+03  0.50400001928E-02 0. -1.
        1   -1    0    0  501    0  0.00000000000E+00  0.00000000000E+00 -0.18521385167E+03  0.18521385174E+03  0.50400001928E-02 0.  1.
    10030    2    1    2    0    0  0.00000000000E+00  0.00000000000E+00  0.30084981285E+03  0.67127751629E+03  0.60008573886E+03 0.  0.
        1    1    3    3  502    0  0.55805482034E+02  0.16721883854E+03  0.42202395127E+03  0.45736266492E+03  0.50400001928E-02 0. -1.
       -1    1    3    3    0  502 -0.55805482034E+02 -0.16721883854E+03 -0.12117413842E+03  0.21391485137E+03  0.50400001928E-02 0.  1.
</event>
<event>
 5   0  0.1513339E-01  0.5954877E+03  0.7818609E-02  0.9914812E-01
        2   -1    0    0  501    0  0.00000000000E+00  0.00000000000E+00  0.46005044545E+03  0.46005044546E+03  0.25500000920E-02 0.  1.
       -2   -1    0    0    0  501  0.00000000000E+00  0.00000000000E+00 -0.19269928998E+03  0.19269928999E+03  0.25500000920E-02 0. -1.
    10030    2    1    2    0    0  0.00000000000E+00  0.00000000000E+00  0.26735115547E+03  0.65274973545E+03  0.59548767980E+03 0.  0.
        3    1    3    3  502    0  0.12864637299E+03 -0.97371821109E+02  0.40797900211E+03  0.43872318971E+03  0.10100000352E+00 0.  1.
       -3    1    3    3    0  502 -0.12864637299E+03  0.97371821109E+02 -0.14062784663E+03  0.21402654574E+03  0.10100000352E+00 0. -1.
</event>
<event>
 5   0  0.1502642E-01  0.6226670E+03  0.7818609E-02  0.9859464E-01
        2   -1    0    0  501    0  0.00000000000E+00  0.00000000000E+00  0.43241406046E+03  0.43241406047E+03  0.25500000920E-02 0.  1.
       -2   -1    0    0    0  501  0.00000000000E+00  0.00000000000E+00 -0.22415681029E+03  0.22415681030E+03  0.25500000920E-02 0. -1.
    10030    2    1    2    0    0  0.00000000000E+00  0.00000000000E+00  0.20825725017E+03  0.65657087077E+03  0.62266702666E+03 0.  0.
        2    1    3    3  502    0  0.20308790071E+02 -0.28425756570E+03  0.23630858198E+03  0.37021150243E+03  0.25500000920E-02 0.  1.
       -2    1    3    3    0  502 -0.20308790071E+02  0.28425756570E+03 -0.28051331810E+02  0.28635936833E+03  0.25500000920E-02 0. -1.
</event>
<event>
 5   0  0.9177281E-02  0.6047144E+03  0.7818609E-02  0.9895673E-01
        1   -1    0    0  501    0  0.00000000000E+00  0.00000000000E+00  0.12523827118E+04  0.12523827118E+04  0.50400001928E-02 0. -1.
       -1   -1    0    0    0  501  0.00000000000E+00  0.00000000000E+00 -0.72996753519E+02  0.72996753693E+02  0.50400001928E-02 0.  1.
    10030    2    1    2    0    0  0.00000000000E+00  0.00000000000E+00  0.11793859583E+04  0.13253794655E+04  0.60471438630E+03 0.  0.
        1    1    3    3  502    0 -0.59679972550E+02 -0.25726252313E+03  0.91236488004E+03  0.94981860336E+03  0.50400001928E-02 0. -1.
       -1    1    3    3    0  502  0.59679972550E+02  0.25726252313E+03  0.26702107828E+03  0.37556086218E+03  0.50400001928E-02 0.  1.
</event>
<event>
 5   0  0.1488510E-01  0.3441549E+03  0.7818609E-02  0.1065040E+00
       -2   -1    0    0    0  501  0.00000000000E+00  0.00000000000E+00  0.35907510299E+02  0.35907510389E+02  0.25500000920E-02 0. -1.
        2   -1    0    0  501    0  0.00000000000E+00  0.00000000000E+00 -0.82463679136E+03  0.82463679137E+03  0.25500000920E-02 0.  1.
    10030    2    1    2    0    0  0.00000000000E+00  0.00000000000E+00 -0.78872928107E+03  0.86054430176E+03  0.34415493092E+03 0.  0.
        5    1    3    3  502    0  0.96787876413E+02  0.10128391579E+03 -0.64393771326E+03  0.65901759702E+03  0.46999998093E+01 0.  1.
       -5    1    3    3    0  502 -0.96787876413E+02 -0.10128391579E+03 -0.14479156780E+03  0.20152670474E+03  0.46999998093E+01 0. -1.
</event>
<event>
 5   0  0.1502642E-01  0.5986964E+03  0.7818609E-02  0.9908114E-01
       -2   -1    0    0    0  501  0.00000000000E+00  0.00000000000E+00  0.18990552170E+03  0.18990552171E+03  0.25500000920E-02 0. -1.
        2   -1    0    0  501    0  0.00000000000E+00  0.00000000000E+00 -0.47186271015E+03  0.47186271015E+03  0.25500000920E-02 0.  1.
    10030    2    1    2    0    0  0.00000000000E+00  0.00000000000E+00 -0.28195718845E+03  0.66176823187E+03  0.59869636427E+03 0.  0.
        2    1    3    3  502    0 -0.23850454370E+03  0.17195706777E+03 -0.20307207733E+03  0.35734006089E+03  0.25500000920E-02 0. -1.
       -2    1    3    3    0  502  0.23850454370E+03 -0.17195706777E+03 -0.78885111114E+02  0.30442817097E+03  0.25500000920E-02 0.  1.
</event>
<event>
 5   0  0.1488510E-01  0.5974106E+03  0.7818609E-02  0.9910793E-01
        2   -1    0    0  501    0  0.00000000000E+00  0.00000000000E+00  0.69229385514E+03  0.69229385515E+03  0.25500000920E-02 0.  1.
       -2   -1    0    0    0  501  0.00000000000E+00  0.00000000000E+00 -0.12888294341E+03  0.12888294343E+03  0.25500000920E-02 0. -1.
    10030    2    1    2    0    0  0.00000000000E+00  0.00000000000E+00  0.56341091174E+03  0.82117679858E+03  0.59741064525E+03 0.  0.
        5    1    3    3  502    0 -0.18431822265E+03 -0.48882110883E+02  0.59767525732E+03  0.62737586117E+03  0.46999998093E+01 0.  1.
       -5    1    3    3    0  502  0.18431822265E+03  0.48882110883E+02 -0.34264345582E+02  0.19380093741E+03  0.46999998093E+01 0. -1.
</event>
<event>
 5   0  0.9411028E-02  0.6009599E+03  0.7818609E-02  0.9903417E-01
        1   -1    0    0  501    0  0.00000000000E+00  0.00000000000E+00  0.10785727744E+04  0.10785727744E+04  0.50400001928E-02 0.  1.
       -1   -1    0    0    0  501  0.00000000000E+00  0.00000000000E+00 -0.83710797595E+02  0.83710797747E+02  0.50400001928E-02 0. -1.
    10030    2    1    2    0    0  0.00000000000E+00  0.00000000000E+00  0.99486197680E+03  0.11622835722E+04  0.60095985658E+03 0.  0.
        4    1    3    3  502    0  0.29747645569E+03  0.30937484954E+02  0.44147037372E+03  0.53324204020E+03  0.12699999809E+01 0. -1.
       -4    1    3    3    0  502 -0.29747645569E+03 -0.30937484954E+02  0.55339160309E+03  0.62904153196E+03  0.12699999809E+01 0.  1.
</event>
<event>
 5   0  0.1483942E-01  0.5426372E+03  0.7818609E-02  0.1003213E+00
        2   -1    0    0  501    0  0.00000000000E+00  0.00000000000E+00  0.65011841923E+03  0.65011841924E+03  0.25500000920E-02 0. -1.
       -2   -1    0    0    0  501  0.00000000000E+00  0.00000000000E+00 -0.11323132491E+03  0.11323132494E+03  0.25500000920E-02 0.  1.
    10030    2    1    2    0    0  0.00000000000E+00  0.00000000000E+00  0.53688709432E+03  0.76334974418E+03  0.54263715307E+03 0.  0.
        4    1    3    3  502    0  0.16574871780E+02  0.31590256165E+02 -0.10991343202E+03  0.11556489994E+03  0.12699999809E+01 0.  1.
       -4    1    3    3    0  502 -0.16574871780E+02 -0.31590256165E+02  0.64680052634E+03  0.64778484424E+03  0.12699999809E+01 0. -1.
</event>
<event>
 5   0  0.1513339E-01  0.6090872E+03  0.7818609E-02  0.9886730E-01
        2   -1    0    0  501    0  0.00000000000E+00  0.00000000000E+00  0.41413871739E+03  0.41413871739E+03  0.25500000920E-02 0. -1.
       -2   -1    0    0    0  501  0.00000000000E+00  0.00000000000E+00 -0.22395108395E+03  0.22395108396E+03  0.25500000920E-02 0.  1.
    10030    2    1    2    0    0  0.00000000000E+00  0.00000000000E+00  0.19018763344E+03  0.63808980136E+03  0.60908723405E+03 0.  0.
        3    1    3    3  502    0 -0.25245398534E+03  0.32642407733E+02 -0.80043913372E+02  0.26684373661E+03  0.10100000352E+00 0.  1.
       -3    1    3    3    0  502  0.25245398534E+03 -0.32642407733E+02  0.27023154681E+03  0.37124606475E+03  0.10100000352E+00 0. -1.
</event>
<event>
 5   0  0.1488510E-01  0.5942357E+03  0.7818609E-02  0.9917438E-01
       -2   -1    0    0    0  501  0.00000000000E+00  0.00000000000E+00  0.61455445988E+02  0.61455446041E+02  0.25500000920E-02 0. -1.
        2   -1    0    0  501    0  0.00000000000E+00  0.00000000000E+00 -0.14364720661E+04  0.14364720661E+04  0.25500000920E-02 0.  1.
    10030    2    1    2    0    0  0.00000000000E+00  0.00000000000E+00 -0.13750166201E+04  0.14979275121E+04  0.59423574955E+03 0.  0.
        5    1    3    3  502    0 -0.19825344031E+03  0.18645879749E+03 -0.38727673631E+03  0.47336737345E+03  0.46999998093E+01 0. -1.
       -5    1    3    3    0  502  0.19825344031E+03 -0.18645879749E+03 -0.98773988377E+03  0.10245601387E+04  0.46999998093E+01 0.  1.
</event>
<event>
 5   0  0.1513339E-01  0.5805838E+03  0.7818609E-02  0.9946528E-01
        2   -1    0    0  501    0  0.00000000000E+00  0.00000000000E+00  0.53953737572E+03  0.53953737572E+03  0.25500000920E-02 0.  1.
       -2   -1    0    0    0  501  0.00000000000E+00  0.00000000000E+00 -0.15618825379E+03  0.15618825381E+03  0.25500000920E-02 0. -1.
    10030    2    1    2    0    0  0.00000000000E+00  0.00000000000E+00  0.38334912193E+03  0.69572562953E+03  0.58058384606E+03 0.  0.
        3    1    3    3  502    0 -0.22399560721E+03 -0.10778006303E+03  0.12011094875E+02  0.24886713451E+03  0.10100000352E+00 0. -1.
       -3    1    3    3    0  502  0.22399560721E+03  0.10778006303E+03  0.37133802705E+03  0.44685849502E+03  0.10100000352E+00 0.  1.
</event>
<event>
 5   0  0.9177281E-02  0.6112279E+03  0.7818609E-02  0.9882382E-01
        1   -1    0    0  501    0  0.00000000000E+00  0.00000000000E+00  0.25817485489E+03  0.25817485494E+03  0.50400001928E-02 0. -1.
       -1   -1    0    0    0  501  0.00000000000E+00  0.00000000000E+00 -0.36176988700E+03  0.36176988704E+03  0.50400001928E-02 0.  1.
    10030    2    1    2    0    0  0.00000000000E+00  0.00000000000E+00 -0.10359503211E+03  0.61994474198E+03  0.61122790547E+03 0.  0.
        1    1    3    3  502    0 -0.70837936775E+02 -0.26732963800E+03 -0.18371675506E+03  0.33201655796E+03  0.50400001928E-02 0.  1.
       -1    1    3    3    0  502  0.70837936775E+02  0.26732963800E+03  0.80121722957E+02  0.28792818402E+03  0.50400001928E-02 0. -1.
</event>
<event>
 5   0  0.8860626E-02  0.5643449E+03  0.7818609E-02  0.9982271E-01
        1   -1    0    0  501    0  0.00000000000E+00  0.00000000000E+00  0.74136638725E+03  0.74136638727E+03  0.50400001928E-02 0.  1.
       -1   -1    0    0    0  501  0.00000000000E+00  0.00000000000E+00 -0.10739804220E+03  0.10739804232E+03  0.50400001928E-02 0. -1.
    10030    2    1    2    0    0  0.00000000000E+00  0.00000000000E+00  0.63396834505E+03  0.84876442959E+03  0.56434492504E+03 0.  0.
        3    1    3    3  502    0 -0.85940579130E+02 -0.25391027219E+03  0.44951456503E+03  0.52337325480E+03  0.10100000352E+00 0.  1.
       -3    1    3    3    0  502  0.85940579130E+02  0.25391027219E+03  0.18445378002E+03  0.32539117479E+03  0.10100000352E+00 0. -1.
</event>
<event>
 5   0  0.1483942E-01  0.5878609E+03  0.7818609E-02  0.9930916E-01
        2   -1    0    0  501    0  0.00000000000E+00  0.00000000000E+00  0.80636911167E+03  0.80636911167E+03  0.25500000920E-02 0.  1.
       -2   -1    0    0    0  501  0.00000000000E+00  0.00000000000E+00 -0.10714088746E+03  0.10714088749E+03  0.25500000920E-02 0. -1.
    10030    2    1    2    0    0  0.00000000000E+00  0.00000000000E+00  0.69922822421E+03  0.91350999916E+03  0.58786087558E+03 0.  0.
        4    1    3    3  502    0 -0.24661806452E+03 -0.15490530776E+03  0.28789710157E+03  0.40951493027E+03  0.12699999809E+01 0.  1.
       -4    1    3    3    0  502  0.24661806452E+03  0.15490530776E+03  0.41133112264E+03  0.50399506889E+03  0.12699999809E+01 0. -1.
</event>
<event>
 5   0  0.9497860E-02  0.6004163E+03  0.7818609E-02  0.9904543E-01
       -1   -1    0    0    0  501  0.00000000000E+00  0.00000000000E+00  0.17227566970E+03  0.17227566977E+03  0.50400001928E-02 0. -1.
        1   -1    0    0  501    0  0.00000000000E+00  0.00000000000E+00 -0.52314372333E+03  0.52314372335E+03  0.50400001928E-02 0.  1.
    10030    2    1    2    0    0  0.00000000000E+00  0.00000000000E+00 -0.35086805363E+03  0.69541939313E+03  0.60041630664E+03 0.  0.
        5    1    3    3  502    0  0.19414837637E+03  0.92703714027E+02  0.67007543503E+02  0.22538782470E+03  0.46999998093E+01 0. -1.
       -5    1    3    3    0  502 -0.19414837637E+03 -0.92703714027E+02 -0.41787559713E+03  0.47003156842E+03  0.46999998093E+01 0.  1.
</event>
<event>
 5   0  0.9497860E-02  0.5852801E+03  0.7818609E-02  0.9936425E-01
        1   -1    0    0  501    0  0.00000000000E+00  0.00000000000E+00  0.81942627517E+03  0.81942627519E+03  0.50400001928E-02 0.  1.
       -1   -1    0    0    0  501  0.00000000000E+00  0.00000000000E+00 -0.10450995680E+03  0.10450995693E+03  0.50400001928E-02 0. -1.
    10030    2    1    2    0    0  0.00000000000E+00  0.00000000000E+00  0.71491631837E+03  0.92393623211E+03  0.58528011989E+03 0.  0.
        5    1    3    3  502    0  0.37604785423E+02  0.15927167816E+03 -0.25449770160E+02  0.16568454409E+03  0.46999998093E+01 0. -1.
       -5    1    3    3    0  502 -0.37604785423E+02 -0.15927167816E+03  0.74036608853E+03  0.75825168802E+03  0.46999998093E+01 0.  1.
</event>
<event>
 5   0  0.8860626E-02  0.5985138E+03  0.7818609E-02  0.9908494E-01
       -1   -1    0    0    0  501  0.00000000000E+00  0.00000000000E+00  0.17261954440E+03  0.17261954447E+03  0.50400001928E-02 0. -1.
        1   -1    0    0  501    0  0.00000000000E+00  0.00000000000E+00 -0.51879808559E+03  0.51879808561E+03  0.50400001928E-02 0.  1.
    10030    2    1    2    0    0  0.00000000000E+00  0.00000000000E+00 -0.34617854119E+03  0.69141763008E+03  0.59851378999E+03 0.  0.
        3    1    3    3  502    0  0.27153548155E+03 -0.10520760722E+03 -0.93433057375E+02  0.30582659265E+03  0.10100000352E+00 0. -1.
       -3    1    3    3    0  502 -0.27153548155E+03  0.10520760722E+03 -0.25274548382E+03  0.38559103744E+03  0.10100000352E+00 0.  1.
</event>
<event>
 5   0  0.6170500E-02  0.6179600E+03  0.7818609E-02  0.9868830E-01
       -3   -1    0    0    0  501  0.00000000000E+00  0.00000000000E+00  0.79713795806E+02  0.79713859791E+02  0.10100000352E+00 0. -1.
        3   -1    0    0  501    0  0.00000000000E+00  0.00000000000E+00 -0.11976419632E+04  0.11976419674E+04  0.10100000352E+00 0.  1.
    10030    2    1    2    0    0  0.00000000000E+00  0.00000000000E+00 -0.11179281673E+04  0.12773558272E+04  0.61795996791E+03 0.  0.
        5    1    3    3  502    0  0.24569199380E+03  0.62121656265E+02 -0.19371590177E+03  0.31901660864E+03  0.46999998093E+01 0. -1.
       -5    1    3    3    0  502 -0.24569199380E+03 -0.62121656265E+02 -0.92421226558E+03  0.95833921856E+03  0.46999998093E+01 0.  1.
</event>
<event>
 5   0  0.9497860E-02  0.4112658E+03  0.7818609E-02  0.1039947E+00
       -1   -1    0    0    0  501  0.00000000000E+00  0.00000000000E+00  0.15287849428E+03  0.15287849436E+03  0.50400001928E-02 0. -1.
        1   -1    0    0  501    0  0.00000000000E+00  0.00000000000E+00 -0.27659146895E+03  0.27659146899E+03  0.50400001928E-02 0.  1.
    10030    2    1    2    0    0  0.00000000000E+00  0.00000000000E+00 -0.12371297467E+03  0.42946996335E+03  0.41126578915E+03 0.  0.
        5    1    3    3  502    0  0.17126686657E+03  0.10164827299E+03 -0.86288730780E+01  0.19940225283E+03  0.46999998093E+01 0.  1.
       -5    1    3    3    0  502 -0.17126686657E+03 -0.10164827299E+03 -0.11508410159E+03  0.23006771052E+03  0.46999998093E+01 0. -1.
</event>
<event>
 5   0  0.9177281E-02  0.5561120E+03  0.7818609E-02  0.1000089E+00
        1   -1    0    0  501    0  0.00000000000E+00  0.00000000000E+00  0.10644158503E+04  0.10644158504E+04  0.50400001928E-02 0.  1.
       -1   -1    0    0    0  501  0.00000000000E+00  0.00000000000E+00 -0.72636228371E+02  0.72636228546E+02  0.50400001928E-02 0. -1.
    10030    2    1    2    0    0  0.00000000000E+00  0.00000000000E+00  0.99177962198E+03  0.11370520789E+04  0.55611204948E+03 0.  0.
        1    1    3    3  502    0  0.90576451790E+02 -0.26245529631E+03  0.52678201060E+03  0.59547137874E+03  0.50400001928E-02 0.  1.
       -1    1    3    3    0  502 -0.90576451790E+02  0.26245529631E+03  0.46499761138E+03  0.54158070017E+03  0.50400001928E-02 0. -1.
</event>
<event>
 5   0  0.1532571E-01  0.5968907E+03  0.7818609E-02  0.9911878E-01
        2   -1    0    0  501    0  0.00000000000E+00  0.00000000000E+00  0.25186709453E+04  0.25186709453E+04  0.25500000920E-02 0.  1.
       -2   -1    0    0    0  501  0.00000000000E+00  0.00000000000E+00 -0.35363742229E+02  0.35363742321E+02  0.25500000920E-02 0. -1.
    10030    2    1    2    0    0  0.00000000000E+00  0.00000000000E+00  0.24833072031E+04  0.25540346877E+04  0.59689071090E+03 0.  0.
        1    1    3    3  502    0 -0.19098372040E+03 -0.21290435691E+03  0.87690208539E+03  0.92236669174E+03  0.50400001928E-02 0. -1.
       -1    1    3    3    0  502  0.19098372040E+03  0.21290435691E+03  0.16064051177E+04  0.16316679959E+04  0.50400001928E-02 0.  1.
</event>
<event>
 5   0  0.9420349E-02  0.4038087E+03  0.7818609E-02  0.1042469E+00
       -1   -1    0    0    0  501  0.00000000000E+00  0.00000000000E+00  0.14239939283E+03  0.14239939292E+03  0.50400001928E-02 0.  1.
        1   -1    0    0  501    0  0.00000000000E+00  0.00000000000E+00 -0.28627479806E+03  0.28627479810E+03  0.50400001928E-02 0. -1.
    10030    2    1    2    0    0  0.00000000000E+00  0.00000000000E+00 -0.14387540523E+03  0.42867419102E+03  0.40380865495E+03 0.  0.
        2    1    3    3  502    0 -0.11154938995E+03 -0.14273497066E+03 -0.16658386804E+03  0.24610307464E+03  0.25500000920E-02 0.  1.
       -2    1    3    3    0  502  0.11154938995E+03  0.14273497066E+03  0.22708462812E+02  0.18257111638E+03  0.25500000920E-02 0. -1.
</event>
<event>
 5   0  0.8860626E-02  0.5479137E+03  0.7818609E-02  0.1001978E+00
        1   -1    0    0  501    0  0.00000000000E+00  0.00000000000E+00  0.11431146409E+04  0.11431146409E+04  0.50400001928E-02 0.  1.
       -1   -1    0    0    0  501  0.00000000000E+00  0.00000000000E+00 -0.65656014077E+02  0.65656014270E+02  0.50400001928E-02 0. -1.
    10030    2    1    2    0    0  0.00000000000E+00  0.00000000000E+00  0.10774586268E+04  0.12087706551E+04  0.54791368326E+03 0.  0.
        3    1    3    3  502    0  0.16961974970E+03  0.76300990363E+02  0.94974813186E+02  0.20883707995E+03  0.10100000352E+00 0. -1.
       -3    1    3    3    0  502 -0.16961974970E+03 -0.76300990363E+02  0.98248381360E+03  0.99993357520E+03  0.10100000352E+00 0.  1.
</event>
<event>
 5   0  0.6170500E-02  0.5917925E+03  0.7818609E-02  0.9922582E-01
       -3   -1    0    0    0  501  0.00000000000E+00  0.00000000000E+00  0.74260586970E+02  0.74260655653E+02  0.10100000352E+00 0.  1.
        3   -1    0    0  501    0  0.00000000000E+00  0.00000000000E+00 -0.11790178439E+04  0.11790178482E+04  0.10100000352E+00 0. -1.
    10030    2    1    2    0    0  0.00000000000E+00  0.00000000000E+00 -0.11047572569E+04  0.12532785039E+04  0.59179254097E+03 0.  0.
        3    1    3    3  502    0 -0.15909502751E+03  0.24138521183E+03 -0.68592467105E+03  0.74435926327E+03  0.10100000352E+00 0. -1.
       -3    1    3    3    0  502  0.15909502751E+03 -0.24138521183E+03 -0.41883258590E+03  0.50891924062E+03  0.10100000352E+00 0.  1.
</event>
<event>
 5   0  0.9420349E-02  0.5773428E+03  0.7818609E-02  0.9953561E-01
       -1   -1    0    0    0  501  0.00000000000E+00  0.00000000000E+00  0.28069994668E+03  0.28069994673E+03  0.50400001928E-02 0. -1.
        1   -1    0    0  501    0  0.00000000000E+00  0.00000000000E+00 -0.29686918755E+03  0.29686918759E+03  0.50400001928E-02 0.  1.
    10030    2    1    2    0    0  0.00000000000E+00  0.00000000000E+00 -0.16169240865E+02  0.57756913432E+03  0.57734275831E+03 0.  0.
        2    1    3    3  502    0  0.25179272151E+03 -0.65448266539E+02 -0.13322609473E+03  0.29228794454E+03  0.25500000920E-02 0.  1.
       -2    1    3    3    0  502 -0.25179272151E+03  0.65448266539E+02  0.11705685387E+03  0.28528118978E+03  0.25500000920E-02 0. -1.
</event>
<event>
 5   0  0.8860626E-02  0.6085448E+03  0.7818609E-02  0.9887835E-01
       -1   -1    0    0    0  501  0.00000000000E+00  0.00000000000E+00  0.82252036998E+02  0.82252037152E+02  0.50400001928E-02 0. -1.
        1   -1    0    0  501    0  0.00000000000E+00  0.00000000000E+00 -0.11255854559E+04  0.11255854559E+04  0.50400001928E-02 0.  1.
    10030    2    1    2    0    0  0.00000000000E+00  0.00000000000E+00 -0.10433334189E+04  0.12078374931E+04  0.60854481072E+03 0.  0.
        3    1    3    3  502    0  0.16227590383E+03 -0.19445000989E+03 -0.85637076281E+03  0.89303704789E+03  0.10100000352E+00 0.  1.
       -3    1    3    3    0  502 -0.16227590383E+03  0.19445000989E+03 -0.18696265609E+03  0.31480044517E+03  0.10100000352E+00 0. -1.
</event>
<event>
 5   0  0.1488510E-01  0.5956295E+03  0.7818609E-02  0.9914515E-01
        2   -1    0    0  501    0  0.00000000000E+00  0.00000000000E+00  0.23157531153E+03  0.23157531154E+03  0.25500000920E-02 0. -1.
       -2   -1    0    0    0  501  0.00000000000E+00  0.00000000000E+00 -0.38300117193E+03  0.38300117194E+03  0.25500000920E-02 0.  1.
    10030    2    1    2    0    0  0.00000000000E+00  0.00000000000E+00 -0.15142586040E+03  0.61457648348E+03  0.59562946775E+03 0.  0.
        5    1    3    3  502    0  0.23340922331E+03 -0.45432770970E+02 -0.26065613863E+03  0.35285650739E+03  0.46999998093E+01 0.  1.
       -5    1    3    3    0  502 -0.23340922331E+03  0.45432770970E+02  0.10923027823E+03  0.26171997609E+03  0.46999998093E+01 0. -1.
</event>
<event>
 5   0  0.1532571E-01  0.5982396E+03  0.7818609E-02  0.9909065E-01
        2   -1    0    0  501    0  0.00000000000E+00  0.00000000000E+00  0.34663485402E+03  0.34663485403E+03  0.25500000920E-02 0.  1.
       -2   -1    0    0    0  501  0.00000000000E+00  0.00000000000E+00 -0.25811788566E+03  0.25811788567E+03  0.25500000920E-02 0. -1.
    10030    2    1    2    0    0  0.00000000000E+00  0.00000000000E+00  0.88516968360E+02  0.60475273971E+03  0.59823960291E+03 0.  0.
        1    1    3    3  502    0 -0.12086292246E+03 -0.16237569804E+03 -0.17836389431E+03  0.26979138637E+03  0.50400001928E-02 0. -1.
       -1    1    3    3    0  502  0.12086292246E+03  0.16237569804E+03  0.26688086267E+03  0.33496135333E+03  0.50400001928E-02 0.  1.
</event>
<event>
 5   0  0.9177281E-02  0.5674001E+03  0.7818609E-02  0.9975448E-01
        1   -1    0    0  501    0  0.00000000000E+00  0.00000000000E+00  0.27668544171E+03  0.27668544176E+03  0.50400001928E-02 0.  1.
       -1   -1    0    0    0  501  0.00000000000E+00  0.00000000000E+00 -0.29089250645E+03  0.29089250649E+03  0.50400001928E-02 0. -1.
    10030    2    1    2    0    0  0.00000000000E+00  0.00000000000E+00 -0.14207064733E+02  0.56757794825E+03  0.56740011161E+03 0.  0.
        1    1    3    3  502    0 -0.18947118628E+03  0.64605354749E+02  0.19398817759E+03  0.27875544005E+03  0.50400001928E-02 0.  1.
       -1    1    3    3    0  502  0.18947118628E+03 -0.64605354749E+02 -0.20819524232E+03  0.28882250820E+03  0.50400001928E-02 0. -1.
</event>
<event>
 5   0  0.1502642E-01  0.6062097E+03  0.7818609E-02  0.9892606E-01
        2   -1    0    0  501    0  0.00000000000E+00  0.00000000000E+00  0.29652380145E+03  0.29652380146E+03  0.25500000920E-02 0.  1.
       -2   -1    0    0    0  501  0.00000000000E+00  0.00000000000E+00 -0.30983191992E+03  0.30983191993E+03  0.25500000920E-02 0. -1.
    10030    2    1    2    0    0  0.00000000000E+00  0.00000000000E+00 -0.13308118476E+02  0.60635572139E+03  0.60620966245E+03 0.  0.
        2    1    3    3  502    0  0.43986118991E+02 -0.41734297056E+02  0.29039562204E+03  0.29665830095E+03  0.25500000920E-02 0.  1.
       -2    1    3    3    0  502 -0.43986118991E+02  0.41734297056E+02 -0.30370374052E+03  0.30969742044E+03  0.25500000920E-02 0. -1.
</event>
<event>
 5   0  0.1488510E-01  0.5942578E+03  0.7818609E-02  0.9917391E-01
       -2   -1    0    0    0  501  0.00000000000E+00  0.00000000000E+00  0.40893209881E+03  0.40893209882E+03  0.25500000920E-02 0.  1.
        2   -1    0    0  501    0  0.00000000000E+00  0.00000000000E+00 -0.21589302004E+03  0.21589302005E+03  0.25500000920E-02 0. -1.
    10030    2    1    2    0    0  0.00000000000E+00  0.00000000000E+00  0.19303907878E+03  0.62482511887E+03  0.59425780873E+03 0.  0.
        5    1    3    3  502    0  0.69422340823E+02  0.38570938752E+02 -0.20448621649E+03  0.21941714029E+03  0.46999998093E+01 0. -1.
       -5    1    3    3    0  502 -0.69422340823E+02 -0.38570938752E+02  0.39752529527E+03  0.40540797858E+03  0.46999998093E+01 0.  1.
</event>
<event>
 5   0  0.6170500E-02  0.5875058E+03  0.7818609E-02  0.9931672E-01
       -4   -1    0    0    0  501  0.00000000000E+00  0.00000000000E+00  0.13509127987E+03  0.13509724941E+03  0.12699999809E+01 0.  1.
        4   -1    0    0  501    0  0.00000000000E+00  0.00000000000E+00 -0.63873834989E+03  0.63873961246E+03  0.12699999809E+01 0. -1.
    10030    2    1    2    0    0  0.00000000000E+00  0.00000000000E+00 -0.50364707002E+03  0.77383686187E+03  0.58750584478E+03 0.  0.
        5    1    3    3  502    0  0.18326271045E+03  0.10809061390E+03 -0.51852693666E+03  0.56050073675E+03  0.46999998093E+01 0. -1.
       -5    1    3    3    0  502 -0.18326271045E+03 -0.10809061390E+03  0.14879866637E+02  0.21333612512E+03  0.46999998093E+01 0.  1.
</event>
<event>
 5   0  0.1502642E-01  0.6171514E+03  0.7818609E-02  0.9870448E-01
       -2   -1    0    0    0  501  0.00000000000E+00  0.00000000000E+00  0.11871610404E+03  0.11871610407E+03  0.25500000920E-02 0.  1.
        2   -1    0    0  501    0  0.00000000000E+00  0.00000000000E+00 -0.80207273070E+03  0.80207273070E+03  0.25500000920E-02 0. -1.
    10030    2    1    2    0    0  0.00000000000E+00  0.00000000000E+00 -0.68335662666E+03  0.92078883477E+03  0.61715135830E+03 0.  0.
        2    1    3    3  502    0  0.50090225310E+02  0.29087862115E+02  0.11053213740E+03  0.12478977441E+03  0.25500000920E-02 0.  1.
       -2    1    3    3    0  502 -0.50090225310E+02 -0.29087862115E+02 -0.79388876406E+03  0.79599906036E+03  0.25500000920E-02 0. -1.
</event>
<event>
 5   0  0.1513339E-01  0.6175031E+03  0.7818609E-02  0.9869744E-01
       -2   -1    0    0    0  501  0.00000000000E+00  0.00000000000E+00  0.93949810358E+02  0.93949810392E+02  0.25500000920E-02 0. -1.
        2   -1    0    0  501    0  0.00000000000E+00  0.00000000000E+00 -0.10146642779E+04  0.10146642780E+04  0.25500000920E-02 0.  1.
    10030    2    1    2    0    0  0.00000000000E+00  0.00000000000E+00 -0.92071446759E+03  0.11086140883E+04  0.61750308991E+03 0.  0.
        3    1    3    3  502    0  0.15298584771E+03  0.24342263880E+03 -0.25828824536E+03  0.38648684139E+03  0.10100000352E+00 0. -1.
       -3    1    3    3    0  502 -0.15298584771E+03 -0.24342263880E+03 -0.66242622224E+03  0.72212724695E+03  0.10100000352E+00 0.  1.
</event>
<event>
 5   0  0.9497860E-02  0.5972675E+03  0.7818609E-02  0.9911091E-01
       -1   -1    0    0    0  501  0.00000000000E+00  0.00000000000E+00  0.18560492709E+03  0.18560492716E+03  0.50400001928E-02 0. -1.
        1   -1    0    0  501    0  0.00000000000E+00  0.00000000000E+00 -0.48049431102E+03  0.48049431105E+03  0.50400001928E-02 0.  1.
    10030    2    1    2    0    0  0.00000000000E+00  0.00000000000E+00 -0.29488938393E+03  0.66609923821E+03  0.59726748312E+03 0.  0.
        5    1    3    3  502    0  0.18173267465E+03  0.14615852917E+03  0.60514579475E+02  0.24098378579E+03  0.46999998093E+01 0. -1.
       -5    1    3    3    0  502 -0.18173267465E+03 -0.14615852917E+03 -0.35540396341E+03  0.42511545242E+03  0.46999998093E+01 0.  1.
</event>
<event>
 5   0  0.8860626E-02  0.5938670E+03  0.7818609E-02  0.9918212E-01
       -1   -1    0    0    0  501  0.00000000000E+00  0.00000000000E+00  0.65492416823E+03  0.65492416825E+03  0.50400001928E-02 0. -1.
        1   -1    0    0  501    0  0.00000000000E+00  0.00000000000E+00 -0.13462551176E+03  0.13462551186E+03  0.50400001928E-02 0.  1.
    10030    2    1    2    0    0  0.00000000000E+00  0.00000000000E+00  0.52029865647E+03  0.78954968011E+03  0.59386699306E+03 0.  0.
        3    1    3    3  502    0  0.17647441944E+03  0.22077151680E+03  0.13912625297E+03  0.31502286871E+03  0.10100000352E+00 0.  1.
       -3    1    3    3    0  502 -0.17647441944E+03 -0.22077151680E+03  0.38117240350E+03  0.47452681140E+03  0.10100000352E+00 0. -1.
</event>
<event>
 5   0  0.1532571E-01  0.6103104E+03  0.7818609E-02  0.9884243E-01
        2   -1    0    0  501    0  0.00000000000E+00  0.00000000000E+00  0.50688596802E+03  0.50688596803E+03  0.25500000920E-02 0. -1.
       -2   -1    0    0    0  501  0.00000000000E+00  0.00000000000E+00 -0.18370934360E+03  0.18370934362E+03  0.25500000920E-02 0.  1.
    10030    2    1    2    0    0  0.00000000000E+00  0.00000000000E+00  0.32317662442E+03  0.69059531164E+03  0.61031037505E+03 0.  0.
        1    1    3    3  502    0 -0.15969529390E+03 -0.68714360845E+02 -0.12219212031E+03  0.21249744604E+03  0.50400001928E-02 0.  1.
       -1    1    3    3    0  502  0.15969529390E+03  0.68714360845E+02  0.44536874474E+03  0.47809786560E+03  0.50400001928E-02 0. -1.
</event>
<event>
 5   0  0.9420349E-02  0.6019805E+03  0.7818609E-02  0.9901306E-01
        1   -1    0    0  501    0  0.00000000000E+00  0.00000000000E+00  0.97381301399E+03  0.97381301400E+03  0.50400001928E-02 0.  1.
       -1   -1    0    0    0  501  0.00000000000E+00  0.00000000000E+00 -0.93031347798E+02  0.93031347934E+02  0.50400001928E-02 0. -1.
    10030    2    1    2    0    0  0.00000000000E+00  0.00000000000E+00  0.88078166619E+03  0.10668443619E+04  0.60198052219E+03 0.  0.
        2    1    3    3  502    0 -0.26542568540E+03 -0.90984887575E+02  0.63344203128E+03  0.69280433835E+03  0.25500000920E-02 0.  1.
       -2    1    3    3    0  502  0.26542568540E+03  0.90984887575E+02  0.24733963491E+03  0.37404002359E+03  0.25500000920E-02 0. -1.
</event>
<event>
 5   0  0.9420349E-02  0.6162738E+03  0.7818609E-02  0.9872207E-01
       -1   -1    0    0    0  501  0.00000000000E+00  0.00000000000E+00  0.13465839440E+03  0.13465839449E+03  0.50400001928E-02 0. -1.
        1   -1    0    0  501    0  0.00000000000E+00  0.00000000000E+00 -0.70510541181E+03  0.70510541183E+03  0.50400001928E-02 0.  1.
    10030    2    1    2    0    0  0.00000000000E+00  0.00000000000E+00 -0.57044701741E+03  0.83976380632E+03  0.61627384395E+03 0.  0.
        2    1    3    3  502    0 -0.19569770964E+02 -0.60297375267E+02 -0.69612345928E+03  0.69900402000E+03  0.25500000920E-02 0.  1.
       -2    1    3    3    0  502  0.19569770964E+02  0.60297375267E+02  0.12567644187E+03  0.14075978633E+03  0.25500000920E-02 0. -1.
</event>
<event>
 5   0  0.1483942E-01  0.6673086E+03  0.7818609E-02  0.9774832E-01
        2   -1    0    0  501    0  0.00000000000E+00  0.00000000000E+00  0.93107948248E+03  0.93107948249E+03  0.25500000920E-02 0. -1.
       -2   -1    0    0    0  501  0.00000000000E+00  0.00000000000E+00 -0.11956572087E+03  0.11956572090E+03  0.25500000920E-02 0.  1.
    10030    2    1    2    0    0  0.00000000000E+00  0.00000000000E+00  0.81151376161E+03  0.10506452034E+04  0.66730859287E+03 0.  0.
        4    1    3    3  502    0 -0.15103170689E+03 -0.60942309950E+02  0.86424155169E+03  0.87945415697E+03  0.12699999809E+01 0. -1.
       -4    1    3    3    0  502  0.15103170689E+03  0.60942309950E+02 -0.52727790083E+02  0.17119104642E+03  0.12699999809E+01 0.  1.
</event>
<event>
 5   0  0.1502642E-01  0.6053286E+03  0.7818609E-02  0.9894412E-01
       -2   -1    0    0    0  501  0.00000000000E+00  0.00000000000E+00  0.39008251019E+03  0.39008251020E+03  0.25500000920E-02 0.  1.
        2   -1    0    0  501    0  0.00000000000E+00  0.00000000000E+00 -0.23483663658E+03  0.23483663659E+03  0.25500000920E-02 0. -1.
    10030    2    1    2    0    0  0.00000000000E+00  0.00000000000E+00  0.15524587362E+03  0.62491914679E+03  0.60532855438E+03 0.  0.
        2    1    3    3  502    0 -0.30046505465E+03  0.32421862968E+02  0.60495704275E+02  0.30820473148E+03  0.25500000920E-02 0.  1.
       -2    1    3    3    0  502  0.30046505465E+03 -0.32421862968E+02  0.94750169340E+02  0.31671441531E+03  0.25500000920E-02 0. -1.
</event>
<event>
 5   0  0.1513339E-01  0.4982088E+03  0.7818609E-02  0.1014247E+00
       -2   -1    0    0    0  501  0.00000000000E+00  0.00000000000E+00  0.36252716859E+02  0.36252716949E+02  0.25500000920E-02 0. -1.
        2   -1    0    0  501    0  0.00000000000E+00  0.00000000000E+00 -0.17116789209E+04  0.17116789210E+04  0.25500000920E-02 0.  1.
    10030    2    1    2    0    0  0.00000000000E+00  0.00000000000E+00 -0.16754262041E+04  0.17479316379E+04  0.49820883716E+03 0.  0.
        3    1    3    3  502    0  0.30978702512E+02 -0.15943578691E+03 -0.17506007311E+03  0.23880010375E+03  0.10100000352E+00 0. -1.
       -3    1    3    3    0  502 -0.30978702512E+02  0.15943578691E+03 -0.15003661310E+04  0.15091315341E+04  0.10100000352E+00 0.  1.
</event>
<event>
 5   0  0.1488510E-01  0.6143116E+03  0.7818609E-02  0.9876151E-01
       -2   -1    0    0    0  501  0.00000000000E+00  0.00000000000E+00  0.81603858785E+02  0.81603858825E+02  0.25500000920E-02 0. -1.
        2   -1    0    0  501    0  0.00000000000E+00  0.00000000000E+00 -0.11561301817E+04  0.11561301817E+04  0.25500000920E-02 0.  1.
    10030    2    1    2    0    0  0.00000000000E+00  0.00000000000E+00 -0.10745263230E+04  0.12377340406E+04  0.61431159557E+03 0.  0.
        5    1    3    3  502    0  0.29101031252E+03  0.45028786258E+02 -0.36152183936E+03  0.46629896409E+03  0.46999998093E+01 0. -1.
       -5    1    3    3    0  502 -0.29101031252E+03 -0.45028786258E+02 -0.71300448360E+03  0.77143507648E+03  0.46999998093E+01 0.  1.
</event>
<event>
 5   0  0.1483942E-01  0.6035896E+03  0.7818609E-02  0.9897987E-01
        2   -1    0    0  501    0  0.00000000000E+00  0.00000000000E+00  0.34498642749E+03  0.34498642750E+03  0.25500000920E-02 0. -1.
       -2   -1    0    0    0  501  0.00000000000E+00  0.00000000000E+00 -0.26401064312E+03  0.26401064313E+03  0.25500000920E-02 0.  1.
    10030    2    1    2    0    0  0.00000000000E+00  0.00000000000E+00  0.80975784367E+02  0.60899707063E+03  0.60358955788E+03 0.  0.
        4    1    3    3  502    0 -0.16835948450E+03  0.14561068052E+03  0.24610542667E+03  0.33183863585E+03  0.12699999809E+01 0. -1.
       -4    1    3    3    0  502  0.16835948450E+03 -0.14561068052E+03 -0.16512964231E+03  0.27715843478E+03  0.12699999809E+01 0.  1.
</event>
<event>
 5   0  0.1513339E-01  0.5850645E+03  0.7818609E-02  0.9936886E-01
       -2   -1    0    0    0  501  0.00000000000E+00  0.00000000000E+00  0.44668006019E+02  0.44668006092E+02  0.25500000920E-02 0.  1.
        2   -1    0    0  501    0  0.00000000000E+00  0.00000000000E+00 -0.19158034877E+04  0.19158034877E+04  0.25500000920E-02 0. -1.
    10030    2    1    2    0    0  0.00000000000E+00  0.00000000000E+00 -0.18711354817E+04  0.19604714938E+04  0.58506451539E+03 0.  0.
        3    1    3    3  502    0 -0.14714377806E+02 -0.19628692693E+03 -0.21043244946E+03  0.28814388174E+03  0.10100000352E+00 0.  1.
       -3    1    3    3    0  502  0.14714377806E+02  0.19628692693E+03 -0.16607030323E+04  0.16723276121E+04  0.10100000352E+00 0. -1.
</event>
<event>
 5   0  0.8860626E-02  0.5753670E+03  0.7818609E-02  0.9957872E-01
       -1   -1    0    0    0  501  0.00000000000E+00  0.00000000000E+00  0.15367641973E+03  0.15367641982E+03  0.50400001928E-02 0.  1.
        1   -1    0    0  501    0  0.00000000000E+00  0.00000000000E+00 -0.53854588549E+03  0.53854588552E+03  0.50400001928E-02 0. -1.
    10030    2    1    2    0    0  0.00000000000E+00  0.00000000000E+00 -0.38486946576E+03  0.69222230533E+03  0.57536702575E+03 0.  0.
        3    1    3    3  502    0 -0.13552512614E+03 -0.25254194454E+03 -0.16254316522E+03  0.32949170601E+03  0.10100000352E+00 0. -1.
       -3    1    3    3    0  502  0.13552512614E+03  0.25254194454E+03 -0.22232630054E+03  0.36273059932E+03  0.10100000352E+00 0.  1.
</event>
<event>
 5   0  0.1532571E-01  0.5754545E+03  0.7818609E-02  0.9957681E-01
       -2   -1    0    0    0  501  0.00000000000E+00  0.00000000000E+00  0.14917344522E+03  0.14917344524E+03  0.25500000920E-02 0. -1.
        2   -1    0    0  501    0  0.00000000000E+00  0.00000000000E+00 -0.55497121869E+03  0.55497121870E+03  0.25500000920E-02 0.  1.
    10030    2    1    2    0    0  0.00000000000E+00  0.00000000000E+00 -0.40579777347E+03  0.70414466394E+03  0.57545449412E+03 0.  0.
        1    1    3    3  502    0  0.15631714442E+03  0.92545827076E+01 -0.49826422007E+03  0.52229103953E+03  0.50400001928E-02 0.  1.
       -1    1    3    3    0  502 -0.15631714442E+03 -0.92545827076E+01  0.92466446601E+02  0.18185362442E+03  0.50400001928E-02 0. -1.
</event>
<event>
 5   0  0.9420349E-02  0.5958486E+03  0.7818609E-02  0.9914056E-01
       -1   -1    0    0    0  501  0.00000000000E+00  0.00000000000E+00  0.16189853362E+03  0.16189853370E+03  0.50400001928E-02 0.  1.
        1   -1    0    0  501    0  0.00000000000E+00  0.00000000000E+00 -0.54823782266E+03  0.54823782269E+03  0.50400001928E-02 0. -1.
    10030    2    1    2    0    0  0.00000000000E+00  0.00000000000E+00 -0.38633928904E+03  0.71013635639E+03  0.59584863716E+03 0.  0.
        2    1    3    3  502    0  0.28507980153E+02 -0.29510296129E+03 -0.15821013660E+03  0.33604896968E+03  0.25500000920E-02 0. -1.
       -2    1    3    3    0  502 -0.28507980153E+02  0.29510296129E+03 -0.22812915244E+03  0.37408738670E+03  0.25500000920E-02 0.  1.
</event>
<event>
 5   0  0.9177281E-02  0.5872498E+03  0.7818609E-02  0.9932218E-01
        1   -1    0    0  501    0  0.00000000000E+00  0.00000000000E+00  0.12206314515E+04  0.12206314515E+04  0.50400001928E-02 0. -1.
       -1   -1    0    0    0  501  0.00000000000E+00  0.00000000000E+00 -0.70631945426E+02  0.70631945606E+02  0.50400001928E-02 0.  1.
    10030    2    1    2    0    0  0.00000000000E+00  0.00000000000E+00  0.11499995060E+04  0.12912633971E+04  0.58724977374E+03 0.  0.
        1    1    3    3  502    0  0.28918128269E+03  0.49573179073E+02  0.54971224991E+03  0.62311064192E+03  0.50400001928E-02 0.  1.
       -1    1    3    3    0  502 -0.28918128269E+03 -0.49573179073E+02  0.60028725613E+03  0.66815275517E+03  0.50400001928E-02 0. -1.
</event>
<event>
 5   0  0.1483942E-01  0.6198198E+03  0.7818609E-02  0.9865119E-01
       -2   -1    0    0    0  501  0.00000000000E+00  0.00000000000E+00  0.16821879241E+03  0.16821879243E+03  0.25500000920E-02 0. -1.
        2   -1    0    0  501    0  0.00000000000E+00  0.00000000000E+00 -0.57094782410E+03  0.57094782411E+03  0.25500000920E-02 0.  1.
    10030    2    1    2    0    0  0.00000000000E+00  0.00000000000E+00 -0.40272903169E+03  0.73916661654E+03  0.61981982386E+03 0.  0.
        4    1    3    3  502    0  0.18945992273E+03 -0.51945393444E+02 -0.48720168517E+03  0.52531940869E+03  0.12699999809E+01 0.  1.
       -4    1    3    3    0  502 -0.18945992273E+03  0.51945393444E+02  0.84472653478E+02  0.21384720785E+03  0.12699999809E+01 0. -1.
</event>
<event>
 5   0  0.1483942E-01  0.5999933E+03  0.7818609E-02  0.9905420E-01
        2   -1    0    0  501    0  0.00000000000E+00  0.00000000000E+00  0.13898532609E+03  0.13898532611E+03  0.25500000920E-02 0.  1.
       -2   -1    0    0    0  501  0.00000000000E+00  0.00000000000E+00 -0.64753582436E+03  0.64753582437E+03  0.25500000920E-02 0. -1.
    10030    2    1    2    0    0  0.00000000000E+00  0.00000000000E+00 -0.50855049827E+03  0.78652115048E+03  0.59999325901E+03 0.  0.
        4    1    3    3  502    0 -0.26736522689E+03 -0.78784048105E+02 -0.10886009114E+03  0.29923773681E+03  0.12699999809E+01 0.  1.
       -4    1    3    3    0  502  0.26736522689E+03  0.78784048105E+02 -0.39969040713E+03  0.48728341367E+03  0.12699999809E+01 0. -1.
</event>
<event>
 5   0  0.1483942E-01  0.6084579E+03  0.7818609E-02  0.9888012E-01
       -2   -1    0    0    0  501  0.00000000000E+00  0.00000000000E+00  0.51407717211E+02  0.51407717274E+02  0.25500000920E-02 0. -1.
        2   -1    0    0  501    0  0.00000000000E+00  0.00000000000E+00 -0.18004155364E+04  0.18004155364E+04  0.25500000920E-02 0.  1.
    10030    2    1    2    0    0  0.00000000000E+00  0.00000000000E+00 -0.17490078192E+04  0.18518232537E+04  0.60845789605E+03 0.  0.
        4    1    3    3  502    0  0.21362604052E+03 -0.31279799305E+02 -0.15268234374E+04  0.15420135969E+04  0.12699999809E+01 0.  1.
       -4    1    3    3    0  502 -0.21362604052E+03  0.31279799305E+02 -0.22218438175E+03  0.30980965676E+03  0.12699999809E+01 0. -1.
</event>
<event>
 5   0  0.9497860E-02  0.5916587E+03  0.7818609E-02  0.9922864E-01
       -1   -1    0    0    0  501  0.00000000000E+00  0.00000000000E+00  0.81190164739E+02  0.81190164895E+02  0.50400001928E-02 0.  1.
        1   -1    0    0  501    0  0.00000000000E+00  0.00000000000E+00 -0.10779013861E+04  0.10779013861E+04  0.50400001928E-02 0. -1.
    10030    2    1    2    0    0  0.00000000000E+00  0.00000000000E+00 -0.99671122133E+03  0.11590915510E+04  0.59165865566E+03 0.  0.
        5    1    3    3  502    0 -0.52952631783E+01  0.16631477100E+03 -0.97744060923E+03  0.99151443632E+03  0.46999998093E+01 0. -1.
       -5    1    3    3    0  502  0.52952631783E+01 -0.16631477100E+03 -0.19270612099E+02  0.16757711465E+03  0.46999998093E+01 0.  1.
</event>
<event>
 5   0  0.9177281E-02  0.6118525E+03  0.7818609E-02  0.9881116E-01
        1   -1    0    0  501    0  0.00000000000E+00  0.00000000000E+00  0.24277763376E+04  0.24277763376E+04  0.50400001928E-02 0. -1.
       -1   -1    0    0    0  501  0.00000000000E+00  0.00000000000E+00 -0.38550041065E+02  0.38550041395E+02  0.50400001928E-02 0.  1.
    10030    2    1    2    0    0  0.00000000000E+00  0.00000000000E+00  0.23892262965E+04  0.24663263790E+04  0.61185252447E+03 0.  0.
        1    1    3    3  502    0 -0.27612906672E+03  0.68145331052E+02  0.16488713215E+04  0.16732207513E+04  0.50400001928E-02 0.  1.
       -1    1    3    3    0  502  0.27612906672E+03 -0.68145331052E+02  0.74035497505E+03  0.79310562773E+03  0.50400001928E-02 0. -1.
</event>
<event>
 5   0  0.9497860E-02  0.5619380E+03  0.7818609E-02  0.9987679E-01
        1   -1    0    0  501    0  0.00000000000E+00  0.00000000000E+00  0.95102606687E+03  0.95102606688E+03  0.50400001928E-02 0.  1.
       -1   -1    0    0    0  501  0.00000000000E+00  0.00000000000E+00 -0.83008842359E+02  0.83008842512E+02  0.50400001928E-02 0. -1.
    10030    2    1    2    0    0  0.00000000000E+00  0.00000000000E+00  0.86801722451E+03  0.10340349094E+04  0.56193797861E+03 0.  0.
        5    1    3    3  502    0  0.23251756931E+03 -0.14351490092E+03  0.55411855008E+03  0.61784334937E+03  0.46999998093E+01 0.  1.
       -5    1    3    3    0  502 -0.23251756931E+03  0.14351490092E+03  0.31389867443E+03  0.41619156002E+03  0.46999998093E+01 0. -1.
</event>
<event>
 5   0  0.1513339E-01  0.7064997E+03  0.7818609E-02  0.9706181E-01
       -2   -1    0    0    0  501  0.00000000000E+00  0.00000000000E+00  0.45597621850E+02  0.45597621921E+02  0.25500000920E-02 0.  1.
        2   -1    0    0  501    0  0.00000000000E+00  0.00000000000E+00 -0.27366655319E+04  0.27366655319E+04  0.25500000920E-02 0. -1.
    10030    2    1    2    0    0  0.00000000000E+00  0.00000000000E+00 -0.26910679101E+04  0.27822631539E+04  0.70649965366E+03 0.  0.
        3    1    3    3  502    0  0.88371209843E+02 -0.31912309405E+03 -0.86102959062E+03  0.92250798696E+03  0.10100000352E+00 0.  1.
       -3    1    3    3    0  502 -0.88371209843E+02  0.31912309405E+03 -0.18300383195E+04  0.18597551669E+04  0.10100000352E+00 0. -1.
</event>
<event>
 5   0  0.6170500E-02  0.5888208E+03  0.7818609E-02  0.9928875E-01
        3   -1    0    0  501    0  0.00000000000E+00  0.00000000000E+00  0.15978887838E+03  0.15978891030E+03  0.10100000352E+00 0.  1.
       -3   -1    0    0    0  501  0.00000000000E+00  0.00000000000E+00 -0.54244993975E+03  0.54244994915E+03  0.10100000352E+00 0. -1.
    10030    2    1    2    0    0  0.00000000000E+00  0.00000000000E+00 -0.38266106137E+03  0.70223885946E+03  0.58882079433E+03 0.  0.
        5    1    3    3  502    0 -0.97142468493E+02  0.27784578989E+03 -0.19672372921E+03  0.35405826890E+03  0.46999998093E+01 0.  1.
       -5    1    3    3    0  502  0.97142468493E+02 -0.27784578989E+03 -0.18593733216E+03  0.34818059055E+03  0.46999998093E+01 0. -1.
</event>
<event>
 5   0  0.6170500E-02  0.5904361E+03  0.7818609E-02  0.9925449E-01
       -3   -1    0    0    0  501  0.00000000000E+00  0.00000000000E+00  0.33036075514E+03  0.33036077058E+03  0.10100000352E+00 0. -1.
        3   -1    0    0  501    0  0.00000000000E+00  0.00000000000E+00 -0.26381364282E+03  0.26381366215E+03  0.10100000352E+00 0.  1.
    10030    2    1    2    0    0  0.00000000000E+00  0.00000000000E+00  0.66547112323E+02  0.59417443273E+03  0.59043605780E+03 0.  0.
        2    1    3    3  502    0 -0.25707478058E+03 -0.13752787128E+03  0.79960468616E+02  0.30231611723E+03  0.25500000920E-02 0. -1.
       -2    1    3    3    0  502  0.25707478058E+03  0.13752787128E+03 -0.13413356293E+02  0.29185831550E+03  0.25500000920E-02 0.  1.
</event>
<event>
 5   0  0.1532571E-01  0.6012298E+03  0.7818609E-02  0.9902858E-01
       -2   -1    0    0    0  501  0.00000000000E+00  0.00000000000E+00  0.83769085968E+02  0.83769086007E+02  0.25500000920E-02 0. -1.
        2   -1    0    0  501    0  0.00000000000E+00  0.00000000000E+00 -0.10787907002E+04  0.10787907002E+04  0.25500000920E-02 0.  1.
    10030    2    1    2    0    0  0.00000000000E+00  0.00000000000E+00 -0.99502161428E+03  0.11625597863E+04  0.60122977616E+03 0.  0.
        1    1    3    3  502    0  0.59282799548E+02 -0.89676322413E+02 -0.10403532470E+04  0.10458925240E+04  0.50400001928E-02 0.  1.
       -1    1    3    3    0  502 -0.59282799548E+02  0.89676322413E+02  0.45331632770E+02  0.11666726224E+03  0.50400001928E-02 0. -1.
</event>
<event>
 5   0  0.6170500E-02  0.5941637E+03  0.7818609E-02  0.9917589E-01
        4   -1    0    0  501    0  0.00000000000E+00  0.00000000000E+00  0.23195286059E+03  0.23195633735E+03  0.12699999809E+01 0. -1.
       -4   -1    0    0    0  501  0.00000000000E+00  0.00000000000E+00 -0.38049066334E+03  0.38049278283E+03  0.12699999809E+01 0.  1.
    10030    2    1    2    0    0  0.00000000000E+00  0.00000000000E+00 -0.14853780275E+03  0.61244912018E+03  0.59416365251E+03 0.  0.
        2    1    3    3  502    0 -0.45657258311E+02 -0.20621200511E+03 -0.28962354643E+03  0.35845470417E+03  0.25500000920E-02 0.  1.
       -2    1    3    3    0  502  0.45657258311E+02  0.20621200511E+03  0.14108574369E+03  0.25399441601E+03  0.25500000920E-02 0. -1.
</event>
<event>
 5   0  0.9177281E-02  0.6072735E+03  0.7818609E-02  0.9890430E-01
        1   -1    0    0  501    0  0.00000000000E+00  0.00000000000E+00  0.11099031171E+03  0.11099031183E+03  0.50400001928E-02 0. -1.
       -1   -1    0    0    0  501  0.00000000000E+00  0.00000000000E+00 -0.83066058947E+03  0.83066058949E+03  0.50400001928E-02 0.  1.
    10030    2    1    2    0    0  0.00000000000E+00  0.00000000000E+00 -0.71967027776E+03  0.94165090131E+03  0.60727350613E+03 0.  0.
        1    1    3    3  502    0 -0.29039425071E+03  0.75743277527E+02 -0.28828087350E+03  0.41613907169E+03  0.50400001928E-02 0. -1.
       -1    1    3    3    0  502  0.29039425071E+03 -0.75743277527E+02 -0.43138940426E+03  0.52551182962E+03  0.50400001928E-02 0.  1.
</event>
<event>
 5   0  0.6170500E-02  0.5911572E+03  0.7818609E-02  0.9923924E-01
        4   -1    0    0  501    0  0.00000000000E+00  0.00000000000E+00  0.60149278254E+03  0.60149412329E+03  0.12699999809E+01 0.  1.
       -4   -1    0    0    0  501  0.00000000000E+00  0.00000000000E+00 -0.14524551227E+03  0.14525106449E+03  0.12699999809E+01 0. -1.
    10030    2    1    2    0    0  0.00000000000E+00  0.00000000000E+00  0.45624727027E+03  0.74674518778E+03  0.59115717355E+03 0.  0.
        1    1    3    3  502    0 -0.15244251285E+03  0.11632859041E+03  0.51225947440E+03  0.54697424968E+03  0.50400001928E-02 0.  1.
       -1    1    3    3    0  502  0.15244251285E+03 -0.11632859041E+03 -0.56012204133E+02  0.19977093810E+03  0.50400001928E-02 0. -1.
</event>
<event>
 5   0  0.1513339E-01  0.4497367E+03  0.7818609E-02  0.1027801E+00
        2   -1    0    0  501    0  0.00000000000E+00  0.00000000000E+00  0.38579354533E+03  0.38579354533E+03  0.25500000920E-02 0.  1.
       -2   -1    0    0    0  501  0.00000000000E+00  0.00000000000E+00 -0.13106949828E+03  0.13106949831E+03  0.25500000920E-02 0. -1.
    10030    2    1    2    0    0  0.00000000000E+00  0.00000000000E+00  0.25472404704E+03  0.51686304364E+03  0.44973666266E+03 0.  0.
        3    1    3    3  502    0 -0.76023118810E+02  0.11793943311E+03 -0.74582204075E+02  0.15890796028E+03  0.10100000352E+00 0. -1.
       -3    1    3    3    0  502  0.76023118810E+02 -0.11793943311E+03  0.32930625112E+03  0.35795508336E+03  0.10100000352E+00 0.  1.
</event>
<event>
 5   0  0.6170500E-02  0.6058020E+03  0.7818609E-02  0.9893441E-01
       -4   -1    0    0    0  501  0.00000000000E+00  0.00000000000E+00  0.70037065435E+03  0.70037180581E+03  0.12699999809E+01 0. -1.
        4   -1    0    0  501    0  0.00000000000E+00  0.00000000000E+00 -0.13099630440E+03  0.13100246053E+03  0.12699999809E+01 0.  1.
    10030    2    1    2    0    0  0.00000000000E+00  0.00000000000E+00  0.56937434995E+03  0.83137426634E+03  0.60580196463E+03 0.  0.
        3    1    3    3  502    0 -0.97165842614E+01 -0.14117599286E+03 -0.82847158051E+02  0.16397784841E+03  0.10100000352E+00 0.  1.
       -3    1    3    3    0  502  0.97165842614E+01  0.14117599286E+03  0.65222150800E+03  0.66739641793E+03  0.10100000352E+00 0. -1.
</event>
<event>
 5   0  0.1502642E-01  0.5927956E+03  0.7818609E-02  0.9920467E-01
        2   -1    0    0  501    0  0.00000000000E+00  0.00000000000E+00  0.91226995930E+02  0.91226995966E+02  0.25500000920E-02 0. -1.
       -2   -1    0    0    0  501  0.00000000000E+00  0.00000000000E+00 -0.96300052505E+03  0.96300052505E+03  0.25500000920E-02 0.  1.
    10030    2    1    2    0    0  0.00000000000E+00  0.00000000000E+00 -0.87177352912E+03  0.10542275210E+04  0.59279556341E+03 0.  0.
        2    1    3    3  502    0  0.29156207292E+03  0.97813852398E+01 -0.34266863171E+03  0.45002878689E+03  0.25500000920E-02 0.  1.
       -2    1    3    3    0  502 -0.29156207292E+03 -0.97813852398E+01 -0.52910489741E+03  0.60419873413E+03  0.25500000920E-02 0. -1.
</event>
<event>
 5   0  0.8860626E-02  0.5982414E+03  0.7818609E-02  0.9909061E-01
        1   -1    0    0  501    0  0.00000000000E+00  0.00000000000E+00  0.13414832981E+04  0.13414832981E+04  0.50400001928E-02 0.  1.
       -1   -1    0    0    0  501  0.00000000000E+00  0.00000000000E+00 -0.66697219847E+02  0.66697220038E+02  0.50400001928E-02 0. -1.
    10030    2    1    2    0    0  0.00000000000E+00  0.00000000000E+00  0.12747860782E+04  0.14081805181E+04  0.59824144489E+03 0.  0.
        3    1    3    3  502    0 -0.28358654559E+02 -0.14310434548E+03  0.22722225195E+02  0.14764611984E+03  0.10100000352E+00 0. -1.
       -3    1    3    3    0  502  0.28358654559E+02  0.14310434548E+03  0.12520638530E+04  0.12605343983E+04  0.10100000352E+00 0.  1.
</event>
<event>
 5   0  0.9411028E-02  0.4820990E+03  0.7818609E-02  0.1018560E+00
        1   -1    0    0  501    0  0.00000000000E+00  0.00000000000E+00  0.94839647223E+03  0.94839647224E+03  0.50400001928E-02 0.  1.
       -1   -1    0    0    0  501  0.00000000000E+00  0.00000000000E+00 -0.61266422533E+02  0.61266422741E+02  0.50400001928E-02 0. -1.
    10030    2    1    2    0    0  0.00000000000E+00  0.00000000000E+00  0.88713004969E+03  0.10096628950E+04  0.48209899028E+03 0.  0.
        4    1    3    3  502    0 -0.10725987048E+03  0.75690099247E+02  0.20175375492E+02  0.13282443155E+03  0.12699999809E+01 0. -1.
       -4    1    3    3    0  502  0.10725987048E+03 -0.75690099247E+02  0.86695467420E+03  0.87683846344E+03  0.12699999809E+01 0.  1.
</event>
<event>
 5   0  0.1483942E-01  0.5700836E+03  0.7818609E-02  0.9969494E-01
       -2   -1    0    0    0  501  0.00000000000E+00  0.00000000000E+00  0.20658411469E+03  0.20658411471E+03  0.25500000920E-02 0.  1.
        2   -1    0    0  501    0  0.00000000000E+00  0.00000000000E+00 -0.39329653350E+03  0.39329653351E+03  0.25500000920E-02 0. -1.
    10030    2    1    2    0    0  0.00000000000E+00  0.00000000000E+00 -0.18671241881E+03  0.59988064821E+03  0.57008355946E+03 0.  0.
        4    1    3    3  502    0  0.20451173805E+03  0.31173579656E+02  0.11298051977E+03  0.23571816607E+03  0.12699999809E+01 0.  1.
       -4    1    3    3    0  502 -0.20451173805E+03 -0.31173579656E+02 -0.29969293857E+03  0.36416248214E+03  0.12699999809E+01 0. -1.
</event>
<event>
 5   0  0.1488510E-01  0.5888476E+03  0.7818609E-02  0.9928818E-01
       -2   -1    0    0    0  501  0.00000000000E+00  0.00000000000E+00  0.67199200700E+02  0.67199200749E+02  0.25500000920E-02 0.  1.
        2   -1    0    0  501    0  0.00000000000E+00  0.00000000000E+00 -0.12899762975E+04  0.12899762975E+04  0.25500000920E-02 0. -1.
    10030    2    1    2    0    0  0.00000000000E+00  0.00000000000E+00 -0.12227770968E+04  0.13571754982E+04  0.58884760727E+03 0.  0.
        5    1    3    3  502    0  0.45756939311E+02  0.28847869550E+03 -0.52671639568E+03  0.60230051197E+03  0.46999998093E+01 0.  1.
       -5    1    3    3    0  502 -0.45756939311E+02 -0.28847869550E+03 -0.69606070108E+03  0.75487498623E+03  0.46999998093E+01 0. -1.
</event>
<event>
 5   0  0.6170500E-02  0.6216589E+03  0.7818609E-02  0.9861462E-01
        4   -1    0    0  501    0  0.00000000000E+00  0.00000000000E+00  0.10126514981E+03  0.10127311324E+03  0.12699999809E+01 0. -1.
       -4   -1    0    0    0  501  0.00000000000E+00  0.00000000000E+00 -0.95403298697E+03  0.95403383228E+03  0.12699999809E+01 0.  1.
    10030    2    1    2    0    0  0.00000000000E+00  0.00000000000E+00 -0.85276783716E+03  0.10553069455E+04  0.62165888168E+03 0.  0.
        1    1    3    3  502    0 -0.30414031329E+03  0.60727901103E+02 -0.39135752886E+03  0.49934950041E+03  0.50400001928E-02 0.  1.
       -1    1    3    3    0  502  0.30414031329E+03 -0.60727901103E+02 -0.46141030829E+03  0.55595744510E+03  0.50400001928E-02 0. -1.
</event>
<event>
 5   0  0.9420349E-02  0.6537596E+03  0.7818609E-02  0.9799750E-01
       -1   -1    0    0    0  501  0.00000000000E+00  0.00000000000E+00  0.42949323160E+03  0.42949323163E+03  0.50400001928E-02 0.  1.
        1   -1    0    0  501    0  0.00000000000E+00  0.00000000000E+00 -0.24878254507E+03  0.24878254512E+03  0.50400001928E-02 0. -1.
    10030    2    1    2    0    0  0.00000000000E+00  0.00000000000E+00  0.18071068653E+03  0.67827577675E+03  0.65375964780E+03 0.  0.
        2    1    3    3  502    0 -0.60251466949E+02  0.10265973215E+03  0.40620755719E+03  0.42328930934E+03  0.25500000920E-02 0.  1.
       -2    1    3    3    0  502  0.60251466949E+02 -0.10265973215E+03 -0.22549687066E+03  0.25498646741E+03  0.25500000920E-02 0. -1.
</event>
<event>
 5   0  0.9411028E-02  0.5901708E+03  0.7818609E-02  0.9926011E-01
       -1   -1    0    0    0  501  0.00000000000E+00  0.00000000000E+00  0.10717054218E+03  0.10717054230E+03  0.50400001928E-02 0. -1.
        1   -1    0    0  501    0  0.00000000000E+00  0.00000000000E+00 -0.81249368541E+03  0.81249368543E+03  0.50400001928E-02 0.  1.
    10030    2    1    2    0    0  0.00000000000E+00  0.00000000000E+00 -0.70532314323E+03  0.91966422773E+03  0.59017078492E+03 0.  0.
        4    1    3    3  502    0 -0.19846183957E+03 -0.21383408542E+03 -0.28364343274E+03  0.40689965310E+03  0.12699999809E+01 0. -1.
       -4    1    3    3    0  502  0.19846183957E+03  0.21383408542E+03 -0.42167971049E+03  0.51276457463E+03  0.12699999809E+01 0.  1.
</event>
<event>
 5   0  0.9497860E-02  0.6015266E+03  0.7818609E-02  0.9902244E-01
        1   -1    0    0  501    0  0.00000000000E+00  0.00000000000E+00  0.74771980043E+03  0.74771980044E+03  0.50400001928E-02 0.  1.
       -1   -1    0    0    0  501  0.00000000000E+00  0.00000000000E+00 -0.12097924374E+03  0.12097924384E+03  0.50400001928E-02 0. -1.
    10030    2    1    2    0    0  0.00000000000E+00  0.00000000000E+00  0.62674055669E+03  0.86869904429E+03  0.60152664458E+03 0.  0.
        5    1    3    3  502    0 -0.20240070060E+03  0.65999688532E+02  0.62011173077E+03  0.65565436864E+03  0.46999998093E+01 0.  1.
       -5    1    3    3    0  502  0.20240070060E+03 -0.65999688532E+02  0.66288259219E+01  0.21304467564E+03  0.46999998093E+01 0. -1.
</event>
<event>
 5   0  0.8860626E-02  0.6108236E+03  0.7818609E-02  0.9883201E-01
        1   -1    0    0  501    0  0.00000000000E+00  0.00000000000E+00  0.40300441761E+03  0.40300441764E+03  0.50400001928E-02 0.  1.
       -1   -1    0    0    0  501  0.00000000000E+00  0.00000000000E+00 -0.23145249270E+03  0.23145249276E+03  0.50400001928E-02 0. -1.
    10030    2    1    2    0    0  0.00000000000E+00  0.00000000000E+00  0.17155192491E+03  0.63445691040E+03  0.61082363102E+03 0.  0.
        3    1    3    3  502    0 -0.74280584018E+02  0.27262441804E+03  0.20616864749E+03  0.34978164601E+03  0.10100000352E+00 0. -1.
       -3    1    3    3    0  502  0.74280584018E+02 -0.27262441804E+03 -0.34616722581E+02  0.28467526439E+03  0.10100000352E+00 0.  1.
</event>
<event>
 5   0  0.1532571E-01  0.5963031E+03  0.7818609E-02  0.9913106E-01
        2   -1    0    0  501    0  0.00000000000E+00  0.00000000000E+00  0.34207008597E+03  0.34207008598E+03  0.25500000920E-02 0.  1.
       -2   -1    0    0    0  501  0.00000000000E+00  0.00000000000E+00 -0.25987176399E+03  0.25987176400E+03  0.25500000920E-02 0. -1.
    10030    2    1    2    0    0  0.00000000000E+00  0.00000000000E+00  0.82198321987E+02  0.60194184998E+03  0.59630313316E+03 0.  0.
        1    1    3    3  502    0  0.28116844909E+03 -0.76686102362E+02  0.10460591892E+03  0.30964310643E+03  0.50400001928E-02 0.  1.
       -1    1    3    3    0  502 -0.28116844909E+03  0.76686102362E+02 -0.22407596936E+02  0.29229874356E+03  0.50400001928E-02 0. -1.
</event>
<event>
 5   0  0.8860626E-02  0.6902070E+03  0.7818609E-02  0.9734128E-01
       -1   -1    0    0    0  501  0.00000000000E+00  0.00000000000E+00  0.16592524315E+03  0.16592524322E+03  0.50400001928E-02 0.  1.
        1   -1    0    0  501    0  0.00000000000E+00  0.00000000000E+00 -0.71777150643E+03  0.71777150645E+03  0.50400001928E-02 0. -1.
    10030    2    1    2    0    0  0.00000000000E+00  0.00000000000E+00 -0.55184626328E+03  0.88369674967E+03  0.69020695960E+03 0.  0.
        3    1    3    3  502    0  0.14243733071E+03 -0.14740503766E+03 -0.63138589237E+03  0.66382587596E+03  0.10100000352E+00 0. -1.
       -3    1    3    3    0  502 -0.14243733071E+03  0.14740503766E+03  0.79539629092E+02  0.21987087371E+03  0.10100000352E+00 0.  1.
</event>
<event>
 5   0  0.9177281E-02  0.5830247E+03  0.7818609E-02  0.9941264E-01
       -1   -1    0    0    0  501  0.00000000000E+00  0.00000000000E+00  0.13292238484E+03  0.13292238493E+03  0.50400001928E-02 0.  1.
        1   -1    0    0  501    0  0.00000000000E+00  0.00000000000E+00 -0.63931634093E+03  0.63931634095E+03  0.50400001928E-02 0. -1.
    10030    2    1    2    0    0  0.00000000000E+00  0.00000000000E+00 -0.50639395609E+03  0.77223872588E+03  0.58302470872E+03 0.  0.
        1    1    3    3  502    0 -0.85708330784E+02  0.46658870956E+02 -0.61703903634E+03  0.62470804428E+03  0.50400001928E-02 0. -1.
       -1    1    3    3    0  502  0.85708330784E+02 -0.46658870956E+02  0.11064508024E+03  0.14753068160E+03  0.50400001928E-02 0.  1.
</event>
<event>
 5   0  0.9177281E-02  0.5987410E+03  0.7818609E-02  0.9908022E-01
        1   -1    0    0  501    0  0.00000000000E+00  0.00000000000E+00  0.53835536314E+03  0.53835536316E+03  0.50400001928E-02 0. -1.
       -1   -1    0    0    0  501  0.00000000000E+00  0.00000000000E+00 -0.16647495588E+03  0.16647495596E+03  0.50400001928E-02 0.  1.
    10030    2    1    2    0    0  0.00000000000E+00  0.00000000000E+00  0.37188040725E+03  0.70483031912E+03  0.59874096357E+03 0.  0.
        1    1    3    3  502    0 -0.18392855045E+03 -0.11534015627E+03 -0.56713564299E+02  0.22438692413E+03  0.50400001928E-02 0.  1.
       -1    1    3    3    0  502  0.18392855045E+03  0.11534015627E+03  0.42859397155E+03  0.48044339499E+03  0.50400001928E-02 0. -1.
</event>
<event>
 5   0  0.9420349E-02  0.5865068E+03  0.7818609E-02  0.9933802E-01
       -1   -1    0    0    0  501  0.00000000000E+00  0.00000000000E+00  0.60011142666E+02  0.60011142878E+02  0.50400001928E-02 0.  1.
        1   -1    0    0  501    0  0.00000000000E+00  0.00000000000E+00 -0.14330264027E+04  0.14330264027E+04  0.50400001928E-02 0. -1.
    10030    2    1    2    0    0  0.00000000000E+00  0.00000000000E+00 -0.13730152600E+04  0.14930375456E+04  0.58650678448E+03 0.  0.
        2    1    3    3  502    0 -0.16941829877E+03 -0.22483249866E+03 -0.47743383620E+03  0.55425200078E+03  0.25500000920E-02 0.  1.
       -2    1    3    3    0  502  0.16941829877E+03  0.22483249866E+03 -0.89558142382E+03  0.93878554479E+03  0.25500000920E-02 0. -1.
</event>
<event>
 5   0  0.8860626E-02  0.5947167E+03  0.7818609E-02  0.9916428E-01
       -1   -1    0    0    0  501  0.00000000000E+00  0.00000000000E+00  0.11569133313E+03  0.11569133324E+03  0.50400001928E-02 0. -1.
        1   -1    0    0  501    0  0.00000000000E+00  0.00000000000E+00 -0.76429229379E+03  0.76429229381E+03  0.50400001928E-02 0.  1.
    10030    2    1    2    0    0  0.00000000000E+00  0.00000000000E+00 -0.64860096065E+03  0.87998362705E+03  0.59471672056E+03 0.  0.
        3    1    3    3  502    0 -0.23218066479E+03 -0.91258988113E+02 -0.84859565586E+02  0.26350943073E+03  0.10100000352E+00 0. -1.
       -3    1    3    3    0  502  0.23218066479E+03  0.91258988113E+02 -0.56374139507E+03  0.61647419632E+03  0.10100000352E+00 0.  1.
</event>
<event>
 5   0  0.1532571E-01  0.6632512E+03  0.7818609E-02  0.9782227E-01
       -2   -1    0    0    0  501  0.00000000000E+00  0.00000000000E+00  0.50065511127E+02  0.50065511192E+02  0.25500000920E-02 0. -1.
        2   -1    0    0  501    0  0.00000000000E+00  0.00000000000E+00 -0.21966327562E+04  0.21966327562E+04  0.25500000920E-02 0.  1.
    10030    2    1    2    0    0  0.00000000000E+00  0.00000000000E+00 -0.21465672450E+04  0.22466982674E+04  0.66325120964E+03 0.  0.
        1    1    3    3  502    0  0.17141700520E+02 -0.33109590376E+03 -0.10476630484E+04  0.10988704193E+04  0.50400001928E-02 0.  1.
       -1    1    3    3    0  502 -0.17141700520E+02  0.33109590376E+03 -0.10989041966E+04  0.11478278480E+04  0.50400001928E-02 0. -1.
</event>
<event>
 5   0  0.1513339E-01  0.6182660E+03  0.7818609E-02  0.9868218E-01
        2   -1    0    0  501    0  0.00000000000E+00  0.00000000000E+00  0.98625776158E+03  0.98625776158E+03  0.25500000920E-02 0. -1.
       -2   -1    0    0    0  501  0.00000000000E+00  0.00000000000E+00 -0.96894754992E+02  0.96894755026E+02  0.25500000920E-02 0.  1.
    10030    2    1    2    0    0  0.00000000000E+00  0.00000000000E+00  0.88936300659E+03  0.10831525166E+04  0.61826597573E+03 0.  0.
        3    1    3    3  502    0 -0.15954668854E+01  0.30901557203E+03  0.43002130169E+03  0.52953894982E+03  0.10100000352E+00 0. -1.
       -3    1    3    3    0  502  0.15954668854E+01 -0.30901557203E+03  0.45934170490E+03  0.55361356679E+03  0.10100000352E+00 0.  1.
</event>
<event>
 5   0  0.8860626E-02  0.5846548E+03  0.7818609E-02  0.9937764E-01
        1   -1    0    0  501    0  0.00000000000E+00  0.00000000000E+00  0.83586111757E+03  0.83586111759E+03  0.50400001928E-02 0.  1.
       -1   -1    0    0    0  501  0.00000000000E+00  0.00000000000E+00 -0.10223625419E+03  0.10223625431E+03  0.50400001928E-02 0. -1.
    10030    2    1    2    0    0  0.00000000000E+00  0.00000000000E+00  0.73362486339E+03  0.93809737190E+03  0.58465480327E+03 0.  0.
        3    1    3    3  502    0 -0.27348053136E+03  0.23210469560E+02  0.20535972658E+03  0.34278703947E+03  0.10100000352E+00 0. -1.
       -3    1    3    3    0  502  0.27348053136E+03 -0.23210469560E+02  0.52826513681E+03  0.59531033243E+03  0.10100000352E+00 0.  1.
</event>
<event>
 5   0  0.1488510E-01  0.6126463E+03  0.7818609E-02  0.9879511E-01
       -2   -1    0    0    0  501  0.00000000000E+00  0.00000000000E+00  0.24363106513E+03  0.24363106514E+03  0.25500000920E-02 0.  1.
        2   -1    0    0  501    0  0.00000000000E+00  0.00000000000E+00 -0.38514740983E+03  0.38514740984E+03  0.25500000920E-02 0. -1.
    10030    2    1    2    0    0  0.00000000000E+00  0.00000000000E+00 -0.14151634470E+03  0.62877847498E+03  0.61264630479E+03 0.  0.
        5    1    3    3  502    0 -0.11144607472E+03 -0.27742587533E+03 -0.24747735467E+01  0.29902099989E+03  0.46999998093E+01 0.  1.
       -5    1    3    3    0  502  0.11144607472E+03  0.27742587533E+03 -0.13904157116E+03  0.32975747509E+03  0.46999998093E+01 0. -1.
</event>
<event>
 5   0  0.9420349E-02  0.4850148E+03  0.7818609E-02  0.1017766E+00
        1   -1    0    0  501    0  0.00000000000E+00  0.00000000000E+00  0.60380929876E+03  0.60380929878E+03  0.50400001928E-02 0. -1.
       -1   -1    0    0    0  501  0.00000000000E+00  0.00000000000E+00 -0.97398035892E+02  0.97398036023E+02  0.50400001928E-02 0.  1.
    10030    2    1    2    0    0  0.00000000000E+00  0.00000000000E+00  0.50641126287E+03  0.70120733480E+03  0.48501480310E+03 0.  0.
        2    1    3    3  502    0 -0.12534130325E+03 -0.17323423104E+03  0.87800246026E+02  0.23114805713E+03  0.25500000920E-02 0.  1.
       -2    1    3    3    0  502  0.12534130325E+03  0.17323423104E+03  0.41861101684E+03  0.47005927768E+03  0.25500000920E-02 0. -1.
</event>
<event>
 5   0  0.9420349E-02  0.5749292E+03  0.7818609E-02  0.9958830E-01
       -1   -1    0    0    0  501  0.00000000000E+00  0.00000000000E+00  0.18264248129E+03  0.18264248136E+03  0.50400001928E-02 0.  1.
        1   -1    0    0  501    0  0.00000000000E+00  0.00000000000E+00 -0.45244612056E+03  0.45244612059E+03  0.50400001928E-02 0. -1.
    10030    2    1    2    0    0  0.00000000000E+00  0.00000000000E+00 -0.26980363927E+03  0.63508860195E+03  0.57492915091E+03 0.  0.
        2    1    3    3  502    0 -0.50737440975E+02 -0.61785759447E+02 -0.43991819119E+03  0.44712390110E+03  0.25500000920E-02 0. -1.
       -2    1    3    3    0  502  0.50737440975E+02  0.61785759447E+02  0.17011455192E+03  0.18796470085E+03  0.25500000920E-02 0.  1.
</event>
<event>
 5   0  0.9177281E-02  0.5343429E+03  0.7818609E-02  0.1005184E+00
        1   -1    0    0  501    0  0.00000000000E+00  0.00000000000E+00  0.37884529527E+03  0.37884529531E+03  0.50400001928E-02 0.  1.
       -1   -1    0    0    0  501  0.00000000000E+00  0.00000000000E+00 -0.18841614566E+03  0.18841614573E+03  0.50400001928E-02 0. -1.
    10030    2    1    2    0    0  0.00000000000E+00  0.00000000000E+00  0.19042914961E+03  0.56726144103E+03  0.53434285011E+03 0.  0.
        1    1    3    3  502    0 -0.69350573127E+01 -0.10592918368E+03 -0.16506613587E+03  0.19625472277E+03  0.50400001928E-02 0. -1.
       -1    1    3    3    0  502  0.69350573127E+01  0.10592918368E+03  0.35549528548E+03  0.37100671826E+03  0.50400001928E-02 0.  1.
</event>
<event>
 5   0  0.8860626E-02  0.5918291E+03  0.7818609E-02  0.9922505E-01
        1   -1    0    0  501    0  0.00000000000E+00  0.00000000000E+00  0.16589479599E+04  0.16589479599E+04  0.50400001928E-02 0. -1.
       -1   -1    0    0    0  501  0.00000000000E+00  0.00000000000E+00 -0.52783703246E+02  0.52783703487E+02  0.50400001928E-02 0.  1.
    10030    2    1    2    0    0  0.00000000000E+00  0.00000000000E+00  0.16061642567E+04  0.17117316634E+04  0.59182908691E+03 0.  0.
        3    1    3    3  502    0  0.14985941590E+03 -0.19936222993E+03  0.34247210520E+03  0.42366295129E+03  0.10100000352E+00 0.  1.
       -3    1    3    3    0  502 -0.14985941590E+03  0.19936222993E+03  0.12636921515E+04  0.12880687121E+04  0.10100000352E+00 0. -1.
</event>
<event>
 5   0  0.1488510E-01  0.6310402E+03  0.7818609E-02  0.9843021E-01
       -2   -1    0    0    0  501  0.00000000000E+00  0.00000000000E+00  0.12235650020E+03  0.12235650022E+03  0.25500000920E-02 0. -1.
        2   -1    0    0  501    0  0.00000000000E+00  0.00000000000E+00 -0.81363006251E+03  0.81363006251E+03  0.25500000920E-02 0.  1.
    10030    2    1    2    0    0  0.00000000000E+00  0.00000000000E+00 -0.69127356231E+03  0.93598656273E+03  0.63104017913E+03 0.  0.
        5    1    3    3  502    0  0.10260016609E+02  0.21177212384E+02 -0.81227462045E+03  0.81262899979E+03  0.46999998093E+01 0.  1.
       -5    1    3    3    0  502 -0.10260016609E+02 -0.21177212384E+02  0.12100105815E+03  0.12335756295E+03  0.46999998093E+01 0. -1.
</event>
<event>
 5   0  0.1483942E-01  0.5998404E+03  0.7818609E-02  0.9905737E-01
       -2   -1    0    0    0  501  0.00000000000E+00  0.00000000000E+00  0.54491199231E+02  0.54491199291E+02  0.25500000920E-02 0.  1.
        2   -1    0    0  501    0  0.00000000000E+00  0.00000000000E+00 -0.16507643787E+04  0.16507643787E+04  0.25500000920E-02 0. -1.
    10030    2    1    2    0    0  0.00000000000E+00  0.00000000000E+00 -0.15962731795E+04  0.17052555780E+04  0.59984041443E+03 0.  0.
        4    1    3    3  502    0 -0.41087931807E+02  0.54746236745E+02  0.31980842257E+02  0.75562925759E+02  0.12699999809E+01 0.  1.
       -4    1    3    3    0  502  0.41087931807E+02 -0.54746236745E+02 -0.16282540217E+04  0.16296926523E+04  0.12699999809E+01 0. -1.
</event>
<event>
 5   0  0.9497860E-02  0.4272530E+03  0.7818609E-02  0.1034731E+00
        1   -1    0    0  501    0  0.00000000000E+00  0.00000000000E+00  0.50223135807E+03  0.50223135809E+03  0.50400001928E-02 0. -1.
       -1   -1    0    0    0  501  0.00000000000E+00  0.00000000000E+00 -0.90867062973E+02  0.90867063113E+02  0.50400001928E-02 0.  1.
    10030    2    1    2    0    0  0.00000000000E+00  0.00000000000E+00  0.41136429510E+03  0.59309842121E+03  0.42725303271E+03 0.  0.
        5    1    3    3  502    0  0.16396394547E+03 -0.12517012260E+03  0.12886165748E+03  0.24326765460E+03  0.46999998093E+01 0. -1.
       -5    1    3    3    0  502 -0.16396394547E+03  0.12517012260E+03  0.28250263762E+03  0.34983076661E+03  0.46999998093E+01 0.  1.
</event>
<event>
 5   0  0.9497860E-02  0.5777836E+03  0.7818609E-02  0.9952601E-01
        1   -1    0    0  501    0  0.00000000000E+00  0.00000000000E+00  0.14034426429E+04  0.14034426429E+04  0.50400001928E-02 0.  1.
       -1   -1    0    0    0  501  0.00000000000E+00  0.00000000000E+00 -0.59466968570E+02  0.59466968784E+02  0.50400001928E-02 0. -1.
    10030    2    1    2    0    0  0.00000000000E+00  0.00000000000E+00  0.13439756743E+04  0.14629096116E+04  0.57778362627E+03 0.  0.
        5    1    3    3  502    0  0.14276645901E+03  0.14287454668E+03  0.11948243529E+04  0.12117849323E+04  0.46999998093E+01 0.  1.
       -5    1    3    3    0  502 -0.14276645901E+03 -0.14287454668E+03  0.14915132142E+03  0.25112467936E+03  0.46999998093E+01 0. -1.
</event>
<event>
 5   0  0.1532571E-01  0.5497505E+03  0.7818609E-02  0.1001552E+00
        2   -1    0    0  501    0  0.00000000000E+00  0.00000000000E+00  0.32001101607E+03  0.32001101608E+03  0.25500000920E-02 0.  1.
       -2   -1    0    0    0  501  0.00000000000E+00  0.00000000000E+00 -0.23610566149E+03  0.23610566150E+03  0.25500000920E-02 0. -1.
    10030    2    1    2    0    0  0.00000000000E+00  0.00000000000E+00  0.83905354581E+02  0.55611667758E+03  0.54975053484E+03 0.  0.
        1    1    3    3  502    0 -0.67759027785E+01  0.13869157163E+03  0.28192357753E+03  0.31426448812E+03  0.50400001928E-02 0.  1.
       -1    1    3    3    0  502  0.67759027785E+01 -0.13869157163E+03 -0.19801822295E+03  0.24185218946E+03  0.50400001928E-02 0. -1.
</event>
<event>
 5   0  0.1483942E-01  0.6074829E+03  0.7818609E-02  0.9890002E-01
       -2   -1    0    0    0  501  0.00000000000E+00  0.00000000000E+00  0.22208190211E+03  0.22208190212E+03  0.25500000920E-02 0. -1.
        2   -1    0    0  501    0  0.00000000000E+00  0.00000000000E+00 -0.41542720139E+03  0.41542720140E+03  0.25500000920E-02 0.  1.
    10030    2    1    2    0    0  0.00000000000E+00  0.00000000000E+00 -0.19334529928E+03  0.63750910353E+03  0.60748288233E+03 0.  0.
        4    1    3    3  502    0  0.14078455270E+03 -0.65881144705E+02  0.17717887979E+03  0.23570019909E+03  0.12699999809E+01 0. -1.
       -4    1    3    3    0  502 -0.14078455270E+03  0.65881144705E+02 -0.37052417907E+03  0.40180890444E+03  0.12699999809E+01 0.  1.
</event>
<event>
 5   0  0.1483942E-01  0.5871285E+03  0.7818609E-02  0.9932476E-01
       -2   -1    0    0    0  501  0.00000000000E+00  0.00000000000E+00  0.73589183268E+02  0.73589183313E+02  0.25500000920E-02 0. -1.
        2   -1    0    0  501    0  0.00000000000E+00  0.00000000000E+00 -0.11710954592E+04  0.11710954592E+04  0.25500000920E-02 0.  1.
    10030    2    1    2    0    0  0.00000000000E+00  0.00000000000E+00 -0.10975062759E+04  0.12446846425E+04  0.58712846431E+03 0.  0.
        4    1    3    3  502    0  0.14837885091E+03 -0.21622200641E+03 -0.82847531753E+03  0.86898860989E+03  0.12699999809E+01 0.  1.
       -4    1    3    3    0  502 -0.14837885091E+03  0.21622200641E+03 -0.26903095838E+03  0.37569603261E+03  0.12699999809E+01 0. -1.
</event>
<event>
 5   0  0.9411028E-02  0.6761468E+03  0.7818609E-02  0.9758917E-01
        1   -1    0    0  501    0  0.00000000000E+00  0.00000000000E+00  0.56290626631E+03  0.56290626634E+03  0.50400001928E-02 0.  1.
       -1   -1    0    0    0  501  0.00000000000E+00  0.00000000000E+00 -0.20304202539E+03  0.20304202545E+03  0.50400001928E-02 0. -1.
    10030    2    1    2    0    0  0.00000000000E+00  0.00000000000E+00  0.35986424092E+03  0.76594829179E+03  0.67614681379E+03 0.  0.
        4    1    3    3  502    0 -0.71006588097E+02 -0.25698296232E+02 -0.19336334796E+03  0.20758934273E+03  0.12699999809E+01 0. -1.
       -4    1    3    3    0  502  0.71006588097E+02  0.25698296232E+02  0.55322758888E+03  0.55835894905E+03  0.12699999809E+01 0.  1.
</event>
<event>
 5   0  0.8860626E-02  0.6038413E+03  0.7818609E-02  0.9897469E-01
        1   -1    0    0  501    0  0.00000000000E+00  0.00000000000E+00  0.98578940018E+03  0.98578940019E+03  0.50400001928E-02 0. -1.
       -1   -1    0    0    0  501  0.00000000000E+00  0.00000000000E+00 -0.92470131598E+02  0.92470131735E+02  0.50400001928E-02 0.  1.
    10030    2    1    2    0    0  0.00000000000E+00  0.00000000000E+00  0.89331926858E+03  0.10782595319E+04  0.60384128922E+03 0.  0.
        3    1    3    3  502    0 -0.26175214589E+03 -0.22659837725E+02  0.71228871423E+03  0.75919883874E+03  0.10100000352E+00 0. -1.
       -3    1    3    3    0  502  0.26175214589E+03  0.22659837725E+02  0.18103055435E+03  0.31906069318E+03  0.10100000352E+00 0.  1.
</event>
<event>
 5   0  0.9177281E-02  0.6109309E+03  0.7818609E-02  0.9882984E-01
       -1   -1    0    0    0  501  0.00000000000E+00  0.00000000000E+00  0.59069636224E+02  0.59069636439E+02  0.50400001928E-02 0.  1.
        1   -1    0    0  501    0  0.00000000000E+00  0.00000000000E+00 -0.15796466142E+04  0.15796466142E+04  0.50400001928E-02 0. -1.
    10030    2    1    2    0    0  0.00000000000E+00  0.00000000000E+00 -0.15205769780E+04  0.16387162507E+04  0.61093093242E+03 0.  0.
        1    1    3    3  502    0  0.19603466882E+03  0.22179514161E+03 -0.55801768287E+03  0.63166954228E+03  0.50400001928E-02 0.  1.
       -1    1    3    3    0  502 -0.19603466882E+03 -0.22179514161E+03 -0.96255929513E+03  0.10070467084E+04  0.50400001928E-02 0. -1.
</event>
<event>
 5   0  0.1483942E-01  0.5645544E+03  0.7818609E-02  0.9981802E-01
       -2   -1    0    0    0  501  0.00000000000E+00  0.00000000000E+00  0.44856752359E+02  0.44856752431E+02  0.25500000920E-02 0. -1.
        2   -1    0    0  501    0  0.00000000000E+00  0.00000000000E+00 -0.17763304881E+04  0.17763304882E+04  0.25500000920E-02 0.  1.
    10030    2    1    2    0    0  0.00000000000E+00  0.00000000000E+00 -0.17314737358E+04  0.18211872406E+04  0.56455439731E+03 0.  0.
        4    1    3    3  502    0 -0.12156490487E+03 -0.25228716784E+03 -0.97987861666E+03  0.10191126324E+04  0.12699999809E+01 0.  1.
       -4    1    3    3    0  502  0.12156490487E+03  0.25228716784E+03 -0.75159511913E+03  0.80207460822E+03  0.12699999809E+01 0. -1.
</event>
<event>
 5   0  0.9411028E-02  0.5890270E+03  0.7818609E-02  0.9928437E-01
       -1   -1    0    0    0  501  0.00000000000E+00  0.00000000000E+00  0.99023124080E+02  0.99023124208E+02  0.50400001928E-02 0.  1.
        1   -1    0    0  501    0  0.00000000000E+00  0.00000000000E+00 -0.87593889210E+03  0.87593889211E+03  0.50400001928E-02 0. -1.
    10030    2    1    2    0    0  0.00000000000E+00  0.00000000000E+00 -0.77691576802E+03  0.97496201632E+03  0.58902701353E+03 0.  0.
        4    1    3    3  502    0 -0.15299907175E+03  0.22432801441E+03 -0.19970020182E+03  0.33706610258E+03  0.12699999809E+01 0.  1.
       -4    1    3    3    0  502  0.15299907175E+03 -0.22432801441E+03 -0.57721556620E+03  0.63789591374E+03  0.12699999809E+01 0. -1.
</event>
<event>
 5   0  0.6170500E-02  0.6158259E+03  0.7818609E-02  0.9873106E-01
        3   -1    0    0  501    0  0.00000000000E+00  0.00000000000E+00  0.27259648591E+03  0.27259650462E+03  0.10100000352E+00 0. -1.
       -3   -1    0    0    0  501  0.00000000000E+00  0.00000000000E+00 -0.34780480377E+03  0.34780481843E+03  0.10100000352E+00 0.  1.
    10030    2    1    2    0    0  0.00000000000E+00  0.00000000000E+00 -0.75208317861E+02  0.62040132305E+03  0.61582587682E+03 0.  0.
        4    1    3    3  502    0  0.68633582625E+02  0.85405435004E+02  0.25229083938E+03  0.27505806210E+03  0.12699999809E+01 0. -1.
       -4    1    3    3    0  502 -0.68633582625E+02 -0.85405435004E+02 -0.32749915724E+03  0.34534326095E+03  0.12699999809E+01 0.  1.
</event>
<event>
 5   0  0.1532571E-01  0.7209831E+03  0.7818609E-02  0.9682006E-01
        2   -1    0    0  501    0  0.00000000000E+00  0.00000000000E+00  0.24958925171E+04  0.24958925171E+04  0.25500000920E-02 0. -1.
       -2   -1    0    0    0  501  0.00000000000E+00  0.00000000000E+00 -0.52067214018E+02  0.52067214081E+02  0.25500000920E-02 0.  1.
    10030    2    1    2    0    0  0.00000000000E+00  0.00000000000E+00  0.24438253031E+04  0.25479597312E+04  0.72098313416E+03 0.  0.
        1    1    3    3  502    0 -0.22142916893E+03 -0.73640576236E+02  0.25086182629E+03  0.34261562609E+03  0.50400001928E-02 0.  1.
       -1    1    3    3    0  502  0.22142916893E+03  0.73640576236E+02  0.21929634768E+04  0.22053441051E+04  0.50400001928E-02 0. -1.
</event>
<event>
 5   0  0.8860626E-02  0.5935576E+03  0.7818609E-02  0.9918863E-01
       -1   -1    0    0    0  501  0.00000000000E+00  0.00000000000E+00  0.19070557208E+03  0.19070557214E+03  0.50400001928E-02 0.  1.
        1   -1    0    0  501    0  0.00000000000E+00  0.00000000000E+00 -0.46185156258E+03  0.46185156261E+03  0.50400001928E-02 0. -1.
    10030    2    1    2    0    0  0.00000000000E+00  0.00000000000E+00 -0.27114599050E+03  0.65255713475E+03  0.59355763490E+03 0.  0.
        3    1    3    3  502    0  0.17534102882E+03 -0.65324946168E+02 -0.38883097186E+03  0.43151055591E+03  0.10100000352E+00 0. -1.
       -3    1    3    3    0  502 -0.17534102882E+03  0.65324946168E+02  0.11768498136E+03  0.22104657884E+03  0.10100000352E+00 0.  1.
</event>
<event>
 5   0  0.1513339E-01  0.6013893E+03  0.7818609E-02  0.9902528E-01
        2   -1    0    0  501    0  0.00000000000E+00  0.00000000000E+00  0.71904602797E+03  0.71904602798E+03  0.25500000920E-02 0.  1.
       -2   -1    0    0    0  501  0.00000000000E+00  0.00000000000E+00 -0.12574613726E+03  0.12574613728E+03  0.25500000920E-02 0. -1.
    10030    2    1    2    0    0  0.00000000000E+00  0.00000000000E+00  0.59329989072E+03  0.84479216526E+03  0.60138926010E+03 0.  0.
        3    1    3    3  502    0 -0.20992317810E+03 -0.21468849490E+03  0.27407084275E+03  0.40653871598E+03  0.10100000352E+00 0. -1.
       -3    1    3    3    0  502  0.20992317810E+03  0.21468849490E+03  0.31922904797E+03  0.43825344928E+03  0.10100000352E+00 0.  1.
</event>
<event>
 5   0  0.1532571E-01  0.6114518E+03  0.7818609E-02  0.9881928E-01
        2   -1    0    0  501    0  0.00000000000E+00  0.00000000000E+00  0.14939323297E+03  0.14939323299E+03  0.25500000920E-02 0.  1.
       -2   -1    0    0    0  501  0.00000000000E+00  0.00000000000E+00 -0.62565291665E+03  0.62565291666E+03  0.25500000920E-02 0. -1.
    10030    2    1    2    0    0  0.00000000000E+00  0.00000000000E+00 -0.47625968369E+03  0.77504614965E+03  0.61145175425E+03 0.  0.
        1    1    3    3  502    0  0.25050016020E+03 -0.90742376868E+02 -0.42819401058E+03  0.50431599215E+03  0.50400001928E-02 0.  1.
       -1    1    3    3    0  502 -0.25050016020E+03  0.90742376868E+02 -0.48065673105E+02  0.27073015749E+03  0.50400001928E-02 0. -1.
</event>
<event>
 5   0  0.8860626E-02  0.6031039E+03  0.7818609E-02  0.9898987E-01
        1   -1    0    0  501    0  0.00000000000E+00  0.00000000000E+00  0.22870885699E+03  0.22870885704E+03  0.50400001928E-02 0. -1.
       -1   -1    0    0    0  501  0.00000000000E+00  0.00000000000E+00 -0.39759538415E+03  0.39759538419E+03  0.50400001928E-02 0.  1.
    10030    2    1    2    0    0  0.00000000000E+00  0.00000000000E+00 -0.16888652717E+03  0.62630424123E+03  0.60310392431E+03 0.  0.
        3    1    3    3  502    0  0.15633716703E+03  0.14095098736E+03  0.13979153808E+03  0.25268592155E+03  0.10100000352E+00 0. -1.
       -3    1    3    3    0  502 -0.15633716703E+03 -0.14095098736E+03 -0.30867806525E+03  0.37361831968E+03  0.10100000352E+00 0.  1.
</event>
<event>
 5   0  0.9420349E-02  0.5827001E+03  0.7818609E-02  0.9941962E-01
       -1   -1    0    0    0  501  0.00000000000E+00  0.00000000000E+00  0.13237954140E+03  0.13237954150E+03  0.50400001928E-02 0. -1.
        1   -1    0    0  501    0  0.00000000000E+00  0.00000000000E+00 -0.64122331520E+03  0.64122331522E+03  0.50400001928E-02 0.  1.
    10030    2    1    2    0    0  0.00000000000E+00  0.00000000000E+00 -0.50884377380E+03  0.77360285672E+03  0.58270008906E+03 0.  0.
        2    1    3    3  502    0 -0.15146059480E+03  0.12431649053E+02 -0.58443564480E+03  0.60387074825E+03  0.25500000920E-02 0.  1.
       -2    1    3    3    0  502  0.15146059480E+03 -0.12431649053E+02  0.75591871001E+02  0.16973210846E+03  0.25500000920E-02 0. -1.
</event>
<event>
 5   0  0.1502642E-01  0.6037293E+03  0.7818609E-02  0.9897699E-01
        2   -1    0    0  501    0  0.00000000000E+00  0.00000000000E+00  0.27398319873E+03  0.27398319874E+03  0.25500000920E-02 0. -1.
       -2   -1    0    0    0  501  0.00000000000E+00  0.00000000000E+00 -0.33258344163E+03  0.33258344164E+03  0.25500000920E-02 0.  1.
    10030    2    1    2    0    0  0.00000000000E+00  0.00000000000E+00 -0.58600242896E+02  0.60656664038E+03  0.60372932740E+03 0.  0.
        2    1    3    3  502    0 -0.12247239558E+03 -0.93082781784E+02  0.23164802275E+03  0.27807318891E+03  0.25500000920E-02 0. -1.
       -2    1    3    3    0  502  0.12247239558E+03  0.93082781784E+02 -0.29024826564E+03  0.32849345147E+03  0.25500000920E-02 0.  1.
</event>
<event>
 5   0  0.1502642E-01  0.5608779E+03  0.7818609E-02  0.9990070E-01
       -2   -1    0    0    0  501  0.00000000000E+00  0.00000000000E+00  0.27453100576E+03  0.27453100578E+03  0.25500000920E-02 0. -1.
        2   -1    0    0  501    0  0.00000000000E+00  0.00000000000E+00 -0.28647405780E+03  0.28647405781E+03  0.25500000920E-02 0.  1.
    10030    2    1    2    0    0  0.00000000000E+00  0.00000000000E+00 -0.11943052038E+02  0.56100506359E+03  0.56087792333E+03 0.  0.
        2    1    3    3  502    0  0.15111699119E+03 -0.18799292048E+02 -0.24151642066E+03  0.28551696948E+03  0.25500000920E-02 0.  1.
       -2    1    3    3    0  502 -0.15111699119E+03  0.18799292048E+02  0.22957336862E+03  0.27548809411E+03  0.25500000920E-02 0. -1.
</event>
<event>
 5   0  0.9177281E-02  0.5861832E+03  0.7818609E-02  0.9934494E-01
        1   -1    0    0  501    0  0.00000000000E+00  0.00000000000E+00  0.12947098794E+03  0.12947098804E+03  0.50400001928E-02 0.  1.
       -1   -1    0    0    0  501  0.00000000000E+00  0.00000000000E+00 -0.66348982307E+03  0.66348982309E+03  0.50400001928E-02 0. -1.
    10030    2    1    2    0    0  0.00000000000E+00  0.00000000000E+00 -0.53401883513E+03  0.79296081112E+03  0.58618318954E+03 0.  0.
        1    1    3    3  502    0 -0.96212386385E+01 -0.13177156422E+03  0.86901185157E+02  0.15813958827E+03  0.50400001928E-02 0.  1.
       -1    1    3    3    0  502  0.96212386385E+01  0.13177156422E+03 -0.62092002029E+03  0.63482122286E+03  0.50400001928E-02 0. -1.
</event>
<event>
 5   0  0.6170500E-02  0.6087655E+03  0.7818609E-02  0.9887385E-01
        4   -1    0    0  501    0  0.00000000000E+00  0.00000000000E+00  0.21932631064E+03  0.21932998756E+03  0.12699999809E+01 0.  1.
       -4   -1    0    0    0  501  0.00000000000E+00  0.00000000000E+00 -0.42241657054E+03  0.42241847967E+03  0.12699999809E+01 0. -1.
    10030    2    1    2    0    0  0.00000000000E+00  0.00000000000E+00 -0.20309025989E+03  0.64174846722E+03  0.60876550618E+03 0.  0.
        3    1    3    3  502    0  0.10432825349E+03 -0.18172727053E+03 -0.33427711448E+03  0.39452551856E+03  0.10100000352E+00 0. -1.
       -3    1    3    3    0  502 -0.10432825349E+03  0.18172727053E+03  0.13118685459E+03  0.24722294866E+03  0.10100000352E+00 0.  1.
</event>
<event>
 5   0  0.1532571E-01  0.5951095E+03  0.7818609E-02  0.9915605E-01
       -2   -1    0    0    0  501  0.00000000000E+00  0.00000000000E+00  0.51007309910E+03  0.51007309911E+03  0.25500000920E-02 0.  1.
        2   -1    0    0  501    0  0.00000000000E+00  0.00000000000E+00 -0.17358064474E+03  0.17358064476E+03  0.25500000920E-02 0. -1.
    10030    2    1    2    0    0  0.00000000000E+00  0.00000000000E+00  0.33649245436E+03  0.68365374387E+03  0.59510946024E+03 0.  0.
        1    1    3    3  502    0  0.27520200614E+02  0.59586041689E+02  0.50165361312E+03  0.50592905174E+03  0.50400001928E-02 0.  1.
       -1    1    3    3    0  502 -0.27520200614E+02 -0.59586041689E+02 -0.16516115876E+03  0.17772469214E+03  0.50400001928E-02 0. -1.
</event>
<event>
 5   0  0.9411028E-02  0.5947291E+03  0.7818609E-02  0.9916402E-01
        1   -1    0    0  501    0  0.00000000000E+00  0.00000000000E+00  0.12788931843E+04  0.12788931843E+04  0.50400001928E-02 0. -1.
       -1   -1    0    0    0  501  0.00000000000E+00  0.00000000000E+00 -0.69142339126E+02  0.69142339309E+02  0.50400001928E-02 0.  1.
    10030    2    1    2    0    0  0.00000000000E+00  0.00000000000E+00  0.12097508452E+04  0.13480355236E+04  0.59472906903E+03 0.  0.
        4    1    3    3  502    0 -0.35460303125E+02  0.18630663920E+01 -0.64313321559E+02  0.73475984811E+02  0.12699999809E+01 0.  1.
       -4    1    3    3    0  502  0.35460303125E+02 -0.18630663920E+01  0.12740641668E+04  0.12745595388E+04  0.12699999809E+01 0. -1.
</event>
<event>
 5   0  0.1532571E-01  0.4175601E+03  0.7818609E-02  0.1037863E+00
       -2   -1    0    0    0  501  0.00000000000E+00  0.00000000000E+00  0.91035891375E+02  0.91035891411E+02  0.25500000920E-02 0. -1.
        2   -1    0    0  501    0  0.00000000000E+00  0.00000000000E+00 -0.47881226620E+03  0.47881226621E+03  0.25500000920E-02 0.  1.
    10030    2    1    2    0    0  0.00000000000E+00  0.00000000000E+00 -0.38777637482E+03  0.56984815762E+03  0.41756006259E+03 0.  0.
        1    1    3    3  502    0 -0.10206164076E+03 -0.18129810393E+03 -0.21766393410E+03  0.30110325345E+03  0.50400001928E-02 0.  1.
       -1    1    3    3    0  502  0.10206164076E+03  0.18129810393E+03 -0.17011244073E+03  0.26874490417E+03  0.50400001928E-02 0. -1.
</event>
<event>
 5   0  0.9177281E-02  0.5999067E+03  0.7818609E-02  0.9905600E-01
        1   -1    0    0  501    0  0.00000000000E+00  0.00000000000E+00  0.13410234624E+03  0.13410234633E+03  0.50400001928E-02 0.  1.
       -1   -1    0    0    0  501  0.00000000000E+00  0.00000000000E+00 -0.67092041960E+03  0.67092041962E+03  0.50400001928E-02 0. -1.
    10030    2    1    2    0    0  0.00000000000E+00  0.00000000000E+00 -0.53681807336E+03  0.80502276595E+03  0.59990666758E+03 0.  0.
        1    1    3    3  502    0  0.21083366016E+03 -0.18470307334E+03 -0.41172352832E+03  0.49807862970E+03  0.50400001928E-02 0. -1.
       -1    1    3    3    0  502 -0.21083366016E+03  0.18470307334E+03 -0.12509454504E+03  0.30694413626E+03  0.50400001928E-02 0.  1.
</event>
<event>
 5   0  0.1483942E-01  0.6233573E+03  0.7818609E-02  0.9858098E-01
       -2   -1    0    0    0  501  0.00000000000E+00  0.00000000000E+00  0.21761467833E+03  0.21761467835E+03  0.25500000920E-02 0.  1.
        2   -1    0    0  501    0  0.00000000000E+00  0.00000000000E+00 -0.44640172937E+03  0.44640172937E+03  0.25500000920E-02 0. -1.
    10030    2    1    2    0    0  0.00000000000E+00  0.00000000000E+00 -0.22878705104E+03  0.66401640772E+03  0.62335726113E+03 0.  0.
        4    1    3    3  502    0 -0.13528085475E+03 -0.12256966010E+03 -0.38349274986E+03  0.42472642175E+03  0.12699999809E+01 0. -1.
       -4    1    3    3    0  502  0.13528085475E+03  0.12256966010E+03  0.15470569882E+03  0.23928998597E+03  0.12699999809E+01 0.  1.
</event>
<event>
 5   0  0.9497860E-02  0.6013042E+03  0.7818609E-02  0.9902704E-01
       -1   -1    0    0    0  501  0.00000000000E+00  0.00000000000E+00  0.94747792624E+02  0.94747792758E+02  0.50400001928E-02 0.  1.
        1   -1    0    0  501    0  0.00000000000E+00  0.00000000000E+00 -0.95402407291E+03  0.95402407292E+03  0.50400001928E-02 0. -1.
    10030    2    1    2    0    0  0.00000000000E+00  0.00000000000E+00 -0.85927628029E+03  0.10487718657E+04  0.60130416628E+03 0.  0.
        5    1    3    3  502    0 -0.27080098539E+03  0.12463622836E+03 -0.49723925726E+03  0.57977265550E+03  0.46999998093E+01 0. -1.
       -5    1    3    3    0  502  0.27080098539E+03 -0.12463622836E+03 -0.36203702303E+03  0.46899921018E+03  0.46999998093E+01 0.  1.
</event>
<event>
 5   0  0.1513339E-01  0.6104128E+03  0.7818609E-02  0.9884035E-01
       -2   -1    0    0    0  501  0.00000000000E+00  0.00000000000E+00  0.44439430615E+03  0.44439430615E+03  0.25500000920E-02 0.  1.
        2   -1    0    0  501    0  0.00000000000E+00  0.00000000000E+00 -0.20961328626E+03  0.20961328628E+03  0.25500000920E-02 0. -1.
    10030    2    1    2    0    0  0.00000000000E+00  0.00000000000E+00  0.23478101988E+03  0.65400759243E+03  0.61041281414E+03 0.  0.
        3    1    3    3  502    0  0.55736604280E+02 -0.93230106626E+02 -0.18820336845E+03  0.21729919451E+03  0.10100000352E+00 0. -1.
       -3    1    3    3    0  502 -0.55736604280E+02  0.93230106626E+02  0.42298438834E+03  0.43670839792E+03  0.10100000352E+00 0.  1.
</event>
<event>
 5   0  0.1502642E-01  0.6106809E+03  0.7818609E-02  0.9883491E-01
       -2   -1    0    0    0  501  0.00000000000E+00  0.00000000000E+00  0.14418687729E+03  0.14418687731E+03  0.25500000920E-02 0. -1.
        2   -1    0    0  501    0  0.00000000000E+00  0.00000000000E+00 -0.64661073054E+03  0.64661073054E+03  0.25500000920E-02 0.  1.
    10030    2    1    2    0    0  0.00000000000E+00  0.00000000000E+00 -0.50242385325E+03  0.79079760785E+03  0.61068087269E+03 0.  0.
        2    1    3    3  502    0 -0.21770843141E+03 -0.10696187448E+03 -0.49137075139E+03  0.54798085644E+03  0.25500000920E-02 0.  1.
       -2    1    3    3    0  502  0.21770843141E+03  0.10696187448E+03 -0.11053101866E+02  0.24281675141E+03  0.25500000920E-02 0. -1.
</event>
<event>
 5   0  0.1532571E-01  0.6033481E+03  0.7818609E-02  0.9898484E-01
        2   -1    0    0  501    0  0.00000000000E+00  0.00000000000E+00  0.91770537213E+03  0.91770537214E+03  0.25500000920E-02 0.  1.
       -2   -1    0    0    0  501  0.00000000000E+00  0.00000000000E+00 -0.99168249849E+02  0.99168249882E+02  0.25500000920E-02 0. -1.
    10030    2    1    2    0    0  0.00000000000E+00  0.00000000000E+00  0.81853712229E+03  0.10168736220E+04  0.60334811063E+03 0.  0.
        1    1    3    3  502    0  0.48399884819E+02 -0.27430565783E+03  0.21401769672E+03  0.35126872519E+03  0.50400001928E-02 0. -1.
       -1    1    3    3    0  502 -0.48399884819E+02  0.27430565783E+03  0.60451942557E+03  0.66560489683E+03  0.50400001928E-02 0.  1.
</event>
<event>
 5   0  0.9420349E-02  0.7354214E+03  0.7818609E-02  0.9658504E-01
       -1   -1    0    0    0  501  0.00000000000E+00  0.00000000000E+00  0.12990885859E+03  0.12990885869E+03  0.50400001928E-02 0. -1.
        1   -1    0    0  501    0  0.00000000000E+00  0.00000000000E+00 -0.10408156320E+04  0.10408156320E+04  0.50400001928E-02 0.  1.
    10030    2    1    2    0    0  0.00000000000E+00  0.00000000000E+00 -0.91090677343E+03  0.11707244907E+04  0.73542143244E+03 0.  0.
        2    1    3    3  502    0 -0.10871565654E+03  0.19926215917E+03 -0.91597133543E+03  0.94367790553E+03  0.25500000920E-02 0.  1.
       -2    1    3    3    0  502  0.10871565654E+03 -0.19926215917E+03  0.50645619969E+01  0.22704658519E+03  0.25500000920E-02 0. -1.
</event>
<event>
 5   0  0.1502642E-01  0.6037192E+03  0.7818609E-02  0.9897720E-01
        2   -1    0    0  501    0  0.00000000000E+00  0.00000000000E+00  0.55524496578E+03  0.55524496579E+03  0.25500000920E-02 0. -1.
       -2   -1    0    0    0  501  0.00000000000E+00  0.00000000000E+00 -0.16410631633E+03  0.16410631635E+03  0.25500000920E-02 0.  1.
    10030    2    1    2    0    0  0.00000000000E+00  0.00000000000E+00  0.39113864945E+03  0.71935128213E+03  0.60371915988E+03 0.  0.
        2    1    3    3  502    0 -0.16146630409E+03 -0.17188816552E+03 -0.28939951909E+02  0.23760140914E+03  0.25500000920E-02 0.  1.
       -2    1    3    3    0  502  0.16146630409E+03  0.17188816552E+03  0.42007860136E+03  0.48174987299E+03  0.25500000920E-02 0. -1.
</event>
<event>
 5   0  0.8860626E-02  0.5823610E+03  0.7818609E-02  0.9942692E-01
        1   -1    0    0  501    0  0.00000000000E+00  0.00000000000E+00  0.21715376261E+03  0.21715376267E+03  0.50400001928E-02 0.  1.
       -1   -1    0    0    0  501  0.00000000000E+00  0.00000000000E+00 -0.39044267131E+03  0.39044267135E+03  0.50400001928E-02 0. -1.
    10030    2    1    2    0    0  0.00000000000E+00  0.00000000000E+00 -0.17328890870E+03  0.60759643402E+03  0.58236103986E+03 0.  0.
        3    1    3    3  502    0  0.14822824534E+03 -0.10417364393E+02 -0.34790707699E+03  0.37831135143E+03  0.10100000352E+00 0. -1.
       -3    1    3    3    0  502 -0.14822824534E+03  0.10417364393E+02  0.17461816829E+03  0.22928508259E+03  0.10100000352E+00 0.  1.
</event>
<event>
 5   0  0.9420349E-02  0.6282451E+03  0.7818609E-02  0.9848479E-01
        1   -1    0    0  501    0  0.00000000000E+00  0.00000000000E+00  0.91816836873E+03  0.91816836875E+03  0.50400001928E-02 0. -1.
       -1   -1    0    0    0  501  0.00000000000E+00  0.00000000000E+00 -0.10746720646E+03  0.10746720658E+03  0.50400001928E-02 0.  1.
    10030    2    1    2    0    0  0.00000000000E+00  0.00000000000E+00  0.81070116228E+03  0.10256355753E+04  0.62824514233E+03 0.  0.
        2    1    3    3  502    0  0.12768968142E+03 -0.18318517510E+03  0.76603313196E+03  0.79791492177E+03  0.25500000920E-02 0. -1.
       -2    1    3    3    0  502 -0.12768968142E+03  0.18318517510E+03  0.44668030314E+02  0.22772065355E+03  0.25500000920E-02 0.  1.
</event>
<event>
 5   0  0.9420349E-02  0.5994909E+03  0.7818609E-02  0.9906463E-01
       -1   -1    0    0    0  501  0.00000000000E+00  0.00000000000E+00  0.36116702210E+03  0.36116702214E+03  0.50400001928E-02 0. -1.
        1   -1    0    0  501    0  0.00000000000E+00  0.00000000000E+00 -0.24876949264E+03  0.24876949269E+03  0.50400001928E-02 0.  1.
    10030    2    1    2    0    0  0.00000000000E+00  0.00000000000E+00  0.11239752946E+03  0.60993651483E+03  0.59949090693E+03 0.  0.
        2    1    3    3  502    0 -0.26672586654E+03 -0.77951154450E+02  0.17053237126E+03  0.32603735985E+03  0.25500000920E-02 0. -1.
       -2    1    3    3    0  502  0.26672586654E+03  0.77951154450E+02 -0.58134841798E+02  0.28389915498E+03  0.25500000920E-02 0.  1.
</event>
<event>
 5   0  0.9497860E-02  0.5981568E+03  0.7818609E-02  0.9909237E-01
        1   -1    0    0  501    0  0.00000000000E+00  0.00000000000E+00  0.14994807370E+03  0.14994807378E+03  0.50400001928E-02 0.  1.
       -1   -1    0    0    0  501  0.00000000000E+00  0.00000000000E+00 -0.59652586298E+03  0.59652586300E+03  0.50400001928E-02 0. -1.
    10030    2    1    2    0    0  0.00000000000E+00  0.00000000000E+00 -0.44657778929E+03  0.74647393678E+03  0.59815684934E+03 0.  0.
        5    1    3    3  502    0 -0.21729095350E+03 -0.12512480399E+03 -0.42664934695E+03  0.49489729268E+03  0.46999998093E+01 0. -1.
       -5    1    3    3    0  502  0.21729095350E+03  0.12512480399E+03 -0.19928442336E+02  0.25157664411E+03  0.46999998093E+01 0.  1.
</event>
<event>
 5   0  0.1532571E-01  0.6110133E+03  0.7818609E-02  0.9882817E-01
        2   -1    0    0  501    0  0.00000000000E+00  0.00000000000E+00  0.12269373163E+04  0.12269373163E+04  0.25500000920E-02 0. -1.
       -2   -1    0    0    0  501  0.00000000000E+00  0.00000000000E+00 -0.76070967287E+02  0.76070967330E+02  0.25500000920E-02 0.  1.
    10030    2    1    2    0    0  0.00000000000E+00  0.00000000000E+00  0.11508663490E+04  0.13030082836E+04  0.61101328457E+03 0.  0.
        1    1    3    3  502    0 -0.19722871129E+03 -0.18333564452E+03  0.26770298354E+03  0.37970516263E+03  0.50400001928E-02 0.  1.
       -1    1    3    3    0  502  0.19722871129E+03  0.18333564452E+03  0.88316336545E+03  0.92330312098E+03  0.50400001928E-02 0. -1.
</event>
<event>
 5   0  0.1483942E-01  0.6017283E+03  0.7818609E-02  0.9901827E-01
        2   -1    0    0  501    0  0.00000000000E+00  0.00000000000E+00  0.72194592962E+03  0.72194592962E+03  0.25500000920E-02 0.  1.
       -2   -1    0    0    0  501  0.00000000000E+00  0.00000000000E+00 -0.12538228228E+03  0.12538228230E+03  0.25500000920E-02 0. -1.
    10030    2    1    2    0    0  0.00000000000E+00  0.00000000000E+00  0.59656364734E+03  0.84732821193E+03  0.60172827206E+03 0.  0.
        4    1    3    3  502    0  0.22274854182E+03 -0.15343524555E+03  0.48380800023E+03  0.55428429659E+03  0.12699999809E+01 0.  1.
       -4    1    3    3    0  502 -0.22274854182E+03  0.15343524555E+03  0.11275564711E+03  0.29304391534E+03  0.12699999809E+01 0. -1.
</event>
<event>
 5   0  0.1513339E-01  0.6023585E+03  0.7818609E-02  0.9900525E-01
       -2   -1    0    0    0  501  0.00000000000E+00  0.00000000000E+00  0.22600779137E+03  0.22600779138E+03  0.25500000920E-02 0. -1.
        2   -1    0    0  501    0  0.00000000000E+00  0.00000000000E+00 -0.40135310095E+03  0.40135310095E+03  0.25500000920E-02 0.  1.
    10030    2    1    2    0    0  0.00000000000E+00  0.00000000000E+00 -0.17534530958E+03  0.62736089234E+03  0.60235845777E+03 0.  0.
        3    1    3    3  502    0 -0.29850430634E+02 -0.23917345767E+03  0.10041659536E+03  0.26111011831E+03  0.10100000352E+00 0. -1.
       -3    1    3    3    0  502  0.29850430634E+02  0.23917345767E+03 -0.27576190493E+03  0.36625077402E+03  0.10100000352E+00 0.  1.
</event>
<event>
 5   0  0.6170500E-02  0.6336010E+03  0.7818609E-02  0.9838047E-01
       -4   -1    0    0    0  501  0.00000000000E+00  0.00000000000E+00  0.30697220533E+03  0.30697483243E+03  0.12699999809E+01 0.  1.
        4   -1    0    0  501    0  0.00000000000E+00  0.00000000000E+00 -0.32693816612E+03  0.32694063278E+03  0.12699999809E+01 0. -1.
    10030    2    1    2    0    0  0.00000000000E+00  0.00000000000E+00 -0.19965960788E+02  0.63391546521E+03  0.63360096074E+03 0.  0.
        3    1    3    3  502    0 -0.27861637932E+03  0.12477722130E+03  0.74711814627E+02  0.31429016406E+03  0.10100000352E+00 0. -1.
       -3    1    3    3    0  502  0.27861637932E+03 -0.12477722130E+03 -0.94677775415E+02  0.31962530115E+03  0.10100000352E+00 0.  1.
</event>
<event>
 5   0  0.1488510E-01  0.6030647E+03  0.7818609E-02  0.9899068E-01
       -2   -1    0    0    0  501  0.00000000000E+00  0.00000000000E+00  0.11521032531E+03  0.11521032534E+03  0.25500000920E-02 0. -1.
        2   -1    0    0  501    0  0.00000000000E+00  0.00000000000E+00 -0.78918054516E+03  0.78918054516E+03  0.25500000920E-02 0.  1.
    10030    2    1    2    0    0  0.00000000000E+00  0.00000000000E+00 -0.67397021985E+03  0.90439087050E+03  0.60306466436E+03 0.  0.
        5    1    3    3  502    0 -0.25548293083E+03  0.12483695916E+03 -0.18669075177E+03  0.34019306447E+03  0.46999998093E+01 0. -1.
       -5    1    3    3    0  502  0.25548293083E+03 -0.12483695916E+03 -0.48727946808E+03  0.56419780603E+03  0.46999998093E+01 0.  1.
</event>
<event>
 5   0  0.9497860E-02  0.6174455E+03  0.7818609E-02  0.9869859E-01
       -1   -1    0    0    0  501  0.00000000000E+00  0.00000000000E+00  0.45269151187E+02  0.45269151468E+02  0.50400001928E-02 0.  1.
        1   -1    0    0  501    0  0.00000000000E+00  0.00000000000E+00 -0.21054016097E+04  0.21054016097E+04  0.50400001928E-02 0. -1.
    10030    2    1    2    0    0  0.00000000000E+00  0.00000000000E+00 -0.20601324585E+04  0.21506707611E+04  0.61744552500E+03 0.  0.
        5    1    3    3  502    0 -0.20540302874E+03 -0.18712695986E+03 -0.14984302367E+04  0.15239823383E+04  0.46999998093E+01 0. -1.
       -5    1    3    3    0  502  0.20540302874E+03  0.18712695986E+03 -0.56170222178E+03  0.62668842280E+03  0.46999998093E+01 0.  1.
</event>
<event>
 5   0  0.9497860E-02  0.5982864E+03  0.7818609E-02  0.9908968E-01
        1   -1    0    0  501    0  0.00000000000E+00  0.00000000000E+00  0.34013096053E+03  0.34013096056E+03  0.50400001928E-02 0.  1.
       -1   -1    0    0    0  501  0.00000000000E+00  0.00000000000E+00 -0.26309468696E+03  0.26309468701E+03  0.50400001928E-02 0. -1.
    10030    2    1    2    0    0  0.00000000000E+00  0.00000000000E+00  0.77036273570E+02  0.60322564757E+03  0.59828638163E+03 0.  0.
        5    1    3    3  502    0  0.20906764877E+03  0.31577891780E+02 -0.17478958045E+03  0.27437188712E+03  0.46999998093E+01 0. -1.
       -5    1    3    3    0  502 -0.20906764877E+03 -0.31577891780E+02  0.25182585402E+03  0.32885376045E+03  0.46999998093E+01 0.  1.
</event>
<event>
 5   0  0.9411028E-02  0.5982577E+03  0.7818609E-02  0.9909027E-01
       -1   -1    0    0    0  501  0.00000000000E+00  0.00000000000E+00  0.35761057767E+03  0.35761057771E+03  0.50400001928E-02 0. -1.
        1   -1    0    0  501    0  0.00000000000E+00  0.00000000000E+00 -0.25021090736E+03  0.25021090741E+03  0.50400001928E-02 0.  1.
    10030    2    1    2    0    0  0.00000000000E+00  0.00000000000E+00  0.10739967032E+03  0.60782148512E+03  0.59825769413E+03 0.  0.
        4    1    3    3  502    0  0.23145598765E+03 -0.18372535463E+03  0.65951652958E+01  0.29558753231E+03  0.12699999809E+01 0.  1.
       -4    1    3    3    0  502 -0.23145598765E+03  0.18372535463E+03  0.10080450502E+03  0.31223395281E+03  0.12699999809E+01 0. -1.
</event>
<event>
 5   0  0.9177281E-02  0.5954786E+03  0.7818609E-02  0.9914831E-01
        1   -1    0    0  501    0  0.00000000000E+00  0.00000000000E+00  0.13753730136E+03  0.13753730145E+03  0.50400001928E-02 0. -1.
       -1   -1    0    0    0  501  0.00000000000E+00  0.00000000000E+00 -0.64454284870E+03  0.64454284872E+03  0.50400001928E-02 0.  1.
    10030    2    1    2    0    0  0.00000000000E+00  0.00000000000E+00 -0.50700554734E+03  0.78208015017E+03  0.59547857749E+03 0.  0.
        1    1    3    3  502    0 -0.64582363153E+02  0.18336842905E+03  0.42671218139E+02  0.19903691940E+03  0.50400001928E-02 0. -1.
       -1    1    3    3    0  502  0.64582363153E+02 -0.18336842905E+03 -0.54967676548E+03  0.58304323076E+03  0.50400001928E-02 0.  1.
</event>
<event>
 5   0  0.1483942E-01  0.5938033E+03  0.7818609E-02  0.9918346E-01
       -2   -1    0    0    0  501  0.00000000000E+00  0.00000000000E+00  0.14997209889E+03  0.14997209892E+03  0.25500000920E-02 0. -1.
        2   -1    0    0  501    0  0.00000000000E+00  0.00000000000E+00 -0.58777985542E+03  0.58777985543E+03  0.25500000920E-02 0.  1.
    10030    2    1    2    0    0  0.00000000000E+00  0.00000000000E+00 -0.43780775653E+03  0.73775195434E+03  0.59380326242E+03 0.  0.
        4    1    3    3  502    0  0.10632285372E+03  0.70318561514E+02 -0.55204740425E+03  0.56657497187E+03  0.12699999809E+01 0.  1.
       -4    1    3    3    0  502 -0.10632285372E+03 -0.70318561514E+02  0.11423964772E+03  0.17117698247E+03  0.12699999809E+01 0. -1.
</event>
<event>
 5   0  0.1488510E-01  0.5813670E+03  0.7818609E-02  0.9944836E-01
        2   -1    0    0  501    0  0.00000000000E+00  0.00000000000E+00  0.98584774324E+03  0.98584774325E+03  0.25500000920E-02 0. -1.
       -2   -1    0    0    0  501  0.00000000000E+00  0.00000000000E+00 -0.85709877389E+02  0.85709877427E+02  0.25500000920E-02 0.  1.
    10030    2    1    2    0    0  0.00000000000E+00  0.00000000000E+00  0.90013786585E+03  0.10715576207E+04  0.58136697264E+03 0.  0.
        5    1    3    3  502    0 -0.11666039764E+03  0.77894128872E+02  0.91925468977E+03  0.92990774723E+03  0.46999998093E+01 0. -1.
       -5    1    3    3    0  502  0.11666039764E+03 -0.77894128872E+02 -0.19116823920E+02  0.14164987344E+03  0.46999998093E+01 0.  1.
</event>
<event>
 5   0  0.9497860E-02  0.5643067E+03  0.7818609E-02  0.9982357E-01
       -1   -1    0    0    0  501  0.00000000000E+00  0.00000000000E+00  0.12865285334E+03  0.12865285344E+03  0.50400001928E-02 0. -1.
        1   -1    0    0  501    0  0.00000000000E+00  0.00000000000E+00 -0.61880097972E+03  0.61880097974E+03  0.50400001928E-02 0.  1.
    10030    2    1    2    0    0  0.00000000000E+00  0.00000000000E+00 -0.49014812638E+03  0.74745383318E+03  0.56430669581E+03 0.  0.
        5    1    3    3  502    0  0.30158951653E+02  0.26884922879E+03 -0.35102958164E+03  0.44320799561E+03  0.46999998093E+01 0.  1.
       -5    1    3    3    0  502 -0.30158951653E+02 -0.26884922879E+03 -0.13911854475E+03  0.30424583757E+03  0.46999998093E+01 0. -1.
</event>
<event>
 5   0  0.1532571E-01  0.6492412E+03  0.7818609E-02  0.9808204E-01
        2   -1    0    0  501    0  0.00000000000E+00  0.00000000000E+00  0.10391965553E+04  0.10391965553E+04  0.25500000920E-02 0. -1.
       -2   -1    0    0    0  501  0.00000000000E+00  0.00000000000E+00 -0.10140386554E+03  0.10140386557E+03  0.25500000920E-02 0.  1.
    10030    2    1    2    0    0  0.00000000000E+00  0.00000000000E+00  0.93779268976E+03  0.11406004209E+04  0.64924124262E+03 0.  0.
        1    1    3    3  502    0  0.15864964139E+03 -0.60791340573E+02 -0.17058322323E+02  0.17075210742E+03  0.50400001928E-02 0.  1.
       -1    1    3    3    0  502 -0.15864964139E+03  0.60791340573E+02  0.95485101208E+03  0.96984831345E+03  0.50400001928E-02 0. -1.
</event>
<event>
 5   0  0.1502642E-01  0.5977382E+03  0.7818609E-02  0.9910110E-01
        2   -1    0    0  501    0  0.00000000000E+00  0.00000000000E+00  0.19803565752E+04  0.19803565752E+04  0.25500000920E-02 0.  1.
       -2   -1    0    0    0  501  0.00000000000E+00  0.00000000000E+00 -0.45104370254E+02  0.45104370326E+02  0.25500000920E-02 0. -1.
    10030    2    1    2    0    0  0.00000000000E+00  0.00000000000E+00  0.19352522050E+04  0.20254609456E+04  0.59773819111E+03 0.  0.
        2    1    3    3  502    0  0.10591922007E+03  0.68982755688E+02  0.49930143297E+02  0.13590629485E+03  0.25500000920E-02 0. -1.
       -2    1    3    3    0  502 -0.10591922007E+03 -0.68982755688E+02  0.18853220617E+04  0.18895546507E+04  0.25500000920E-02 0.  1.
</event>
<event>
 5   0  0.1502642E-01  0.6048112E+03  0.7818609E-02  0.9895474E-01
        2   -1    0    0  501    0  0.00000000000E+00  0.00000000000E+00  0.70222607273E+03  0.70222607273E+03  0.25500000920E-02 0.  1.
       -2   -1    0    0    0  501  0.00000000000E+00  0.00000000000E+00 -0.13022751201E+03  0.13022751203E+03  0.25500000920E-02 0. -1.
    10030    2    1    2    0    0  0.00000000000E+00  0.00000000000E+00  0.57199856072E+03  0.83245358476E+03  0.60481122453E+03 0.  0.
        2    1    3    3  502    0  0.28864283349E+03  0.81820719654E+02  0.23377203425E+03  0.38034021546E+03  0.25500000920E-02 0.  1.
       -2    1    3    3    0  502 -0.28864283349E+03 -0.81820719654E+02  0.33822652647E+03  0.45211336931E+03  0.25500000920E-02 0. -1.
</event>
<event>
 5   0  0.9411028E-02  0.5979677E+03  0.7818609E-02  0.9909631E-01
        1   -1    0    0  501    0  0.00000000000E+00  0.00000000000E+00  0.29814241674E+03  0.29814241678E+03  0.50400001928E-02 0.  1.
       -1   -1    0    0    0  501  0.00000000000E+00  0.00000000000E+00 -0.29982766904E+03  0.29982766908E+03  0.50400001928E-02 0. -1.
    10030    2    1    2    0    0  0.00000000000E+00  0.00000000000E+00 -0.16852522955E+01  0.59797008587E+03  0.59796771110E+03 0.  0.
        4    1    3    3  502    0  0.25489244515E+03  0.14182277908E+03 -0.66462043387E+02  0.29916997739E+03  0.12699999809E+01 0. -1.
       -4    1    3    3    0  502 -0.25489244515E+03 -0.14182277908E+03  0.64776791091E+02  0.29880010847E+03  0.12699999809E+01 0.  1.
</event>
<event>
 5   0  0.9177281E-02  0.5920434E+03  0.7818609E-02  0.9922052E-01
        1   -1    0    0  501    0  0.00000000000E+00  0.00000000000E+00  0.13489000306E+04  0.13489000306E+04  0.50400001928E-02 0. -1.
       -1   -1    0    0    0  501  0.00000000000E+00  0.00000000000E+00 -0.64963198654E+02  0.64963198849E+02  0.50400001928E-02 0.  1.
    10030    2    1    2    0    0  0.00000000000E+00  0.00000000000E+00  0.12839368319E+04  0.14138632294E+04  0.59204344704E+03 0.  0.
        1    1    3    3  502    0  0.82021620783E+02 -0.60303465672E+02 -0.21842946615E+02  0.10412093253E+03  0.50400001928E-02 0.  1.
       -1    1    3    3    0  502 -0.82021620783E+02  0.60303465672E+02  0.13057797785E+04  0.13097422969E+04  0.50400001928E-02 0. -1.
</event>
<event>
 5   0  0.1488510E-01  0.6025533E+03  0.7818609E-02  0.9900123E-01
       -2   -1    0    0    0  501  0.00000000000E+00  0.00000000000E+00  0.23193623277E+03  0.23193623278E+03  0.25500000920E-02 0.  1.
        2   -1    0    0  501    0  0.00000000000E+00  0.00000000000E+00 -0.39134736412E+03  0.39134736413E+03  0.25500000920E-02 0. -1.
    10030    2    1    2    0    0  0.00000000000E+00  0.00000000000E+00 -0.15941113135E+03  0.62328359691E+03  0.60255334484E+03 0.  0.
        5    1    3    3  502    0 -0.27576283731E+03 -0.29103422556E+02 -0.20145536470E+03  0.34278055022E+03  0.46999998093E+01 0. -1.
       -5    1    3    3    0  502  0.27576283731E+03  0.29103422556E+02  0.42044233348E+02  0.28050304669E+03  0.46999998093E+01 0.  1.
</event>
<event>
 5   0  0.9497860E-02  0.6032550E+03  0.7818609E-02  0.9898676E-01
       -1   -1    0    0    0  501  0.00000000000E+00  0.00000000000E+00  0.63027550577E+03  0.63027550579E+03  0.50400001928E-02 0.  1.
        1   -1    0    0  501    0  0.00000000000E+00  0.00000000000E+00 -0.14434824543E+03  0.14434824551E+03  0.50400001928E-02 0. -1.
    10030    2    1    2    0    0  0.00000000000E+00  0.00000000000E+00  0.48592726035E+03  0.77462375131E+03  0.60325504867E+03 0.  0.
        5    1    3    3  502    0 -0.14874043620E+02 -0.22296739049E+03 -0.17109192916E+02  0.22416625276E+03  0.46999998093E+01 0. -1.
       -5    1    3    3    0  502  0.14874043620E+02  0.22296739049E+03  0.50303645326E+03  0.55045749855E+03  0.46999998093E+01 0.  1.
</event>
<event>
 5   0  0.1502642E-01  0.6054280E+03  0.7818609E-02  0.9894208E-01
       -2   -1    0    0    0  501  0.00000000000E+00  0.00000000000E+00  0.45239573618E+03  0.45239573619E+03  0.25500000920E-02 0.  1.
        2   -1    0    0  501    0  0.00000000000E+00  0.00000000000E+00 -0.20255666139E+03  0.20255666141E+03  0.25500000920E-02 0. -1.
    10030    2    1    2    0    0  0.00000000000E+00  0.00000000000E+00  0.24983907479E+03  0.65495239759E+03  0.60542801374E+03 0.  0.
        2    1    3    3  502    0 -0.55578015020E+02  0.71781104809E+02 -0.18748366607E+03  0.20830642768E+03  0.25500000920E-02 0. -1.
       -2    1    3    3    0  502  0.55578015020E+02 -0.71781104809E+02  0.43732274086E+03  0.44664596992E+03  0.25500000920E-02 0.  1.
</event>
<event>
 5   0  0.1483942E-01  0.5942927E+03  0.7818609E-02  0.9917318E-01
       -2   -1    0    0    0  501  0.00000000000E+00  0.00000000000E+00  0.85927715097E+02  0.85927715135E+02  0.25500000920E-02 0.  1.
        2   -1    0    0  501    0  0.00000000000E+00  0.00000000000E+00 -0.10275606512E+04  0.10275606512E+04  0.25500000920E-02 0. -1.
    10030    2    1    2    0    0  0.00000000000E+00  0.00000000000E+00 -0.94163293613E+03  0.11134883664E+04  0.59429265150E+03 0.  0.
        4    1    3    3  502    0  0.26264876760E+03  0.12403122013E+03 -0.35341542976E+03  0.45746278273E+03  0.12699999809E+01 0.  1.
       -4    1    3    3    0  502 -0.26264876760E+03 -0.12403122013E+03 -0.58821750637E+03  0.65602558364E+03  0.12699999809E+01 0. -1.
</event>
<event>
 5   0  0.9411028E-02  0.5566427E+03  0.7818609E-02  0.9999680E-01
        1   -1    0    0  501    0  0.00000000000E+00  0.00000000000E+00  0.12747702382E+04  0.12747702382E+04  0.50400001928E-02 0.  1.
       -1   -1    0    0    0  501  0.00000000000E+00  0.00000000000E+00 -0.60766059595E+02  0.60766059804E+02  0.50400001928E-02 0. -1.
    10030    2    1    2    0    0  0.00000000000E+00  0.00000000000E+00  0.12140041786E+04  0.13355362980E+04  0.55664266603E+03 0.  0.
        4    1    3    3  502    0 -0.58398450302E+02 -0.11864089878E+03  0.11945790114E+04  0.12018763119E+04  0.12699999809E+01 0.  1.
       -4    1    3    3    0  502  0.58398450302E+02  0.11864089878E+03  0.19425167244E+02  0.13365998610E+03  0.12699999809E+01 0. -1.
</event>
<event>
 5   0  0.1488510E-01  0.6081646E+03  0.7818609E-02  0.9888610E-01
       -2   -1    0    0    0  501  0.00000000000E+00  0.00000000000E+00  0.12049333908E+03  0.12049333911E+03  0.25500000920E-02 0. -1.
        2   -1    0    0  501    0  0.00000000000E+00  0.00000000000E+00 -0.76739544420E+03  0.76739544421E+03  0.25500000920E-02 0.  1.
    10030    2    1    2    0    0  0.00000000000E+00  0.00000000000E+00 -0.64690210512E+03  0.88788878331E+03  0.60816458128E+03 0.  0.
        5    1    3    3  502    0  0.51754917535E+02 -0.59945946695E+01  0.11387457830E+03  0.12531566636E+03  0.46999998093E+01 0. -1.
       -5    1    3    3    0  502 -0.51754917535E+02  0.59945946695E+01 -0.76077668342E+03  0.76257311695E+03  0.46999998093E+01 0.  1.
</event>
<event>
 5   0  0.1513339E-01  0.5871100E+03  0.7818609E-02  0.9932516E-01
        2   -1    0    0  501    0  0.00000000000E+00  0.00000000000E+00  0.12382586595E+04  0.12382586595E+04  0.25500000920E-02 0.  1.
       -2   -1    0    0    0  501  0.00000000000E+00  0.00000000000E+00 -0.69593316706E+02  0.69593316753E+02  0.25500000920E-02 0. -1.
    10030    2    1    2    0    0  0.00000000000E+00  0.00000000000E+00  0.11686653428E+04  0.13078519762E+04  0.58710996273E+03 0.  0.
        3    1    3    3  502    0  0.11172063415E+02 -0.16727450057E+03  0.47534404939E+02  0.17425585613E+03  0.10100000352E+00 0. -1.
       -3    1    3    3    0  502 -0.11172063415E+02  0.16727450057E+03  0.11211309378E+04  0.11335961201E+04  0.10100000352E+00 0.  1.
</event>
<event>
 5   0  0.1483942E-01  0.6123024E+03  0.7818609E-02  0.9880206E-01
       -2   -1    0    0    0  501  0.00000000000E+00  0.00000000000E+00  0.77220676828E+02  0.77220676871E+02  0.25500000920E-02 0. -1.
        2   -1    0    0  501    0  0.00000000000E+00  0.00000000000E+00 -0.12137755467E+04  0.12137755467E+04  0.25500000920E-02 0.  1.
    10030    2    1    2    0    0  0.00000000000E+00  0.00000000000E+00 -0.11365548699E+04  0.12909962236E+04  0.61230243921E+03 0.  0.
        4    1    3    3  502    0  0.18879475045E+03  0.17677347453E+02 -0.61503858529E+02  0.19934965243E+03  0.12699999809E+01 0. -1.
       -4    1    3    3    0  502 -0.18879475045E+03 -0.17677347453E+02 -0.10750510114E+04  0.10916465712E+04  0.12699999809E+01 0.  1.
</event>
<event>
 5   0  0.9420349E-02  0.5961315E+03  0.7818609E-02  0.9913465E-01
       -1   -1    0    0    0  501  0.00000000000E+00  0.00000000000E+00  0.15434081759E+03  0.15434081767E+03  0.50400001928E-02 0. -1.
        1   -1    0    0  501    0  0.00000000000E+00  0.00000000000E+00 -0.57562984706E+03  0.57562984708E+03  0.50400001928E-02 0.  1.
    10030    2    1    2    0    0  0.00000000000E+00  0.00000000000E+00 -0.42128902947E+03  0.72997066475E+03  0.59613146625E+03 0.  0.
        2    1    3    3  502    0  0.22282048639E+03  0.18036425229E+03 -0.11069134003E+03  0.30729921155E+03  0.25500000920E-02 0. -1.
       -2    1    3    3    0  502 -0.22282048639E+03 -0.18036425229E+03 -0.31059768944E+03  0.42267145320E+03  0.25500000920E-02 0.  1.
</event>
<event>
 5   0  0.1513339E-01  0.5579832E+03  0.7818609E-02  0.9996628E-01
       -2   -1    0    0    0  501  0.00000000000E+00  0.00000000000E+00  0.21254027443E+03  0.21254027445E+03  0.25500000920E-02 0. -1.
        2   -1    0    0  501    0  0.00000000000E+00  0.00000000000E+00 -0.36621917432E+03  0.36621917433E+03  0.25500000920E-02 0.  1.
    10030    2    1    2    0    0  0.00000000000E+00  0.00000000000E+00 -0.15367889989E+03  0.57875944878E+03  0.55798323924E+03 0.  0.
        3    1    3    3  502    0  0.22482362185E+03 -0.59131937991E+02 -0.23683624266E+03  0.33186392252E+03  0.10100000352E+00 0.  1.
       -3    1    3    3    0  502 -0.22482362185E+03  0.59131937991E+02  0.83157342765E+02  0.24689552626E+03  0.10100000352E+00 0. -1.
</event>
<event>
 5   0  0.8860626E-02  0.5795744E+03  0.7818609E-02  0.9948713E-01
        1   -1    0    0  501    0  0.00000000000E+00  0.00000000000E+00  0.17769450593E+03  0.17769450600E+03  0.50400001928E-02 0. -1.
       -1   -1    0    0    0  501  0.00000000000E+00  0.00000000000E+00 -0.47258984569E+03  0.47258984572E+03  0.50400001928E-02 0.  1.
    10030    2    1    2    0    0  0.00000000000E+00  0.00000000000E+00 -0.29489533976E+03  0.65028435172E+03  0.57957439271E+03 0.  0.
        3    1    3    3  502    0 -0.63279069284E+02 -0.11428901057E+03  0.14278139101E+03  0.19352714116E+03  0.10100000352E+00 0. -1.
       -3    1    3    3    0  502  0.63279069284E+02  0.11428901057E+03 -0.43767673077E+03  0.45675721057E+03  0.10100000352E+00 0.  1.
</event>
<event>
 5   0  0.1483942E-01  0.3806574E+03  0.7818609E-02  0.1050691E+00
       -2   -1    0    0    0  501  0.00000000000E+00  0.00000000000E+00  0.26948839558E+02  0.26948839678E+02  0.25500000920E-02 0.  1.
        2   -1    0    0  501    0  0.00000000000E+00  0.00000000000E+00 -0.13442143455E+04  0.13442143455E+04  0.25500000920E-02 0. -1.
    10030    2    1    2    0    0  0.00000000000E+00  0.00000000000E+00 -0.13172655060E+04  0.13711631852E+04  0.38065741455E+03 0.  0.
        4    1    3    3  502    0  0.13628406376E+03  0.79199877538E+02 -0.27441531153E+03  0.31646696943E+03  0.12699999809E+01 0.  1.
       -4    1    3    3    0  502 -0.13628406376E+03 -0.79199877538E+02 -0.10428501945E+04  0.10546962158E+04  0.12699999809E+01 0. -1.
</event>
<event>
 5   0  0.6170500E-02  0.6140371E+03  0.7818609E-02  0.9876704E-01
       -3   -1    0    0    0  501  0.00000000000E+00  0.00000000000E+00  0.77451307890E+02  0.77451373744E+02  0.10100000352E+00 0. -1.
        3   -1    0    0  501    0  0.00000000000E+00  0.00000000000E+00 -0.12170271961E+04  0.12170272003E+04  0.10100000352E+00 0.  1.
    10030    2    1    2    0    0  0.00000000000E+00  0.00000000000E+00 -0.11395758882E+04  0.12944785740E+04  0.61403711097E+03 0.  0.
        5    1    3    3  502    0  0.24022094200E+03  0.18026039987E+03 -0.43581891435E+03  0.52930154811E+03  0.46999998093E+01 0. -1.
       -5    1    3    3    0  502 -0.24022094200E+03 -0.18026039987E+03 -0.70375697387E+03  0.76517702593E+03  0.46999998093E+01 0.  1.
</event>
<event>
 5   0  0.9177281E-02  0.6107646E+03  0.7818609E-02  0.9883321E-01
       -1   -1    0    0    0  501  0.00000000000E+00  0.00000000000E+00  0.96878079963E+03  0.96878079964E+03  0.50400001928E-02 0.  1.
        1   -1    0    0  501    0  0.00000000000E+00  0.00000000000E+00 -0.96263618154E+02  0.96263618285E+02  0.50400001928E-02 0. -1.
    10030    2    1    2    0    0  0.00000000000E+00  0.00000000000E+00  0.87251718148E+03  0.10650444179E+04  0.61076458656E+03 0.  0.
        1    1    3    3  502    0 -0.28216407897E+03  0.60962867265E+01  0.23286513911E+03  0.36589603060E+03  0.50400001928E-02 0. -1.
       -1    1    3    3    0  502  0.28216407897E+03 -0.60962867265E+01  0.63965204237E+03  0.69914838733E+03  0.50400001928E-02 0.  1.
</event>
<event>
 5   0  0.1488510E-01  0.6536829E+03  0.7818609E-02  0.9799893E-01
       -2   -1    0    0    0  501  0.00000000000E+00  0.00000000000E+00  0.19188532899E+03  0.19188532901E+03  0.25500000920E-02 0.  1.
        2   -1    0    0  501    0  0.00000000000E+00  0.00000000000E+00 -0.55671444514E+03  0.55671444514E+03  0.25500000920E-02 0. -1.
    10030    2    1    2    0    0  0.00000000000E+00  0.00000000000E+00 -0.36482911615E+03  0.74859977415E+03  0.65368290315E+03 0.  0.
        5    1    3    3  502    0 -0.80564037902E+02  0.13527002087E+03  0.14555113781E+03  0.21446623619E+03  0.46999998093E+01 0.  1.
       -5    1    3    3    0  502  0.80564037902E+02 -0.13527002087E+03 -0.51038025396E+03  0.53413353796E+03  0.46999998093E+01 0. -1.
</event>
<event>
 5   0  0.8860626E-02  0.5723857E+03  0.7818609E-02  0.9964413E-01
        1   -1    0    0  501    0  0.00000000000E+00  0.00000000000E+00  0.66502236897E+03  0.66502236899E+03  0.50400001928E-02 0.  1.
       -1   -1    0    0    0  501  0.00000000000E+00  0.00000000000E+00 -0.12316328179E+03  0.12316328190E+03  0.50400001928E-02 0. -1.
    10030    2    1    2    0    0  0.00000000000E+00  0.00000000000E+00  0.54185908718E+03  0.78818565089E+03  0.57238566536E+03 0.  0.
        3    1    3    3  502    0  0.24879154833E+03 -0.82094711763E+02  0.11230591141E+03  0.28504281110E+03  0.10100000352E+00 0. -1.
       -3    1    3    3    0  502 -0.24879154833E+03  0.82094711763E+02  0.42955317576E+03  0.50314283979E+03  0.10100000352E+00 0.  1.
</event>
<event>
 5   0  0.9497860E-02  0.6027608E+03  0.7818609E-02  0.9899695E-01
        1   -1    0    0  501    0  0.00000000000E+00  0.00000000000E+00  0.33463080096E+03  0.33463080100E+03  0.50400001928E-02 0. -1.
       -1   -1    0    0    0  501  0.00000000000E+00  0.00000000000E+00 -0.27143389716E+03  0.27143389720E+03  0.50400001928E-02 0.  1.
    10030    2    1    2    0    0  0.00000000000E+00  0.00000000000E+00  0.63196903806E+02  0.60606469820E+03  0.60276078983E+03 0.  0.
        5    1    3    3  502    0  0.14696863096E+03 -0.15199297771E+03 -0.18430254249E+03  0.28051944839E+03  0.46999998093E+01 0.  1.
       -5    1    3    3    0  502 -0.14696863096E+03  0.15199297771E+03  0.24749944630E+03  0.32554524981E+03  0.46999998093E+01 0. -1.
</event>
<event>
 5   0  0.1488510E-01  0.5777773E+03  0.7818609E-02  0.9952615E-01
       -2   -1    0    0    0  501  0.00000000000E+00  0.00000000000E+00  0.71171391023E+02  0.71171391068E+02  0.25500000920E-02 0. -1.
        2   -1    0    0  501    0  0.00000000000E+00  0.00000000000E+00 -0.11726152800E+04  0.11726152800E+04  0.25500000920E-02 0.  1.
    10030    2    1    2    0    0  0.00000000000E+00  0.00000000000E+00 -0.11014438890E+04  0.12437866711E+04  0.57777732957E+03 0.  0.
        5    1    3    3  502    0  0.70915849682E+02 -0.10112470681E+03 -0.11128194928E+04  0.11196627071E+04  0.46999998093E+01 0.  1.
       -5    1    3    3    0  502 -0.70915849682E+02  0.10112470681E+03  0.11375603874E+02  0.12412396394E+03  0.46999998093E+01 0. -1.
</event>
<event>
 5   0  0.9411028E-02  0.6046609E+03  0.7818609E-02  0.9895783E-01
        1   -1    0    0  501    0  0.00000000000E+00  0.00000000000E+00  0.52294929442E+03  0.52294929445E+03  0.50400001928E-02 0.  1.
       -1   -1    0    0    0  501  0.00000000000E+00  0.00000000000E+00 -0.17478500074E+03  0.17478500081E+03  0.50400001928E-02 0. -1.
    10030    2    1    2    0    0  0.00000000000E+00  0.00000000000E+00  0.34816429369E+03  0.69773429526E+03  0.60466087304E+03 0.  0.
        4    1    3    3  502    0  0.10456082041E+03 -0.20690985337E+03 -0.49843339855E+02  0.23712997283E+03  0.12699999809E+01 0. -1.
       -4    1    3    3    0  502 -0.10456082041E+03  0.20690985337E+03  0.39800763354E+03  0.46060432243E+03  0.12699999809E+01 0.  1.
</event>
<event>
 5   0  0.9411028E-02  0.5973178E+03  0.7818609E-02  0.9910986E-01
       -1   -1    0    0    0  501  0.00000000000E+00  0.00000000000E+00  0.13819797992E+03  0.13819798001E+03  0.50400001928E-02 0. -1.
        1   -1    0    0  501    0  0.00000000000E+00  0.00000000000E+00 -0.64543016348E+03  0.64543016350E+03  0.50400001928E-02 0.  1.
    10030    2    1    2    0    0  0.00000000000E+00  0.00000000000E+00 -0.50723218356E+03  0.78362814351E+03  0.59731782098E+03 0.  0.
        4    1    3    3  502    0 -0.13837206580E+03 -0.12389729264E+03 -0.56044122270E+03  0.59041794072E+03  0.12699999809E+01 0.  1.
       -4    1    3    3    0  502  0.13837206580E+03  0.12389729264E+03  0.53209039143E+02  0.19321020279E+03  0.12699999809E+01 0. -1.
</event>
<event>
 5   0  0.8860626E-02  0.5892757E+03  0.7818609E-02  0.9927909E-01
       -1   -1    0    0    0  501  0.00000000000E+00  0.00000000000E+00  0.13773663088E+03  0.13773663097E+03  0.50400001928E-02 0. -1.
        1   -1    0    0  501    0  0.00000000000E+00  0.00000000000E+00 -0.63027132360E+03  0.63027132362E+03  0.50400001928E-02 0.  1.
    10030    2    1    2    0    0  0.00000000000E+00  0.00000000000E+00 -0.49253469271E+03  0.76800795459E+03  0.58927565264E+03 0.  0.
        3    1    3    3  502    0 -0.13798050189E+03  0.25498361183E+01 -0.58554414785E+03  0.60158713404E+03  0.10100000352E+00 0.  1.
       -3    1    3    3    0  502  0.13798050189E+03 -0.25498361183E+01  0.93009455133E+02  0.16642082055E+03  0.10100000352E+00 0. -1.
</event>
<event>
 5   0  0.9420349E-02  0.6044788E+03  0.7818609E-02  0.9896157E-01
       -1   -1    0    0    0  501  0.00000000000E+00  0.00000000000E+00  0.27591538524E+03  0.27591538529E+03  0.50400001928E-02 0. -1.
        1   -1    0    0  501    0  0.00000000000E+00  0.00000000000E+00 -0.33107490550E+03  0.33107490554E+03  0.50400001928E-02 0.  1.
    10030    2    1    2    0    0  0.00000000000E+00  0.00000000000E+00 -0.55159520254E+02  0.60699029083E+03  0.60447881723E+03 0.  0.
        2    1    3    3  502    0 -0.15663041322E+03 -0.10352300379E+02 -0.28693255463E+03  0.32706352194E+03  0.25500000920E-02 0.  1.
       -2    1    3    3    0  502  0.15663041322E+03  0.10352300379E+02  0.23177303438E+03  0.27992676889E+03  0.25500000920E-02 0. -1.
</event>
<event>
 5   0  0.9420349E-02  0.5796628E+03  0.7818609E-02  0.9948521E-01
        1   -1    0    0  501    0  0.00000000000E+00  0.00000000000E+00  0.78926734719E+03  0.78926734721E+03  0.50400001928E-02 0.  1.
       -1   -1    0    0    0  501  0.00000000000E+00  0.00000000000E+00 -0.10643065692E+03  0.10643065704E+03  0.50400001928E-02 0. -1.
    10030    2    1    2    0    0  0.00000000000E+00  0.00000000000E+00  0.68283669027E+03  0.89569800424E+03  0.57966280648E+03 0.  0.
        2    1    3    3  502    0 -0.10113867105E+03 -0.26836168190E+03  0.40615523818E+03  0.49720126770E+03  0.25500000920E-02 0.  1.
       -2    1    3    3    0  502  0.10113867105E+03  0.26836168190E+03  0.27668145210E+03  0.39849673654E+03  0.25500000920E-02 0. -1.
</event>
<event>
 5   0  0.9411028E-02  0.4437260E+03  0.7818609E-02  0.1029610E+00
        1   -1    0    0  501    0  0.00000000000E+00  0.00000000000E+00  0.27907020396E+03  0.27907020401E+03  0.50400001928E-02 0. -1.
       -1   -1    0    0    0  501  0.00000000000E+00  0.00000000000E+00 -0.17638282268E+03  0.17638282275E+03  0.50400001928E-02 0.  1.
    10030    2    1    2    0    0  0.00000000000E+00  0.00000000000E+00  0.10268738128E+03  0.45545302676E+03  0.44372599801E+03 0.  0.
        4    1    3    3  502    0  0.20145921458E+03 -0.82084012986E+02  0.96060849441E+02  0.23780853648E+03  0.12699999809E+01 0. -1.
       -4    1    3    3    0  502 -0.20145921458E+03  0.82084012986E+02  0.66265318417E+01  0.21764449028E+03  0.12699999809E+01 0.  1.
</event>
<event>
 5   0  0.9177281E-02  0.5994010E+03  0.7818609E-02  0.9906650E-01
        1   -1    0    0  501    0  0.00000000000E+00  0.00000000000E+00  0.21831827693E+03  0.21831827699E+03  0.50400001928E-02 0.  1.
       -1   -1    0    0    0  501  0.00000000000E+00  0.00000000000E+00 -0.41141942542E+03  0.41141942545E+03  0.50400001928E-02 0. -1.
    10030    2    1    2    0    0  0.00000000000E+00  0.00000000000E+00 -0.19310114849E+03  0.62973770243E+03  0.59940096790E+03 0.  0.
        1    1    3    3  502    0  0.11654371201E+03  0.25403880114E+03  0.17101295333E+02  0.28001893440E+03  0.50400001928E-02 0. -1.
       -1    1    3    3    0  502 -0.11654371201E+03 -0.25403880114E+03 -0.21020244382E+03  0.34971876803E+03  0.50400001928E-02 0.  1.
</event>
<event>
 5   0  0.1502642E-01  0.5878355E+03  0.7818609E-02  0.9930970E-01
        2   -1    0    0  501    0  0.00000000000E+00  0.00000000000E+00  0.98173188989E+03  0.98173188989E+03  0.25500000920E-02 0.  1.
       -2   -1    0    0    0  501  0.00000000000E+00  0.00000000000E+00 -0.87995141540E+02  0.87995141577E+02  0.25500000920E-02 0. -1.
    10030    2    1    2    0    0  0.00000000000E+00  0.00000000000E+00  0.89373674835E+03  0.10697270315E+04  0.58783547571E+03 0.  0.
        2    1    3    3  502    0  0.14140882103E+03  0.25762045025E+03  0.45557396007E+03  0.54213686847E+03  0.25500000920E-02 0. -1.
       -2    1    3    3    0  502 -0.14140882103E+03 -0.25762045025E+03  0.43816278827E+03  0.52759016299E+03  0.25500000920E-02 0.  1.
</event>
<event>
 5   0  0.9177281E-02  0.5990817E+03  0.7818609E-02  0.9907313E-01
        1   -1    0    0  501    0  0.00000000000E+00  0.00000000000E+00  0.24908822864E+03  0.24908822869E+03  0.50400001928E-02 0. -1.
       -1   -1    0    0    0  501  0.00000000000E+00  0.00000000000E+00 -0.36021260335E+03  0.36021260338E+03  0.50400001928E-02 0.  1.
    10030    2    1    2    0    0  0.00000000000E+00  0.00000000000E+00 -0.11112437471E+03  0.60930083207E+03  0.59908169502E+03 0.  0.
        1    1    3    3  502    0  0.26755032044E+03 -0.15756281145E+02 -0.19160974833E+03  0.32946279007E+03  0.50400001928E-02 0.  1.
       -1    1    3    3    0  502 -0.26755032044E+03  0.15756281145E+02  0.80485373619E+02  0.27983804200E+03  0.50400001928E-02 0. -1.
</event>
<event>
 5   0  0.6170500E-02  0.5958026E+03  0.7818609E-02  0.9914153E-01
        3   -1    0    0  501    0  0.00000000000E+00  0.00000000000E+00  0.97518164598E+02  0.97518216902E+02  0.10100000352E+00 0. -1.
       -3   -1    0    0    0  501  0.00000000000E+00  0.00000000000E+00 -0.91003714579E+03  0.91003715139E+03  0.10100000352E+00 0.  1.
    10030    2    1    2    0    0  0.00000000000E+00  0.00000000000E+00 -0.81251898119E+03  0.10075553683E+04  0.59580258927E+03 0.  0.
        5    1    3    3  502    0 -0.27787438830E+03  0.65281722327E+02 -0.26229611210E+03  0.38768185328E+03  0.46999998093E+01 0. -1.
       -5    1    3    3    0  502  0.27787438830E+03 -0.65281722327E+02 -0.55022286909E+03  0.61987351501E+03  0.46999998093E+01 0.  1.
</event>
<event>
 5   0  0.9411028E-02  0.5913208E+03  0.7818609E-02  0.9923578E-01
        1   -1    0    0  501    0  0.00000000000E+00  0.00000000000E+00  0.34116987088E+03  0.34116987092E+03  0.50400001928E-02 0.  1.
       -1   -1    0    0    0  501  0.00000000000E+00  0.00000000000E+00 -0.25622153062E+03  0.25622153067E+03  0.50400001928E-02 0. -1.
    10030    2    1    2    0    0  0.00000000000E+00  0.00000000000E+00  0.84948340264E+02  0.59739140159E+03  0.59132078111E+03 0.  0.
        4    1    3    3  502    0  0.27093088379E+03 -0.91674501930E+02 -0.33165665941E+02  0.28793980689E+03  0.12699999809E+01 0. -1.
       -4    1    3    3    0  502 -0.27093088379E+03  0.91674501930E+02  0.11811400620E+03  0.30945159469E+03  0.12699999809E+01 0.  1.
</event>
<event>
 5   0  0.6170500E-02  0.5950464E+03  0.7818609E-02  0.9915737E-01
       -3   -1    0    0    0  501  0.00000000000E+00  0.00000000000E+00  0.15149210581E+04  0.15149210615E+04  0.10100000352E+00 0. -1.
        3   -1    0    0  501    0  0.00000000000E+00  0.00000000000E+00 -0.58432080260E+02  0.58432167549E+02  0.10100000352E+00 0.  1.
    10030    2    1    2    0    0  0.00000000000E+00  0.00000000000E+00  0.14564889779E+04  0.15733532290E+04  0.59504641894E+03 0.  0.
        3    1    3    3  502    0 -0.46091146900E+02 -0.25990458276E+03  0.36526966529E+03  0.45066253953E+03  0.10100000352E+00 0.  1.
       -3    1    3    3    0  502  0.46091146900E+02  0.25990458276E+03  0.10912193126E+04  0.11226906895E+04  0.10100000352E+00 0. -1.
</event>
<event>
 5   0  0.1488510E-01  0.6237680E+03  0.7818609E-02  0.9857286E-01
       -2   -1    0    0    0  501  0.00000000000E+00  0.00000000000E+00  0.74571895323E+02  0.74571895367E+02  0.25500000920E-02 0. -1.
        2   -1    0    0  501    0  0.00000000000E+00  0.00000000000E+00 -0.13044006306E+04  0.13044006306E+04  0.25500000920E-02 0.  1.
    10030    2    1    2    0    0  0.00000000000E+00  0.00000000000E+00 -0.12298287353E+04  0.13789725260E+04  0.62376799314E+03 0.  0.
        5    1    3    3  502    0 -0.22610502161E+03  0.82737243653E+02 -0.17676558294E+03  0.29872578328E+03  0.46999998093E+01 0. -1.
       -5    1    3    3    0  502  0.22610502161E+03 -0.82737243653E+02 -0.10530631523E+04  0.10802467427E+04  0.46999998093E+01 0.  1.
</event>
<event>
 5   0  0.1488510E-01  0.6491812E+03  0.7818609E-02  0.9808317E-01
        2   -1    0    0  501    0  0.00000000000E+00  0.00000000000E+00  0.50963804932E+03  0.50963804933E+03  0.25500000920E-02 0.  1.
       -2   -1    0    0    0  501  0.00000000000E+00  0.00000000000E+00 -0.20673308445E+03  0.20673308447E+03  0.25500000920E-02 0. -1.
    10030    2    1    2    0    0  0.00000000000E+00  0.00000000000E+00  0.30290496487E+03  0.71637113380E+03  0.64918116393E+03 0.  0.
        5    1    3    3  502    0  0.16197445199E+03  0.14263393014E+03  0.41893858061E+03  0.47128737035E+03  0.46999998093E+01 0.  1.
       -5    1    3    3    0  502 -0.16197445199E+03 -0.14263393014E+03 -0.11603361575E+03  0.24508376345E+03  0.46999998093E+01 0. -1.
</event>
<event>
 5   0  0.8860626E-02  0.5993535E+03  0.7818609E-02  0.9906748E-01
       -1   -1    0    0    0  501  0.00000000000E+00  0.00000000000E+00  0.64831142339E+03  0.64831142341E+03  0.50400001928E-02 0.  1.
        1   -1    0    0  501    0  0.00000000000E+00  0.00000000000E+00 -0.13852316726E+03  0.13852316735E+03  0.50400001928E-02 0. -1.
    10030    2    1    2    0    0  0.00000000000E+00  0.00000000000E+00  0.50978825613E+03  0.78683459076E+03  0.59935349096E+03 0.  0.
        3    1    3    3  502    0  0.21103299353E+03 -0.12044653159E+02  0.53377229501E+03  0.57410179510E+03  0.10100000352E+00 0.  1.
       -3    1    3    3    0  502 -0.21103299353E+03  0.12044653159E+02 -0.23984038875E+02  0.21273279566E+03  0.10100000352E+00 0. -1.
</event>
<event>
 5   0  0.9411028E-02  0.6113854E+03  0.7818609E-02  0.9882063E-01
       -1   -1    0    0    0  501  0.00000000000E+00  0.00000000000E+00  0.45641857132E+03  0.45641857135E+03  0.50400001928E-02 0.  1.
        1   -1    0    0  501    0  0.00000000000E+00  0.00000000000E+00 -0.20474194779E+03  0.20474194785E+03  0.50400001928E-02 0. -1.
    10030    2    1    2    0    0  0.00000000000E+00  0.00000000000E+00  0.25167662353E+03  0.66116051920E+03  0.61138540162E+03 0.  0.
        4    1    3    3  502    0 -0.20532219284E+03  0.21846832196E+03  0.19036893701E+03  0.35514441521E+03  0.12699999809E+01 0. -1.
       -4    1    3    3    0  502  0.20532219284E+03 -0.21846832196E+03  0.61307686518E+02  0.30601610399E+03  0.12699999809E+01 0.  1.
</event>
<event>
 5   0  0.9420349E-02  0.6009069E+03  0.7818609E-02  0.9903526E-01
        1   -1    0    0  501    0  0.00000000000E+00  0.00000000000E+00  0.22364193813E+03  0.22364193819E+03  0.50400001928E-02 0.  1.
       -1   -1    0    0    0  501  0.00000000000E+00  0.00000000000E+00 -0.40364643713E+03  0.40364643716E+03  0.50400001928E-02 0. -1.
    10030    2    1    2    0    0  0.00000000000E+00  0.00000000000E+00 -0.18000449900E+03  0.62728837535E+03  0.60090688646E+03 0.  0.
        2    1    3    3  502    0 -0.10260089098E+03  0.12572322794E+03  0.17396070071E+03  0.23789829396E+03  0.25500000920E-02 0.  1.
       -2    1    3    3    0  502  0.10260089098E+03 -0.12572322794E+03 -0.35396519970E+03  0.38939008139E+03  0.25500000920E-02 0. -1.
</event>
<event>
 5   0  0.1483942E-01  0.5735899E+03  0.7818609E-02  0.9961766E-01
        2   -1    0    0  501    0  0.00000000000E+00  0.00000000000E+00  0.31661100617E+03  0.31661100618E+03  0.25500000920E-02 0. -1.
       -2   -1    0    0    0  501  0.00000000000E+00  0.00000000000E+00 -0.25978675973E+03  0.25978675975E+03  0.25500000920E-02 0.  1.
    10030    2    1    2    0    0  0.00000000000E+00  0.00000000000E+00  0.56824246434E+02  0.57639776593E+03  0.57358991412E+03 0.  0.
        4    1    3    3  502    0  0.19885159750E+03 -0.20579982128E+03  0.94995190880E+01  0.28633438150E+03  0.12699999809E+01 0.  1.
       -4    1    3    3    0  502 -0.19885159750E+03  0.20579982128E+03  0.47324727346E+02  0.29006338443E+03  0.12699999809E+01 0. -1.
</event>
<event>
 5   0  0.9497860E-02  0.6157612E+03  0.7818609E-02  0.9873236E-01
        1   -1    0    0  501    0  0.00000000000E+00  0.00000000000E+00  0.68142887997E+03  0.68142887998E+03  0.50400001928E-02 0.  1.
       -1   -1    0    0    0  501  0.00000000000E+00  0.00000000000E+00 -0.13910541946E+03  0.13910541955E+03  0.50400001928E-02 0. -1.
    10030    2    1    2    0    0  0.00000000000E+00  0.00000000000E+00  0.54232346050E+03  0.82053429954E+03  0.61576115573E+03 0.  0.
        5    1    3    3  502    0  0.13502305408E+03 -0.26108350946E+03  0.39309240235E+03  0.49085593694E+03  0.46999998093E+01 0.  1.
       -5    1    3    3    0  502 -0.13502305408E+03  0.26108350946E+03  0.14923105815E+03  0.32967836259E+03  0.46999998093E+01 0. -1.
</event>
<event>
 5   0  0.8860626E-02  0.4425181E+03  0.7818609E-02  0.1029977E+00
       -1   -1    0    0    0  501  0.00000000000E+00  0.00000000000E+00  0.79058581518E+02  0.79058581679E+02  0.50400001928E-02 0.  1.
        1   -1    0    0  501    0  0.00000000000E+00  0.00000000000E+00 -0.61923147035E+03  0.61923147037E+03  0.50400001928E-02 0. -1.
    10030    2    1    2    0    0  0.00000000000E+00  0.00000000000E+00 -0.54017288883E+03  0.69829005205E+03  0.44251807529E+03 0.  0.
        3    1    3    3  502    0 -0.11815155650E+03  0.98814987646E+02 -0.52074074802E+03  0.54304247434E+03  0.10100000352E+00 0. -1.
       -3    1    3    3    0  502  0.11815155650E+03 -0.98814987646E+02 -0.19432140815E+02  0.15524757771E+03  0.10100000352E+00 0.  1.
</event>
<event>
 5   0  0.1502642E-01  0.5269475E+03  0.7818609E-02  0.1006975E+00
       -2   -1    0    0    0  501  0.00000000000E+00  0.00000000000E+00  0.52514863587E+02  0.52514863649E+02  0.25500000920E-02 0. -1.
        2   -1    0    0  501    0  0.00000000000E+00  0.00000000000E+00 -0.13218812312E+04  0.13218812312E+04  0.25500000920E-02 0.  1.
    10030    2    1    2    0    0  0.00000000000E+00  0.00000000000E+00 -0.12693663677E+04  0.13743960949E+04  0.52694748346E+03 0.  0.
        2    1    3    3  502    0  0.19448912821E+02  0.77731741817E+02  0.19964616486E+02  0.82577659289E+02  0.25500000920E-02 0. -1.
       -2    1    3    3    0  502 -0.19448912821E+02 -0.77731741817E+02 -0.12893309841E+04  0.12918184356E+04  0.25500000920E-02 0.  1.
</event>
<event>
 5   0  0.1488510E-01  0.4406260E+03  0.7818609E-02  0.1030555E+00
       -2   -1    0    0    0  501  0.00000000000E+00  0.00000000000E+00  0.30105840596E+03  0.30105840597E+03  0.25500000920E-02 0.  1.
        2   -1    0    0  501    0  0.00000000000E+00  0.00000000000E+00 -0.16122395189E+03  0.16122395191E+03  0.25500000920E-02 0. -1.
    10030    2    1    2    0    0  0.00000000000E+00  0.00000000000E+00  0.13983445407E+03  0.46228235788E+03  0.44062603629E+03 0.  0.
        5    1    3    3  502    0 -0.13905958407E+03  0.16985782334E+03  0.50960179265E+02  0.22540691636E+03  0.46999998093E+01 0. -1.
       -5    1    3    3    0  502  0.13905958407E+03 -0.16985782334E+03  0.88874274810E+02  0.23687544152E+03  0.46999998093E+01 0.  1.
</event>
<event>
 5   0  0.1513339E-01  0.6112139E+03  0.7818609E-02  0.9882410E-01
        2   -1    0    0  501    0  0.00000000000E+00  0.00000000000E+00  0.18219901012E+04  0.18219901012E+04  0.25500000920E-02 0. -1.
       -2   -1    0    0    0  501  0.00000000000E+00  0.00000000000E+00 -0.51260214871E+02  0.51260214935E+02  0.25500000920E-02 0.  1.
    10030    2    1    2    0    0  0.00000000000E+00  0.00000000000E+00  0.17707298863E+04  0.18732503161E+04  0.61121388774E+03 0.  0.
        3    1    3    3  502    0  0.18259433669E+03  0.14673555885E+03  0.14869068788E+04  0.15052455257E+04  0.10100000352E+00 0. -1.
       -3    1    3    3    0  502 -0.18259433669E+03 -0.14673555885E+03  0.28382300748E+03  0.36800479046E+03  0.10100000352E+00 0.  1.
</event>
<event>
 5   0  0.6170500E-02  0.6028419E+03  0.7818609E-02  0.9899528E-01
       -4   -1    0    0    0  501  0.00000000000E+00  0.00000000000E+00  0.46037607999E+03  0.46037783171E+03  0.12699999809E+01 0.  1.
        4   -1    0    0  501    0  0.00000000000E+00  0.00000000000E+00 -0.19734445775E+03  0.19734854421E+03  0.12699999809E+01 0. -1.
    10030    2    1    2    0    0  0.00000000000E+00  0.00000000000E+00  0.26303162224E+03  0.65772637592E+03  0.60284189576E+03 0.  0.
        4    1    3    3  502    0  0.11741414461E+03 -0.15969137516E+03  0.37927039203E+03  0.42794282308E+03  0.12699999809E+01 0.  1.
       -4    1    3    3    0  502 -0.11741414461E+03  0.15969137516E+03 -0.11623876979E+03  0.22978355284E+03  0.12699999809E+01 0. -1.
</event>
<event>
 5   0  0.1513339E-01  0.6679563E+03  0.7818609E-02  0.9773657E-01
       -2   -1    0    0    0  501  0.00000000000E+00  0.00000000000E+00  0.10705387724E+03  0.10705387727E+03  0.25500000920E-02 0.  1.
        2   -1    0    0  501    0  0.00000000000E+00  0.00000000000E+00 -0.10419183461E+04  0.10419183461E+04  0.25500000920E-02 0. -1.
    10030    2    1    2    0    0  0.00000000000E+00  0.00000000000E+00 -0.93486446889E+03  0.11489722234E+04  0.66795628222E+03 0.  0.
        3    1    3    3  502    0 -0.15420716887E+03 -0.52951659026E+02  0.33942864165E+02  0.16654085791E+03  0.10100000352E+00 0.  1.
       -3    1    3    3    0  502  0.15420716887E+03  0.52951659026E+02 -0.96880733305E+03  0.98243136549E+03  0.10100000352E+00 0. -1.
</event>
<event>
 5   0  0.8860626E-02  0.5408818E+03  0.7818609E-02  0.1003627E+00
       -1   -1    0    0    0  501  0.00000000000E+00  0.00000000000E+00  0.14232911734E+04  0.14232911734E+04  0.50400001928E-02 0.  1.
        1   -1    0    0  501    0  0.00000000000E+00  0.00000000000E+00 -0.51386738824E+02  0.51386739071E+02  0.50400001928E-02 0. -1.
    10030    2    1    2    0    0  0.00000000000E+00  0.00000000000E+00  0.13719044346E+04  0.14746779125E+04  0.54088184287E+03 0.  0.
        3    1    3    3  502    0  0.89592222712E+02 -0.10909677643E+03  0.57041508724E+02  0.15225838866E+03  0.10100000352E+00 0. -1.
       -3    1    3    3    0  502 -0.89592222712E+02  0.10909677643E+03  0.13148629258E+04  0.13224195238E+04  0.10100000352E+00 0.  1.
</event>
<event>
 5   0  0.8860626E-02  0.6070826E+03  0.7818609E-02  0.9890820E-01
        1   -1    0    0  501    0  0.00000000000E+00  0.00000000000E+00  0.14228599974E+04  0.14228599974E+04  0.50400001928E-02 0. -1.
       -1   -1    0    0    0  501  0.00000000000E+00  0.00000000000E+00 -0.64755009755E+02  0.64755009951E+02  0.50400001928E-02 0.  1.
    10030    2    1    2    0    0  0.00000000000E+00  0.00000000000E+00  0.13581049877E+04  0.14876150074E+04  0.60708257483E+03 0.  0.
        3    1    3    3  502    0 -0.27289833547E+02 -0.65790580020E+02  0.14020928026E+04  0.14039007703E+04  0.10100000352E+00 0. -1.
       -3    1    3    3    0  502  0.27289833547E+02  0.65790580020E+02 -0.43987814929E+02  0.83714237126E+02  0.10100000352E+00 0.  1.
</event>
<event>
 5   0  0.6170500E-02  0.6144566E+03  0.7818609E-02  0.9875859E-01
       -3   -1    0    0    0  501  0.00000000000E+00  0.00000000000E+00  0.21438930764E+03  0.21438933143E+03  0.10100000352E+00 0. -1.
        3   -1    0    0  501    0  0.00000000000E+00  0.00000000000E+00 -0.44027015159E+03  0.44027016317E+03  0.10100000352E+00 0.  1.
    10030    2    1    2    0    0  0.00000000000E+00  0.00000000000E+00 -0.22588084394E+03  0.65465949460E+03  0.61445658774E+03 0.  0.
        2    1    3    3  502    0  0.76005130465E+02 -0.26904734250E+03 -0.24865597779E+03  0.37415644811E+03  0.25500000920E-02 0. -1.
       -2    1    3    3    0  502 -0.76005130465E+02  0.26904734250E+03  0.22775133848E+02  0.28050304649E+03  0.25500000920E-02 0.  1.
</event>
<event>
 5   0  0.9411028E-02  0.6489588E+03  0.7818609E-02  0.9808735E-01
        1   -1    0    0  501    0  0.00000000000E+00  0.00000000000E+00  0.30297640423E+03  0.30297640428E+03  0.50400001928E-02 0. -1.
       -1   -1    0    0    0  501  0.00000000000E+00  0.00000000000E+00 -0.34750855423E+03  0.34750855427E+03  0.50400001928E-02 0.  1.
    10030    2    1    2    0    0  0.00000000000E+00  0.00000000000E+00 -0.44532149997E+02  0.65048495854E+03  0.64895883452E+03 0.  0.
        4    1    3    3  502    0 -0.20093101433E+03 -0.10525797946E+03  0.21029844060E+03  0.30932113050E+03  0.12699999809E+01 0. -1.
       -4    1    3    3    0  502  0.20093101433E+03  0.10525797946E+03 -0.25483059059E+03  0.34116382804E+03  0.12699999809E+01 0.  1.
</event>
<event>
 5   0  0.1483942E-01  0.6066546E+03  0.7818609E-02  0.9891695E-01
        2   -1    0    0  501    0  0.00000000000E+00  0.00000000000E+00  0.39902002321E+03  0.39902002322E+03  0.25500000920E-02 0.  1.
       -2   -1    0    0    0  501  0.00000000000E+00  0.00000000000E+00 -0.23058357878E+03  0.23058357880E+03  0.25500000920E-02 0. -1.
    10030    2    1    2    0    0  0.00000000000E+00  0.00000000000E+00  0.16843644443E+03  0.62960360202E+03  0.60665464629E+03 0.  0.
        4    1    3    3  502    0  0.12948337757E+03 -0.24308643292E+03  0.21610372400E+03  0.35008483453E+03  0.12699999809E+01 0.  1.
       -4    1    3    3    0  502 -0.12948337757E+03  0.24308643292E+03 -0.47667279574E+02  0.27951876749E+03  0.12699999809E+01 0. -1.
</event>
<event>
 5   0  0.9411028E-02  0.5968116E+03  0.7818609E-02  0.9912043E-01
        1   -1    0    0  501    0  0.00000000000E+00  0.00000000000E+00  0.21631398020E+03  0.21631398025E+03  0.50400001928E-02 0.  1.
       -1   -1    0    0    0  501  0.00000000000E+00  0.00000000000E+00 -0.41165170968E+03  0.41165170971E+03  0.50400001928E-02 0. -1.
    10030    2    1    2    0    0  0.00000000000E+00  0.00000000000E+00 -0.19533772948E+03  0.62796568996E+03  0.59681159440E+03 0.  0.
        4    1    3    3  502    0  0.17531981183E+03  0.67415423801E+00  0.15640424301E+03  0.23494976279E+03  0.12699999809E+01 0.  1.
       -4    1    3    3    0  502 -0.17531981183E+03 -0.67415423801E+00 -0.35174197249E+03  0.39301592717E+03  0.12699999809E+01 0. -1.
</event>
<event>
 5   0  0.1488510E-01  0.5853778E+03  0.7818609E-02  0.9936216E-01
       -2   -1    0    0    0  501  0.00000000000E+00  0.00000000000E+00  0.29993420336E+03  0.29993420337E+03  0.25500000920E-02 0.  1.
        2   -1    0    0  501    0  0.00000000000E+00  0.00000000000E+00 -0.28561856795E+03  0.28561856797E+03  0.25500000920E-02 0. -1.
    10030    2    1    2    0    0  0.00000000000E+00  0.00000000000E+00  0.14315635407E+02  0.58555277134E+03  0.58537775035E+03 0.  0.
        5    1    3    3  502    0 -0.15097517285E+03 -0.87344607969E+02  0.24222191691E+03  0.29852324933E+03  0.46999998093E+01 0.  1.
       -5    1    3    3    0  502  0.15097517285E+03  0.87344607969E+02 -0.22790628150E+03  0.28702952201E+03  0.46999998093E+01 0. -1.
</event>
<event>
 5   0  0.8860626E-02  0.6138874E+03  0.7818609E-02  0.9877006E-01
        1   -1    0    0  501    0  0.00000000000E+00  0.00000000000E+00  0.31163090281E+03  0.31163090285E+03  0.50400001928E-02 0.  1.
       -1   -1    0    0    0  501  0.00000000000E+00  0.00000000000E+00 -0.30232704048E+03  0.30232704053E+03  0.50400001928E-02 0. -1.
    10030    2    1    2    0    0  0.00000000000E+00  0.00000000000E+00  0.93038623228E+01  0.61395794337E+03  0.61388744439E+03 0.  0.
        3    1    3    3  502    0 -0.17184142305E+03  0.89635246191E+01 -0.24955164516E+03  0.30312679402E+03  0.10100000352E+00 0. -1.
       -3    1    3    3    0  502  0.17184142305E+03 -0.89635246191E+01  0.25885550749E+03  0.31083114935E+03  0.10100000352E+00 0.  1.
</event>
<event>
 5   0  0.1502642E-01  0.6042445E+03  0.7818609E-02  0.9896639E-01
        2   -1    0    0  501    0  0.00000000000E+00  0.00000000000E+00  0.25672812833E+03  0.25672812834E+03  0.25500000920E-02 0.  1.
       -2   -1    0    0    0  501  0.00000000000E+00  0.00000000000E+00 -0.35554282799E+03  0.35554282800E+03  0.25500000920E-02 0. -1.
    10030    2    1    2    0    0  0.00000000000E+00  0.00000000000E+00 -0.98814699660E+02  0.61227095634E+03  0.60424446966E+03 0.  0.
        2    1    3    3  502    0 -0.23595773152E+02  0.76895825734E+02  0.24567938230E+03  0.25851129070E+03  0.25500000920E-02 0.  1.
       -2    1    3    3    0  502  0.23595773152E+02 -0.76895825734E+02 -0.34449408196E+03  0.35375966565E+03  0.25500000920E-02 0. -1.
</event>
<event>
 5   0  0.1483942E-01  0.5380521E+03  0.7818609E-02  0.1004298E+00
       -2   -1    0    0    0  501  0.00000000000E+00  0.00000000000E+00  0.10901830572E+03  0.10901830575E+03  0.25500000920E-02 0.  1.
        2   -1    0    0  501    0  0.00000000000E+00  0.00000000000E+00 -0.66387936045E+03  0.66387936046E+03  0.25500000920E-02 0. -1.
    10030    2    1    2    0    0  0.00000000000E+00  0.00000000000E+00 -0.55486105473E+03  0.77289766621E+03  0.53805205359E+03 0.  0.
        4    1    3    3  502    0  0.51140776954E+01  0.68552444610E+02  0.96184673207E+02  0.11823153434E+03  0.12699999809E+01 0.  1.
       -4    1    3    3    0  502 -0.51140776954E+01 -0.68552444610E+02 -0.65104572794E+03  0.65466613187E+03  0.12699999809E+01 0. -1.
</event>
<event>
 5   0  0.1502642E-01  0.3671875E+03  0.7818609E-02  0.1055774E+00
       -2   -1    0    0    0  501  0.00000000000E+00  0.00000000000E+00  0.45115226278E+03  0.45115226279E+03  0.25500000920E-02 0. -1.
        2   -1    0    0  501    0  0.00000000000E+00  0.00000000000E+00 -0.74712406944E+02  0.74712406987E+02  0.25500000920E-02 0.  1.
    10030    2    1    2    0    0  0.00000000000E+00  0.00000000000E+00  0.37643985584E+03  0.52586466977E+03  0.36718753499E+03 0.  0.
        2    1    3    3  502    0  0.11051213697E+03 -0.14292656762E+03  0.23497306333E+03  0.29640053415E+03  0.25500000920E-02 0. -1.
       -2    1    3    3    0  502 -0.11051213697E+03  0.14292656762E+03  0.14146679251E+03  0.22946413562E+03  0.25500000920E-02 0.  1.
</event>
<event>
 5   0  0.9411028E-02  0.6125940E+03  0.7818609E-02  0.9879617E-01
       -1   -1    0    0    0  501  0.00000000000E+00  0.00000000000E+00  0.13610625115E+03  0.13610625124E+03  0.50400001928E-02 0.  1.
        1   -1    0    0  501    0  0.00000000000E+00  0.00000000000E+00 -0.68929865245E+03  0.68929865247E+03  0.50400001928E-02 0. -1.
    10030    2    1    2    0    0  0.00000000000E+00  0.00000000000E+00 -0.55319240130E+03  0.82540490371E+03  0.61259401092E+03 0.  0.
        4    1    3    3  502    0  0.22742643814E+03 -0.20357312327E+03 -0.24220621734E+03  0.38965403361E+03  0.12699999809E+01 0.  1.
       -4    1    3    3    0  502 -0.22742643814E+03  0.20357312327E+03 -0.31098618395E+03  0.43575087010E+03  0.12699999809E+01 0. -1.
</event>
<event>
 5   0  0.1488510E-01  0.6071913E+03  0.7818609E-02  0.9890598E-01
        2   -1    0    0  501    0  0.00000000000E+00  0.00000000000E+00  0.11876094901E+04  0.11876094901E+04  0.25500000920E-02 0. -1.
       -2   -1    0    0    0  501  0.00000000000E+00  0.00000000000E+00 -0.77609955514E+02  0.77609955556E+02  0.25500000920E-02 0.  1.
    10030    2    1    2    0    0  0.00000000000E+00  0.00000000000E+00  0.11099995346E+04  0.12652194456E+04  0.60719130336E+03 0.  0.
        5    1    3    3  502    0 -0.20490131107E+03 -0.19459348758E+03  0.32393118000E+03  0.42988913927E+03  0.46999998093E+01 0. -1.
       -5    1    3    3    0  502  0.20490131107E+03  0.19459348758E+03  0.78606835456E+03  0.83533030636E+03  0.46999998093E+01 0.  1.
</event>
<event>
 5   0  0.6170500E-02  0.3188286E+03  0.7818609E-02  0.1076190E+00
        4   -1    0    0  501    0  0.00000000000E+00  0.00000000000E+00  0.42194843500E+03  0.42195034625E+03  0.12699999809E+01 0. -1.
       -4   -1    0    0    0  501  0.00000000000E+00  0.00000000000E+00 -0.60218793642E+02  0.60232184151E+02  0.12699999809E+01 0.  1.
    10030    2    1    2    0    0  0.00000000000E+00  0.00000000000E+00  0.36172964136E+03  0.48218253040E+03  0.31882857335E+03 0.  0.
        3    1    3    3  502    0  0.13022758846E+03  0.90594158875E+02  0.20460343451E+03  0.25889979148E+03  0.10100000352E+00 0.  1.
       -3    1    3    3    0  502 -0.13022758846E+03 -0.90594158875E+02  0.15712620685E+03  0.22328273892E+03  0.10100000352E+00 0. -1.
</event>
<event>
 5   0  0.9411028E-02  0.5944941E+03  0.7818609E-02  0.9916895E-01
       -1   -1    0    0    0  501  0.00000000000E+00  0.00000000000E+00  0.99614287476E+02  0.99614287604E+02  0.50400001928E-02 0. -1.
        1   -1    0    0  501    0  0.00000000000E+00  0.00000000000E+00 -0.88697928852E+03  0.88697928853E+03  0.50400001928E-02 0.  1.
    10030    2    1    2    0    0  0.00000000000E+00  0.00000000000E+00 -0.78736500104E+03  0.98659357614E+03  0.59449410393E+03 0.  0.
        4    1    3    3  502    0 -0.27013954246E+03 -0.94755462634E+02 -0.26091602782E+03  0.38734062087E+03  0.12699999809E+01 0. -1.
       -4    1    3    3    0  502  0.27013954246E+03  0.94755462634E+02 -0.52644897322E+03  0.59925295527E+03  0.12699999809E+01 0.  1.
</event>
<event>
 5   0  0.8860626E-02  0.6039408E+03  0.7818609E-02  0.9897264E-01
        1   -1    0    0  501    0  0.00000000000E+00  0.00000000000E+00  0.85165231698E+03  0.85165231699E+03  0.50400001928E-02 0. -1.
       -1   -1    0    0    0  501  0.00000000000E+00  0.00000000000E+00 -0.10706967419E+03  0.10706967431E+03  0.50400001928E-02 0.  1.
    10030    2    1    2    0    0  0.00000000000E+00  0.00000000000E+00  0.74458264279E+03  0.95872199130E+03  0.60394084533E+03 0.  0.
        3    1    3    3  502    0 -0.30175240415E+01  0.19408545481E+03  0.50876077495E+01  0.19417559881E+03  0.10100000352E+00 0.  1.
       -3    1    3    3    0  502  0.30175240415E+01 -0.19408545481E+03  0.73949503504E+03  0.76454639249E+03  0.10100000352E+00 0. -1.
</event>
<event>
 5   0  0.9420349E-02  0.5025564E+03  0.7818609E-02  0.1013114E+00
        1   -1    0    0  501    0  0.00000000000E+00  0.00000000000E+00  0.61456964662E+03  0.61456964664E+03  0.50400001928E-02 0.  1.
       -1   -1    0    0    0  501  0.00000000000E+00  0.00000000000E+00 -0.10273974926E+03  0.10273974938E+03  0.50400001928E-02 0. -1.
    10030    2    1    2    0    0  0.00000000000E+00  0.00000000000E+00  0.51182989736E+03  0.71730939602E+03  0.50255639065E+03 0.  0.
        2    1    3    3  502    0 -0.66105864253E+01  0.47270328935E+02 -0.96209989119E+02  0.10739900308E+03  0.25500000920E-02 0. -1.
       -2    1    3    3    0  502  0.66105864253E+01 -0.47270328935E+02  0.60803988648E+03  0.60991039293E+03  0.25500000920E-02 0.  1.
</event>
<event>
 5   0  0.1532571E-01  0.6124752E+03  0.7818609E-02  0.9879857E-01
        2   -1    0    0  501    0  0.00000000000E+00  0.00000000000E+00  0.18477012035E+04  0.18477012035E+04  0.25500000920E-02 0.  1.
       -2   -1    0    0    0  501  0.00000000000E+00  0.00000000000E+00 -0.50755746998E+02  0.50755747062E+02  0.25500000920E-02 0. -1.
    10030    2    1    2    0    0  0.00000000000E+00  0.00000000000E+00  0.17969454565E+04  0.18984569506E+04  0.61247515828E+03 0.  0.
        1    1    3    3  502    0  0.31108569098E+02 -0.29928608751E+03  0.10749499308E+04  0.11162693488E+04  0.50400001928E-02 0.  1.
       -1    1    3    3    0  502 -0.31108569098E+02  0.29928608751E+03  0.72199552571E+03  0.78218760181E+03  0.50400001928E-02 0. -1.
</event>
<event>
 5   0  0.9411028E-02  0.6126490E+03  0.7818609E-02  0.9879505E-01
       -1   -1    0    0    0  501  0.00000000000E+00  0.00000000000E+00  0.83720139955E+03  0.83720139957E+03  0.50400001928E-02 0.  1.
        1   -1    0    0  501    0  0.00000000000E+00  0.00000000000E+00 -0.11208138398E+03  0.11208138410E+03  0.50400001928E-02 0. -1.
    10030    2    1    2    0    0  0.00000000000E+00  0.00000000000E+00  0.72512001557E+03  0.94928278366E+03  0.61264897485E+03 0.  0.
        4    1    3    3  502    0 -0.24806414558E+03 -0.60940119578E+02  0.62452427361E+03  0.67474565558E+03  0.12699999809E+01 0.  1.
       -4    1    3    3    0  502  0.24806414558E+03  0.60940119578E+02  0.10059574195E+03  0.27453712808E+03  0.12699999809E+01 0. -1.
</event>
<event>
 5   0  0.1513339E-01  0.5854236E+03  0.7818609E-02  0.9936117E-01
       -2   -1    0    0    0  501  0.00000000000E+00  0.00000000000E+00  0.13942495738E+03  0.13942495740E+03  0.25500000920E-02 0. -1.
        2   -1    0    0  501    0  0.00000000000E+00  0.00000000000E+00 -0.61452562843E+03  0.61452562843E+03  0.25500000920E-02 0.  1.
    10030    2    1    2    0    0  0.00000000000E+00  0.00000000000E+00 -0.47510067105E+03  0.75395058584E+03  0.58542363999E+03 0.  0.
        3    1    3    3  502    0  0.14819015661E+03  0.24853558886E+03 -0.18068036290E+03  0.34113877702E+03  0.10100000352E+00 0.  1.
       -3    1    3    3    0  502 -0.14819015661E+03 -0.24853558886E+03 -0.29442030815E+03  0.41281180882E+03  0.10100000352E+00 0. -1.
</event>
<event>
 5   0  0.1532571E-01  0.5970431E+03  0.7818609E-02  0.9911560E-01
        2   -1    0    0  501    0  0.00000000000E+00  0.00000000000E+00  0.55046911984E+03  0.55046911985E+03  0.25500000920E-02 0.  1.
       -2   -1    0    0    0  501  0.00000000000E+00  0.00000000000E+00 -0.16188940304E+03  0.16188940306E+03  0.25500000920E-02 0. -1.
    10030    2    1    2    0    0  0.00000000000E+00  0.00000000000E+00  0.38857971680E+03  0.71235852290E+03  0.59704310467E+03 0.  0.
        1    1    3    3  502    0 -0.65451758306E+02 -0.27241572340E+02  0.54027921686E+03  0.54491069738E+03  0.50400001928E-02 0.  1.
       -1    1    3    3    0  502  0.65451758306E+02  0.27241572340E+02 -0.15169950005E+03  0.16744782552E+03  0.50400001928E-02 0. -1.
</event>
<event>
 5   0  0.1532571E-01  0.6096851E+03  0.7818609E-02  0.9885514E-01
       -2   -1    0    0    0  501  0.00000000000E+00  0.00000000000E+00  0.30289847708E+03  0.30289847709E+03  0.25500000920E-02 0. -1.
        2   -1    0    0  501    0  0.00000000000E+00  0.00000000000E+00 -0.30679908623E+03  0.30679908624E+03  0.25500000920E-02 0.  1.
    10030    2    1    2    0    0  0.00000000000E+00  0.00000000000E+00 -0.39006091469E+01  0.60969756333E+03  0.60968508591E+03 0.  0.
        1    1    3    3  502    0  0.10724878171E+03  0.16356297186E+03  0.23187883580E+03  0.30335283328E+03  0.50400001928E-02 0. -1.
       -1    1    3    3    0  502 -0.10724878171E+03 -0.16356297186E+03 -0.23577944495E+03  0.30634473005E+03  0.50400001928E-02 0.  1.
</event>
<event>
 5   0  0.1488510E-01  0.5965423E+03  0.7818609E-02  0.9912606E-01
       -2   -1    0    0    0  501  0.00000000000E+00  0.00000000000E+00  0.18155245215E+03  0.18155245217E+03  0.25500000920E-02 0. -1.
        2   -1    0    0  501    0  0.00000000000E+00  0.00000000000E+00 -0.49002741263E+03  0.49002741264E+03  0.25500000920E-02 0.  1.
    10030    2    1    2    0    0  0.00000000000E+00  0.00000000000E+00 -0.30847496048E+03  0.67157986480E+03  0.59654229822E+03 0.  0.
        5    1    3    3  502    0  0.10510136112E+03  0.24264458837E+02  0.15878110675E+03  0.19201195258E+03  0.46999998093E+01 0. -1.
       -5    1    3    3    0  502 -0.10510136112E+03 -0.24264458837E+02 -0.46725606723E+03  0.47956791223E+03  0.46999998093E+01 0.  1.
</event>
<event>
 5   0  0.9497860E-02  0.5466236E+03  0.7818609E-02  0.1002278E+00
       -1   -1    0    0    0  501  0.00000000000E+00  0.00000000000E+00  0.98796129842E+02  0.98796129970E+02  0.50400001928E-02 0. -1.
        1   -1    0    0  501    0  0.00000000000E+00  0.00000000000E+00 -0.75609568032E+03  0.75609568034E+03  0.50400001928E-02 0.  1.
    10030    2    1    2    0    0  0.00000000000E+00  0.00000000000E+00 -0.65729955048E+03  0.85489181031E+03  0.54662355261E+03 0.  0.
        5    1    3    3  502    0  0.94626128296E+01  0.42217471152E+02  0.93342553546E+02  0.10298921406E+03  0.46999998093E+01 0. -1.
       -5    1    3    3    0  502 -0.94626128296E+01 -0.42217471152E+02 -0.75064210402E+03  0.75190259625E+03  0.46999998093E+01 0.  1.
</event>
<event>
 5   0  0.1513339E-01  0.7024166E+03  0.7818609E-02  0.9713108E-01
       -2   -1    0    0    0  501  0.00000000000E+00  0.00000000000E+00  0.31029277920E+03  0.31029277921E+03  0.25500000920E-02 0. -1.
        2   -1    0    0  501    0  0.00000000000E+00  0.00000000000E+00 -0.39751900586E+03  0.39751900587E+03  0.25500000920E-02 0.  1.
    10030    2    1    2    0    0  0.00000000000E+00  0.00000000000E+00 -0.87226226663E+02  0.70781178508E+03  0.70241662031E+03 0.  0.
        3    1    3    3  502    0 -0.21144388832E+02 -0.74150429104E+02  0.30165825415E+03  0.31135684321E+03  0.10100000352E+00 0. -1.
       -3    1    3    3    0  502  0.21144388832E+02  0.74150429104E+02 -0.38888448081E+03  0.39645494187E+03  0.10100000352E+00 0.  1.
</event>
<event>
 5   0  0.9420349E-02  0.5815304E+03  0.7818609E-02  0.9944483E-01
        1   -1    0    0  501    0  0.00000000000E+00  0.00000000000E+00  0.48638838660E+03  0.48638838662E+03  0.50400001928E-02 0.  1.
       -1   -1    0    0    0  501  0.00000000000E+00  0.00000000000E+00 -0.17382078963E+03  0.17382078970E+03  0.50400001928E-02 0. -1.
    10030    2    1    2    0    0  0.00000000000E+00  0.00000000000E+00  0.31256759697E+03  0.66020917632E+03  0.58153044102E+03 0.  0.
        2    1    3    3  502    0  0.27610930212E+03  0.80079227208E+02  0.20571005509E+03  0.35350481768E+03  0.25500000920E-02 0.  1.
       -2    1    3    3    0  502 -0.27610930212E+03 -0.80079227208E+02  0.10685754188E+03  0.30670435865E+03  0.25500000920E-02 0. -1.
</event>
<event>
 5   0  0.9177281E-02  0.6053617E+03  0.7818609E-02  0.9894344E-01
        1   -1    0    0  501    0  0.00000000000E+00  0.00000000000E+00  0.12854219355E+04  0.12854219355E+04  0.50400001928E-02 0.  1.
       -1   -1    0    0    0  501  0.00000000000E+00  0.00000000000E+00 -0.71272869149E+02  0.71272869327E+02  0.50400001928E-02 0. -1.
    10030    2    1    2    0    0  0.00000000000E+00  0.00000000000E+00  0.12141490664E+04  0.13566948049E+04  0.60536174157E+03 0.  0.
        1    1    3    3  502    0 -0.14639591924E+03  0.14283155847E+03  0.10703065198E+03  0.23084232661E+03  0.50400001928E-02 0. -1.
       -1    1    3    3    0  502  0.14639591924E+03 -0.14283155847E+03  0.11071184144E+04  0.11258524783E+04  0.50400001928E-02 0.  1.
</event>
<event>
 5   0  0.9177281E-02  0.5423893E+03  0.7818609E-02  0.1003271E+00
       -1   -1    0    0    0  501  0.00000000000E+00  0.00000000000E+00  0.15697452515E+03  0.15697452523E+03  0.50400001928E-02 0.  1.
        1   -1    0    0  501    0  0.00000000000E+00  0.00000000000E+00 -0.46852524947E+03  0.46852524950E+03  0.50400001928E-02 0. -1.
    10030    2    1    2    0    0  0.00000000000E+00  0.00000000000E+00 -0.31155072432E+03  0.62549977473E+03  0.54238926461E+03 0.  0.
        1    1    3    3  502    0  0.17427793841E+03 -0.41549680896E+02  0.79006461313E+02  0.19580908241E+03  0.50400001928E-02 0.  1.
       -1    1    3    3    0  502 -0.17427793841E+03  0.41549680896E+02 -0.39055718563E+03  0.42969069232E+03  0.50400001928E-02 0. -1.
</event>
<event>
 5   0  0.8860626E-02  0.5741697E+03  0.7818609E-02  0.9960494E-01
       -1   -1    0    0    0  501  0.00000000000E+00  0.00000000000E+00  0.22312452770E+03  0.22312452776E+03  0.50400001928E-02 0. -1.
        1   -1    0    0  501    0  0.00000000000E+00  0.00000000000E+00 -0.36937985379E+03  0.36937985382E+03  0.50400001928E-02 0.  1.
    10030    2    1    2    0    0  0.00000000000E+00  0.00000000000E+00 -0.14625532609E+03  0.59250438158E+03  0.57416968031E+03 0.  0.
        3    1    3    3  502    0  0.25910762687E+03 -0.90955123214E+02 -0.15951526326E+03  0.31757633122E+03  0.10100000352E+00 0.  1.
       -3    1    3    3    0  502 -0.25910762687E+03  0.90955123214E+02  0.13259937174E+02  0.27492805036E+03  0.10100000352E+00 0. -1.
</event>
<event>
 5   0  0.1502642E-01  0.5971778E+03  0.7818609E-02  0.9911279E-01
       -2   -1    0    0    0  501  0.00000000000E+00  0.00000000000E+00  0.54753551634E+02  0.54753551693E+02  0.25500000920E-02 0. -1.
        2   -1    0    0  501    0  0.00000000000E+00  0.00000000000E+00 -0.16283024344E+04  0.16283024344E+04  0.25500000920E-02 0.  1.
    10030    2    1    2    0    0  0.00000000000E+00  0.00000000000E+00 -0.15735488828E+04  0.16830559861E+04  0.59717783439E+03 0.  0.
        2    1    3    3  502    0 -0.16113587779E+03  0.16865425543E+03 -0.26142382784E+03  0.35035902551E+03  0.25500000920E-02 0. -1.
       -2    1    3    3    0  502  0.16113587779E+03 -0.16865425543E+03 -0.13121250549E+04  0.13326969606E+04  0.25500000920E-02 0.  1.
</event>
<event>
 5   0  0.9497860E-02  0.6002993E+03  0.7818609E-02  0.9904785E-01
       -1   -1    0    0    0  501  0.00000000000E+00  0.00000000000E+00  0.10354369460E+03  0.10354369472E+03  0.50400001928E-02 0. -1.
        1   -1    0    0  501    0  0.00000000000E+00  0.00000000000E+00 -0.87006576749E+03  0.87006576750E+03  0.50400001928E-02 0.  1.
    10030    2    1    2    0    0  0.00000000000E+00  0.00000000000E+00 -0.76652207289E+03  0.97360946222E+03  0.60029933925E+03 0.  0.
        5    1    3    3  502    0 -0.46089008782E+02 -0.67768799096E+01  0.97584354161E+02  0.10823547943E+03  0.46999998093E+01 0. -1.
       -5    1    3    3    0  502  0.46089008782E+02  0.67768799096E+01 -0.86410642705E+03  0.86537398279E+03  0.46999998093E+01 0.  1.
</event>
<event>
 5   0  0.1488510E-01  0.6128326E+03  0.7818609E-02  0.9879134E-01
       -2   -1    0    0    0  501  0.00000000000E+00  0.00000000000E+00  0.14763131380E+03  0.14763131382E+03  0.25500000920E-02 0. -1.
        2   -1    0    0  501    0  0.00000000000E+00  0.00000000000E+00 -0.63598259530E+03  0.63598259531E+03  0.25500000920E-02 0.  1.
    10030    2    1    2    0    0  0.00000000000E+00  0.00000000000E+00 -0.48835128150E+03  0.78361390913E+03  0.61283259088E+03 0.  0.
        5    1    3    3  502    0 -0.18163339614E+03  0.15090265557E+03 -0.49378457250E+03  0.54736422616E+03  0.46999998093E+01 0.  1.
       -5    1    3    3    0  502  0.18163339614E+03 -0.15090265557E+03  0.54332909975E+01  0.23624968296E+03  0.46999998093E+01 0. -1.
</event>
<event>
 5   0  0.6170500E-02  0.6075943E+03  0.7818609E-02  0.9889774E-01
       -4   -1    0    0    0  501  0.00000000000E+00  0.00000000000E+00  0.42396537380E+03  0.42396727596E+03  0.12699999809E+01 0.  1.
        4   -1    0    0  501    0  0.00000000000E+00  0.00000000000E+00 -0.21768501697E+03  0.21768872160E+03  0.12699999809E+01 0. -1.
    10030    2    1    2    0    0  0.00000000000E+00  0.00000000000E+00  0.20628035683E+03  0.64165599756E+03  0.60759430017E+03 0.  0.
        4    1    3    3  502    0  0.26206293413E+03  0.20241788045E+02  0.26400963303E+03  0.37254450829E+03  0.12699999809E+01 0.  1.
       -4    1    3    3    0  502 -0.26206293413E+03 -0.20241788045E+02 -0.57729276198E+02  0.26911148927E+03  0.12699999809E+01 0. -1.
</event>
<event>
 5   0  0.1488510E-01  0.5943004E+03  0.7818609E-02  0.9917302E-01
        2   -1    0    0  501    0  0.00000000000E+00  0.00000000000E+00  0.31953709481E+03  0.31953709482E+03  0.25500000920E-02 0. -1.
       -2   -1    0    0    0  501  0.00000000000E+00  0.00000000000E+00 -0.27633176023E+03  0.27633176024E+03  0.25500000920E-02 0.  1.
    10030    2    1    2    0    0  0.00000000000E+00  0.00000000000E+00  0.43205334583E+02  0.59586885506E+03  0.59430042192E+03 0.  0.
        5    1    3    3  502    0  0.11309502801E+03 -0.15280254475E+03  0.25054067284E+03  0.31453429350E+03  0.46999998093E+01 0. -1.
       -5    1    3    3    0  502 -0.11309502801E+03  0.15280254475E+03 -0.20733533825E+03  0.28133456156E+03  0.46999998093E+01 0.  1.
</event>
<event>
 5   0  0.9177281E-02  0.6000072E+03  0.7818609E-02  0.9905391E-01
       -1   -1    0    0    0  501  0.00000000000E+00  0.00000000000E+00  0.16227669835E+03  0.16227669842E+03  0.50400001928E-02 0.  1.
        1   -1    0    0  501    0  0.00000000000E+00  0.00000000000E+00 -0.55462167572E+03  0.55462167574E+03  0.50400001928E-02 0. -1.
    10030    2    1    2    0    0  0.00000000000E+00  0.00000000000E+00 -0.39234497737E+03  0.71689837416E+03  0.60000724796E+03 0.  0.
        1    1    3    3  502    0  0.24285626812E+03  0.76610074312E+02 -0.66748521306E+01  0.25474069979E+03  0.50400001928E-02 0. -1.
       -1    1    3    3    0  502 -0.24285626812E+03 -0.76610074312E+02 -0.38567012524E+03  0.46215767437E+03  0.50400001928E-02 0.  1.
</event>
<event>
 5   0  0.9420349E-02  0.5901187E+03  0.7818609E-02  0.9926121E-01
       -1   -1    0    0    0  501  0.00000000000E+00  0.00000000000E+00  0.11766201893E+03  0.11766201904E+03  0.50400001928E-02 0. -1.
        1   -1    0    0  501    0  0.00000000000E+00  0.00000000000E+00 -0.73991618097E+03  0.73991618099E+03  0.50400001928E-02 0.  1.
    10030    2    1    2    0    0  0.00000000000E+00  0.00000000000E+00 -0.62225416203E+03  0.85757820003E+03  0.59011873974E+03 0.  0.
        2    1    3    3  502    0  0.11894336271E+03 -0.26977897796E+03 -0.29444268141E+03  0.41668298876E+03  0.25500000920E-02 0. -1.
       -2    1    3    3    0  502 -0.11894336271E+03  0.26977897796E+03 -0.32781148063E+03  0.44089521127E+03  0.25500000920E-02 0.  1.
</event>
<event>
 5   0  0.1532571E-01  0.5987014E+03  0.7818609E-02  0.9908104E-01
       -2   -1    0    0    0  501  0.00000000000E+00  0.00000000000E+00  0.97670080284E+02  0.97670080317E+02  0.25500000920E-02 0.  1.
        2   -1    0    0  501    0  0.00000000000E+00  0.00000000000E+00 -0.91748522834E+03  0.91748522834E+03  0.25500000920E-02 0. -1.
    10030    2    1    2    0    0  0.00000000000E+00  0.00000000000E+00 -0.81981514806E+03  0.10151553087E+04  0.59870144790E+03 0.  0.
        1    1    3    3  502    0 -0.24663261068E+03 -0.13749304497E+03 -0.57843706197E+03  0.64367803812E+03  0.50400001928E-02 0. -1.
       -1    1    3    3    0  502  0.24663261068E+03  0.13749304497E+03 -0.24137808608E+03  0.37147727054E+03  0.50400001928E-02 0.  1.
</event>
<event>
 5   0  0.1532571E-01  0.5999578E+03  0.7818609E-02  0.9905494E-01
       -2   -1    0    0    0  501  0.00000000000E+00  0.00000000000E+00  0.10828215176E+03  0.10828215179E+03  0.25500000920E-02 0.  1.
        2   -1    0    0  501    0  0.00000000000E+00  0.00000000000E+00 -0.83104508272E+03  0.83104508272E+03  0.25500000920E-02 0. -1.
    10030    2    1    2    0    0  0.00000000000E+00  0.00000000000E+00 -0.72276293096E+03  0.93932723451E+03  0.59995783112E+03 0.  0.
        1    1    3    3  502    0 -0.30733452492E+02  0.26095456331E+03 -0.58797200151E+03  0.64401312394E+03  0.50400001928E-02 0. -1.
       -1    1    3    3    0  502  0.30733452492E+02 -0.26095456331E+03 -0.13479092945E+03  0.29531411057E+03  0.50400001928E-02 0.  1.
</event>
<event>
 5   0  0.9497860E-02  0.7915941E+03  0.7818609E-02  0.9572265E-01
       -1   -1    0    0    0  501  0.00000000000E+00  0.00000000000E+00  0.21808933098E+03  0.21808933104E+03  0.50400001928E-02 0. -1.
        1   -1    0    0  501    0  0.00000000000E+00  0.00000000000E+00 -0.71830792208E+03  0.71830792210E+03  0.50400001928E-02 0.  1.
    10030    2    1    2    0    0  0.00000000000E+00  0.00000000000E+00 -0.50021859110E+03  0.93639725313E+03  0.79159407324E+03 0.  0.
        5    1    3    3  502    0 -0.26277633562E+03  0.68157714007E+02  0.90557650911E+02  0.28621609787E+03  0.46999998093E+01 0. -1.
       -5    1    3    3    0  502  0.26277633562E+03 -0.68157714007E+02 -0.59077624201E+03  0.65018115527E+03  0.46999998093E+01 0.  1.
</event>
<event>
 5   0  0.9420349E-02  0.3336573E+03  0.7818609E-02  0.1069530E+00
       -1   -1    0    0    0  501  0.00000000000E+00  0.00000000000E+00  0.20205409671E+02  0.20205410300E+02  0.50400001928E-02 0. -1.
        1   -1    0    0  501    0  0.00000000000E+00  0.00000000000E+00 -0.13774430251E+04  0.13774430251E+04  0.50400001928E-02 0.  1.
    10030    2    1    2    0    0  0.00000000000E+00  0.00000000000E+00 -0.13572376155E+04  0.13976484354E+04  0.33365731562E+03 0.  0.
        2    1    3    3  502    0 -0.54948835197E+02 -0.59042370784E+02 -0.12903439369E+04  0.12928622709E+04  0.25500000920E-02 0.  1.
       -2    1    3    3    0  502  0.54948835197E+02  0.59042370784E+02 -0.66893678529E+02  0.10478616450E+03  0.25500000920E-02 0. -1.
</event>
<event>
 5   0  0.1488510E-01  0.5945920E+03  0.7818609E-02  0.9916690E-01
       -2   -1    0    0    0  501  0.00000000000E+00  0.00000000000E+00  0.91450114638E+02  0.91450114673E+02  0.25500000920E-02 0.  1.
        2   -1    0    0  501    0  0.00000000000E+00  0.00000000000E+00 -0.96648210416E+03  0.96648210417E+03  0.25500000920E-02 0. -1.
    10030    2    1    2    0    0  0.00000000000E+00  0.00000000000E+00 -0.87503198952E+03  0.10579322188E+04  0.59459195838E+03 0.  0.
        5    1    3    3  502    0  0.16593742929E+03 -0.16368794198E+03 -0.10927390713E+03  0.25747203648E+03  0.46999998093E+01 0.  1.
       -5    1    3    3    0  502 -0.16593742929E+03  0.16368794198E+03 -0.76575808240E+03  0.80046018236E+03  0.46999998093E+01 0. -1.
</event>
<event>
 5   0  0.8860626E-02  0.6134035E+03  0.7818609E-02  0.9877982E-01
        1   -1    0    0  501    0  0.00000000000E+00  0.00000000000E+00  0.58437844832E+03  0.58437844835E+03  0.50400001928E-02 0. -1.
       -1   -1    0    0    0  501  0.00000000000E+00  0.00000000000E+00 -0.16096754753E+03  0.16096754761E+03  0.50400001928E-02 0.  1.
    10030    2    1    2    0    0  0.00000000000E+00  0.00000000000E+00  0.42341090079E+03  0.74534599596E+03  0.61340350731E+03 0.  0.
        3    1    3    3  502    0  0.54487154045E+02 -0.22554954648E+03  0.45540629607E+03  0.51111285699E+03  0.10100000352E+00 0. -1.
       -3    1    3    3    0  502 -0.54487154045E+02  0.22554954648E+03 -0.31995395281E+02  0.23423313897E+03  0.10100000352E+00 0.  1.
</event>
<event>
 5   0  0.9420349E-02  0.5505039E+03  0.7818609E-02  0.1001377E+00
       -1   -1    0    0    0  501  0.00000000000E+00  0.00000000000E+00  0.70848891917E+02  0.70848892096E+02  0.50400001928E-02 0. -1.
        1   -1    0    0  501    0  0.00000000000E+00  0.00000000000E+00 -0.10693692185E+04  0.10693692186E+04  0.50400001928E-02 0.  1.
    10030    2    1    2    0    0  0.00000000000E+00  0.00000000000E+00 -0.99852032663E+03  0.11402181107E+04  0.55050385754E+03 0.  0.
        2    1    3    3  502    0  0.16557753595E+03 -0.16887272062E+03 -0.20759421479E+03  0.31468917077E+03  0.25500000920E-02 0. -1.
       -2    1    3    3    0  502 -0.16557753595E+03  0.16887272062E+03 -0.79092611184E+03  0.82552893988E+03  0.25500000920E-02 0.  1.
</event>
<event>
 5   0  0.1488510E-01  0.5373326E+03  0.7818609E-02  0.1004469E+00
       -2   -1    0    0    0  501  0.00000000000E+00  0.00000000000E+00  0.43439532243E+02  0.43439532317E+02  0.25500000920E-02 0.  1.
        2   -1    0    0  501    0  0.00000000000E+00  0.00000000000E+00 -0.16616567437E+04  0.16616567437E+04  0.25500000920E-02 0. -1.
    10030    2    1    2    0    0  0.00000000000E+00  0.00000000000E+00 -0.16182172115E+04  0.17050962761E+04  0.53733264096E+03 0.  0.
        5    1    3    3  502    0 -0.32075482550E+02 -0.19332677104E+03 -0.22609663570E+03  0.29924213549E+03  0.46999998093E+01 0.  1.
       -5    1    3    3    0  502  0.32075482550E+02  0.19332677104E+03 -0.13921205758E+04  0.14058541406E+04  0.46999998093E+01 0. -1.
</event>
<event>
 5   0  0.1532571E-01  0.6010190E+03  0.7818609E-02  0.9903294E-01
        2   -1    0    0  501    0  0.00000000000E+00  0.00000000000E+00  0.17557816626E+03  0.17557816628E+03  0.25500000920E-02 0. -1.
       -2   -1    0    0    0  501  0.00000000000E+00  0.00000000000E+00 -0.51433486648E+03  0.51433486649E+03  0.25500000920E-02 0.  1.
    10030    2    1    2    0    0  0.00000000000E+00  0.00000000000E+00 -0.33875670022E+03  0.68991303277E+03  0.60101904366E+03 0.  0.
        1    1    3    3  502    0  0.12438034303E+03  0.12684874595E+03 -0.44760017520E+03  0.48156722371E+03  0.50400001928E-02 0.  1.
       -1    1    3    3    0  502 -0.12438034303E+03 -0.12684874595E+03  0.10884347498E+03  0.20834580906E+03  0.50400001928E-02 0. -1.
</event>
<event>
 5   0  0.9420349E-02  0.5827201E+03  0.7818609E-02  0.9941919E-01
       -1   -1    0    0    0  501  0.00000000000E+00  0.00000000000E+00  0.52984056692E+02  0.52984056932E+02  0.50400001928E-02 0.  1.
        1   -1    0    0  501    0  0.00000000000E+00  0.00000000000E+00 -0.16021928564E+04  0.16021928564E+04  0.50400001928E-02 0. -1.
    10030    2    1    2    0    0  0.00000000000E+00  0.00000000000E+00 -0.15492087997E+04  0.16551769134E+04  0.58272009521E+03 0.  0.
        2    1    3    3  502    0 -0.43967865112E+02  0.99068636532E+02 -0.15427977453E+04  0.15466003527E+04  0.25500000920E-02 0. -1.
       -2    1    3    3    0  502  0.43967865112E+02 -0.99068636532E+02 -0.64110544109E+01  0.10857656069E+03  0.25500000920E-02 0.  1.
</event>
<event>
 5   0  0.6170500E-02  0.6019155E+03  0.7818609E-02  0.9901440E-01
       -3   -1    0    0    0  501  0.00000000000E+00  0.00000000000E+00  0.86247428624E+03  0.86247429215E+03  0.10100000352E+00 0. -1.
        3   -1    0    0  501    0  0.00000000000E+00  0.00000000000E+00 -0.10501824171E+03  0.10501829028E+03  0.10100000352E+00 0.  1.
    10030    2    1    2    0    0  0.00000000000E+00  0.00000000000E+00  0.75745604453E+03  0.96749258243E+03  0.60191547386E+03 0.  0.
        5    1    3    3  502    0  0.44117708437E+02  0.13812093412E+03  0.80256352094E+03  0.81556977616E+03  0.46999998093E+01 0. -1.
       -5    1    3    3    0  502 -0.44117708437E+02 -0.13812093412E+03 -0.45107476413E+02  0.15192280628E+03  0.46999998093E+01 0.  1.
</event>
<event>
 5   0  0.9497860E-02  0.6006961E+03  0.7818609E-02  0.9903963E-01
       -1   -1    0    0    0  501  0.00000000000E+00  0.00000000000E+00  0.48095643330E+03  0.48095643333E+03  0.50400001928E-02 0. -1.
        1   -1    0    0  501    0  0.00000000000E+00  0.00000000000E+00 -0.18756159067E+03  0.18756159074E+03  0.50400001928E-02 0.  1.
    10030    2    1    2    0    0  0.00000000000E+00  0.00000000000E+00  0.29339484263E+03  0.66851802407E+03  0.60069610855E+03 0.  0.
        5    1    3    3  502    0 -0.23816694335E+03 -0.15262438220E+03  0.25892537125E+03  0.38351288482E+03  0.46999998093E+01 0. -1.
       -5    1    3    3    0  502  0.23816694335E+03  0.15262438220E+03  0.34469471381E+02  0.28500513925E+03  0.46999998093E+01 0.  1.
</event>
<event>
 5   0  0.8860626E-02  0.6064929E+03  0.7818609E-02  0.9892026E-01
        1   -1    0    0  501    0  0.00000000000E+00  0.00000000000E+00  0.45116911158E+03  0.45116911161E+03  0.50400001928E-02 0.  1.
       -1   -1    0    0    0  501  0.00000000000E+00  0.00000000000E+00 -0.20382248013E+03  0.20382248019E+03  0.50400001928E-02 0. -1.
    10030    2    1    2    0    0  0.00000000000E+00  0.00000000000E+00  0.24734663145E+03  0.65499159180E+03  0.60649289299E+03 0.  0.
        3    1    3    3  502    0 -0.33759434565E+02  0.25613135668E+03  0.29516503807E+03  0.39225677967E+03  0.10100000352E+00 0.  1.
       -3    1    3    3    0  502  0.33759434565E+02 -0.25613135668E+03 -0.47818406618E+02  0.26273481214E+03  0.10100000352E+00 0. -1.
</event>
<event>
 5   0  0.9177281E-02  0.5671234E+03  0.7818609E-02  0.9976064E-01
       -1   -1    0    0    0  501  0.00000000000E+00  0.00000000000E+00  0.51427925007E+03  0.51427925010E+03  0.50400001928E-02 0. -1.
        1   -1    0    0  501    0  0.00000000000E+00  0.00000000000E+00 -0.15634939888E+03  0.15634939896E+03  0.50400001928E-02 0.  1.
    10030    2    1    2    0    0  0.00000000000E+00  0.00000000000E+00  0.35792985119E+03  0.67062864906E+03  0.56712344913E+03 0.  0.
        1    1    3    3  502    0  0.28054517424E+03  0.38296287595E+02  0.16083543013E+03  0.32563819807E+03  0.50400001928E-02 0. -1.
       -1    1    3    3    0  502 -0.28054517424E+03 -0.38296287595E+02  0.19709442107E+03  0.34499045099E+03  0.50400001928E-02 0.  1.
</event>
<event>
 5   0  0.9497860E-02  0.6062748E+03  0.7818609E-02  0.9892473E-01
        1   -1    0    0  501    0  0.00000000000E+00  0.00000000000E+00  0.16133487358E+03  0.16133487366E+03  0.50400001928E-02 0. -1.
       -1   -1    0    0    0  501  0.00000000000E+00  0.00000000000E+00 -0.56957480746E+03  0.56957480748E+03  0.50400001928E-02 0.  1.
    10030    2    1    2    0    0  0.00000000000E+00  0.00000000000E+00 -0.40823993387E+03  0.73090968114E+03  0.60627478784E+03 0.  0.
        5    1    3    3  502    0  0.18587431684E+02  0.30069827636E+03 -0.16404038299E+03  0.34306891913E+03  0.46999998093E+01 0. -1.
       -5    1    3    3    0  502 -0.18587431684E+02 -0.30069827636E+03 -0.24419955088E+03  0.38784076201E+03  0.46999998093E+01 0.  1.
</event>
<event>
 5   0  0.9411028E-02  0.6109754E+03  0.7818609E-02  0.9882894E-01
        1   -1    0    0  501    0  0.00000000000E+00  0.00000000000E+00  0.19012438737E+03  0.19012438743E+03  0.50400001928E-02 0.  1.
       -1   -1    0    0    0  501  0.00000000000E+00  0.00000000000E+00 -0.49085097804E+03  0.49085097807E+03  0.50400001928E-02 0. -1.
    10030    2    1    2    0    0  0.00000000000E+00  0.00000000000E+00 -0.30072659067E+03  0.68097536550E+03  0.61097542183E+03 0.  0.
        4    1    3    3  502    0  0.20285668341E+03 -0.22819959479E+03 -0.13948611460E+03  0.33568419404E+03  0.12699999809E+01 0.  1.
       -4    1    3    3    0  502 -0.20285668341E+03  0.22819959479E+03 -0.16124047608E+03  0.34529117146E+03  0.12699999809E+01 0. -1.
</event>
<event>
 5   0  0.8860626E-02  0.5679815E+03  0.7818609E-02  0.9974155E-01
       -1   -1    0    0    0  501  0.00000000000E+00  0.00000000000E+00  0.10992241499E+03  0.10992241510E+03  0.50400001928E-02 0. -1.
        1   -1    0    0  501    0  0.00000000000E+00  0.00000000000E+00 -0.73370597632E+03  0.73370597633E+03  0.50400001928E-02 0.  1.
    10030    2    1    2    0    0  0.00000000000E+00  0.00000000000E+00 -0.62378356133E+03  0.84362839144E+03  0.56798145344E+03 0.  0.
        3    1    3    3  502    0  0.27948597032E+03  0.38803191022E+02 -0.26416206369E+03  0.38652257545E+03  0.10100000352E+00 0. -1.
       -3    1    3    3    0  502 -0.27948597032E+03 -0.38803191022E+02 -0.35962149764E+03  0.45710581598E+03  0.10100000352E+00 0.  1.
</event>
<event>
 5   0  0.1483942E-01  0.5772019E+03  0.7818609E-02  0.9953867E-01
        2   -1    0    0  501    0  0.00000000000E+00  0.00000000000E+00  0.12982675606E+04  0.12982675606E+04  0.25500000920E-02 0.  1.
       -2   -1    0    0    0  501  0.00000000000E+00  0.00000000000E+00 -0.64155116388E+02  0.64155116439E+02  0.25500000920E-02 0. -1.
    10030    2    1    2    0    0  0.00000000000E+00  0.00000000000E+00  0.12341124442E+04  0.13624226771E+04  0.57720189359E+03 0.  0.
        4    1    3    3  502    0 -0.10891241974E+03  0.22188637945E+03  0.26541792811E+03  0.36268963319E+03  0.12699999809E+01 0.  1.
       -4    1    3    3    0  502  0.10891241974E+03 -0.22188637945E+03  0.96869451614E+03  0.99973304389E+03  0.12699999809E+01 0. -1.
</event>
<event>
 5   0  0.8860626E-02  0.5870501E+03  0.7818609E-02  0.9932643E-01
       -1   -1    0    0    0  501  0.00000000000E+00  0.00000000000E+00  0.37264424087E+02  0.37264424428E+02  0.50400001928E-02 0. -1.
        1   -1    0    0  501    0  0.00000000000E+00  0.00000000000E+00 -0.23120428124E+04  0.23120428124E+04  0.50400001928E-02 0.  1.
    10030    2    1    2    0    0  0.00000000000E+00  0.00000000000E+00 -0.22747783883E+04  0.23493072368E+04  0.58705006354E+03 0.  0.
        3    1    3    3  502    0  0.15395642960E+03  0.11884932485E+03 -0.25761861466E+03  0.32279266573E+03  0.10100000352E+00 0. -1.
       -3    1    3    3    0  502 -0.15395642960E+03 -0.11884932485E+03 -0.20171597737E+04  0.20265145711E+04  0.10100000352E+00 0.  1.
</event>
<event>
 5   0  0.1513339E-01  0.6041641E+03  0.7818609E-02  0.9896804E-01
       -2   -1    0    0    0  501  0.00000000000E+00  0.00000000000E+00  0.83867997525E+02  0.83867997564E+02  0.25500000920E-02 0.  1.
        2   -1    0    0  501    0  0.00000000000E+00  0.00000000000E+00 -0.10880617997E+04  0.10880617997E+04  0.25500000920E-02 0. -1.
    10030    2    1    2    0    0  0.00000000000E+00  0.00000000000E+00 -0.10041938022E+04  0.11719297972E+04  0.60416409806E+03 0.  0.
        3    1    3    3  502    0  0.48283772782E+02 -0.28026694668E+03 -0.69965369239E+03  0.75524577695E+03  0.10100000352E+00 0. -1.
       -3    1    3    3    0  502 -0.48283772782E+02  0.28026694668E+03 -0.30454010976E+03  0.41668402030E+03  0.10100000352E+00 0.  1.
</event>
<event>
 5   0  0.1513339E-01  0.5850529E+03  0.7818609E-02  0.9936911E-01
        2   -1    0    0  501    0  0.00000000000E+00  0.00000000000E+00  0.64228262671E+03  0.64228262672E+03  0.25500000920E-02 0. -1.
       -2   -1    0    0    0  501  0.00000000000E+00  0.00000000000E+00 -0.13323065996E+03  0.13323065999E+03  0.25500000920E-02 0.  1.
    10030    2    1    2    0    0  0.00000000000E+00  0.00000000000E+00  0.50905196675E+03  0.77551328671E+03  0.58505294889E+03 0.  0.
        3    1    3    3  502    0  0.21078303520E+03  0.19208439898E+03  0.34089839649E+03  0.44445205725E+03  0.10100000352E+00 0. -1.
       -3    1    3    3    0  502 -0.21078303520E+03 -0.19208439898E+03  0.16815357026E+03  0.33106122946E+03  0.10100000352E+00 0.  1.
</event>
<event>
 5   0  0.1488510E-01  0.5415970E+03  0.7818609E-02  0.1003458E+00
       -2   -1    0    0    0  501  0.00000000000E+00  0.00000000000E+00  0.89778086264E+02  0.89778086301E+02  0.25500000920E-02 0.  1.
        2   -1    0    0  501    0  0.00000000000E+00  0.00000000000E+00 -0.81681209447E+03  0.81681209447E+03  0.25500000920E-02 0. -1.
    10030    2    1    2    0    0  0.00000000000E+00  0.00000000000E+00 -0.72703400820E+03  0.90659018077E+03  0.54159699666E+03 0.  0.
        5    1    3    3  502    0  0.13268142880E+03 -0.10388535727E+03 -0.87674973555E+01  0.16880606627E+03  0.46999998093E+01 0.  1.
       -5    1    3    3    0  502 -0.13268142880E+03  0.10388535727E+03 -0.71826651085E+03  0.73778411450E+03  0.46999998093E+01 0. -1.
</event>
<event>
 5   0  0.1488510E-01  0.6097560E+03  0.7818609E-02  0.9885370E-01
        2   -1    0    0  501    0  0.00000000000E+00  0.00000000000E+00  0.94410675014E+03  0.94410675015E+03  0.25500000920E-02 0.  1.
       -2   -1    0    0    0  501  0.00000000000E+00  0.00000000000E+00 -0.98453491053E+02  0.98453491086E+02  0.25500000920E-02 0. -1.
    10030    2    1    2    0    0  0.00000000000E+00  0.00000000000E+00  0.84565325909E+03  0.10425602412E+04  0.60975603481E+03 0.  0.
        5    1    3    3  502    0  0.10345599171E+03 -0.15769826707E+03  0.13342698277E+02  0.18913488111E+03  0.46999998093E+01 0. -1.
       -5    1    3    3    0  502 -0.10345599171E+03  0.15769826707E+03  0.83231056081E+03  0.85342536012E+03  0.46999998093E+01 0.  1.
</event>
<event>
 5   0  0.9497860E-02  0.6103940E+03  0.7818609E-02  0.9884073E-01
       -1   -1    0    0    0  501  0.00000000000E+00  0.00000000000E+00  0.14470135914E+03  0.14470135923E+03  0.50400001928E-02 0. -1.
        1   -1    0    0  501    0  0.00000000000E+00  0.00000000000E+00 -0.64370649911E+03  0.64370649913E+03  0.50400001928E-02 0.  1.
    10030    2    1    2    0    0  0.00000000000E+00  0.00000000000E+00 -0.49900513997E+03  0.78840785835E+03  0.61039398867E+03 0.  0.
        5    1    3    3  502    0  0.15262118922E+03 -0.20512652841E+03 -0.34325679359E+02  0.25801252357E+03  0.46999998093E+01 0. -1.
       -5    1    3    3    0  502 -0.15262118922E+03  0.20512652841E+03 -0.46467946061E+03  0.53039533479E+03  0.46999998093E+01 0.  1.
</event>
<event>
 5   0  0.9420349E-02  0.5905210E+03  0.7818609E-02  0.9925269E-01
       -1   -1    0    0    0  501  0.00000000000E+00  0.00000000000E+00  0.14112098427E+03  0.14112098436E+03  0.50400001928E-02 0. -1.
        1   -1    0    0  501    0  0.00000000000E+00  0.00000000000E+00 -0.61775911328E+03  0.61775911330E+03  0.50400001928E-02 0.  1.
    10030    2    1    2    0    0  0.00000000000E+00  0.00000000000E+00 -0.47663812901E+03  0.75888009766E+03  0.59052103823E+03 0.  0.
        2    1    3    3  502    0 -0.64179553482E+02  0.15818958232E+03  0.71270157462E+02  0.18499295768E+03  0.25500000920E-02 0. -1.
       -2    1    3    3    0  502  0.64179553482E+02 -0.15818958232E+03 -0.54790828647E+03  0.57388713998E+03  0.25500000920E-02 0.  1.
</event>
<event>
 5   0  0.1488510E-01  0.5797288E+03  0.7818609E-02  0.9948378E-01
       -2   -1    0    0    0  501  0.00000000000E+00  0.00000000000E+00  0.36890130487E+02  0.36890130575E+02  0.25500000920E-02 0. -1.
        2   -1    0    0  501    0  0.00000000000E+00  0.00000000000E+00 -0.22776112680E+04  0.22776112680E+04  0.25500000920E-02 0.  1.
    10030    2    1    2    0    0  0.00000000000E+00  0.00000000000E+00 -0.22407211375E+04  0.23145013986E+04  0.57972882273E+03 0.  0.
        5    1    3    3  502    0 -0.34667956977E+02 -0.80214058319E+02 -0.17109391072E+02  0.89168288388E+02  0.46999998093E+01 0. -1.
       -5    1    3    3    0  502  0.34667956977E+02  0.80214058319E+02 -0.22236117464E+04  0.22253331102E+04  0.46999998093E+01 0.  1.
</event>
<event>
 5   0  0.1532571E-01  0.5914444E+03  0.7818609E-02  0.9923317E-01
        2   -1    0    0  501    0  0.00000000000E+00  0.00000000000E+00  0.18338750128E+04  0.18338750128E+04  0.25500000920E-02 0. -1.
       -2   -1    0    0    0  501  0.00000000000E+00  0.00000000000E+00 -0.47686794271E+02  0.47686794339E+02  0.25500000920E-02 0.  1.
    10030    2    1    2    0    0  0.00000000000E+00  0.00000000000E+00  0.17861882185E+04  0.18815618072E+04  0.59144440321E+03 0.  0.
        1    1    3    3  502    0 -0.21593429563E+03 -0.13770094596E+03  0.13634796643E+04  0.13873233097E+04  0.50400001928E-02 0. -1.
       -1    1    3    3    0  502  0.21593429563E+03  0.13770094596E+03  0.42270855424E+03  0.49423849749E+03  0.50400001928E-02 0.  1.
</event>
<event>
 5   0  0.9420349E-02  0.6064475E+03  0.7818609E-02  0.9892119E-01
       -1   -1    0    0    0  501  0.00000000000E+00  0.00000000000E+00  0.16625241175E+03  0.16625241183E+03  0.50400001928E-02 0.  1.
        1   -1    0    0  501    0  0.00000000000E+00  0.00000000000E+00 -0.55304245464E+03  0.55304245467E+03  0.50400001928E-02 0. -1.
    10030    2    1    2    0    0  0.00000000000E+00  0.00000000000E+00 -0.38679004289E+03  0.71929486649E+03  0.60644749788E+03 0.  0.
        2    1    3    3  502    0 -0.38581667617E+02 -0.20782757368E+03 -0.45125150389E+03  0.49830589524E+03  0.25500000920E-02 0. -1.
       -2    1    3    3    0  502  0.38581667617E+02  0.20782757368E+03  0.64461460999E+02  0.22098897126E+03  0.25500000920E-02 0.  1.
</event>
<event>
 5   0  0.1532571E-01  0.5876263E+03  0.7818609E-02  0.9931415E-01
       -2   -1    0    0    0  501  0.00000000000E+00  0.00000000000E+00  0.72251146478E+02  0.72251146523E+02  0.25500000920E-02 0.  1.
        2   -1    0    0  501    0  0.00000000000E+00  0.00000000000E+00 -0.11948068827E+04  0.11948068827E+04  0.25500000920E-02 0. -1.
    10030    2    1    2    0    0  0.00000000000E+00  0.00000000000E+00 -0.11225557362E+04  0.12670580293E+04  0.58762630005E+03 0.  0.
        1    1    3    3  502    0 -0.23389658288E+03  0.31086444064E+02 -0.18376998504E+03  0.29907421473E+03  0.50400001928E-02 0.  1.
       -1    1    3    3    0  502  0.23389658288E+03 -0.31086444064E+02 -0.93878575120E+03  0.96798381452E+03  0.50400001928E-02 0. -1.
</event>
<event>
 5   0  0.9411028E-02  0.6193252E+03  0.7818609E-02  0.9866104E-01
       -1   -1    0    0    0  501  0.00000000000E+00  0.00000000000E+00  0.11044356529E+03  0.11044356540E+03  0.50400001928E-02 0. -1.
        1   -1    0    0  501    0  0.00000000000E+00  0.00000000000E+00 -0.86823474712E+03  0.86823474713E+03  0.50400001928E-02 0.  1.
    10030    2    1    2    0    0  0.00000000000E+00  0.00000000000E+00 -0.75779118183E+03  0.97867831254E+03  0.61932524910E+03 0.  0.
        4    1    3    3  502    0 -0.75292838993E+02 -0.17224790671E+03 -0.76774527406E+03  0.79042569019E+03  0.12699999809E+01 0.  1.
       -4    1    3    3    0  502  0.75292838993E+02  0.17224790671E+03  0.99540922249E+01  0.18825262235E+03  0.12699999809E+01 0. -1.
</event>
<event>
 5   0  0.6170500E-02  0.5955326E+03  0.7818609E-02  0.9914718E-01
        3   -1    0    0  501    0  0.00000000000E+00  0.00000000000E+00  0.31318654413E+03  0.31318656041E+03  0.10100000352E+00 0.  1.
       -3   -1    0    0    0  501  0.00000000000E+00  0.00000000000E+00 -0.28310522925E+03  0.28310524727E+03  0.10100000352E+00 0. -1.
    10030    2    1    2    0    0  0.00000000000E+00  0.00000000000E+00  0.30081314876E+02  0.59629180768E+03  0.59553256368E+03 0.  0.
        2    1    3    3  502    0  0.70699180132E+02  0.28844012533E+03 -0.66359294732E+01  0.29705237844E+03  0.25500000920E-02 0.  1.
       -2    1    3    3    0  502 -0.70699180132E+02 -0.28844012533E+03  0.36717244349E+02  0.29923942924E+03  0.25500000920E-02 0. -1.
</event>
<event>
 5   0  0.1513339E-01  0.5721174E+03  0.7818609E-02  0.9965004E-01
       -2   -1    0    0    0  501  0.00000000000E+00  0.00000000000E+00  0.48307900444E+03  0.48307900444E+03  0.25500000920E-02 0. -1.
        2   -1    0    0  501    0  0.00000000000E+00  0.00000000000E+00 -0.16939171798E+03  0.16939171800E+03  0.25500000920E-02 0.  1.
    10030    2    1    2    0    0  0.00000000000E+00  0.00000000000E+00  0.31368728646E+03  0.65247072244E+03  0.57211740924E+03 0.  0.
        3    1    3    3  502    0 -0.99058427092E+02  0.24816569226E+03  0.40368177396E+02  0.27023764123E+03  0.10100000352E+00 0.  1.
       -3    1    3    3    0  502  0.99058427092E+02 -0.24816569226E+03  0.27331910906E+03  0.38223308121E+03  0.10100000352E+00 0. -1.
</event>
<event>
 5   0  0.9411028E-02  0.5964722E+03  0.7818609E-02  0.9912752E-01
       -1   -1    0    0    0  501  0.00000000000E+00  0.00000000000E+00  0.28830876508E+03  0.28830876512E+03  0.50400001928E-02 0. -1.
        1   -1    0    0  501    0  0.00000000000E+00  0.00000000000E+00 -0.30850523099E+03  0.30850523103E+03  0.50400001928E-02 0.  1.
    10030    2    1    2    0    0  0.00000000000E+00  0.00000000000E+00 -0.20196465913E+02  0.59681399616E+03  0.59647216932E+03 0.  0.
        4    1    3    3  502    0  0.29354997035E+03 -0.49150857435E+02  0.87741089721E+01  0.29776834917E+03  0.12699999809E+01 0. -1.
       -4    1    3    3    0  502 -0.29354997035E+03  0.49150857435E+02 -0.28970574885E+02  0.29904564699E+03  0.12699999809E+01 0.  1.
</event>
<event>
 5   0  0.1513339E-01  0.6038632E+03  0.7818609E-02  0.9897423E-01
       -2   -1    0    0    0  501  0.00000000000E+00  0.00000000000E+00  0.70576539078E+02  0.70576539124E+02  0.25500000920E-02 0. -1.
        2   -1    0    0  501    0  0.00000000000E+00  0.00000000000E+00 -0.12916856343E+04  0.12916856343E+04  0.25500000920E-02 0.  1.
    10030    2    1    2    0    0  0.00000000000E+00  0.00000000000E+00 -0.12211090952E+04  0.13622621734E+04  0.60386323511E+03 0.  0.
        3    1    3    3  502    0  0.40223871307E+02 -0.17495024190E+03 -0.62887446167E+02  0.19021142986E+03  0.10100000352E+00 0. -1.
       -3    1    3    3    0  502 -0.40223871307E+02  0.17495024190E+03 -0.11582216491E+04  0.11720507436E+04  0.10100000352E+00 0.  1.
</event>
<event>
 5   0  0.1483942E-01  0.5767650E+03  0.7818609E-02  0.9954819E-01
       -2   -1    0    0    0  501  0.00000000000E+00  0.00000000000E+00  0.15088523596E+03  0.15088523598E+03  0.25500000920E-02 0. -1.
        2   -1    0    0  501    0  0.00000000000E+00  0.00000000000E+00 -0.55117703776E+03  0.55117703777E+03  0.25500000920E-02 0.  1.
    10030    2    1    2    0    0  0.00000000000E+00  0.00000000000E+00 -0.40029180181E+03  0.70206227374E+03  0.57676503849E+03 0.  0.
        4    1    3    3  502    0 -0.27904053497E+03  0.89307986938E+01 -0.28808672759E+03  0.40117197663E+03  0.12699999809E+01 0.  1.
       -4    1    3    3    0  502  0.27904053497E+03 -0.89307986938E+01 -0.11220507422E+03  0.30089029712E+03  0.12699999809E+01 0. -1.
</event>
<event>
 5   0  0.1502642E-01  0.5676692E+03  0.7818609E-02  0.9974850E-01
       -2   -1    0    0    0  501  0.00000000000E+00  0.00000000000E+00  0.29390619107E+03  0.29390619109E+03  0.25500000920E-02 0. -1.
        2   -1    0    0  501    0  0.00000000000E+00  0.00000000000E+00 -0.27410813575E+03  0.27410813576E+03  0.25500000920E-02 0.  1.
    10030    2    1    2    0    0  0.00000000000E+00  0.00000000000E+00  0.19798055323E+02  0.56801432685E+03  0.56766919285E+03 0.  0.
        2    1    3    3  502    0  0.15660850934E+03  0.81337291571E+02 -0.21254244663E+03  0.27625399875E+03  0.25500000920E-02 0.  1.
       -2    1    3    3    0  502 -0.15660850934E+03 -0.81337291571E+02  0.23234050195E+03  0.29176032810E+03  0.25500000920E-02 0. -1.
</event>
<event>
 5   0  0.1502642E-01  0.5962187E+03  0.7818609E-02  0.9913282E-01
        2   -1    0    0  501    0  0.00000000000E+00  0.00000000000E+00  0.99390903145E+03  0.99390903145E+03  0.25500000920E-02 0.  1.
       -2   -1    0    0    0  501  0.00000000000E+00  0.00000000000E+00 -0.89413806823E+02  0.89413806859E+02  0.25500000920E-02 0. -1.
    10030    2    1    2    0    0  0.00000000000E+00  0.00000000000E+00  0.90449522463E+03  0.10833228383E+04  0.59621871879E+03 0.  0.
        2    1    3    3  502    0 -0.12127753896E+03 -0.15875948187E+02 -0.41722496917E+02  0.12923255760E+03  0.25500000920E-02 0. -1.
       -2    1    3    3    0  502  0.12127753896E+03  0.15875948187E+02  0.94621772154E+03  0.95409028071E+03  0.25500000920E-02 0.  1.
</event>
<event>
 5   0  0.9420349E-02  0.6929167E+03  0.7818609E-02  0.9729423E-01
       -1   -1    0    0    0  501  0.00000000000E+00  0.00000000000E+00  0.49676955071E+03  0.49676955073E+03  0.50400001928E-02 0. -1.
        1   -1    0    0  501    0  0.00000000000E+00  0.00000000000E+00 -0.24162793654E+03  0.24162793660E+03  0.50400001928E-02 0.  1.
    10030    2    1    2    0    0  0.00000000000E+00  0.00000000000E+00  0.25514161416E+03  0.73839748733E+03  0.69291673816E+03 0.  0.
        2    1    3    3  502    0  0.18589677723E+03 -0.29073796373E+03  0.16036794906E+03  0.38053127917E+03  0.25500000920E-02 0. -1.
       -2    1    3    3    0  502 -0.18589677723E+03  0.29073796373E+03  0.94773665102E+02  0.35786620816E+03  0.25500000920E-02 0.  1.
</event>
<event>
 5   0  0.1502642E-01  0.6058564E+03  0.7818609E-02  0.9893330E-01
        2   -1    0    0  501    0  0.00000000000E+00  0.00000000000E+00  0.79744445970E+03  0.79744445971E+03  0.25500000920E-02 0. -1.
       -2   -1    0    0    0  501  0.00000000000E+00  0.00000000000E+00 -0.11507444722E+03  0.11507444725E+03  0.25500000920E-02 0.  1.
    10030    2    1    2    0    0  0.00000000000E+00  0.00000000000E+00  0.68237001248E+03  0.91251890695E+03  0.60585635394E+03 0.  0.
        2    1    3    3  502    0 -0.28177982812E+03 -0.67163428588E+02  0.20769875761E+03  0.35644013746E+03  0.25500000920E-02 0. -1.
       -2    1    3    3    0  502  0.28177982812E+03  0.67163428588E+02  0.47467125487E+03  0.55607876949E+03  0.25500000920E-02 0.  1.
</event>
<event>
 5   0  0.1488510E-01  0.6095680E+03  0.7818609E-02  0.9885752E-01
        2   -1    0    0  501    0  0.00000000000E+00  0.00000000000E+00  0.12727699655E+04  0.12727699655E+04  0.25500000920E-02 0. -1.
       -2   -1    0    0    0  501  0.00000000000E+00  0.00000000000E+00 -0.72985143724E+02  0.72985143768E+02  0.25500000920E-02 0.  1.
    10030    2    1    2    0    0  0.00000000000E+00  0.00000000000E+00  0.11997848218E+04  0.13457551093E+04  0.60956804015E+03 0.  0.
        5    1    3    3  502    0  0.65435270745E+01  0.18189346079E+03  0.11395122945E+04  0.11539663808E+04  0.46999998093E+01 0. -1.
       -5    1    3    3    0  502 -0.65435270745E+01 -0.18189346079E+03  0.60272527354E+02  0.19178872849E+03  0.46999998093E+01 0.  1.
</event>
<event>
 5   0  0.1488510E-01  0.6119447E+03  0.7818609E-02  0.9880930E-01
        2   -1    0    0  501    0  0.00000000000E+00  0.00000000000E+00  0.47468598894E+03  0.47468598895E+03  0.25500000920E-02 0.  1.
       -2   -1    0    0    0  501  0.00000000000E+00  0.00000000000E+00 -0.19722319661E+03  0.19722319662E+03  0.25500000920E-02 0. -1.
    10030    2    1    2    0    0  0.00000000000E+00  0.00000000000E+00  0.27746279234E+03  0.67190918557E+03  0.61194472996E+03 0.  0.
        5    1    3    3  502    0  0.24588316215E+03 -0.16536661792E+03  0.55166131757E+02  0.30144657875E+03  0.46999998093E+01 0. -1.
       -5    1    3    3    0  502 -0.24588316215E+03  0.16536661792E+03  0.22229666058E+03  0.37046260682E+03  0.46999998093E+01 0.  1.
</event>
<event>
 5   0  0.1513339E-01  0.6169531E+03  0.7818609E-02  0.9870845E-01
       -2   -1    0    0    0  501  0.00000000000E+00  0.00000000000E+00  0.14024089921E+03  0.14024089924E+03  0.25500000920E-02 0. -1.
        2   -1    0    0  501    0  0.00000000000E+00  0.00000000000E+00 -0.67853090335E+03  0.67853090335E+03  0.25500000920E-02 0.  1.
    10030    2    1    2    0    0  0.00000000000E+00  0.00000000000E+00 -0.53829000414E+03  0.81877180259E+03  0.61695310694E+03 0.  0.
        3    1    3    3  502    0 -0.15035803443E+03 -0.18854566852E+03 -0.13865419646E+02  0.24155593079E+03  0.10100000352E+00 0. -1.
       -3    1    3    3    0  502  0.15035803443E+03  0.18854566852E+03 -0.52442458449E+03  0.57721587180E+03  0.10100000352E+00 0.  1.
</event>
<event>
 5   0  0.8860626E-02  0.6053026E+03  0.7818609E-02  0.9894465E-01
       -1   -1    0    0    0  501  0.00000000000E+00  0.00000000000E+00  0.10249587316E+03  0.10249587329E+03  0.50400001928E-02 0. -1.
        1   -1    0    0  501    0  0.00000000000E+00  0.00000000000E+00 -0.89367325085E+03  0.89367325086E+03  0.50400001928E-02 0.  1.
    10030    2    1    2    0    0  0.00000000000E+00  0.00000000000E+00 -0.79117737768E+03  0.99616912415E+03  0.60530263584E+03 0.  0.
        3    1    3    3  502    0  0.10629955975E+03  0.28313564243E+03 -0.37665043401E+03  0.48304342254E+03  0.10100000352E+00 0.  1.
       -3    1    3    3    0  502 -0.10629955975E+03 -0.28313564243E+03 -0.41452694368E+03  0.51312570161E+03  0.10100000352E+00 0. -1.
</event>
<event>
 5   0  0.6170500E-02  0.5866277E+03  0.7818609E-02  0.9933544E-01
        3   -1    0    0  501    0  0.00000000000E+00  0.00000000000E+00  0.20457264476E+04  0.20457264501E+04  0.10100000352E+00 0. -1.
       -3   -1    0    0    0  501  0.00000000000E+00  0.00000000000E+00 -0.42054933845E+02  0.42055055127E+02  0.10100000352E+00 0.  1.
    10030    2    1    2    0    0  0.00000000000E+00  0.00000000000E+00  0.20036715138E+04  0.20877815052E+04  0.58662771713E+03 0.  0.
        3    1    3    3  502    0  0.80621404276E+02 -0.25901322406E+03  0.60480331388E+03  0.66285346778E+03  0.10100000352E+00 0.  1.
       -3    1    3    3    0  502 -0.80621404276E+02  0.25901322406E+03  0.13988681999E+04  0.14249280375E+04  0.10100000352E+00 0. -1.
</event>
<event>
 5   0  0.9177281E-02  0.6045501E+03  0.7818609E-02  0.9896011E-01
        1   -1    0    0  501    0  0.00000000000E+00  0.00000000000E+00  0.23483589835E+04  0.23483589835E+04  0.50400001928E-02 0. -1.
       -1   -1    0    0    0  501  0.00000000000E+00  0.00000000000E+00 -0.38908101835E+02  0.38908102162E+02  0.50400001928E-02 0.  1.
    10030    2    1    2    0    0  0.00000000000E+00  0.00000000000E+00  0.23094508817E+04  0.23872670857E+04  0.60455005045E+03 0.  0.
        1    1    3    3  502    0 -0.26721299861E+02  0.30109153661E+03  0.11538463021E+04  0.11927830609E+04  0.50400001928E-02 0. -1.
       -1    1    3    3    0  502  0.26721299861E+02 -0.30109153661E+03  0.11556045796E+04  0.11944840249E+04  0.50400001928E-02 0.  1.
</event>
<event>
 5   0  0.1513339E-01  0.6098275E+03  0.7818609E-02  0.9885224E-01
        2   -1    0    0  501    0  0.00000000000E+00  0.00000000000E+00  0.13265212615E+04  0.13265212616E+04  0.25500000920E-02 0.  1.
       -2   -1    0    0    0  501  0.00000000000E+00  0.00000000000E+00 -0.70087383158E+02  0.70087383205E+02  0.25500000920E-02 0. -1.
    10030    2    1    2    0    0  0.00000000000E+00  0.00000000000E+00  0.12564338784E+04  0.13966086448E+04  0.60982752958E+03 0.  0.
        3    1    3    3  502    0 -0.15551731145E+03  0.25649225559E+03  0.75362297906E+03  0.81112361333E+03  0.10100000352E+00 0.  1.
       -3    1    3    3    0  502  0.15551731145E+03 -0.25649225559E+03  0.50281089933E+03  0.58548503142E+03  0.10100000352E+00 0. -1.
</event>
<event>
 5   0  0.6170500E-02  0.6128801E+03  0.7818609E-02  0.9879038E-01
       -4   -1    0    0    0  501  0.00000000000E+00  0.00000000000E+00  0.47325950048E+03  0.47326120451E+03  0.12699999809E+01 0. -1.
        4   -1    0    0  501    0  0.00000000000E+00  0.00000000000E+00 -0.19841876000E+03  0.19842282434E+03  0.12699999809E+01 0.  1.
    10030    2    1    2    0    0  0.00000000000E+00  0.00000000000E+00  0.27484074048E+03  0.67168402885E+03  0.61288008777E+03 0.  0.
        2    1    3    3  502    0 -0.26695923847E+02  0.29504922240E+03  0.22328824303E+03  0.37097756734E+03  0.25500000920E-02 0. -1.
       -2    1    3    3    0  502  0.26695923847E+02 -0.29504922240E+03  0.51552497456E+02  0.30070646151E+03  0.25500000920E-02 0.  1.
</event>
<event>
 5   0  0.1483942E-01  0.6055229E+03  0.7818609E-02  0.9894014E-01
       -2   -1    0    0    0  501  0.00000000000E+00  0.00000000000E+00  0.59237142868E+02  0.59237142923E+02  0.25500000920E-02 0.  1.
        2   -1    0    0  501    0  0.00000000000E+00  0.00000000000E+00 -0.15474158269E+04  0.15474158269E+04  0.25500000920E-02 0. -1.
    10030    2    1    2    0    0  0.00000000000E+00  0.00000000000E+00 -0.14881786841E+04  0.16066529699E+04  0.60552288961E+03 0.  0.
        4    1    3    3  502    0 -0.38098842163E+02  0.63292363847E+02  0.34949010743E+02  0.81734272783E+02  0.12699999809E+01 0.  1.
       -4    1    3    3    0  502  0.38098842163E+02 -0.63292363847E+02 -0.15231276948E+04  0.15249186971E+04  0.12699999809E+01 0. -1.
</event>
<event>
 5   0  0.9497860E-02  0.5993678E+03  0.7818609E-02  0.9906718E-01
        1   -1    0    0  501    0  0.00000000000E+00  0.00000000000E+00  0.13553248340E+03  0.13553248349E+03  0.50400001928E-02 0. -1.
       -1   -1    0    0    0  501  0.00000000000E+00  0.00000000000E+00 -0.66264889694E+03  0.66264889696E+03  0.50400001928E-02 0.  1.
    10030    2    1    2    0    0  0.00000000000E+00  0.00000000000E+00 -0.52711641354E+03  0.79818138045E+03  0.59936783587E+03 0.  0.
        5    1    3    3  502    0  0.19358895300E+03  0.17480669996E+03 -0.67140483919E+02  0.26937705851E+03  0.46999998093E+01 0. -1.
       -5    1    3    3    0  502 -0.19358895300E+03 -0.17480669996E+03 -0.45997592962E+03  0.52880432194E+03  0.46999998093E+01 0.  1.
</event>
<event>
 5   0  0.9411028E-02  0.5837587E+03  0.7818609E-02  0.9939686E-01
       -1   -1    0    0    0  501  0.00000000000E+00  0.00000000000E+00  0.85659587375E+03  0.85659587377E+03  0.50400001928E-02 0. -1.
        1   -1    0    0  501    0  0.00000000000E+00  0.00000000000E+00 -0.99455949462E+02  0.99455949590E+02  0.50400001928E-02 0.  1.
    10030    2    1    2    0    0  0.00000000000E+00  0.00000000000E+00  0.75713992429E+03  0.95605182336E+03  0.58375870357E+03 0.  0.
        4    1    3    3  502    0 -0.15026227622E+03 -0.93590943162E+01  0.78809173359E+03  0.80234440096E+03  0.12699999809E+01 0. -1.
       -4    1    3    3    0  502  0.15026227622E+03  0.93590943162E+01 -0.30951809296E+02  0.15370742240E+03  0.12699999809E+01 0.  1.
</event>
<event>
 5   0  0.1483942E-01  0.6038821E+03  0.7818609E-02  0.9897385E-01
        2   -1    0    0  501    0  0.00000000000E+00  0.00000000000E+00  0.49997794376E+03  0.49997794377E+03  0.25500000920E-02 0.  1.
       -2   -1    0    0    0  501  0.00000000000E+00  0.00000000000E+00 -0.18234482403E+03  0.18234482405E+03  0.25500000920E-02 0. -1.
    10030    2    1    2    0    0  0.00000000000E+00  0.00000000000E+00  0.31763311973E+03  0.68232276782E+03  0.60388207519E+03 0.  0.
        4    1    3    3  502    0 -0.13739590659E+03  0.10153260417E+03  0.44011314806E+03  0.47210983982E+03  0.12699999809E+01 0.  1.
       -4    1    3    3    0  502  0.13739590659E+03 -0.10153260417E+03 -0.12248002833E+03  0.21021292800E+03  0.12699999809E+01 0. -1.
</event>
<event>
 5   0  0.1532571E-01  0.5936294E+03  0.7818609E-02  0.9918712E-01
       -2   -1    0    0    0  501  0.00000000000E+00  0.00000000000E+00  0.11486885073E+03  0.11486885076E+03  0.25500000920E-02 0. -1.
        2   -1    0    0  501    0  0.00000000000E+00  0.00000000000E+00 -0.76695262562E+03  0.76695262563E+03  0.25500000920E-02 0.  1.
    10030    2    1    2    0    0  0.00000000000E+00  0.00000000000E+00 -0.65208377489E+03  0.88182147639E+03  0.59362940185E+03 0.  0.
        1    1    3    3  502    0 -0.13517780742E+03 -0.76547866858E+02  0.49657993584E+02  0.16309056347E+03  0.50400001928E-02 0. -1.
       -1    1    3    3    0  502  0.13517780742E+03  0.76547866858E+02 -0.70174176847E+03  0.71873091292E+03  0.50400001928E-02 0.  1.
</event>
<event>
 5   0  0.1502642E-01  0.6454040E+03  0.7818609E-02  0.9815442E-01
       -2   -1    0    0    0  501  0.00000000000E+00  0.00000000000E+00  0.69219722896E+02  0.69219722943E+02  0.25500000920E-02 0.  1.
        2   -1    0    0  501    0  0.00000000000E+00  0.00000000000E+00 -0.15044349759E+04  0.15044349759E+04  0.25500000920E-02 0. -1.
    10030    2    1    2    0    0  0.00000000000E+00  0.00000000000E+00 -0.14352152530E+04  0.15736546988E+04  0.64540397329E+03 0.  0.
        2    1    3    3  502    0  0.70793788639E+02  0.51150141975E+02 -0.14750690747E+04  0.14776524872E+04  0.25500000920E-02 0. -1.
       -2    1    3    3    0  502 -0.70793788639E+02 -0.51150141975E+02  0.39853821744E+02  0.96002211683E+02  0.25500000920E-02 0.  1.
</event>
<event>
 5   0  0.8860626E-02  0.6854104E+03  0.7818609E-02  0.9742513E-01
        1   -1    0    0  501    0  0.00000000000E+00  0.00000000000E+00  0.22398694453E+03  0.22398694458E+03  0.50400001928E-02 0. -1.
       -1   -1    0    0    0  501  0.00000000000E+00  0.00000000000E+00 -0.52434685410E+03  0.52434685413E+03  0.50400001928E-02 0.  1.
    10030    2    1    2    0    0  0.00000000000E+00  0.00000000000E+00 -0.30035990957E+03  0.74833379871E+03  0.68541038730E+03 0.  0.
        3    1    3    3  502    0 -0.27298587943E+03 -0.20656054302E+03 -0.16772681952E+03  0.38120971195E+03  0.10100000352E+00 0.  1.
       -3    1    3    3    0  502  0.27298587943E+03  0.20656054302E+03 -0.13263309005E+03  0.36712408676E+03  0.10100000352E+00 0. -1.
</event>
<event>
 5   0  0.9497860E-02  0.5904751E+03  0.7818609E-02  0.9925367E-01
        1   -1    0    0  501    0  0.00000000000E+00  0.00000000000E+00  0.11962291308E+04  0.11962291308E+04  0.50400001928E-02 0.  1.
       -1   -1    0    0    0  501  0.00000000000E+00  0.00000000000E+00 -0.72866657293E+02  0.72866657467E+02  0.50400001928E-02 0. -1.
    10030    2    1    2    0    0  0.00000000000E+00  0.00000000000E+00  0.11233624735E+04  0.12690957883E+04  0.59047512475E+03 0.  0.
        5    1    3    3  502    0 -0.14443970456E+03 -0.14658472106E+03  0.10165634292E+04  0.10371948729E+04  0.46999998093E+01 0.  1.
       -5    1    3    3    0  502  0.14443970456E+03  0.14658472106E+03  0.10679904428E+03  0.23190091540E+03  0.46999998093E+01 0. -1.
</event>
<event>
 5   0  0.9411028E-02  0.6062835E+03  0.7818609E-02  0.9892455E-01
        1   -1    0    0  501    0  0.00000000000E+00  0.00000000000E+00  0.15193009812E+04  0.15193009812E+04  0.50400001928E-02 0. -1.
       -1   -1    0    0    0  501  0.00000000000E+00  0.00000000000E+00 -0.60484991264E+02  0.60484991474E+02  0.50400001928E-02 0.  1.
    10030    2    1    2    0    0  0.00000000000E+00  0.00000000000E+00  0.14588159900E+04  0.15797859727E+04  0.60628345433E+03 0.  0.
        4    1    3    3  502    0  0.20357880931E+03 -0.49634951123E+02  0.15861741465E+03  0.26280992581E+03  0.12699999809E+01 0.  1.
       -4    1    3    3    0  502 -0.20357880931E+03  0.49634951123E+02  0.13001985753E+04  0.13169760469E+04  0.12699999809E+01 0. -1.
</event>
<event>
 5   0  0.9420349E-02  0.5917737E+03  0.7818609E-02  0.9922621E-01
       -1   -1    0    0    0  501  0.00000000000E+00  0.00000000000E+00  0.28377607339E+03  0.28377607343E+03  0.50400001928E-02 0.  1.
        1   -1    0    0  501    0  0.00000000000E+00  0.00000000000E+00 -0.30851452553E+03  0.30851452557E+03  0.50400001928E-02 0. -1.
    10030    2    1    2    0    0  0.00000000000E+00  0.00000000000E+00 -0.24738452142E+02  0.59229059900E+03  0.59177374279E+03 0.  0.
        2    1    3    3  502    0  0.18136521000E+03  0.13352231123E+03 -0.20444174402E+03  0.30416767365E+03  0.25500000920E-02 0. -1.
       -2    1    3    3    0  502 -0.18136521000E+03 -0.13352231123E+03  0.17970329187E+03  0.28812292535E+03  0.25500000920E-02 0.  1.
</event>
<event>
 5   0  0.1502642E-01  0.6030439E+03  0.7818609E-02  0.9899111E-01
       -2   -1    0    0    0  501  0.00000000000E+00  0.00000000000E+00  0.27023874612E+03  0.27023874613E+03  0.25500000920E-02 0. -1.
        2   -1    0    0  501    0  0.00000000000E+00  0.00000000000E+00 -0.33642652062E+03  0.33642652063E+03  0.25500000920E-02 0.  1.
    10030    2    1    2    0    0  0.00000000000E+00  0.00000000000E+00 -0.66187774506E+02  0.60666526676E+03  0.60304388265E+03 0.  0.
        2    1    3    3  502    0 -0.95655063715E+02  0.28104070227E+02 -0.31936511949E+03  0.33456510507E+03  0.25500000920E-02 0.  1.
       -2    1    3    3    0  502  0.95655063715E+02 -0.28104070227E+02  0.25317734498E+03  0.27210016170E+03  0.25500000920E-02 0. -1.
</event>
<event>
 5   0  0.1488510E-01  0.6491739E+03  0.7818609E-02  0.9808331E-01
        2   -1    0    0  501    0  0.00000000000E+00  0.00000000000E+00  0.22195092888E+03  0.22195092889E+03  0.25500000920E-02 0. -1.
       -2   -1    0    0    0  501  0.00000000000E+00  0.00000000000E+00 -0.47468460620E+03  0.47468460621E+03  0.25500000920E-02 0.  1.
    10030    2    1    2    0    0  0.00000000000E+00  0.00000000000E+00 -0.25273367733E+03  0.69663553510E+03  0.64917390360E+03 0.  0.
        5    1    3    3  502    0 -0.12068541678E+03  0.20247688535E+03  0.11304209208E+03  0.26146216458E+03  0.46999998093E+01 0. -1.
       -5    1    3    3    0  502  0.12068541678E+03 -0.20247688535E+03 -0.36577576941E+03  0.43517337052E+03  0.46999998093E+01 0.  1.
</event>
<event>
 5   0  0.9177281E-02  0.5880442E+03  0.7818609E-02  0.9930526E-01
       -1   -1    0    0    0  501  0.00000000000E+00  0.00000000000E+00  0.12421251301E+03  0.12421251312E+03  0.50400001928E-02 0.  1.
        1   -1    0    0  501    0  0.00000000000E+00  0.00000000000E+00 -0.69597664457E+03  0.69597664459E+03  0.50400001928E-02 0. -1.
    10030    2    1    2    0    0  0.00000000000E+00  0.00000000000E+00 -0.57176413156E+03  0.82018915771E+03  0.58804424347E+03 0.  0.
        1    1    3    3  502    0  0.40088132458E+02  0.13598161368E+03 -0.64515755970E+03  0.66055002421E+03  0.50400001928E-02 0. -1.
       -1    1    3    3    0  502 -0.40088132458E+02 -0.13598161368E+03  0.73393428141E+02  0.15963913349E+03  0.50400001928E-02 0.  1.
</event>
<event>
 5   0  0.1532571E-01  0.5886254E+03  0.7818609E-02  0.9929290E-01
        2   -1    0    0  501    0  0.00000000000E+00  0.00000000000E+00  0.64905496995E+03  0.64905496995E+03  0.25500000920E-02 0.  1.
       -2   -1    0    0    0  501  0.00000000000E+00  0.00000000000E+00 -0.13345549791E+03  0.13345549793E+03  0.25500000920E-02 0. -1.
    10030    2    1    2    0    0  0.00000000000E+00  0.00000000000E+00  0.51559947204E+03  0.78251046789E+03  0.58862536199E+03 0.  0.
        1    1    3    3  502    0 -0.29326866310E+03  0.21315198342E+02  0.24103113499E+03  0.38020633148E+03  0.50400001928E-02 0. -1.
       -1    1    3    3    0  502  0.29326866310E+03 -0.21315198342E+02  0.27456833705E+03  0.40230413641E+03  0.50400001928E-02 0.  1.
</event>
<event>
 5   0  0.9411028E-02  0.5201742E+03  0.7818609E-02  0.1008643E+00
       -1   -1    0    0    0  501  0.00000000000E+00  0.00000000000E+00  0.10943062496E+03  0.10943062508E+03  0.50400001928E-02 0. -1.
        1   -1    0    0  501    0  0.00000000000E+00  0.00000000000E+00 -0.61815703958E+03  0.61815703960E+03  0.50400001928E-02 0.  1.
    10030    2    1    2    0    0  0.00000000000E+00  0.00000000000E+00 -0.50872641461E+03  0.72758766468E+03  0.52017424471E+03 0.  0.
        4    1    3    3  502    0  0.20570910396E+02 -0.16544155590E+03  0.24858138229E+02  0.16856337298E+03  0.12699999809E+01 0. -1.
       -4    1    3    3    0  502 -0.20570910396E+02  0.16544155590E+03 -0.53358455284E+03  0.55902429170E+03  0.12699999809E+01 0.  1.
</event>
<event>
 5   0  0.1488510E-01  0.5935682E+03  0.7818609E-02  0.9918840E-01
       -2   -1    0    0    0  501  0.00000000000E+00  0.00000000000E+00  0.85340629177E+02  0.85340629215E+02  0.25500000920E-02 0.  1.
        2   -1    0    0  501    0  0.00000000000E+00  0.00000000000E+00 -0.10321088074E+04  0.10321088074E+04  0.25500000920E-02 0. -1.
    10030    2    1    2    0    0  0.00000000000E+00  0.00000000000E+00 -0.94676817824E+03  0.11174494366E+04  0.59356824385E+03 0.  0.
        5    1    3    3  502    0  0.17617780667E+03 -0.13965269413E+03 -0.83803105866E+03  0.86767484683E+03  0.46999998093E+01 0. -1.
       -5    1    3    3    0  502 -0.17617780667E+03  0.13965269413E+03 -0.10873711958E+03  0.24977458980E+03  0.46999998093E+01 0.  1.
</event>
<event>
 5   0  0.1483942E-01  0.6031960E+03  0.7818609E-02  0.9898797E-01
       -2   -1    0    0    0  501  0.00000000000E+00  0.00000000000E+00  0.14410221866E+03  0.14410221869E+03  0.25500000920E-02 0.  1.
        2   -1    0    0  501    0  0.00000000000E+00  0.00000000000E+00 -0.63122803746E+03  0.63122803747E+03  0.25500000920E-02 0. -1.
    10030    2    1    2    0    0  0.00000000000E+00  0.00000000000E+00 -0.48712581880E+03  0.77533025616E+03  0.60319602350E+03 0.  0.
        4    1    3    3  502    0  0.72910048854E+01  0.95558775373E+02 -0.61113186924E+03  0.61860198254E+03  0.12699999809E+01 0. -1.
       -4    1    3    3    0  502 -0.72910048854E+01 -0.95558775373E+02  0.12400605044E+03  0.15672827361E+03  0.12699999809E+01 0.  1.
</event>
<event>
 5   0  0.1488510E-01  0.6066945E+03  0.7818609E-02  0.9891614E-01
        2   -1    0    0  501    0  0.00000000000E+00  0.00000000000E+00  0.67284789560E+03  0.67284789561E+03  0.25500000920E-02 0. -1.
       -2   -1    0    0    0  501  0.00000000000E+00  0.00000000000E+00 -0.13676129269E+03  0.13676129271E+03  0.25500000920E-02 0.  1.
    10030    2    1    2    0    0  0.00000000000E+00  0.00000000000E+00  0.53608660291E+03  0.80960918832E+03  0.60669447993E+03 0.  0.
        5    1    3    3  502    0 -0.46855681703E+02  0.79655467638E+02  0.65355431907E+03  0.66007256147E+03  0.46999998093E+01 0. -1.
       -5    1    3    3    0  502  0.46855681703E+02 -0.79655467638E+02 -0.11746771615E+03  0.14953662685E+03  0.46999998093E+01 0.  1.
</event>
<event>
 5   0  0.1488510E-01  0.6004248E+03  0.7818609E-02  0.9904525E-01
       -2   -1    0    0    0  501  0.00000000000E+00  0.00000000000E+00  0.57730992995E+02  0.57730993052E+02  0.25500000920E-02 0. -1.
        2   -1    0    0  501    0  0.00000000000E+00  0.00000000000E+00 -0.15611630475E+04  0.15611630475E+04  0.25500000920E-02 0.  1.
    10030    2    1    2    0    0  0.00000000000E+00  0.00000000000E+00 -0.15034320545E+04  0.16188940405E+04  0.60042482629E+03 0.  0.
        5    1    3    3  502    0  0.12410458735E+03  0.24223039692E+03 -0.41036756619E+03  0.49244405080E+03  0.46999998093E+01 0. -1.
       -5    1    3    3    0  502 -0.12410458735E+03 -0.24223039692E+03 -0.10930644883E+04  0.11264499897E+04  0.46999998093E+01 0.  1.
</event>
<event>
 5   0  0.1488510E-01  0.6240485E+03  0.7818609E-02  0.9856732E-01
        2   -1    0    0  501    0  0.00000000000E+00  0.00000000000E+00  0.12823383572E+04  0.12823383572E+04  0.25500000920E-02 0. -1.
       -2   -1    0    0    0  501  0.00000000000E+00  0.00000000000E+00 -0.75923127418E+02  0.75923127461E+02  0.25500000920E-02 0.  1.
    10030    2    1    2    0    0  0.00000000000E+00  0.00000000000E+00  0.12064152298E+04  0.13582614847E+04  0.62404851901E+03 0.  0.
        5    1    3    3  502    0 -0.18547347765E+03  0.22893602973E+03  0.37991483717E+03  0.48080088407E+03  0.46999998093E+01 0.  1.
       -5    1    3    3    0  502  0.18547347765E+03 -0.22893602973E+03  0.82650039264E+03  0.87746060062E+03  0.46999998093E+01 0. -1.
</event>
<event>
 5   0  0.1532571E-01  0.6081666E+03  0.7818609E-02  0.9888606E-01
       -2   -1    0    0    0  501  0.00000000000E+00  0.00000000000E+00  0.16403833143E+03  0.16403833145E+03  0.25500000920E-02 0. -1.
        2   -1    0    0  501    0  0.00000000000E+00  0.00000000000E+00 -0.56368927954E+03  0.56368927955E+03  0.25500000920E-02 0.  1.
    10030    2    1    2    0    0  0.00000000000E+00  0.00000000000E+00 -0.39965094811E+03  0.72772761099E+03  0.60816658530E+03 0.  0.
        1    1    3    3  502    0  0.37658769831E+02 -0.18324064701E+03  0.87035802274E+02  0.20632631574E+03  0.50400001928E-02 0. -1.
       -1    1    3    3    0  502 -0.37658769831E+02  0.18324064701E+03 -0.48668675039E+03  0.52140129525E+03  0.50400001928E-02 0.  1.
</event>
<event>
 5   0  0.9420349E-02  0.5774464E+03  0.7818609E-02  0.9953335E-01
       -1   -1    0    0    0  501  0.00000000000E+00  0.00000000000E+00  0.31319280670E+03  0.31319280674E+03  0.50400001928E-02 0.  1.
        1   -1    0    0  501    0  0.00000000000E+00  0.00000000000E+00 -0.26616543635E+03  0.26616543639E+03  0.50400001928E-02 0. -1.
    10030    2    1    2    0    0  0.00000000000E+00  0.00000000000E+00  0.47027370359E+02  0.57935824314E+03  0.57744644802E+03 0.  0.
        2    1    3    3  502    0  0.12908149699E+03 -0.24734118434E+03 -0.51038487962E+02  0.28362761078E+03  0.25500000920E-02 0. -1.
       -2    1    3    3    0  502 -0.12908149699E+03  0.24734118434E+03  0.98065858321E+02  0.29573063235E+03  0.25500000920E-02 0.  1.
</event>
<event>
 5   0  0.1483942E-01  0.5863817E+03  0.7818609E-02  0.9934069E-01
        2   -1    0    0  501    0  0.00000000000E+00  0.00000000000E+00  0.91974553977E+03  0.91974553978E+03  0.25500000920E-02 0. -1.
       -2   -1    0    0    0  501  0.00000000000E+00  0.00000000000E+00 -0.93461597597E+02  0.93461597632E+02  0.25500000920E-02 0.  1.
    10030    2    1    2    0    0  0.00000000000E+00  0.00000000000E+00  0.82628394218E+03  0.10132071374E+04  0.58638174443E+03 0.  0.
        4    1    3    3  502    0 -0.11832794130E+03  0.21682415459E+03  0.68604607496E+03  0.72916050742E+03  0.12699999809E+01 0. -1.
       -4    1    3    3    0  502  0.11832794130E+03 -0.21682415459E+03  0.14023786722E+03  0.28404662999E+03  0.12699999809E+01 0.  1.
</event>
<event>
 5   0  0.8860626E-02  0.6100956E+03  0.7818609E-02  0.9884679E-01
        1   -1    0    0  501    0  0.00000000000E+00  0.00000000000E+00  0.10006374932E+04  0.10006374932E+04  0.50400001928E-02 0. -1.
       -1   -1    0    0    0  501  0.00000000000E+00  0.00000000000E+00 -0.92994881660E+02  0.92994881797E+02  0.50400001928E-02 0.  1.
    10030    2    1    2    0    0  0.00000000000E+00  0.00000000000E+00  0.90764261150E+03  0.10936323750E+04  0.61009561658E+03 0.  0.
        3    1    3    3  502    0  0.26499426344E+03  0.13050478939E+03  0.59034671442E+03  0.66012325602E+03  0.10100000352E+00 0. -1.
       -3    1    3    3    0  502 -0.26499426344E+03 -0.13050478939E+03  0.31729589708E+03  0.43350911895E+03  0.10100000352E+00 0.  1.
</event>
<event>
 5   0  0.1513339E-01  0.6138826E+03  0.7818609E-02  0.9877015E-01
        2   -1    0    0  501    0  0.00000000000E+00  0.00000000000E+00  0.17701810870E+04  0.17701810870E+04  0.25500000920E-02 0.  1.
       -2   -1    0    0    0  501  0.00000000000E+00  0.00000000000E+00 -0.53222219689E+02  0.53222219750E+02  0.25500000920E-02 0. -1.
    10030    2    1    2    0    0  0.00000000000E+00  0.00000000000E+00  0.17169588673E+04  0.18234033068E+04  0.61388261666E+03 0.  0.
        3    1    3    3  502    0 -0.20197151236E+02 -0.28703297372E+03  0.11758563777E+04  0.12105511489E+04  0.10100000352E+00 0. -1.
       -3    1    3    3    0  502  0.20197151236E+02  0.28703297372E+03  0.54110248958E+03  0.61285215783E+03  0.10100000352E+00 0.  1.
</event>
<event>
 5   0  0.9411028E-02  0.6092180E+03  0.7818609E-02  0.9886464E-01
        1   -1    0    0  501    0  0.00000000000E+00  0.00000000000E+00  0.77451963412E+03  0.77451963414E+03  0.50400001928E-02 0.  1.
       -1   -1    0    0    0  501  0.00000000000E+00  0.00000000000E+00 -0.11979893822E+03  0.11979893832E+03  0.50400001928E-02 0. -1.
    10030    2    1    2    0    0  0.00000000000E+00  0.00000000000E+00  0.65472069591E+03  0.89431857246E+03  0.60921795722E+03 0.  0.
        4    1    3    3  502    0  0.72451911831E+02  0.15600443576E+03 -0.41678797176E+02  0.17698982609E+03  0.12699999809E+01 0. -1.
       -4    1    3    3    0  502 -0.72451911831E+02 -0.15600443576E+03  0.69639949308E+03  0.71732874637E+03  0.12699999809E+01 0.  1.
</event>
<event>
 5   0  0.1532571E-01  0.5758503E+03  0.7818609E-02  0.9956816E-01
       -2   -1    0    0    0  501  0.00000000000E+00  0.00000000000E+00  0.20558257837E+03  0.20558257838E+03  0.25500000920E-02 0.  1.
        2   -1    0    0  501    0  0.00000000000E+00  0.00000000000E+00 -0.40324868120E+03  0.40324868121E+03  0.25500000920E-02 0. -1.
    10030    2    1    2    0    0  0.00000000000E+00  0.00000000000E+00 -0.19766610284E+03  0.60883125959E+03  0.57585034032E+03 0.  0.
        1    1    3    3  502    0  0.79107594922E+01 -0.70519048944E+02  0.19619243735E+03  0.20863122700E+03  0.50400001928E-02 0.  1.
       -1    1    3    3    0  502 -0.79107594922E+01  0.70519048944E+02 -0.39385854019E+03  0.40020003259E+03  0.50400001928E-02 0. -1.
</event>
<event>
 5   0  0.8860626E-02  0.6231089E+03  0.7818609E-02  0.9858589E-01
        1   -1    0    0  501    0  0.00000000000E+00  0.00000000000E+00  0.13940851740E+04  0.13940851740E+04  0.50400001928E-02 0. -1.
       -1   -1    0    0    0  501  0.00000000000E+00  0.00000000000E+00 -0.69627139747E+02  0.69627139930E+02  0.50400001928E-02 0.  1.
    10030    2    1    2    0    0  0.00000000000E+00  0.00000000000E+00  0.13244580343E+04  0.14637123140E+04  0.62310886167E+03 0.  0.
        3    1    3    3  502    0 -0.79441297506E+02 -0.29902073930E+03  0.57618103477E+03  0.65399458508E+03  0.10100000352E+00 0.  1.
       -3    1    3    3    0  502  0.79441297506E+02  0.29902073930E+03  0.74827699951E+03  0.80971772889E+03  0.10100000352E+00 0. -1.
</event>
<event>
 5   0  0.9411028E-02  0.5977201E+03  0.7818609E-02  0.9910147E-01
       -1   -1    0    0    0  501  0.00000000000E+00  0.00000000000E+00  0.59724174550E+03  0.59724174552E+03  0.50400001928E-02 0.  1.
        1   -1    0    0  501    0  0.00000000000E+00  0.00000000000E+00 -0.14954972061E+03  0.14954972070E+03  0.50400001928E-02 0. -1.
    10030    2    1    2    0    0  0.00000000000E+00  0.00000000000E+00  0.44769202489E+03  0.74679146622E+03  0.59772012252E+03 0.  0.
        4    1    3    3  502    0  0.94563536472E+02 -0.24171098262E+03  0.40894814772E+03  0.48436211864E+03  0.12699999809E+01 0.  1.
       -4    1    3    3    0  502 -0.94563536472E+02  0.24171098262E+03  0.38743877170E+02  0.26242934758E+03  0.12699999809E+01 0. -1.
</event>
<event>
 5   0  0.1513339E-01  0.6040339E+03  0.7818609E-02  0.9897072E-01
        2   -1    0    0  501    0  0.00000000000E+00  0.00000000000E+00  0.20875414867E+03  0.20875414869E+03  0.25500000920E-02 0. -1.
       -2   -1    0    0    0  501  0.00000000000E+00  0.00000000000E+00 -0.43694576653E+03  0.43694576654E+03  0.25500000920E-02 0.  1.
    10030    2    1    2    0    0  0.00000000000E+00  0.00000000000E+00 -0.22819161786E+03  0.64569991523E+03  0.60403391135E+03 0.  0.
        3    1    3    3  502    0  0.10946374747E+03 -0.10301704666E+03  0.16592666601E+03  0.22388946515E+03  0.10100000352E+00 0. -1.
       -3    1    3    3    0  502 -0.10946374747E+03  0.10301704666E+03 -0.39411828387E+03  0.42181045007E+03  0.10100000352E+00 0.  1.
</event>
<event>
 5   0  0.9497860E-02  0.6223491E+03  0.7818609E-02  0.9860094E-01
        1   -1    0    0  501    0  0.00000000000E+00  0.00000000000E+00  0.15744224778E+04  0.15744224778E+04  0.50400001928E-02 0.  1.
       -1   -1    0    0    0  501  0.00000000000E+00  0.00000000000E+00 -0.61501655991E+02  0.61501656198E+02  0.50400001928E-02 0. -1.
    10030    2    1    2    0    0  0.00000000000E+00  0.00000000000E+00  0.15129208218E+04  0.16359241340E+04  0.62234906537E+03 0.  0.
        5    1    3    3  502    0  0.20368494723E+03 -0.16454340503E+03  0.31468345458E+03  0.40940182761E+03  0.46999998093E+01 0. -1.
       -5    1    3    3    0  502 -0.20368494723E+03  0.16454340503E+03  0.11982373672E+04  0.12265223064E+04  0.46999998093E+01 0.  1.
</event>
<event>
 5   0  0.8860626E-02  0.7392131E+03  0.7818609E-02  0.9652427E-01
        1   -1    0    0  501    0  0.00000000000E+00  0.00000000000E+00  0.85213943067E+03  0.85213943069E+03  0.50400001928E-02 0.  1.
       -1   -1    0    0    0  501  0.00000000000E+00  0.00000000000E+00 -0.16031296760E+03  0.16031296768E+03  0.50400001928E-02 0. -1.
    10030    2    1    2    0    0  0.00000000000E+00  0.00000000000E+00  0.69182646307E+03  0.10124523984E+04  0.73921309780E+03 0.  0.
        3    1    3    3  502    0  0.11490560474E+03  0.14997675901E+03 -0.89175461353E+02  0.20892247211E+03  0.10100000352E+00 0. -1.
       -3    1    3    3    0  502 -0.11490560474E+03 -0.14997675901E+03  0.78100192442E+03  0.80352992626E+03  0.10100000352E+00 0.  1.
</event>
<event>
 5   0  0.9420349E-02  0.5996451E+03  0.7818609E-02  0.9906143E-01
       -1   -1    0    0    0  501  0.00000000000E+00  0.00000000000E+00  0.77276878752E+02  0.77276878916E+02  0.50400001928E-02 0.  1.
        1   -1    0    0  501    0  0.00000000000E+00  0.00000000000E+00 -0.11632657776E+04  0.11632657776E+04  0.50400001928E-02 0. -1.
    10030    2    1    2    0    0  0.00000000000E+00  0.00000000000E+00 -0.10859888988E+04  0.12405426565E+04  0.59964505688E+03 0.  0.
        2    1    3    3  502    0 -0.16216772161E+03  0.13155725184E+03 -0.97901173181E+02  0.23063026723E+03  0.25500000920E-02 0.  1.
       -2    1    3    3    0  502  0.16216772161E+03 -0.13155725184E+03 -0.98808772567E+03  0.10099123893E+04  0.25500000920E-02 0. -1.
</event>
<event>
 5   0  0.1502642E-01  0.5656318E+03  0.7818609E-02  0.9979392E-01
       -2   -1    0    0    0  501  0.00000000000E+00  0.00000000000E+00  0.21764144301E+03  0.21764144303E+03  0.25500000920E-02 0. -1.
        2   -1    0    0  501    0  0.00000000000E+00  0.00000000000E+00 -0.36750739390E+03  0.36750739391E+03  0.25500000920E-02 0.  1.
    10030    2    1    2    0    0  0.00000000000E+00  0.00000000000E+00 -0.14986595089E+03  0.58514883694E+03  0.56563182207E+03 0.  0.
        2    1    3    3  502    0 -0.14376135066E+03  0.22642062252E+03  0.17891655511E+02  0.26880054983E+03  0.25500000920E-02 0. -1.
       -2    1    3    3    0  502  0.14376135066E+03 -0.22642062252E+03 -0.16775760640E+03  0.31634828711E+03  0.25500000920E-02 0.  1.
</event>
<event>
 5   0  0.9420349E-02  0.5894244E+03  0.7818609E-02  0.9927593E-01
        1   -1    0    0  501    0  0.00000000000E+00  0.00000000000E+00  0.98224199486E+03  0.98224199487E+03  0.50400001928E-02 0. -1.
       -1   -1    0    0    0  501  0.00000000000E+00  0.00000000000E+00 -0.88425551426E+02  0.88425551569E+02  0.50400001928E-02 0.  1.
    10030    2    1    2    0    0  0.00000000000E+00  0.00000000000E+00  0.89381644343E+03  0.10706675464E+04  0.58942443150E+03 0.  0.
        2    1    3    3  502    0 -0.18339122613E+03  0.87539175072E+02  0.59188755760E+02  0.21165717047E+03  0.25500000920E-02 0.  1.
       -2    1    3    3    0  502  0.18339122613E+03 -0.87539175072E+02  0.83462768767E+03  0.85901037597E+03  0.25500000920E-02 0. -1.
</event>
<event>
 5   0  0.9420349E-02  0.6000165E+03  0.7818609E-02  0.9905372E-01
       -1   -1    0    0    0  501  0.00000000000E+00  0.00000000000E+00  0.29944212875E+03  0.29944212880E+03  0.50400001928E-02 0.  1.
        1   -1    0    0  501    0  0.00000000000E+00  0.00000000000E+00 -0.30057542197E+03  0.30057542201E+03  0.50400001928E-02 0. -1.
    10030    2    1    2    0    0  0.00000000000E+00  0.00000000000E+00 -0.11332932140E+01  0.60001755081E+03  0.60001648054E+03 0.  0.
        2    1    3    3  502    0  0.10829186362E+03  0.79291119338E+02  0.26774472422E+03  0.29950199780E+03  0.25500000920E-02 0.  1.
       -2    1    3    3    0  502 -0.10829186362E+03 -0.79291119338E+02 -0.26887801743E+03  0.30051555301E+03  0.25500000920E-02 0. -1.
</event>
<event>
 5   0  0.8860626E-02  0.6318727E+03  0.7818609E-02  0.9841401E-01
       -1   -1    0    0    0  501  0.00000000000E+00  0.00000000000E+00  0.12307938693E+03  0.12307938703E+03  0.50400001928E-02 0.  1.
        1   -1    0    0  501    0  0.00000000000E+00  0.00000000000E+00 -0.81098704041E+03  0.81098704042E+03  0.50400001928E-02 0. -1.
    10030    2    1    2    0    0  0.00000000000E+00  0.00000000000E+00 -0.68790765348E+03  0.93406642746E+03  0.63187273338E+03 0.  0.
        3    1    3    3  502    0  0.93428280151E+02  0.16213332757E+03 -0.72025424947E+03  0.74416547455E+03  0.10100000352E+00 0. -1.
       -3    1    3    3    0  502 -0.93428280151E+02 -0.16213332757E+03  0.32346595990E+02  0.18990095291E+03  0.10100000352E+00 0.  1.
</event>
<event>
 5   0  0.1532571E-01  0.6399427E+03  0.7818609E-02  0.9825836E-01
       -2   -1    0    0    0  501  0.00000000000E+00  0.00000000000E+00  0.64946548635E+02  0.64946548685E+02  0.25500000920E-02 0.  1.
        2   -1    0    0  501    0  0.00000000000E+00  0.00000000000E+00 -0.15763988845E+04  0.15763988845E+04  0.25500000920E-02 0. -1.
    10030    2    1    2    0    0  0.00000000000E+00  0.00000000000E+00 -0.15114523359E+04  0.16413454332E+04  0.63994270639E+03 0.  0.
        1    1    3    3  502    0  0.53168484814E+02  0.28619369868E+03 -0.41499961521E+03  0.50691064458E+03  0.50400001928E-02 0.  1.
       -1    1    3    3    0  502 -0.53168484814E+02 -0.28619369868E+03 -0.10964527207E+04  0.11344347886E+04  0.50400001928E-02 0. -1.
</event>
<event>
 5   0  0.6170500E-02  0.6255040E+03  0.7818609E-02  0.9853862E-01
       -3   -1    0    0    0  501  0.00000000000E+00  0.00000000000E+00  0.58857117180E+03  0.58857118046E+03  0.10100000352E+00 0.  1.
        3   -1    0    0  501    0  0.00000000000E+00  0.00000000000E+00 -0.16618857523E+03  0.16618860592E+03  0.10100000352E+00 0. -1.
    10030    2    1    2    0    0  0.00000000000E+00  0.00000000000E+00  0.42238259657E+03  0.75475978638E+03  0.62550401858E+03 0.  0.
        2    1    3    3  502    0 -0.27799758776E+03  0.10713683759E+03  0.32599913022E+03  0.44162924912E+03  0.25500000920E-02 0.  1.
       -2    1    3    3    0  502  0.27799758776E+03 -0.10713683759E+03  0.96383466350E+02  0.31313053726E+03  0.25500000920E-02 0. -1.
</event>
<event>
 5   0  0.1483942E-01  0.6103689E+03  0.7818609E-02  0.9884124E-01
       -2   -1    0    0    0  501  0.00000000000E+00  0.00000000000E+00  0.34835445552E+03  0.34835445553E+03  0.25500000920E-02 0. -1.
        2   -1    0    0  501    0  0.00000000000E+00  0.00000000000E+00 -0.26736429399E+03  0.26736429400E+03  0.25500000920E-02 0.  1.
    10030    2    1    2    0    0  0.00000000000E+00  0.00000000000E+00  0.80990161529E+02  0.61571874952E+03  0.61036888211E+03 0.  0.
        4    1    3    3  502    0  0.10309287572E+03  0.43188756442E+02  0.32696039280E+03  0.34554033204E+03  0.12699999809E+01 0. -1.
       -4    1    3    3    0  502 -0.10309287572E+03 -0.43188756442E+02 -0.24597023127E+03  0.27017841749E+03  0.12699999809E+01 0.  1.
</event>
<event>
 5   0  0.9177281E-02  0.5711660E+03  0.7818609E-02  0.9967102E-01
        1   -1    0    0  501    0  0.00000000000E+00  0.00000000000E+00  0.52732092380E+03  0.52732092382E+03  0.50400001928E-02 0.  1.
       -1   -1    0    0    0  501  0.00000000000E+00  0.00000000000E+00 -0.15466417287E+03  0.15466417295E+03  0.50400001928E-02 0. -1.
    10030    2    1    2    0    0  0.00000000000E+00  0.00000000000E+00  0.37265675093E+03  0.68198509677E+03  0.57116601632E+03 0.  0.
        1    1    3    3  502    0  0.60446735590E+02  0.20379814656E+03 -0.41383218475E+02  0.21656422415E+03  0.50400001928E-02 0. -1.
       -1    1    3    3    0  502 -0.60446735590E+02 -0.20379814656E+03  0.41403996940E+03  0.46542087262E+03  0.50400001928E-02 0.  1.
</event>
<event>
 5   0  0.1532571E-01  0.6131313E+03  0.7818609E-02  0.9878531E-01
        2   -1    0    0  501    0  0.00000000000E+00  0.00000000000E+00  0.14048562446E+04  0.14048562446E+04  0.25500000920E-02 0. -1.
       -2   -1    0    0    0  501  0.00000000000E+00  0.00000000000E+00 -0.66898296690E+02  0.66898296739E+02  0.25500000920E-02 0.  1.
    10030    2    1    2    0    0  0.00000000000E+00  0.00000000000E+00  0.13379579479E+04  0.14717545414E+04  0.61313127435E+03 0.  0.
        1    1    3    3  502    0  0.11032068068E+02 -0.15871221003E+03  0.39951970094E+02  0.16403485019E+03  0.50400001928E-02 0.  1.
       -1    1    3    3    0  502 -0.11032068068E+02  0.15871221003E+03  0.12980059778E+04  0.13077196912E+04  0.50400001928E-02 0. -1.
</event>
<event>
 5   0  0.6170500E-02  0.6055519E+03  0.7818609E-02  0.9893954E-01
       -3   -1    0    0    0  501  0.00000000000E+00  0.00000000000E+00  0.11274121608E+04  0.11274121653E+04  0.10100000352E+00 0.  1.
        3   -1    0    0  501    0  0.00000000000E+00  0.00000000000E+00 -0.81312979258E+02  0.81313041985E+02  0.10100000352E+00 0. -1.
    10030    2    1    2    0    0  0.00000000000E+00  0.00000000000E+00  0.10460991815E+04  0.12087252073E+04  0.60555192111E+03 0.  0.
        1    1    3    3  502    0 -0.75648313856E+02 -0.26737724583E+03  0.28302226357E+03  0.39662937445E+03  0.50400001928E-02 0. -1.
       -1    1    3    3    0  502  0.75648313856E+02  0.26737724583E+03  0.76307691797E+03  0.81209583285E+03  0.50400001928E-02 0.  1.
</event>
<event>
 5   0  0.1483942E-01  0.6011504E+03  0.7818609E-02  0.9903022E-01
       -2   -1    0    0    0  501  0.00000000000E+00  0.00000000000E+00  0.25306104408E+03  0.25306104409E+03  0.25500000920E-02 0. -1.
        2   -1    0    0  501    0  0.00000000000E+00  0.00000000000E+00 -0.35701051267E+03  0.35701051267E+03  0.25500000920E-02 0.  1.
    10030    2    1    2    0    0  0.00000000000E+00  0.00000000000E+00 -0.10394946859E+03  0.61007155677E+03  0.60115040743E+03 0.  0.
        4    1    3    3  502    0  0.91353271779E+02 -0.28115663773E+03 -0.10708872918E+03  0.31442659560E+03  0.12699999809E+01 0. -1.
       -4    1    3    3    0  502 -0.91353271779E+02  0.28115663773E+03  0.31392605926E+01  0.29564496117E+03  0.12699999809E+01 0.  1.
</event>
<event>
 5   0  0.1488510E-01  0.6093549E+03  0.7818609E-02  0.9886186E-01
        2   -1    0    0  501    0  0.00000000000E+00  0.00000000000E+00  0.82384971956E+03  0.82384971957E+03  0.25500000920E-02 0. -1.
       -2   -1    0    0    0  501  0.00000000000E+00  0.00000000000E+00 -0.11267630053E+03  0.11267630056E+03  0.25500000920E-02 0.  1.
    10030    2    1    2    0    0  0.00000000000E+00  0.00000000000E+00  0.71117341903E+03  0.93652602013E+03  0.60935486742E+03 0.  0.
        5    1    3    3  502    0  0.12405510683E+03  0.21518513065E+03  0.84496957455E+02  0.26240452702E+03  0.46999998093E+01 0.  1.
       -5    1    3    3    0  502 -0.12405510683E+03 -0.21518513065E+03  0.62667646158E+03  0.67412149311E+03  0.46999998093E+01 0. -1.
</event>
<event>
 5   0  0.1532571E-01  0.5803575E+03  0.7818609E-02  0.9947017E-01
        2   -1    0    0  501    0  0.00000000000E+00  0.00000000000E+00  0.30997383087E+03  0.30997383088E+03  0.25500000920E-02 0. -1.
       -2   -1    0    0    0  501  0.00000000000E+00  0.00000000000E+00 -0.27164775807E+03  0.27164775809E+03  0.25500000920E-02 0.  1.
    10030    2    1    2    0    0  0.00000000000E+00  0.00000000000E+00  0.38326072798E+02  0.58162158897E+03  0.58035746303E+03 0.  0.
        1    1    3    3  502    0 -0.27787737776E+03 -0.50372527252E+02 -0.47694099531E+02  0.28640522993E+03  0.50400001928E-02 0. -1.
       -1    1    3    3    0  502  0.27787737776E+03  0.50372527252E+02  0.86020172328E+02  0.29521635904E+03  0.50400001928E-02 0.  1.
</event>
<event>
 5   0  0.1488510E-01  0.6031230E+03  0.7818609E-02  0.9898948E-01
        2   -1    0    0  501    0  0.00000000000E+00  0.00000000000E+00  0.11755861562E+04  0.11755861562E+04  0.25500000920E-02 0.  1.
       -2   -1    0    0    0  501  0.00000000000E+00  0.00000000000E+00 -0.77356603087E+02  0.77356603129E+02  0.25500000920E-02 0. -1.
    10030    2    1    2    0    0  0.00000000000E+00  0.00000000000E+00  0.10982295532E+04  0.12529427594E+04  0.60312304453E+03 0.  0.
        5    1    3    3  502    0  0.29224140744E+03 -0.46922028458E+02  0.42958529429E+03  0.52170138206E+03  0.46999998093E+01 0. -1.
       -5    1    3    3    0  502 -0.29224140744E+03  0.46922028458E+02  0.66864425886E+03  0.73124137731E+03  0.46999998093E+01 0.  1.
</event>
<event>
 5   0  0.1532571E-01  0.6195239E+03  0.7818609E-02  0.9865708E-01
        2   -1    0    0  501    0  0.00000000000E+00  0.00000000000E+00  0.59772598055E+02  0.59772598109E+02  0.25500000920E-02 0. -1.
       -2   -1    0    0    0  501  0.00000000000E+00  0.00000000000E+00 -0.16052919663E+04  0.16052919663E+04  0.25500000920E-02 0.  1.
    10030    2    1    2    0    0  0.00000000000E+00  0.00000000000E+00 -0.15455193683E+04  0.16650645644E+04  0.61952391886E+03 0.  0.
        1    1    3    3  502    0 -0.25336427900E+03 -0.17574746748E+03 -0.85211786720E+03  0.90619285465E+03  0.50400001928E-02 0.  1.
       -1    1    3    3    0  502  0.25336427900E+03  0.17574746748E+03 -0.69340150108E+03  0.75887170979E+03  0.50400001928E-02 0. -1.
</event>
<event>
 5   0  0.9411028E-02  0.5760216E+03  0.7818609E-02  0.9956441E-01
        1   -1    0    0  501    0  0.00000000000E+00  0.00000000000E+00  0.14110229442E+04  0.14110229442E+04  0.50400001928E-02 0.  1.
       -1   -1    0    0    0  501  0.00000000000E+00  0.00000000000E+00 -0.58787304211E+02  0.58787304427E+02  0.50400001928E-02 0. -1.
    10030    2    1    2    0    0  0.00000000000E+00  0.00000000000E+00  0.13522356400E+04  0.14698102487E+04  0.57602164972E+03 0.  0.
        4    1    3    3  502    0 -0.85978243917E+02  0.15598608416E+03  0.98604241812E+02  0.20358862022E+03  0.12699999809E+01 0. -1.
       -4    1    3    3    0  502  0.85978243917E+02 -0.15598608416E+03  0.12536313982E+04  0.12662216285E+04  0.12699999809E+01 0.  1.
</event>
<event>
 5   0  0.9177281E-02  0.6048507E+03  0.7818609E-02  0.9895393E-01
        1   -1    0    0  501    0  0.00000000000E+00  0.00000000000E+00  0.74227491226E+03  0.74227491228E+03  0.50400001928E-02 0.  1.
       -1   -1    0    0    0  501  0.00000000000E+00  0.00000000000E+00 -0.12321728025E+03  0.12321728035E+03  0.50400001928E-02 0. -1.
    10030    2    1    2    0    0  0.00000000000E+00  0.00000000000E+00  0.61905763202E+03  0.86549219263E+03  0.60485071195E+03 0.  0.
        1    1    3    3  502    0 -0.17357447412E+03  0.22651461876E+03  0.45279318868E+03  0.53521831276E+03  0.50400001928E-02 0.  1.
       -1    1    3    3    0  502  0.17357447412E+03 -0.22651461876E+03  0.16626444334E+03  0.33027387987E+03  0.50400001928E-02 0. -1.
</event>
<event>
 5   0  0.1532571E-01  0.5797306E+03  0.7818609E-02  0.9948374E-01
        2   -1    0    0  501    0  0.00000000000E+00  0.00000000000E+00  0.16748667781E+03  0.16748667783E+03  0.25500000920E-02 0.  1.
       -2   -1    0    0    0  501  0.00000000000E+00  0.00000000000E+00 -0.50166310655E+03  0.50166310655E+03  0.25500000920E-02 0. -1.
    10030    2    1    2    0    0  0.00000000000E+00  0.00000000000E+00 -0.33417642874E+03  0.66914978438E+03  0.57973058261E+03 0.  0.
        1    1    3    3  502    0 -0.52656851203E+02  0.26415059336E+03 -0.43451595885E+02  0.27283020574E+03  0.50400001928E-02 0.  1.
       -1    1    3    3    0  502  0.52656851203E+02 -0.26415059336E+03 -0.29072483286E+03  0.39631957864E+03  0.50400001928E-02 0. -1.
</event>
<event>
 5   0  0.9420349E-02  0.6045692E+03  0.7818609E-02  0.9895972E-01
        1   -1    0    0  501    0  0.00000000000E+00  0.00000000000E+00  0.59075134641E+03  0.59075134643E+03  0.50400001928E-02 0.  1.
       -1   -1    0    0    0  501  0.00000000000E+00  0.00000000000E+00 -0.15467754198E+03  0.15467754206E+03  0.50400001928E-02 0. -1.
    10030    2    1    2    0    0  0.00000000000E+00  0.00000000000E+00  0.43607380443E+03  0.74542888850E+03  0.60456915642E+03 0.  0.
        2    1    3    3  502    0 -0.26535670080E+03 -0.74165598696E+02  0.37135116372E+03  0.46240285627E+03  0.25500000920E-02 0.  1.
       -2    1    3    3    0  502  0.26535670080E+03  0.74165598696E+02  0.64722640714E+02  0.28302603222E+03  0.25500000920E-02 0. -1.
</event>
<event>
 5   0  0.1502642E-01  0.6062131E+03  0.7818609E-02  0.9892599E-01
       -2   -1    0    0    0  501  0.00000000000E+00  0.00000000000E+00  0.29563397597E+03  0.29563397598E+03  0.25500000920E-02 0. -1.
        2   -1    0    0  501    0  0.00000000000E+00  0.00000000000E+00 -0.31076803635E+03  0.31076803636E+03  0.25500000920E-02 0.  1.
    10030    2    1    2    0    0  0.00000000000E+00  0.00000000000E+00 -0.15134060385E+02  0.60640201234E+03  0.60621313149E+03 0.  0.
        2    1    3    3  502    0 -0.39846034259E+02  0.27654102992E+02  0.29172701939E+03  0.29573148244E+03  0.25500000920E-02 0. -1.
       -2    1    3    3    0  502  0.39846034259E+02 -0.27654102992E+02 -0.30686107978E+03  0.31067052990E+03  0.25500000920E-02 0.  1.
</event>
<event>
 5   0  0.9411028E-02  0.5981009E+03  0.7818609E-02  0.9909354E-01
        1   -1    0    0  501    0  0.00000000000E+00  0.00000000000E+00  0.71284290569E+03  0.71284290571E+03  0.50400001928E-02 0.  1.
       -1   -1    0    0    0  501  0.00000000000E+00  0.00000000000E+00 -0.12545703859E+03  0.12545703869E+03  0.50400001928E-02 0. -1.
    10030    2    1    2    0    0  0.00000000000E+00  0.00000000000E+00  0.58738586711E+03  0.83829994440E+03  0.59810086098E+03 0.  0.
        4    1    3    3  502    0 -0.20369423043E+03 -0.10176875788E+03  0.56540634054E+03  0.60953602224E+03  0.12699999809E+01 0.  1.
       -4    1    3    3    0  502  0.20369423043E+03  0.10176875788E+03  0.21979526571E+02  0.22876392216E+03  0.12699999809E+01 0. -1.
</event>
<event>
 5   0  0.1488510E-01  0.5587540E+03  0.7818609E-02  0.9994878E-01
       -2   -1    0    0    0  501  0.00000000000E+00  0.00000000000E+00  0.17999307863E+03  0.17999307864E+03  0.25500000920E-02 0.  1.
        2   -1    0    0  501    0  0.00000000000E+00  0.00000000000E+00 -0.43363617086E+03  0.43363617086E+03  0.25500000920E-02 0. -1.
    10030    2    1    2    0    0  0.00000000000E+00  0.00000000000E+00 -0.25364309223E+03  0.61362924951E+03  0.55875400456E+03 0.  0.
        5    1    3    3  502    0  0.19525291413E+02 -0.19982976810E+03  0.86458209721E+02  0.21865563164E+03  0.46999998093E+01 0.  1.
       -5    1    3    3    0  502 -0.19525291413E+02  0.19982976810E+03 -0.34010130195E+03  0.39497361787E+03  0.46999998093E+01 0. -1.
</event>
<event>
 5   0  0.9411028E-02  0.5636569E+03  0.7818609E-02  0.9983814E-01
        1   -1    0    0  501    0  0.00000000000E+00  0.00000000000E+00  0.64491629672E+03  0.64491629674E+03  0.50400001928E-02 0.  1.
       -1   -1    0    0    0  501  0.00000000000E+00  0.00000000000E+00 -0.12315903259E+03  0.12315903269E+03  0.50400001928E-02 0. -1.
    10030    2    1    2    0    0  0.00000000000E+00  0.00000000000E+00  0.52175726413E+03  0.76807532943E+03  0.56365687170E+03 0.  0.
        4    1    3    3  502    0  0.39896370682E+02  0.27630808108E+03  0.31343896632E+03  0.41974215248E+03  0.12699999809E+01 0.  1.
       -4    1    3    3    0  502 -0.39896370682E+02 -0.27630808108E+03  0.20831829781E+03  0.34833317695E+03  0.12699999809E+01 0. -1.
</event>
<event>
 5   0  0.1532571E-01  0.5924304E+03  0.7818609E-02  0.9921236E-01
       -2   -1    0    0    0  501  0.00000000000E+00  0.00000000000E+00  0.93435314007E+02  0.93435314042E+02  0.25500000920E-02 0. -1.
        2   -1    0    0  501    0  0.00000000000E+00  0.00000000000E+00 -0.93908227631E+03  0.93908227631E+03  0.25500000920E-02 0.  1.
    10030    2    1    2    0    0  0.00000000000E+00  0.00000000000E+00 -0.84564696230E+03  0.10325175904E+04  0.59243040903E+03 0.  0.
        1    1    3    3  502    0 -0.10083769013E+03  0.25510678811E+02 -0.90620741511E+03  0.91215728562E+03  0.50400001928E-02 0.  1.
       -1    1    3    3    0  502  0.10083769013E+03 -0.25510678811E+02  0.60560452811E+02  0.12036030473E+03  0.50400001928E-02 0. -1.
</event>
<event>
 5   0  0.9420349E-02  0.5299339E+03  0.7818609E-02  0.1006248E+00
        1   -1    0    0  501    0  0.00000000000E+00  0.00000000000E+00  0.32625992268E+03  0.32625992272E+03  0.50400001928E-02 0. -1.
       -1   -1    0    0    0  501  0.00000000000E+00  0.00000000000E+00 -0.21518880601E+03  0.21518880607E+03  0.50400001928E-02 0.  1.
    10030    2    1    2    0    0  0.00000000000E+00  0.00000000000E+00  0.11107111667E+03  0.54144872878E+03  0.52993389488E+03 0.  0.
        2    1    3    3  502    0 -0.12449820298E+03  0.16943660373E+03  0.22028095087E+03  0.30451972440E+03  0.25500000920E-02 0. -1.
       -2    1    3    3    0  502  0.12449820298E+03 -0.16943660373E+03 -0.10920983420E+03  0.23692900439E+03  0.25500000920E-02 0.  1.
</event>
<event>
 5   0  0.6170500E-02  0.6072727E+03  0.7818609E-02  0.9890431E-01
       -4   -1    0    0    0  501  0.00000000000E+00  0.00000000000E+00  0.61333194380E+03  0.61333325866E+03  0.12699999809E+01 0. -1.
        4   -1    0    0  501    0  0.00000000000E+00  0.00000000000E+00 -0.15031415067E+03  0.15031951567E+03  0.12699999809E+01 0.  1.
    10030    2    1    2    0    0  0.00000000000E+00  0.00000000000E+00  0.46301779313E+03  0.76365277433E+03  0.60727265952E+03 0.  0.
        1    1    3    3  502    0 -0.18199287203E+03 -0.11413280535E+02  0.53681087660E+03  0.56693702093E+03  0.50400001928E-02 0. -1.
       -1    1    3    3    0  502  0.18199287203E+03  0.11413280535E+02 -0.73793083475E+02  0.19671575340E+03  0.50400001928E-02 0.  1.
</event>
<event>
 5   0  0.8860626E-02  0.5623569E+03  0.7818609E-02  0.9986736E-01
       -1   -1    0    0    0  501  0.00000000000E+00  0.00000000000E+00  0.65643824660E+02  0.65643824854E+02  0.50400001928E-02 0. -1.
        1   -1    0    0  501    0  0.00000000000E+00  0.00000000000E+00 -0.12043985872E+04  0.12043985872E+04  0.50400001928E-02 0.  1.
    10030    2    1    2    0    0  0.00000000000E+00  0.00000000000E+00 -0.11387547626E+04  0.12700424121E+04  0.56235693224E+03 0.  0.
        3    1    3    3  502    0 -0.27057978681E+03 -0.21833879768E+02 -0.73489378268E+03  0.78342773844E+03  0.10100000352E+00 0. -1.
       -3    1    3    3    0  502  0.27057978681E+03  0.21833879768E+02 -0.40386097989E+03  0.48661467365E+03  0.10100000352E+00 0.  1.
</event>
<event>
 5   0  0.9497860E-02  0.5460783E+03  0.7818609E-02  0.1002406E+00
        1   -1    0    0  501    0  0.00000000000E+00  0.00000000000E+00  0.27330579656E+03  0.27330579660E+03  0.50400001928E-02 0. -1.
       -1   -1    0    0    0  501  0.00000000000E+00  0.00000000000E+00 -0.27277271392E+03  0.27277271396E+03  0.50400001928E-02 0.  1.
    10030    2    1    2    0    0  0.00000000000E+00  0.00000000000E+00  0.53308264068E+00  0.54607851057E+03  0.54607825037E+03 0.  0.
        5    1    3    3  502    0  0.21921260357E+03 -0.46853048625E+01  0.16290780744E+03  0.27319802592E+03  0.46999998093E+01 0. -1.
       -5    1    3    3    0  502 -0.21921260357E+03  0.46853048625E+01 -0.16237472480E+03  0.27288048464E+03  0.46999998093E+01 0.  1.
</event>
<event>
 5   0  0.9420349E-02  0.5897436E+03  0.7818609E-02  0.9926916E-01
       -1   -1    0    0    0  501  0.00000000000E+00  0.00000000000E+00  0.25675451366E+03  0.25675451371E+03  0.50400001928E-02 0.  1.
        1   -1    0    0  501    0  0.00000000000E+00  0.00000000000E+00 -0.33864796299E+03  0.33864796302E+03  0.50400001928E-02 0. -1.
    10030    2    1    2    0    0  0.00000000000E+00  0.00000000000E+00 -0.81893449331E+02  0.59540247673E+03  0.58974364961E+03 0.  0.
        2    1    3    3  502    0 -0.97105705628E+02 -0.19365564473E+01 -0.32203542680E+03  0.33636302478E+03  0.25500000920E-02 0. -1.
       -2    1    3    3    0  502  0.97105705628E+02  0.19365564473E+01  0.24014197747E+03  0.25903945195E+03  0.25500000920E-02 0.  1.
</event>
<event>
 5   0  0.1483942E-01  0.6205340E+03  0.7818609E-02  0.9863697E-01
       -2   -1    0    0    0  501  0.00000000000E+00  0.00000000000E+00  0.41715798648E+02  0.41715798726E+02  0.25500000920E-02 0. -1.
        2   -1    0    0  501    0  0.00000000000E+00  0.00000000000E+00 -0.23076536489E+04  0.23076536489E+04  0.25500000920E-02 0.  1.
    10030    2    1    2    0    0  0.00000000000E+00  0.00000000000E+00 -0.22659378503E+04  0.23493694476E+04  0.62053401216E+03 0.  0.
        4    1    3    3  502    0 -0.48040882132E+01  0.28002486340E+03 -0.16384732125E+04  0.16622373730E+04  0.12699999809E+01 0. -1.
       -4    1    3    3    0  502  0.48040882132E+01 -0.28002486340E+03 -0.62746463779E+03  0.68713207462E+03  0.12699999809E+01 0.  1.
</event>
<event>
 5   0  0.1532571E-01  0.6203387E+03  0.7818609E-02  0.9864086E-01
        2   -1    0    0  501    0  0.00000000000E+00  0.00000000000E+00  0.12236937458E+04  0.12236937458E+04  0.25500000920E-02 0. -1.
       -2   -1    0    0    0  501  0.00000000000E+00  0.00000000000E+00 -0.78618546353E+02  0.78618546394E+02  0.25500000920E-02 0.  1.
    10030    2    1    2    0    0  0.00000000000E+00  0.00000000000E+00  0.11450751995E+04  0.13023122922E+04  0.62033869300E+03 0.  0.
        1    1    3    3  502    0  0.27016656130E+03 -0.15224398134E+03  0.55979832894E+03  0.63995497483E+03  0.50400001928E-02 0. -1.
       -1    1    3    3    0  502 -0.27016656130E+03  0.15224398134E+03  0.58527687055E+03  0.66235731741E+03  0.50400001928E-02 0.  1.
</event>
<event>
 5   0  0.1488510E-01  0.5986377E+03  0.7818609E-02  0.9908237E-01
        2   -1    0    0  501    0  0.00000000000E+00  0.00000000000E+00  0.78143870342E+02  0.78143870384E+02  0.25500000920E-02 0. -1.
       -2   -1    0    0    0  501  0.00000000000E+00  0.00000000000E+00 -0.11464976336E+04  0.11464976336E+04  0.25500000920E-02 0.  1.
    10030    2    1    2    0    0  0.00000000000E+00  0.00000000000E+00 -0.10683537632E+04  0.12246415040E+04  0.59863766154E+03 0.  0.
        5    1    3    3  502    0  0.75645395472E+02 -0.28271139393E+03 -0.66228684771E+03  0.72408142965E+03  0.46999998093E+01 0.  1.
       -5    1    3    3    0  502 -0.75645395472E+02  0.28271139393E+03 -0.40606691553E+03  0.50056007432E+03  0.46999998093E+01 0. -1.
</event>
<event>
 5   0  0.1502642E-01  0.6271131E+03  0.7818609E-02  0.9850699E-01
       -2   -1    0    0    0  501  0.00000000000E+00  0.00000000000E+00  0.82371709029E+02  0.82371709068E+02  0.25500000920E-02 0.  1.
        2   -1    0    0  501    0  0.00000000000E+00  0.00000000000E+00 -0.11935858022E+04  0.11935858022E+04  0.25500000920E-02 0. -1.
    10030    2    1    2    0    0  0.00000000000E+00  0.00000000000E+00 -0.11112140932E+04  0.12759575113E+04  0.62711307570E+03 0.  0.
        2    1    3    3  502    0 -0.18459857572E+03 -0.23925816807E+03 -0.38541714195E+03  0.48976267566E+03  0.25500000920E-02 0. -1.
       -2    1    3    3    0  502  0.18459857572E+03  0.23925816807E+03 -0.72579695124E+03  0.78619483564E+03  0.25500000920E-02 0.  1.
</event>
<event>
 5   0  0.6170500E-02  0.6045897E+03  0.7818609E-02  0.9895929E-01
        4   -1    0    0  501    0  0.00000000000E+00  0.00000000000E+00  0.12055768741E+03  0.12056437655E+03  0.12699999809E+01 0.  1.
       -4   -1    0    0    0  501  0.00000000000E+00  0.00000000000E+00 -0.75796716787E+03  0.75796823183E+03  0.12699999809E+01 0. -1.
    10030    2    1    2    0    0  0.00000000000E+00  0.00000000000E+00 -0.63740948046E+03  0.87853260838E+03  0.60458969409E+03 0.  0.
        1    1    3    3  502    0  0.26198415500E+03  0.65370324447E+02 -0.12120424663E+03  0.29597203621E+03  0.50400001928E-02 0.  1.
       -1    1    3    3    0  502 -0.26198415500E+03 -0.65370324447E+02 -0.51620523383E+03  0.58256057217E+03  0.50400001928E-02 0. -1.
</event>
<event>
 5   0  0.9177281E-02  0.4487871E+03  0.7818609E-02  0.1028084E+00
       -1   -1    0    0    0  501  0.00000000000E+00  0.00000000000E+00  0.66423862189E+02  0.66423862380E+02  0.50400001928E-02 0.  1.
        1   -1    0    0  501    0  0.00000000000E+00  0.00000000000E+00 -0.75804783881E+03  0.75804783883E+03  0.50400001928E-02 0. -1.
    10030    2    1    2    0    0  0.00000000000E+00  0.00000000000E+00 -0.69162397662E+03  0.82447170121E+03  0.44878709992E+03 0.  0.
        1    1    3    3  502    0 -0.12085524548E+02  0.17337216079E+02  0.64591472130E+02  0.67960998097E+02  0.50400001928E-02 0.  1.
       -1    1    3    3    0  502  0.12085524548E+02 -0.17337216079E+02 -0.75621544875E+03  0.75651070311E+03  0.50400001928E-02 0. -1.
</event>
<event>
 5   0  0.1488510E-01  0.5913401E+03  0.7818609E-02  0.9923537E-01
        2   -1    0    0  501    0  0.00000000000E+00  0.00000000000E+00  0.20428108156E+04  0.20428108156E+04  0.25500000920E-02 0. -1.
       -2   -1    0    0    0  501  0.00000000000E+00  0.00000000000E+00 -0.42794362299E+02  0.42794362375E+02  0.25500000920E-02 0.  1.
    10030    2    1    2    0    0  0.00000000000E+00  0.00000000000E+00  0.20000164533E+04  0.20856051780E+04  0.59134012627E+03 0.  0.
        5    1    3    3  502    0 -0.73495027938E+02  0.91438361569E+02  0.19570710361E+04  0.19605896111E+04  0.46999998093E+01 0. -1.
       -5    1    3    3    0  502  0.73495027938E+02 -0.91438361569E+02  0.42945417272E+02  0.12501556687E+03  0.46999998093E+01 0.  1.
</event>
<event>
 5   0  0.1532571E-01  0.6024740E+03  0.7818609E-02  0.9900287E-01
        2   -1    0    0  501    0  0.00000000000E+00  0.00000000000E+00  0.10583840769E+04  0.10583840769E+04  0.25500000920E-02 0. -1.
       -2   -1    0    0    0  501  0.00000000000E+00  0.00000000000E+00 -0.85737990594E+02  0.85737990632E+02  0.25500000920E-02 0.  1.
    10030    2    1    2    0    0  0.00000000000E+00  0.00000000000E+00  0.97264608630E+03  0.11441220675E+04  0.60247397970E+03 0.  0.
        1    1    3    3  502    0 -0.26809309221E+02  0.13554032652E+03 -0.22016267524E+02  0.13990938223E+03  0.50400001928E-02 0.  1.
       -1    1    3    3    0  502  0.26809309221E+02 -0.13554032652E+03  0.99466235382E+03  0.10042126853E+04  0.50400001928E-02 0. -1.
</event>
<event>
 5   0  0.9497860E-02  0.5967520E+03  0.7818609E-02  0.9912168E-01
        1   -1    0    0  501    0  0.00000000000E+00  0.00000000000E+00  0.60172400092E+03  0.60172400094E+03  0.50400001928E-02 0.  1.
       -1   -1    0    0    0  501  0.00000000000E+00  0.00000000000E+00 -0.14795527591E+03  0.14795527600E+03  0.50400001928E-02 0. -1.
    10030    2    1    2    0    0  0.00000000000E+00  0.00000000000E+00  0.45376872500E+03  0.74967927694E+03  0.59675201087E+03 0.  0.
        5    1    3    3  502    0 -0.10610242273E+03 -0.26743207543E+03  0.32603003245E+03  0.43485090679E+03  0.46999998093E+01 0.  1.
       -5    1    3    3    0  502  0.10610242273E+03  0.26743207543E+03  0.12773869256E+03  0.31482837015E+03  0.46999998093E+01 0. -1.
</event>
<event>
 5   0  0.9177281E-02  0.6477205E+03  0.7818609E-02  0.9811066E-01
       -1   -1    0    0    0  501  0.00000000000E+00  0.00000000000E+00  0.51524393344E+03  0.51524393347E+03  0.50400001928E-02 0. -1.
        1   -1    0    0  501    0  0.00000000000E+00  0.00000000000E+00 -0.20356467137E+03  0.20356467143E+03  0.50400001928E-02 0.  1.
    10030    2    1    2    0    0  0.00000000000E+00  0.00000000000E+00  0.31167926207E+03  0.71880860490E+03  0.64772050151E+03 0.  0.
        1    1    3    3  502    0 -0.19257150011E+03  0.23196258124E+03  0.28712390289E+03  0.41632986608E+03  0.50400001928E-02 0. -1.
       -1    1    3    3    0  502  0.19257150011E+03 -0.23196258124E+03  0.24555359185E+02  0.30247873883E+03  0.50400001928E-02 0.  1.
</event>
<event>
 5   0  0.1488510E-01  0.5937264E+03  0.7818609E-02  0.9918508E-01
       -2   -1    0    0    0  501  0.00000000000E+00  0.00000000000E+00  0.66594199219E+02  0.66594199267E+02  0.25500000920E-02 0.  1.
        2   -1    0    0  501    0  0.00000000000E+00  0.00000000000E+00 -0.13233547258E+04  0.13233547258E+04  0.25500000920E-02 0. -1.
    10030    2    1    2    0    0  0.00000000000E+00  0.00000000000E+00 -0.12567605266E+04  0.13899489251E+04  0.59372636217E+03 0.  0.
        5    1    3    3  502    0 -0.53286463772E+02 -0.28067822339E+03 -0.81691838361E+03  0.86544638643E+03  0.46999998093E+01 0. -1.
       -5    1    3    3    0  502  0.53286463772E+02  0.28067822339E+03 -0.43984214298E+03  0.52450253865E+03  0.46999998093E+01 0.  1.
</event>
<event>
 5   0  0.9177281E-02  0.5796379E+03  0.7818609E-02  0.9948575E-01
       -1   -1    0    0    0  501  0.00000000000E+00  0.00000000000E+00  0.68541314663E+02  0.68541314848E+02  0.50400001928E-02 0. -1.
        1   -1    0    0  501    0  0.00000000000E+00  0.00000000000E+00 -0.12254657901E+04  0.12254657901E+04  0.50400001928E-02 0.  1.
    10030    2    1    2    0    0  0.00000000000E+00  0.00000000000E+00 -0.11569244754E+04  0.12940071049E+04  0.57963794373E+03 0.  0.
        1    1    3    3  502    0  0.14204915126E+03 -0.24077432925E+03 -0.74913514466E+03  0.79959596296E+03  0.50400001928E-02 0.  1.
       -1    1    3    3    0  502 -0.14204915126E+03  0.24077432925E+03 -0.40778933074E+03  0.49441114196E+03  0.50400001928E-02 0. -1.
</event>
<event>
 5   0  0.1513339E-01  0.5866377E+03  0.7818609E-02  0.9933523E-01
       -2   -1    0    0    0  501  0.00000000000E+00  0.00000000000E+00  0.53094566711E+03  0.53094566712E+03  0.25500000920E-02 0. -1.
        2   -1    0    0  501    0  0.00000000000E+00  0.00000000000E+00 -0.16204285103E+03  0.16204285105E+03  0.25500000920E-02 0.  1.
    10030    2    1    2    0    0  0.00000000000E+00  0.00000000000E+00  0.36890281608E+03  0.69298851816E+03  0.58663770642E+03 0.  0.
        3    1    3    3  502    0  0.29662348154E+02  0.29051337187E+03  0.15192700170E+03  0.32918034294E+03  0.10100000352E+00 0.  1.
       -3    1    3    3    0  502 -0.29662348154E+02 -0.29051337187E+03  0.21697581438E+03  0.36380817522E+03  0.10100000352E+00 0. -1.
</event>
<event>
 5   0  0.6170500E-02  0.6059896E+03  0.7818609E-02  0.9893057E-01
        4   -1    0    0  501    0  0.00000000000E+00  0.00000000000E+00  0.12273007291E+03  0.12273664366E+03  0.12699999809E+01 0.  1.
       -4   -1    0    0    0  501  0.00000000000E+00  0.00000000000E+00 -0.74800333835E+03  0.74800441649E+03  0.12699999809E+01 0. -1.
    10030    2    1    2    0    0  0.00000000000E+00  0.00000000000E+00 -0.62527326544E+03  0.87074106014E+03  0.60598955218E+03 0.  0.
        5    1    3    3  502    0 -0.93064672091E+01  0.25710559021E+03 -0.54251160693E+03  0.60044219414E+03  0.46999998093E+01 0. -1.
       -5    1    3    3    0  502  0.93064672091E+01 -0.25710559021E+03 -0.82761658506E+02  0.27029886601E+03  0.46999998093E+01 0.  1.
</event>
<event>
 5   0  0.1532571E-01  0.6622384E+03  0.7818609E-02  0.9784082E-01
       -2   -1    0    0    0  501  0.00000000000E+00  0.00000000000E+00  0.14759337789E+04  0.14759337789E+04  0.25500000920E-02 0.  1.
        2   -1    0    0  501    0  0.00000000000E+00  0.00000000000E+00 -0.74285123316E+02  0.74285123360E+02  0.25500000920E-02 0. -1.
    10030    2    1    2    0    0  0.00000000000E+00  0.00000000000E+00  0.14016486556E+04  0.15502189022E+04  0.66223839456E+03 0.  0.
        1    1    3    3  502    0  0.54108179621E+02  0.48837628066E+02 -0.55272242700E+02  0.91475843016E+02  0.50400001928E-02 0. -1.
       -1    1    3    3    0  502 -0.54108179621E+02 -0.48837628066E+02  0.14569208983E+04  0.14587430592E+04  0.50400001928E-02 0.  1.
</event>
<event>
 5   0  0.6170500E-02  0.5891643E+03  0.7818609E-02  0.9928145E-01
       -4   -1    0    0    0  501  0.00000000000E+00  0.00000000000E+00  0.15281977756E+03  0.15282505460E+03  0.12699999809E+01 0. -1.
        4   -1    0    0  501    0  0.00000000000E+00  0.00000000000E+00 -0.56783373007E+03  0.56783515029E+03  0.12699999809E+01 0.  1.
    10030    2    1    2    0    0  0.00000000000E+00  0.00000000000E+00 -0.41501395251E+03  0.72066020490E+03  0.58916428111E+03 0.  0.
        3    1    3    3  502    0 -0.61950706273E+01  0.19121016756E+03  0.66495689176E+02  0.20253738903E+03  0.10100000352E+00 0. -1.
       -3    1    3    3    0  502  0.61950706273E+01 -0.19121016756E+03 -0.48150964169E+03  0.51812281586E+03  0.10100000352E+00 0.  1.
</event>
<event>
 5   0  0.6170500E-02  0.6040076E+03  0.7818609E-02  0.9897126E-01
       -3   -1    0    0    0  501  0.00000000000E+00  0.00000000000E+00  0.42176373657E+03  0.42176374866E+03  0.10100000352E+00 0.  1.
        3   -1    0    0  501    0  0.00000000000E+00  0.00000000000E+00 -0.21624973679E+03  0.21624976038E+03  0.10100000352E+00 0. -1.
    10030    2    1    2    0    0  0.00000000000E+00  0.00000000000E+00  0.20551399977E+03  0.63801350904E+03  0.60400764367E+03 0.  0.
        1    1    3    3  502    0  0.94184811517E+02  0.14285442840E+03  0.36562121321E+03  0.40367937526E+03  0.50400001928E-02 0.  1.
       -1    1    3    3    0  502 -0.94184811517E+02 -0.14285442840E+03 -0.16010721344E+03  0.23433413378E+03  0.50400001928E-02 0. -1.
</event>
<event>
 5   0  0.1483942E-01  0.5888334E+03  0.7818609E-02  0.9928848E-01
        2   -1    0    0  501    0  0.00000000000E+00  0.00000000000E+00  0.17245333949E+04  0.17245333949E+04  0.25500000920E-02 0.  1.
       -2   -1    0    0    0  501  0.00000000000E+00  0.00000000000E+00 -0.50263561471E+02  0.50263561535E+02  0.25500000920E-02 0. -1.
    10030    2    1    2    0    0  0.00000000000E+00  0.00000000000E+00  0.16742698334E+04  0.17747969564E+04  0.58883339023E+03 0.  0.
        4    1    3    3  502    0  0.25342629671E+03  0.13248127082E+03  0.10481944714E+04  0.10865033077E+04  0.12699999809E+01 0.  1.
       -4    1    3    3    0  502 -0.25342629671E+03 -0.13248127082E+03  0.62607536208E+03  0.68829364874E+03  0.12699999809E+01 0. -1.
</event>
<event>
 5   0  0.9420349E-02  0.4667415E+03  0.7818609E-02  0.1022844E+00
       -1   -1    0    0    0  501  0.00000000000E+00  0.00000000000E+00  0.23936597405E+02  0.23936597935E+02  0.50400001928E-02 0.  1.
        1   -1    0    0  501    0  0.00000000000E+00  0.00000000000E+00 -0.22752567341E+04  0.22752567341E+04  0.50400001928E-02 0. -1.
    10030    2    1    2    0    0  0.00000000000E+00  0.00000000000E+00 -0.22513201367E+04  0.22991933320E+04  0.46674149185E+03 0.  0.
        2    1    3    3  502    0  0.17404718142E+02 -0.90591052190E+02 -0.21816321455E+04  0.21835815720E+04  0.25500000920E-02 0. -1.
       -2    1    3    3    0  502 -0.17404718142E+02  0.90591052190E+02 -0.69687991151E+02  0.11561176008E+03  0.25500000920E-02 0.  1.
</event>
<event>
 5   0  0.1488510E-01  0.6034030E+03  0.7818609E-02  0.9898371E-01
        2   -1    0    0  501    0  0.00000000000E+00  0.00000000000E+00  0.11020673059E+04  0.11020673059E+04  0.25500000920E-02 0. -1.
       -2   -1    0    0    0  501  0.00000000000E+00  0.00000000000E+00 -0.82593677512E+02  0.82593677551E+02  0.25500000920E-02 0.  1.
    10030    2    1    2    0    0  0.00000000000E+00  0.00000000000E+00  0.10194736284E+04  0.11846609834E+04  0.60340298866E+03 0.  0.
        5    1    3    3  502    0 -0.27174403834E+03 -0.48681202596E+02  0.74847778521E+03  0.79778177894E+03  0.46999998093E+01 0. -1.
       -5    1    3    3    0  502  0.27174403834E+03  0.48681202596E+02  0.27099584314E+03  0.38687920448E+03  0.46999998093E+01 0.  1.
</event>
<event>
 5   0  0.8860626E-02  0.6051913E+03  0.7818609E-02  0.9894694E-01
       -1   -1    0    0    0  501  0.00000000000E+00  0.00000000000E+00  0.12968561414E+03  0.12968561423E+03  0.50400001928E-02 0. -1.
        1   -1    0    0  501    0  0.00000000000E+00  0.00000000000E+00 -0.70604693359E+03  0.70604693361E+03  0.50400001928E-02 0.  1.
    10030    2    1    2    0    0  0.00000000000E+00  0.00000000000E+00 -0.57636131945E+03  0.83573254784E+03  0.60519130939E+03 0.  0.
        3    1    3    3  502    0  0.19531852630E+02  0.12570422939E+03 -0.66732606061E+03  0.67934315918E+03  0.10100000352E+00 0.  1.
       -3    1    3    3    0  502 -0.19531852630E+02 -0.12570422939E+03  0.90964741154E+02  0.15638938867E+03  0.10100000352E+00 0. -1.
</event>
<event>
 5   0  0.9420349E-02  0.5951393E+03  0.7818609E-02  0.9915542E-01
       -1   -1    0    0    0  501  0.00000000000E+00  0.00000000000E+00  0.34513777875E+03  0.34513777879E+03  0.50400001928E-02 0. -1.
        1   -1    0    0  501    0  0.00000000000E+00  0.00000000000E+00 -0.25655753879E+03  0.25655753884E+03  0.50400001928E-02 0.  1.
    10030    2    1    2    0    0  0.00000000000E+00  0.00000000000E+00  0.88580239958E+02  0.60169531763E+03  0.59513930836E+03 0.  0.
        2    1    3    3  502    0 -0.78495508435E+02  0.19922673565E+03  0.25319366179E+03  0.33160197137E+03  0.25500000920E-02 0. -1.
       -2    1    3    3    0  502  0.78495508435E+02 -0.19922673565E+03 -0.16461342183E+03  0.27009334626E+03  0.25500000920E-02 0.  1.
</event>
<event>
 5   0  0.9177281E-02  0.6102380E+03  0.7818609E-02  0.9884390E-01
       -1   -1    0    0    0  501  0.00000000000E+00  0.00000000000E+00  0.20593527644E+03  0.20593527650E+03  0.50400001928E-02 0. -1.
        1   -1    0    0  501    0  0.00000000000E+00  0.00000000000E+00 -0.45207217249E+03  0.45207217252E+03  0.50400001928E-02 0.  1.
    10030    2    1    2    0    0  0.00000000000E+00  0.00000000000E+00 -0.24613689605E+03  0.65800744902E+03  0.61023801206E+03 0.  0.
        1    1    3    3  502    0 -0.98218677853E+02 -0.11236437768E+03  0.16389374248E+03  0.22166150071E+03  0.50400001928E-02 0. -1.
       -1    1    3    3    0  502  0.98218677853E+02  0.11236437768E+03 -0.41003063852E+03  0.43634594831E+03  0.50400001928E-02 0.  1.
</event>
<event>
 5   0  0.6170500E-02  0.6019216E+03  0.7818609E-02  0.9901427E-01
       -3   -1    0    0    0  501  0.00000000000E+00  0.00000000000E+00  0.87002528914E+03  0.87002529501E+03  0.10100000352E+00 0. -1.
        3   -1    0    0  501    0  0.00000000000E+00  0.00000000000E+00 -0.10410888689E+03  0.10410893589E+03  0.10100000352E+00 0.  1.
    10030    2    1    2    0    0  0.00000000000E+00  0.00000000000E+00  0.76591640225E+03  0.97413423089E+03  0.60192156014E+03 0.  0.
        5    1    3    3  502    0 -0.23651848540E+03 -0.18319234468E+03  0.33039536391E+03  0.44573940321E+03  0.46999998093E+01 0.  1.
       -5    1    3    3    0  502  0.23651848540E+03  0.18319234468E+03  0.43552103834E+03  0.52839482768E+03  0.46999998093E+01 0. -1.
</event>
<event>
 5   0  0.8860626E-02  0.5918443E+03  0.7818609E-02  0.9922473E-01
       -1   -1    0    0    0  501  0.00000000000E+00  0.00000000000E+00  0.91573047388E+02  0.91573047526E+02  0.50400001928E-02 0.  1.
        1   -1    0    0  501    0  0.00000000000E+00  0.00000000000E+00 -0.95628474638E+03  0.95628474640E+03  0.50400001928E-02 0. -1.
    10030    2    1    2    0    0  0.00000000000E+00  0.00000000000E+00 -0.86471169900E+03  0.10478577939E+04  0.59184426491E+03 0.  0.
        3    1    3    3  502    0  0.13016313417E+03 -0.17321993581E+03 -0.78919887736E+03  0.81840238629E+03  0.10100000352E+00 0. -1.
       -3    1    3    3    0  502 -0.13016313417E+03  0.17321993581E+03 -0.75512821635E+02  0.22945540763E+03  0.10100000352E+00 0.  1.
</event>
<event>
 5   0  0.9497860E-02  0.5932009E+03  0.7818609E-02  0.9919613E-01
        1   -1    0    0  501    0  0.00000000000E+00  0.00000000000E+00  0.78305830161E+02  0.78305830323E+02  0.50400001928E-02 0. -1.
       -1   -1    0    0    0  501  0.00000000000E+00  0.00000000000E+00 -0.11234392189E+04  0.11234392189E+04  0.50400001928E-02 0.  1.
    10030    2    1    2    0    0  0.00000000000E+00  0.00000000000E+00 -0.10451333888E+04  0.12017450492E+04  0.59320094665E+03 0.  0.
        5    1    3    3  502    0 -0.41122691420E+01  0.16930405594E+03 -0.29365385300E+02  0.17194531097E+03  0.46999998093E+01 0. -1.
       -5    1    3    3    0  502  0.41122691420E+01 -0.16930405594E+03 -0.10157680035E+04  0.10297997383E+04  0.46999998093E+01 0.  1.
</event>
<event>
 5   0  0.9497860E-02  0.5837197E+03  0.7818609E-02  0.9939770E-01
       -1   -1    0    0    0  501  0.00000000000E+00  0.00000000000E+00  0.36958102598E+03  0.36958102602E+03  0.50400001928E-02 0. -1.
        1   -1    0    0  501    0  0.00000000000E+00  0.00000000000E+00 -0.23048311267E+03  0.23048311273E+03  0.50400001928E-02 0.  1.
    10030    2    1    2    0    0  0.00000000000E+00  0.00000000000E+00  0.13909791331E+03  0.60006413874E+03  0.58371974536E+03 0.  0.
        5    1    3    3  502    0  0.75730615307E+02 -0.19035739350E+03  0.28318770433E+03  0.34955461552E+03  0.46999998093E+01 0. -1.
       -5    1    3    3    0  502 -0.75730615307E+02  0.19035739350E+03 -0.14408979101E+03  0.25050952322E+03  0.46999998093E+01 0.  1.
</event>
<event>
 5   0  0.1483942E-01  0.6076697E+03  0.7818609E-02  0.9889620E-01
       -2   -1    0    0    0  501  0.00000000000E+00  0.00000000000E+00  0.58353803076E+02  0.58353803132E+02  0.25500000920E-02 0.  1.
        2   -1    0    0  501    0  0.00000000000E+00  0.00000000000E+00 -0.15819983520E+04  0.15819983520E+04  0.25500000920E-02 0. -1.
    10030    2    1    2    0    0  0.00000000000E+00  0.00000000000E+00 -0.15236445489E+04  0.16403521551E+04  0.60766971405E+03 0.  0.
        4    1    3    3  502    0 -0.30336667913E+03  0.79533042149E+01 -0.80180736595E+03  0.85731631388E+03  0.12699999809E+01 0.  1.
       -4    1    3    3    0  502  0.30336667913E+03 -0.79533042149E+01 -0.72183718293E+03  0.78303584121E+03  0.12699999809E+01 0. -1.
</event>
<event>
 5   0  0.9411028E-02  0.5986943E+03  0.7818609E-02  0.9908119E-01
        1   -1    0    0  501    0  0.00000000000E+00  0.00000000000E+00  0.11359627570E+04  0.11359627570E+04  0.50400001928E-02 0. -1.
       -1   -1    0    0    0  501  0.00000000000E+00  0.00000000000E+00 -0.78883499683E+02  0.78883499844E+02  0.50400001928E-02 0.  1.
    10030    2    1    2    0    0  0.00000000000E+00  0.00000000000E+00  0.10570792573E+04  0.12148462568E+04  0.59869430558E+03 0.  0.
        4    1    3    3  502    0 -0.24070679803E+03 -0.85031677057E+02  0.21133483030E+03  0.33141238981E+03  0.12699999809E+01 0.  1.
       -4    1    3    3    0  502  0.24070679803E+03  0.85031677057E+02  0.84574442699E+03  0.88343386703E+03  0.12699999809E+01 0. -1.
</event>
<event>
 5   0  0.1513339E-01  0.6379846E+03  0.7818609E-02  0.9829590E-01
        2   -1    0    0  501    0  0.00000000000E+00  0.00000000000E+00  0.96671924060E+03  0.96671924060E+03  0.25500000920E-02 0. -1.
       -2   -1    0    0    0  501  0.00000000000E+00  0.00000000000E+00 -0.10525920010E+03  0.10525920013E+03  0.25500000920E-02 0.  1.
    10030    2    1    2    0    0  0.00000000000E+00  0.00000000000E+00  0.86146004051E+03  0.10719784407E+04  0.63798462051E+03 0.  0.
        3    1    3    3  502    0  0.56345327127E+02  0.80928834144E+02 -0.79005417079E+02  0.12635718505E+03  0.10100000352E+00 0.  1.
       -3    1    3    3    0  502 -0.56345327127E+02 -0.80928834144E+02  0.94046545758E+03  0.94562125568E+03  0.10100000352E+00 0. -1.
</event>
<event>
 5   0  0.6170500E-02  0.6013081E+03  0.7818609E-02  0.9902696E-01
       -3   -1    0    0    0  501  0.00000000000E+00  0.00000000000E+00  0.22006397181E+03  0.22006399499E+03  0.10100000352E+00 0. -1.
        3   -1    0    0  501    0  0.00000000000E+00  0.00000000000E+00 -0.41075708002E+03  0.41075709244E+03  0.10100000352E+00 0.  1.
    10030    2    1    2    0    0  0.00000000000E+00  0.00000000000E+00 -0.19069310821E+03  0.63082108743E+03  0.60130805984E+03 0.  0.
        3    1    3    3  502    0  0.65994710193E+02 -0.23649415082E+03 -0.27737970834E+03  0.37043798124E+03  0.10100000352E+00 0.  1.
       -3    1    3    3    0  502 -0.65994710193E+02  0.23649415082E+03  0.86686600127E+02  0.26038310619E+03  0.10100000352E+00 0. -1.
</event>
<event>
 5   0  0.1532571E-01  0.6001040E+03  0.7818609E-02  0.9905190E-01
       -2   -1    0    0    0  501  0.00000000000E+00  0.00000000000E+00  0.12975765592E+03  0.12975765595E+03  0.25500000920E-02 0. -1.
        2   -1    0    0  501    0  0.00000000000E+00  0.00000000000E+00 -0.69384123358E+03  0.69384123359E+03  0.25500000920E-02 0.  1.
    10030    2    1    2    0    0  0.00000000000E+00  0.00000000000E+00 -0.56408357766E+03  0.82359888954E+03  0.60010403120E+03 0.  0.
        1    1    3    3  502    0 -0.25732983875E+03 -0.72575591977E+02 -0.95142899606E+02  0.28379223709E+03  0.50400001928E-02 0.  1.
       -1    1    3    3    0  502  0.25732983875E+03  0.72575591977E+02 -0.46894067805E+03  0.53980665244E+03  0.50400001928E-02 0. -1.
</event>
<event>
 5   0  0.9420349E-02  0.6594031E+03  0.7818609E-02  0.9789293E-01
       -1   -1    0    0    0  501  0.00000000000E+00  0.00000000000E+00  0.22905601411E+03  0.22905601417E+03  0.50400001928E-02 0.  1.
        1   -1    0    0  501    0  0.00000000000E+00  0.00000000000E+00 -0.47457003774E+03  0.47457003777E+03  0.50400001928E-02 0. -1.
    10030    2    1    2    0    0  0.00000000000E+00  0.00000000000E+00 -0.24551402363E+03  0.70362605193E+03  0.65940312796E+03 0.  0.
        2    1    3    3  502    0  0.31331610489E+03 -0.58759589512E+01 -0.13406981195E+02  0.31365786396E+03  0.25500000920E-02 0.  1.
       -2    1    3    3    0  502 -0.31331610489E+03  0.58759589512E+01 -0.23210704243E+03  0.38996818797E+03  0.25500000920E-02 0. -1.
</event>
<event>
 5   0  0.1532571E-01  0.5956114E+03  0.7818609E-02  0.9914553E-01
        2   -1    0    0  501    0  0.00000000000E+00  0.00000000000E+00  0.55373240730E+03  0.55373240730E+03  0.25500000920E-02 0. -1.
       -2   -1    0    0    0  501  0.00000000000E+00  0.00000000000E+00 -0.16016445281E+03  0.16016445283E+03  0.25500000920E-02 0.  1.
    10030    2    1    2    0    0  0.00000000000E+00  0.00000000000E+00  0.39356795449E+03  0.71389686013E+03  0.59561144390E+03 0.  0.
        1    1    3    3  502    0 -0.34054393283E+02 -0.21877977462E+03 -0.41925935995E+02  0.22534878659E+03  0.50400001928E-02 0. -1.
       -1    1    3    3    0  502  0.34054393283E+02  0.21877977462E+03  0.43549389049E+03  0.48854807354E+03  0.50400001928E-02 0.  1.
</event>
<event>
 5   0  0.1532571E-01  0.6055024E+03  0.7818609E-02  0.9894056E-01
        2   -1    0    0  501    0  0.00000000000E+00  0.00000000000E+00  0.12881855960E+04  0.12881855960E+04  0.25500000920E-02 0.  1.
       -2   -1    0    0    0  501  0.00000000000E+00  0.00000000000E+00 -0.71153008675E+02  0.71153008720E+02  0.25500000920E-02 0. -1.
    10030    2    1    2    0    0  0.00000000000E+00  0.00000000000E+00  0.12170325873E+04  0.13593386047E+04  0.60550237298E+03 0.  0.
        1    1    3    3  502    0  0.77161028802E+02 -0.74024371952E+02 -0.27350660275E+02  0.11036979048E+03  0.50400001928E-02 0. -1.
       -1    1    3    3    0  502 -0.77161028802E+02  0.74024371952E+02  0.12443832476E+04  0.12489688143E+04  0.50400001928E-02 0.  1.
</event>
<event>
 5   0  0.9420349E-02  0.6040746E+03  0.7818609E-02  0.9896988E-01
        1   -1    0    0  501    0  0.00000000000E+00  0.00000000000E+00  0.44316152265E+03  0.44316152268E+03  0.50400001928E-02 0.  1.
       -1   -1    0    0    0  501  0.00000000000E+00  0.00000000000E+00 -0.20585391298E+03  0.20585391304E+03  0.50400001928E-02 0. -1.
    10030    2    1    2    0    0  0.00000000000E+00  0.00000000000E+00  0.23730760967E+03  0.64901543572E+03  0.60407460980E+03 0.  0.
        2    1    3    3  502    0  0.16487532983E+03  0.33913529777E+02 -0.15078738172E+03  0.22598857577E+03  0.25500000920E-02 0. -1.
       -2    1    3    3    0  502 -0.16487532983E+03 -0.33913529777E+02  0.38809499139E+03  0.42302685995E+03  0.25500000920E-02 0.  1.
</event>
<event>
 5   0  0.1532571E-01  0.6068650E+03  0.7818609E-02  0.9891265E-01
       -2   -1    0    0    0  501  0.00000000000E+00  0.00000000000E+00  0.11554548774E+03  0.11554548777E+03  0.25500000920E-02 0.  1.
        2   -1    0    0  501    0  0.00000000000E+00  0.00000000000E+00 -0.79684005059E+03  0.79684005060E+03  0.25500000920E-02 0. -1.
    10030    2    1    2    0    0  0.00000000000E+00  0.00000000000E+00 -0.68129456285E+03  0.91238553836E+03  0.60686496789E+03 0.  0.
        1    1    3    3  502    0 -0.28667140284E+03 -0.54563038405E+02 -0.46565595386E+03  0.54953897565E+03  0.50400001928E-02 0. -1.
       -1    1    3    3    0  502  0.28667140284E+03  0.54563038405E+02 -0.21563860899E+03  0.36284656272E+03  0.50400001928E-02 0.  1.
</event>
<event>
 5   0  0.9411028E-02  0.5815254E+03  0.7818609E-02  0.9944494E-01
       -1   -1    0    0    0  501  0.00000000000E+00  0.00000000000E+00  0.11236843252E+03  0.11236843263E+03  0.50400001928E-02 0.  1.
        1   -1    0    0  501    0  0.00000000000E+00  0.00000000000E+00 -0.75237270008E+03  0.75237270010E+03  0.50400001928E-02 0. -1.
    10030    2    1    2    0    0  0.00000000000E+00  0.00000000000E+00 -0.64000426756E+03  0.86474113273E+03  0.58152537704E+03 0.  0.
        4    1    3    3  502    0 -0.15805768046E+03 -0.24360298948E+03 -0.29811302077E+03  0.41617019702E+03  0.12699999809E+01 0. -1.
       -4    1    3    3    0  502  0.15805768046E+03  0.24360298948E+03 -0.34189124678E+03  0.44857093571E+03  0.12699999809E+01 0.  1.
</event>
<event>
 5   0  0.6170500E-02  0.6000562E+03  0.7818609E-02  0.9905290E-01
       -4   -1    0    0    0  501  0.00000000000E+00  0.00000000000E+00  0.11466669530E+03  0.11467372808E+03  0.12699999809E+01 0. -1.
        4   -1    0    0  501    0  0.00000000000E+00  0.00000000000E+00 -0.78499882946E+03  0.78499985678E+03  0.12699999809E+01 0.  1.
    10030    2    1    2    0    0  0.00000000000E+00  0.00000000000E+00 -0.67033213416E+03  0.89967358486E+03  0.60005615505E+03 0.  0.
        2    1    3    3  502    0  0.60642092265E+02  0.66520952628E+02 -0.76428043961E+03  0.76956292197E+03  0.25500000920E-02 0.  1.
       -2    1    3    3    0  502 -0.60642092265E+02 -0.66520952628E+02  0.93948305457E+02  0.13011066289E+03  0.25500000920E-02 0. -1.
</event>
<event>
 5   0  0.9411028E-02  0.5458511E+03  0.7818609E-02  0.1002459E+00
        1   -1    0    0  501    0  0.00000000000E+00  0.00000000000E+00  0.22965293758E+03  0.22965293764E+03  0.50400001928E-02 0.  1.
       -1   -1    0    0    0  501  0.00000000000E+00  0.00000000000E+00 -0.32435188779E+03  0.32435188783E+03  0.50400001928E-02 0. -1.
    10030    2    1    2    0    0  0.00000000000E+00  0.00000000000E+00 -0.94698950205E+02  0.55400482547E+03  0.54585112940E+03 0.  0.
        4    1    3    3  502    0 -0.20144442333E+03  0.18398041297E+03 -0.55085864450E+02  0.27832483434E+03  0.12699999809E+01 0.  1.
       -4    1    3    3    0  502  0.20144442333E+03 -0.18398041297E+03 -0.39613085755E+02  0.27567999113E+03  0.12699999809E+01 0. -1.
</event>
<event>
 5   0  0.1532571E-01  0.5995037E+03  0.7818609E-02  0.9906436E-01
       -2   -1    0    0    0  501  0.00000000000E+00  0.00000000000E+00  0.97202574828E+02  0.97202574861E+02  0.25500000920E-02 0.  1.
        2   -1    0    0  501    0  0.00000000000E+00  0.00000000000E+00 -0.92437027064E+03  0.92437027064E+03  0.25500000920E-02 0. -1.
    10030    2    1    2    0    0  0.00000000000E+00  0.00000000000E+00 -0.82716769581E+03  0.10215728455E+04  0.59950369613E+03 0.  0.
        1    1    3    3  502    0 -0.58764585379E+02  0.22290461083E+03 -0.87087658760E+02  0.24642240637E+03  0.50400001928E-02 0.  1.
       -1    1    3    3    0  502  0.58764585379E+02 -0.22290461083E+03 -0.74008003705E+03  0.77515043914E+03  0.50400001928E-02 0. -1.
</event>
<event>
 5   0  0.9411028E-02  0.6258101E+03  0.7818609E-02  0.9853259E-01
       -1   -1    0    0    0  501  0.00000000000E+00  0.00000000000E+00  0.21133762471E+03  0.21133762477E+03  0.50400001928E-02 0. -1.
        1   -1    0    0  501    0  0.00000000000E+00  0.00000000000E+00 -0.46328509771E+03  0.46328509774E+03  0.50400001928E-02 0.  1.
    10030    2    1    2    0    0  0.00000000000E+00  0.00000000000E+00 -0.25194747300E+03  0.67462272251E+03  0.62581010585E+03 0.  0.
        4    1    3    3  502    0 -0.70827259626E+02  0.30086207800E+03 -0.73455499994E+02  0.31769767714E+03  0.12699999809E+01 0. -1.
       -4    1    3    3    0  502  0.70827259626E+02 -0.30086207800E+03 -0.17849197301E+03  0.35692504537E+03  0.12699999809E+01 0.  1.
</event>
<event>
 5   0  0.9420349E-02  0.3639801E+03  0.7818609E-02  0.1057019E+00
        1   -1    0    0  501    0  0.00000000000E+00  0.00000000000E+00  0.79422705269E+02  0.79422705429E+02  0.50400001928E-02 0. -1.
       -1   -1    0    0    0  501  0.00000000000E+00  0.00000000000E+00 -0.41701401389E+03  0.41701401392E+03  0.50400001928E-02 0.  1.
    10030    2    1    2    0    0  0.00000000000E+00  0.00000000000E+00 -0.33759130862E+03  0.49643671935E+03  0.36398011575E+03 0.  0.
        2    1    3    3  502    0  0.49718881426E+02 -0.19314044739E+02 -0.40611385753E+03  0.40960159275E+03  0.25500000920E-02 0.  1.
       -2    1    3    3    0  502 -0.49718881426E+02  0.19314044739E+02  0.68522548917E+02  0.86835126596E+02  0.25500000920E-02 0. -1.
</event>
<event>
 5   0  0.1502642E-01  0.5919992E+03  0.7818609E-02  0.9922146E-01
        2   -1    0    0  501    0  0.00000000000E+00  0.00000000000E+00  0.96775322405E+03  0.96775322406E+03  0.25500000920E-02 0. -1.
       -2   -1    0    0    0  501  0.00000000000E+00  0.00000000000E+00 -0.90535242128E+02  0.90535242164E+02  0.25500000920E-02 0.  1.
    10030    2    1    2    0    0  0.00000000000E+00  0.00000000000E+00  0.87721798192E+03  0.10582884662E+04  0.59199923135E+03 0.  0.
        2    1    3    3  502    0  0.58414040874E+02 -0.28241452333E+03  0.55780139165E+03  0.62794311502E+03  0.25500000920E-02 0. -1.
       -2    1    3    3    0  502 -0.58414040874E+02  0.28241452333E+03  0.31941659027E+03  0.43034535121E+03  0.25500000920E-02 0.  1.
</event>
<event>
 5   0  0.1502642E-01  0.7567529E+03  0.7818609E-02  0.9624815E-01
        2   -1    0    0  501    0  0.00000000000E+00  0.00000000000E+00  0.65887884182E+03  0.65887884182E+03  0.25500000920E-02 0. -1.
       -2   -1    0    0    0  501  0.00000000000E+00  0.00000000000E+00 -0.21729144729E+03  0.21729144731E+03  0.25500000920E-02 0.  1.
    10030    2    1    2    0    0  0.00000000000E+00  0.00000000000E+00  0.44158739453E+03  0.87617028913E+03  0.75675289794E+03 0.  0.
        2    1    3    3  502    0 -0.83853110646E+02  0.31826389682E+03  0.46673637260E+01  0.32915807217E+03  0.25500000920E-02 0.  1.
       -2    1    3    3    0  502  0.83853110646E+02 -0.31826389682E+03  0.43692003080E+03  0.54701221696E+03  0.25500000920E-02 0. -1.
</event>
<event>
 5   0  0.1488510E-01  0.5902103E+03  0.7818609E-02  0.9925927E-01
        2   -1    0    0  501    0  0.00000000000E+00  0.00000000000E+00  0.66276558656E+03  0.66276558657E+03  0.25500000920E-02 0. -1.
       -2   -1    0    0    0  501  0.00000000000E+00  0.00000000000E+00 -0.13139948304E+03  0.13139948306E+03  0.25500000920E-02 0.  1.
    10030    2    1    2    0    0  0.00000000000E+00  0.00000000000E+00  0.53136610352E+03  0.79416506963E+03  0.59021032001E+03 0.  0.
        5    1    3    3  502    0 -0.25565916125E+03  0.13754274056E+03  0.19466902763E+03  0.34956792262E+03  0.46999998093E+01 0. -1.
       -5    1    3    3    0  502  0.25565916125E+03 -0.13754274056E+03  0.33669707589E+03  0.44459714700E+03  0.46999998093E+01 0.  1.
</event>
<event>
 5   0  0.1532571E-01  0.6023988E+03  0.7818609E-02  0.9900442E-01
       -2   -1    0    0    0  501  0.00000000000E+00  0.00000000000E+00  0.11595812851E+03  0.11595812854E+03  0.25500000920E-02 0. -1.
        2   -1    0    0  501    0  0.00000000000E+00  0.00000000000E+00 -0.78236079185E+03  0.78236079185E+03  0.25500000920E-02 0.  1.
    10030    2    1    2    0    0  0.00000000000E+00  0.00000000000E+00 -0.66640266334E+03  0.89831892039E+03  0.60239884879E+03 0.  0.
        1    1    3    3  502    0 -0.26139473677E+03  0.32467402937E+02 -0.55104307475E+03  0.61076166458E+03  0.50400001928E-02 0.  1.
       -1    1    3    3    0  502  0.26139473677E+03 -0.32467402937E+02 -0.11535958859E+03  0.28755725581E+03  0.50400001928E-02 0. -1.
</event>
<event>
 5   0  0.9177281E-02  0.6088721E+03  0.7818609E-02  0.9887168E-01
        1   -1    0    0  501    0  0.00000000000E+00  0.00000000000E+00  0.10798068516E+04  0.10798068516E+04  0.50400001928E-02 0.  1.
       -1   -1    0    0    0  501  0.00000000000E+00  0.00000000000E+00 -0.85831380888E+02  0.85831381036E+02  0.50400001928E-02 0. -1.
    10030    2    1    2    0    0  0.00000000000E+00  0.00000000000E+00  0.99397547069E+03  0.11656382326E+04  0.60887211549E+03 0.  0.
        1    1    3    3  502    0 -0.24181086580E+03  0.17745745059E+03  0.59678903340E+03  0.66792274404E+03  0.50400001928E-02 0.  1.
       -1    1    3    3    0  502  0.24181086580E+03 -0.17745745059E+03  0.39718643729E+03  0.49771548859E+03  0.50400001928E-02 0. -1.
</event>
<event>
 5   0  0.1483942E-01  0.6016678E+03  0.7818609E-02  0.9901952E-01
       -2   -1    0    0    0  501  0.00000000000E+00  0.00000000000E+00  0.75403045602E+03  0.75403045603E+03  0.25500000920E-02 0. -1.
        2   -1    0    0  501    0  0.00000000000E+00  0.00000000000E+00 -0.12002306318E+03  0.12002306321E+03  0.25500000920E-02 0.  1.
    10030    2    1    2    0    0  0.00000000000E+00  0.00000000000E+00  0.63400739284E+03  0.87405351923E+03  0.60166783220E+03 0.  0.
        4    1    3    3  502    0  0.48147206310E+02 -0.23982269567E+03  0.57140088099E+03  0.62155744588E+03  0.12699999809E+01 0.  1.
       -4    1    3    3    0  502 -0.48147206310E+02  0.23982269567E+03  0.62606511855E+02  0.25249607335E+03  0.12699999809E+01 0. -1.
</event>
<event>
 5   0  0.1488510E-01  0.5929983E+03  0.7818609E-02  0.9920040E-01
        2   -1    0    0  501    0  0.00000000000E+00  0.00000000000E+00  0.10947413865E+04  0.10947413865E+04  0.25500000920E-02 0. -1.
       -2   -1    0    0    0  501  0.00000000000E+00  0.00000000000E+00 -0.80303668539E+02  0.80303668580E+02  0.25500000920E-02 0.  1.
    10030    2    1    2    0    0  0.00000000000E+00  0.00000000000E+00  0.10144377180E+04  0.11750450551E+04  0.59299831185E+03 0.  0.
        5    1    3    3  502    0  0.36380032645E+02 -0.20506389956E+03  0.92529367384E+03  0.94845410143E+03  0.46999998093E+01 0. -1.
       -5    1    3    3    0  502 -0.36380032645E+02  0.20506389956E+03  0.89144044123E+02  0.22659095365E+03  0.46999998093E+01 0.  1.
</event>
<event>
 5   0  0.1532571E-01  0.3444698E+03  0.7818609E-02  0.1064908E+00
        2   -1    0    0  501    0  0.00000000000E+00  0.00000000000E+00  0.74637758551E+03  0.74637758552E+03  0.25500000920E-02 0. -1.
       -2   -1    0    0    0  501  0.00000000000E+00  0.00000000000E+00 -0.39745122287E+02  0.39745122369E+02  0.25500000920E-02 0.  1.
    10030    2    1    2    0    0  0.00000000000E+00  0.00000000000E+00  0.70663246323E+03  0.78612270789E+03  0.34446984450E+03 0.  0.
        1    1    3    3  502    0  0.59080138110E+02 -0.57350747388E+02  0.80791685347E+01  0.82733571993E+02  0.50400001928E-02 0.  1.
       -1    1    3    3    0  502 -0.59080138110E+02  0.57350747388E+02  0.69855329469E+03  0.70338913590E+03  0.50400001928E-02 0. -1.
</event>
<event>
 5   0  0.9177281E-02  0.5996825E+03  0.7818609E-02  0.9906065E-01
        1   -1    0    0  501    0  0.00000000000E+00  0.00000000000E+00  0.21630630285E+03  0.21630630291E+03  0.50400001928E-02 0.  1.
       -1   -1    0    0    0  501  0.00000000000E+00  0.00000000000E+00 -0.41563645843E+03  0.41563645846E+03  0.50400001928E-02 0. -1.
    10030    2    1    2    0    0  0.00000000000E+00  0.00000000000E+00 -0.19933015559E+03  0.63194276137E+03  0.59968253495E+03 0.  0.
        1    1    3    3  502    0  0.10031952374E+03  0.21289198998E+03 -0.29544933484E+03  0.37772650916E+03  0.50400001928E-02 0. -1.
       -1    1    3    3    0  502 -0.10031952374E+03 -0.21289198998E+03  0.96119179252E+02  0.25421625221E+03  0.50400001928E-02 0.  1.
</event>
<event>
 5   0  0.6170500E-02  0.6277637E+03  0.7818609E-02  0.9849422E-01
        4   -1    0    0  501    0  0.00000000000E+00  0.00000000000E+00  0.10812163296E+03  0.10812909144E+03  0.12699999809E+01 0. -1.
       -4   -1    0    0    0  501  0.00000000000E+00  0.00000000000E+00 -0.91117353144E+03  0.91117441651E+03  0.12699999809E+01 0.  1.
    10030    2    1    2    0    0  0.00000000000E+00  0.00000000000E+00 -0.80305189848E+03  0.10193035079E+04  0.62776372120E+03 0.  0.
        2    1    3    3  502    0 -0.25368615358E+03  0.90484299387E+01 -0.10176295352E+03  0.27348535120E+03  0.25500000920E-02 0. -1.
       -2    1    3    3    0  502  0.25368615358E+03 -0.90484299387E+01 -0.70128894496E+03  0.74581815675E+03  0.25500000920E-02 0.  1.
</event>
<event>
 5   0  0.9420349E-02  0.6103376E+03  0.7818609E-02  0.9884188E-01
        1   -1    0    0  501    0  0.00000000000E+00  0.00000000000E+00  0.35422209419E+03  0.35422209423E+03  0.50400001928E-02 0. -1.
       -1   -1    0    0    0  501  0.00000000000E+00  0.00000000000E+00 -0.26290845653E+03  0.26290845658E+03  0.50400001928E-02 0.  1.
    10030    2    1    2    0    0  0.00000000000E+00  0.00000000000E+00  0.91313637659E+02  0.61713055081E+03  0.61033755932E+03 0.  0.
        2    1    3    3  502    0 -0.75957875843E+02 -0.14646844012E+03 -0.21392088600E+03  0.27015689576E+03  0.25500000920E-02 0.  1.
       -2    1    3    3    0  502  0.75957875843E+02  0.14646844012E+03  0.30523452366E+03  0.34697365504E+03  0.25500000920E-02 0. -1.
</event>
<event>
 5   0  0.1502642E-01  0.5873334E+03  0.7818609E-02  0.9932039E-01
       -2   -1    0    0    0  501  0.00000000000E+00  0.00000000000E+00  0.16732379563E+03  0.16732379565E+03  0.25500000920E-02 0. -1.
        2   -1    0    0  501    0  0.00000000000E+00  0.00000000000E+00 -0.51540856256E+03  0.51540856256E+03  0.25500000920E-02 0.  1.
    10030    2    1    2    0    0  0.00000000000E+00  0.00000000000E+00 -0.34808476693E+03  0.68273235821E+03  0.58733335338E+03 0.  0.
        2    1    3    3  502    0  0.10093151286E+03 -0.11056203326E+03  0.11963789733E+03  0.19163600906E+03  0.25500000920E-02 0. -1.
       -2    1    3    3    0  502 -0.10093151286E+03  0.11056203326E+03 -0.46772266425E+03  0.49109634915E+03  0.25500000920E-02 0.  1.
</event>
<event>
 5   0  0.1483942E-01  0.5968722E+03  0.7818609E-02  0.9911917E-01
       -2   -1    0    0    0  501  0.00000000000E+00  0.00000000000E+00  0.59243887184E+02  0.59243887239E+02  0.25500000920E-02 0. -1.
        2   -1    0    0  501    0  0.00000000000E+00  0.00000000000E+00 -0.15033465323E+04  0.15033465323E+04  0.25500000920E-02 0.  1.
    10030    2    1    2    0    0  0.00000000000E+00  0.00000000000E+00 -0.14441026452E+04  0.15625904196E+04  0.59687215517E+03 0.  0.
        4    1    3    3  502    0 -0.14118902778E+03 -0.25171476326E+03 -0.52322699011E+03  0.59754728657E+03  0.12699999809E+01 0.  1.
       -4    1    3    3    0  502  0.14118902778E+03  0.25171476326E+03 -0.92087565505E+03  0.96504313301E+03  0.12699999809E+01 0. -1.
</event>
<event>
 5   0  0.1488510E-01  0.5973651E+03  0.7818609E-02  0.9910888E-01
        2   -1    0    0  501    0  0.00000000000E+00  0.00000000000E+00  0.29127621673E+03  0.29127621674E+03  0.25500000920E-02 0.  1.
       -2   -1    0    0    0  501  0.00000000000E+00  0.00000000000E+00 -0.30627725457E+03  0.30627725458E+03  0.25500000920E-02 0. -1.
    10030    2    1    2    0    0  0.00000000000E+00  0.00000000000E+00 -0.15001037836E+02  0.59755347132E+03  0.59736514792E+03 0.  0.
        5    1    3    3  502    0 -0.11087241623E+03 -0.14962593841E+03  0.22604380166E+03  0.29291381735E+03  0.46999998093E+01 0.  1.
       -5    1    3    3    0  502  0.11087241623E+03  0.14962593841E+03 -0.24104483950E+03  0.30463965397E+03  0.46999998093E+01 0. -1.
</event>
<event>
 5   0  0.9411028E-02  0.6196719E+03  0.7818609E-02  0.9865413E-01
        1   -1    0    0  501    0  0.00000000000E+00  0.00000000000E+00  0.13299941200E+04  0.13299941200E+04  0.50400001928E-02 0. -1.
       -1   -1    0    0    0  501  0.00000000000E+00  0.00000000000E+00 -0.72179506991E+02  0.72179507167E+02  0.50400001928E-02 0.  1.
    10030    2    1    2    0    0  0.00000000000E+00  0.00000000000E+00  0.12578146130E+04  0.14021736272E+04  0.61967191324E+03 0.  0.
        4    1    3    3  502    0  0.87418722409E+02  0.17754003623E+03  0.89465135286E+02  0.21718222953E+03  0.12699999809E+01 0.  1.
       -4    1    3    3    0  502 -0.87418722409E+02 -0.17754003623E+03  0.11683494778E+04  0.11849913977E+04  0.12699999809E+01 0. -1.
</event>
<event>
 5   0  0.9411028E-02  0.6005604E+03  0.7818609E-02  0.9904244E-01
        1   -1    0    0  501    0  0.00000000000E+00  0.00000000000E+00  0.29558097287E+03  0.29558097291E+03  0.50400001928E-02 0. -1.
       -1   -1    0    0    0  501  0.00000000000E+00  0.00000000000E+00 -0.30505413416E+03  0.30505413421E+03  0.50400001928E-02 0.  1.
    10030    2    1    2    0    0  0.00000000000E+00  0.00000000000E+00 -0.94731612938E+01  0.60063510712E+03  0.60056039756E+03 0.  0.
        4    1    3    3  502    0  0.52615759057E+02 -0.28883733936E+03 -0.67761545964E+02  0.30131157748E+03  0.12699999809E+01 0. -1.
       -4    1    3    3    0  502 -0.52615759057E+02  0.28883733936E+03  0.58288384670E+02  0.29932352964E+03  0.12699999809E+01 0.  1.
</event>
<event>
 5   0  0.1502642E-01  0.6018899E+03  0.7818609E-02  0.9901493E-01
       -2   -1    0    0    0  501  0.00000000000E+00  0.00000000000E+00  0.69584631462E+02  0.69584631509E+02  0.25500000920E-02 0. -1.
        2   -1    0    0  501    0  0.00000000000E+00  0.00000000000E+00 -0.13015496536E+04  0.13015496536E+04  0.25500000920E-02 0.  1.
    10030    2    1    2    0    0  0.00000000000E+00  0.00000000000E+00 -0.12319650222E+04  0.13711342851E+04  0.60188986704E+03 0.  0.
        2    1    3    3  502    0  0.13226323838E+03  0.21492870711E+03 -0.98947089843E+03  0.10211466948E+04  0.25500000920E-02 0.  1.
       -2    1    3    3    0  502 -0.13226323838E+03 -0.21492870711E+03 -0.24249412373E+03  0.34998759037E+03  0.25500000920E-02 0. -1.
</event>
<event>
 5   0  0.1532571E-01  0.6138279E+03  0.7818609E-02  0.9877126E-01
        2   -1    0    0  501    0  0.00000000000E+00  0.00000000000E+00  0.16143944757E+04  0.16143944757E+04  0.25500000920E-02 0. -1.
       -2   -1    0    0    0  501  0.00000000000E+00  0.00000000000E+00 -0.58347680296E+02  0.58347680352E+02  0.25500000920E-02 0.  1.
    10030    2    1    2    0    0  0.00000000000E+00  0.00000000000E+00  0.15560467954E+04  0.16727421560E+04  0.61382790027E+03 0.  0.
        1    1    3    3  502    0 -0.16622812604E+03  0.98284949781E+02  0.14280864735E+04  0.14410838619E+04  0.50400001928E-02 0. -1.
       -1    1    3    3    0  502  0.16622812604E+03 -0.98284949781E+02  0.12796032192E+03  0.23165829416E+03  0.50400001928E-02 0.  1.
</event>
<event>
 5   0  0.1483942E-01  0.6096670E+03  0.7818609E-02  0.9885551E-01
       -2   -1    0    0    0  501  0.00000000000E+00  0.00000000000E+00  0.19742519945E+03  0.19742519947E+03  0.25500000920E-02 0. -1.
        2   -1    0    0  501    0  0.00000000000E+00  0.00000000000E+00 -0.47067673193E+03  0.47067673194E+03  0.25500000920E-02 0.  1.
    10030    2    1    2    0    0  0.00000000000E+00  0.00000000000E+00 -0.27325153248E+03  0.66810193141E+03  0.60966695068E+03 0.  0.
        4    1    3    3  502    0  0.16012547308E+03 -0.21218885454E+03  0.26863343088E+02  0.26718444794E+03  0.12699999809E+01 0. -1.
       -4    1    3    3    0  502 -0.16012547308E+03  0.21218885454E+03 -0.30011487556E+03  0.40091748347E+03  0.12699999809E+01 0.  1.
</event>
<event>
 5   0  0.6170500E-02  0.5534480E+03  0.7818609E-02  0.1000699E+00
        4   -1    0    0  501    0  0.00000000000E+00  0.00000000000E+00  0.55705768481E+03  0.55705913250E+03  0.12699999809E+01 0. -1.
       -4   -1    0    0    0  501  0.00000000000E+00  0.00000000000E+00 -0.13746085109E+03  0.13746671773E+03  0.12699999809E+01 0.  1.
    10030    2    1    2    0    0  0.00000000000E+00  0.00000000000E+00  0.41959683372E+03  0.69452585023E+03  0.55344796844E+03 0.  0.
        1    1    3    3  502    0 -0.20036248045E+03  0.74958054738E+02 -0.10480984003E+02  0.21418142915E+03  0.50400001928E-02 0.  1.
       -1    1    3    3    0  502  0.20036248045E+03 -0.74958054738E+02  0.43007781772E+03  0.48034442108E+03  0.50400001928E-02 0. -1.
</event>
<event>
 5   0  0.1488510E-01  0.6996256E+03  0.7818609E-02  0.9717873E-01
       -2   -1    0    0    0  501  0.00000000000E+00  0.00000000000E+00  0.17721402998E+03  0.17721403000E+03  0.25500000920E-02 0. -1.
        2   -1    0    0  501    0  0.00000000000E+00  0.00000000000E+00 -0.69051523086E+03  0.69051523086E+03  0.25500000920E-02 0.  1.
    10030    2    1    2    0    0  0.00000000000E+00  0.00000000000E+00 -0.51330120087E+03  0.86772926086E+03  0.69962557654E+03 0.  0.
        5    1    3    3  502    0  0.30066261214E+03 -0.12993455539E+03 -0.10441503270E+03  0.34381038971E+03  0.46999998093E+01 0. -1.
       -5    1    3    3    0  502 -0.30066261214E+03  0.12993455539E+03 -0.40888616817E+03  0.52391887115E+03  0.46999998093E+01 0.  1.
</event>
<event>
 5   0  0.9411028E-02  0.4937699E+03  0.7818609E-02  0.1015418E+00
       -1   -1    0    0    0  501  0.00000000000E+00  0.00000000000E+00  0.17132353665E+03  0.17132353672E+03  0.50400001928E-02 0. -1.
        1   -1    0    0  501    0  0.00000000000E+00  0.00000000000E+00 -0.35577241189E+03  0.35577241192E+03  0.50400001928E-02 0.  1.
    10030    2    1    2    0    0  0.00000000000E+00  0.00000000000E+00 -0.18444887524E+03  0.52709594865E+03  0.49376993783E+03 0.  0.
        4    1    3    3  502    0 -0.10200522432E+03 -0.15129934908E+03  0.85294274721E+02  0.20142811378E+03  0.12699999809E+01 0. -1.
       -4    1    3    3    0  502  0.10200522432E+03  0.15129934908E+03 -0.26974314996E+03  0.32566783487E+03  0.12699999809E+01 0.  1.
</event>
<event>
 5   0  0.9177281E-02  0.5973561E+03  0.7818609E-02  0.9910906E-01
        1   -1    0    0  501    0  0.00000000000E+00  0.00000000000E+00  0.13425153722E+04  0.13425153722E+04  0.50400001928E-02 0. -1.
       -1   -1    0    0    0  501  0.00000000000E+00  0.00000000000E+00 -0.66448836729E+02  0.66448836920E+02  0.50400001928E-02 0.  1.
    10030    2    1    2    0    0  0.00000000000E+00  0.00000000000E+00  0.12760665355E+04  0.14089642091E+04  0.59735612465E+03 0.  0.
        1    1    3    3  502    0  0.10062519538E+02 -0.12320772127E+03  0.12793443338E+04  0.12853028131E+04  0.50400001928E-02 0. -1.
       -1    1    3    3    0  502 -0.10062519538E+02  0.12320772127E+03 -0.32777983457E+01  0.12366139603E+03  0.50400001928E-02 0.  1.
</event>
<event>
 5   0  0.9177281E-02  0.6043878E+03  0.7818609E-02  0.9896344E-01
        1   -1    0    0  501    0  0.00000000000E+00  0.00000000000E+00  0.43711500387E+03  0.43711500390E+03  0.50400001928E-02 0.  1.
       -1   -1    0    0    0  501  0.00000000000E+00  0.00000000000E+00 -0.20891791628E+03  0.20891791634E+03  0.50400001928E-02 0. -1.
    10030    2    1    2    0    0  0.00000000000E+00  0.00000000000E+00  0.22819708759E+03  0.64603292024E+03  0.60438780865E+03 0.  0.
        1    1    3    3  502    0  0.52478150831E+02  0.15762078197E+03  0.38392633656E+03  0.41832726322E+03  0.50400001928E-02 0.  1.
       -1    1    3    3    0  502 -0.52478150831E+02 -0.15762078197E+03 -0.15572924897E+03  0.22770565701E+03  0.50400001928E-02 0. -1.
</event>
<event>
 5   0  0.6170500E-02  0.6282146E+03  0.7818609E-02  0.9848539E-01
       -4   -1    0    0    0  501  0.00000000000E+00  0.00000000000E+00  0.43931311268E+03  0.43931494838E+03  0.12699999809E+01 0.  1.
        4   -1    0    0  501    0  0.00000000000E+00  0.00000000000E+00 -0.22458145790E+03  0.22458504878E+03  0.12699999809E+01 0. -1.
    10030    2    1    2    0    0  0.00000000000E+00  0.00000000000E+00  0.21473165477E+03  0.66389999716E+03  0.62821455146E+03 0.  0.
        4    1    3    3  502    0 -0.46704127666E+02  0.10532893947E+03  0.41617400293E+03  0.43183084031E+03  0.12699999809E+01 0.  1.
       -4    1    3    3    0  502  0.46704127666E+02 -0.10532893947E+03 -0.20144234815E+03  0.23206915685E+03  0.12699999809E+01 0. -1.
</event>
<event>
 5   0  0.6170500E-02  0.5438588E+03  0.7818609E-02  0.1002925E+00
       -3   -1    0    0    0  501  0.00000000000E+00  0.00000000000E+00  0.93669355106E+02  0.93669409559E+02  0.10100000352E+00 0.  1.
        3   -1    0    0  501    0  0.00000000000E+00  0.00000000000E+00 -0.78943183979E+03  0.78943184625E+03  0.10100000352E+00 0. -1.
    10030    2    1    2    0    0  0.00000000000E+00  0.00000000000E+00 -0.69576248469E+03  0.88310125581E+03  0.54385879870E+03 0.  0.
        2    1    3    3  502    0  0.18537199882E+03  0.69749151040E+02 -0.65043386254E+03  0.67992053327E+03  0.25500000920E-02 0. -1.
       -2    1    3    3    0  502 -0.18537199882E+03 -0.69749151040E+02 -0.45328622143E+02  0.20318072254E+03  0.25500000920E-02 0.  1.
</event>
<event>
 5   0  0.9177281E-02  0.4380528E+03  0.7818609E-02  0.1031346E+00
       -1   -1    0    0    0  501  0.00000000000E+00  0.00000000000E+00  0.15718624637E+03  0.15718624645E+03  0.50400001928E-02 0.  1.
        1   -1    0    0  501    0  0.00000000000E+00  0.00000000000E+00 -0.30519565773E+03  0.30519565777E+03  0.50400001928E-02 0. -1.
    10030    2    1    2    0    0  0.00000000000E+00  0.00000000000E+00 -0.14800941136E+03  0.46238190423E+03  0.43805278164E+03 0.  0.
        1    1    3    3  502    0  0.75904829083E+02  0.15542347832E+03 -0.21583461691E+03  0.27659100234E+03  0.50400001928E-02 0. -1.
       -1    1    3    3    0  502 -0.75904829083E+02 -0.15542347832E+03  0.67825205553E+02  0.18579090189E+03  0.50400001928E-02 0.  1.
</event>
<event>
 5   0  0.1532571E-01  0.6041034E+03  0.7818609E-02  0.9896929E-01
        2   -1    0    0  501    0  0.00000000000E+00  0.00000000000E+00  0.52441469244E+03  0.52441469245E+03  0.25500000920E-02 0. -1.
       -2   -1    0    0    0  501  0.00000000000E+00  0.00000000000E+00 -0.17397532107E+03  0.17397532109E+03  0.25500000920E-02 0.  1.
    10030    2    1    2    0    0  0.00000000000E+00  0.00000000000E+00  0.35043937137E+03  0.69839001354E+03  0.60410335044E+03 0.  0.
        1    1    3    3  502    0  0.24341741996E+03 -0.22829057326E+02 -0.29839862790E+02  0.24629986528E+03  0.50400001928E-02 0.  1.
       -1    1    3    3    0  502 -0.24341741996E+03  0.22829057326E+02  0.38027923416E+03  0.45209014826E+03  0.50400001928E-02 0. -1.
</event>
<event>
 5   0  0.9177281E-02  0.5991232E+03  0.7818609E-02  0.9907227E-01
       -1   -1    0    0    0  501  0.00000000000E+00  0.00000000000E+00  0.17880948119E+03  0.17880948126E+03  0.50400001928E-02 0.  1.
        1   -1    0    0  501    0  0.00000000000E+00  0.00000000000E+00 -0.50185898781E+03  0.50185898784E+03  0.50400001928E-02 0. -1.
    10030    2    1    2    0    0  0.00000000000E+00  0.00000000000E+00 -0.32304950662E+03  0.68066846910E+03  0.59912317690E+03 0.  0.
        1    1    3    3  502    0 -0.14107672451E+03 -0.18942006369E+03  0.47823072239E+02  0.24097644904E+03  0.50400001928E-02 0.  1.
       -1    1    3    3    0  502  0.14107672451E+03  0.18942006369E+03 -0.37087257886E+03  0.43969202006E+03  0.50400001928E-02 0. -1.
</event>
<event>
 5   0  0.1483942E-01  0.6085251E+03  0.7818609E-02  0.9887875E-01
        2   -1    0    0  501    0  0.00000000000E+00  0.00000000000E+00  0.96615860630E+03  0.96615860631E+03  0.25500000920E-02 0. -1.
       -2   -1    0    0    0  501  0.00000000000E+00  0.00000000000E+00 -0.95818315996E+02  0.95818316030E+02  0.25500000920E-02 0.  1.
    10030    2    1    2    0    0  0.00000000000E+00  0.00000000000E+00  0.87034029031E+03  0.10619769223E+04  0.60852507150E+03 0.  0.
        4    1    3    3  502    0  0.14658601335E+03  0.62159549974E+02  0.88764550137E+03  0.90181340529E+03  0.12699999809E+01 0. -1.
       -4    1    3    3    0  502 -0.14658601335E+03 -0.62159549974E+02 -0.17305211057E+02  0.16016351705E+03  0.12699999809E+01 0.  1.
</event>
<event>
 5   0  0.1513339E-01  0.6491169E+03  0.7818609E-02  0.9808438E-01
       -2   -1    0    0    0  501  0.00000000000E+00  0.00000000000E+00  0.25416166867E+03  0.25416166868E+03  0.25500000920E-02 0. -1.
        2   -1    0    0  501    0  0.00000000000E+00  0.00000000000E+00 -0.41445350198E+03  0.41445350199E+03  0.25500000920E-02 0.  1.
    10030    2    1    2    0    0  0.00000000000E+00  0.00000000000E+00 -0.16029183331E+03  0.66861517067E+03  0.64911691907E+03 0.  0.
        3    1    3    3  502    0 -0.80423605682E+02 -0.12610734021E+03 -0.37683831877E+03  0.40543574867E+03  0.10100000352E+00 0.  1.
       -3    1    3    3    0  502  0.80423605682E+02  0.12610734021E+03  0.21654648545E+03  0.26317942201E+03  0.10100000352E+00 0. -1.
</event>
<event>
 5   0  0.1502642E-01  0.5246929E+03  0.7818609E-02  0.1007527E+00
        2   -1    0    0  501    0  0.00000000000E+00  0.00000000000E+00  0.11835683405E+04  0.11835683405E+04  0.25500000920E-02 0.  1.
       -2   -1    0    0    0  501  0.00000000000E+00  0.00000000000E+00 -0.58150980336E+02  0.58150980392E+02  0.25500000920E-02 0. -1.
    10030    2    1    2    0    0  0.00000000000E+00  0.00000000000E+00  0.11254173602E+04  0.12417193209E+04  0.52469289810E+03 0.  0.
        2    1    3    3  502    0 -0.22395906912E+03 -0.13661955868E+03  0.55854805473E+03  0.61708872774E+03  0.25500000920E-02 0.  1.
       -2    1    3    3    0  502  0.22395906912E+03  0.13661955868E+03  0.56686930543E+03  0.62463059315E+03  0.25500000920E-02 0. -1.
</event>
<event>
 5   0  0.9497860E-02  0.6036601E+03  0.7818609E-02  0.9897842E-01
       -1   -1    0    0    0  501  0.00000000000E+00  0.00000000000E+00  0.90202077154E+02  0.90202077295E+02  0.50400001928E-02 0.  1.
        1   -1    0    0  501    0  0.00000000000E+00  0.00000000000E+00 -0.10099697315E+04  0.10099697315E+04  0.50400001928E-02 0. -1.
    10030    2    1    2    0    0  0.00000000000E+00  0.00000000000E+00 -0.91976765435E+03  0.11001718088E+04  0.60366006238E+03 0.  0.
        5    1    3    3  502    0  0.22926227933E+03 -0.19179456073E+03 -0.53575184954E+03  0.61351322767E+03  0.46999998093E+01 0.  1.
       -5    1    3    3    0  502 -0.22926227933E+03  0.19179456073E+03 -0.38401580481E+03  0.48665858114E+03  0.46999998093E+01 0. -1.
</event>
<event>
 5   0  0.9177281E-02  0.5836906E+03  0.7818609E-02  0.9939833E-01
       -1   -1    0    0    0  501  0.00000000000E+00  0.00000000000E+00  0.10321787686E+03  0.10321787698E+03  0.50400001928E-02 0. -1.
        1   -1    0    0  501    0  0.00000000000E+00  0.00000000000E+00 -0.82518344222E+03  0.82518344224E+03  0.50400001928E-02 0.  1.
    10030    2    1    2    0    0  0.00000000000E+00  0.00000000000E+00 -0.72196556537E+03  0.92840131922E+03  0.58369061321E+03 0.  0.
        1    1    3    3  502    0 -0.21042774925E+03 -0.17535295797E+03 -0.52119035320E+03  0.58878508967E+03  0.50400001928E-02 0.  1.
       -1    1    3    3    0  502  0.21042774925E+03  0.17535295797E+03 -0.20077521217E+03  0.33961622955E+03  0.50400001928E-02 0. -1.
</event>
<event>
 5   0  0.1483942E-01  0.5809904E+03  0.7818609E-02  0.9945649E-01
        2   -1    0    0  501    0  0.00000000000E+00  0.00000000000E+00  0.10067599892E+04  0.10067599892E+04  0.25500000920E-02 0.  1.
       -2   -1    0    0    0  501  0.00000000000E+00  0.00000000000E+00 -0.83820843665E+02  0.83820843703E+02  0.25500000920E-02 0. -1.
    10030    2    1    2    0    0  0.00000000000E+00  0.00000000000E+00  0.92293914552E+03  0.10905808329E+04  0.58099043601E+03 0.  0.
        4    1    3    3  502    0 -0.15337441059E+03  0.56427101182E+02  0.91228053454E+03  0.92680370855E+03  0.12699999809E+01 0.  1.
       -4    1    3    3    0  502  0.15337441059E+03 -0.56427101182E+02  0.10658610978E+02  0.16377712434E+03  0.12699999809E+01 0. -1.
</event>
<event>
 5   0  0.1483942E-01  0.5920826E+03  0.7818609E-02  0.9921970E-01
        2   -1    0    0  501    0  0.00000000000E+00  0.00000000000E+00  0.54476925927E+03  0.54476925928E+03  0.25500000920E-02 0. -1.
       -2   -1    0    0    0  501  0.00000000000E+00  0.00000000000E+00 -0.16087628658E+03  0.16087628660E+03  0.25500000920E-02 0.  1.
    10030    2    1    2    0    0  0.00000000000E+00  0.00000000000E+00  0.38389297269E+03  0.70564554588E+03  0.59208261412E+03 0.  0.
        4    1    3    3  502    0  0.15453408849E+03 -0.22693277282E+03  0.32390639249E+03  0.42461303782E+03  0.12699999809E+01 0.  1.
       -4    1    3    3    0  502 -0.15453408849E+03  0.22693277282E+03  0.59986580194E+02  0.28103250806E+03  0.12699999809E+01 0. -1.
</event>
<event>
 5   0  0.1488510E-01  0.5912161E+03  0.7818609E-02  0.9923799E-01
       -2   -1    0    0    0  501  0.00000000000E+00  0.00000000000E+00  0.20386274372E+03  0.20386274373E+03  0.25500000920E-02 0. -1.
        2   -1    0    0  501    0  0.00000000000E+00  0.00000000000E+00 -0.42864190973E+03  0.42864190974E+03  0.25500000920E-02 0.  1.
    10030    2    1    2    0    0  0.00000000000E+00  0.00000000000E+00 -0.22477916602E+03  0.63250465347E+03  0.59121608841E+03 0.  0.
        5    1    3    3  502    0 -0.15128228090E+02 -0.20821240914E+03 -0.33624061745E+03  0.39580438783E+03  0.46999998093E+01 0.  1.
       -5    1    3    3    0  502  0.15128228090E+02  0.20821240914E+03  0.11146145143E+03  0.23670026565E+03  0.46999998093E+01 0. -1.
</event>
<event>
 5   0  0.1513339E-01  0.5888731E+03  0.7818609E-02  0.9928763E-01
       -2   -1    0    0    0  501  0.00000000000E+00  0.00000000000E+00  0.59949729586E+03  0.59949729587E+03  0.25500000920E-02 0.  1.
        2   -1    0    0  501    0  0.00000000000E+00  0.00000000000E+00 -0.14460931395E+03  0.14460931397E+03  0.25500000920E-02 0. -1.
    10030    2    1    2    0    0  0.00000000000E+00  0.00000000000E+00  0.45488798191E+03  0.74410660984E+03  0.58887313635E+03 0.  0.
        3    1    3    3  502    0  0.15166580182E+02 -0.29404380984E+03  0.22612158585E+03  0.37124489094E+03  0.10100000352E+00 0. -1.
       -3    1    3    3    0  502 -0.15166580182E+02  0.29404380984E+03  0.22876639606E+03  0.37286171890E+03  0.10100000352E+00 0.  1.
</event>
<event>
 5   0  0.6170500E-02  0.5948580E+03  0.7818609E-02  0.9916132E-01
       -3   -1    0    0    0  501  0.00000000000E+00  0.00000000000E+00  0.18323657191E+03  0.18323659974E+03  0.10100000352E+00 0. -1.
        3   -1    0    0  501    0  0.00000000000E+00  0.00000000000E+00 -0.48278563533E+03  0.48278564589E+03  0.10100000352E+00 0.  1.
    10030    2    1    2    0    0  0.00000000000E+00  0.00000000000E+00 -0.29954906342E+03  0.66602224564E+03  0.59485795808E+03 0.  0.
        4    1    3    3  502    0  0.11991455429E+03 -0.22266756480E+03  0.25482955562E+02  0.25418760527E+03  0.12699999809E+01 0. -1.
       -4    1    3    3    0  502 -0.11991455429E+03  0.22266756480E+03 -0.32503201898E+03  0.41183464037E+03  0.12699999809E+01 0.  1.
</event>
<event>
 5   0  0.1483942E-01  0.5990440E+03  0.7818609E-02  0.9907391E-01
        2   -1    0    0  501    0  0.00000000000E+00  0.00000000000E+00  0.10973371497E+04  0.10973371497E+04  0.25500000920E-02 0.  1.
       -2   -1    0    0    0  501  0.00000000000E+00  0.00000000000E+00 -0.81755574823E+02  0.81755574863E+02  0.25500000920E-02 0. -1.
    10030    2    1    2    0    0  0.00000000000E+00  0.00000000000E+00  0.10155815749E+04  0.11790927246E+04  0.59904400332E+03 0.  0.
        4    1    3    3  502    0  0.19971922376E+03 -0.19647865852E+03  0.29929886059E+03  0.40996713581E+03  0.12699999809E+01 0. -1.
       -4    1    3    3    0  502 -0.19971922376E+03  0.19647865852E+03  0.71628271433E+03  0.76912558880E+03  0.12699999809E+01 0.  1.
</event>
<event>
 5   0  0.6170500E-02  0.5941416E+03  0.7818609E-02  0.9917635E-01
        3   -1    0    0  501    0  0.00000000000E+00  0.00000000000E+00  0.52749981352E+03  0.52749982319E+03  0.10100000352E+00 0. -1.
       -3   -1    0    0    0  501  0.00000000000E+00  0.00000000000E+00 -0.16730063360E+03  0.16730066409E+03  0.10100000352E+00 0.  1.
    10030    2    1    2    0    0  0.00000000000E+00  0.00000000000E+00  0.36019917992E+03  0.69480048728E+03  0.59414162278E+03 0.  0.
        4    1    3    3  502    0  0.27913051989E+03 -0.10155205169E+03  0.17451719245E+03  0.34450621141E+03  0.12699999809E+01 0. -1.
       -4    1    3    3    0  502 -0.27913051989E+03  0.10155205169E+03  0.18568198747E+03  0.35029427587E+03  0.12699999809E+01 0.  1.
</event>
<event>
 5   0  0.8860626E-02  0.3931276E+03  0.7818609E-02  0.1046186E+00
       -1   -1    0    0    0  501  0.00000000000E+00  0.00000000000E+00  0.39262151891E+02  0.39262152215E+02  0.50400001928E-02 0. -1.
        1   -1    0    0  501    0  0.00000000000E+00  0.00000000000E+00 -0.98408565040E+03  0.98408565041E+03  0.50400001928E-02 0.  1.
    10030    2    1    2    0    0  0.00000000000E+00  0.00000000000E+00 -0.94482349851E+03  0.10233478026E+04  0.39312756429E+03 0.  0.
        3    1    3    3  502    0  0.18456997233E+03  0.12839297114E+02 -0.64520673447E+03  0.67120984993E+03  0.10100000352E+00 0.  1.
       -3    1    3    3    0  502 -0.18456997233E+03 -0.12839297114E+02 -0.29961676404E+03  0.35213795270E+03  0.10100000352E+00 0. -1.
</event>
<event>
 5   0  0.9420349E-02  0.8006184E+03  0.7818609E-02  0.9559122E-01
       -1   -1    0    0    0  501  0.00000000000E+00  0.00000000000E+00  0.33121973692E+03  0.33121973695E+03  0.50400001928E-02 0.  1.
        1   -1    0    0  501    0  0.00000000000E+00  0.00000000000E+00 -0.48381011622E+03  0.48381011624E+03  0.50400001928E-02 0. -1.
    10030    2    1    2    0    0  0.00000000000E+00  0.00000000000E+00 -0.15259037930E+03  0.81502985320E+03  0.80061840957E+03 0.  0.
        2    1    3    3  502    0 -0.84127170863E+02  0.11816569428E+03  0.30352530866E+03  0.33640470447E+03  0.25500000920E-02 0.  1.
       -2    1    3    3    0  502  0.84127170863E+02 -0.11816569428E+03 -0.45611568797E+03  0.47862514873E+03  0.25500000920E-02 0. -1.
</event>
<event>
 5   0  0.6170500E-02  0.6105575E+03  0.7818609E-02  0.9883742E-01
       -3   -1    0    0    0  501  0.00000000000E+00  0.00000000000E+00  0.36064822177E+02  0.36064963603E+02  0.10100000352E+00 0.  1.
        3   -1    0    0  501    0  0.00000000000E+00  0.00000000000E+00 -0.25840948245E+04  0.25840948265E+04  0.10100000352E+00 0. -1.
    10030    2    1    2    0    0  0.00000000000E+00  0.00000000000E+00 -0.25480300023E+04  0.26201597901E+04  0.61055747706E+03 0.  0.
        2    1    3    3  502    0  0.20364207144E+03  0.20234696186E+02 -0.30188172225E+03  0.36470825385E+03  0.25500000920E-02 0.  1.
       -2    1    3    3    0  502 -0.20364207144E+03 -0.20234696186E+02 -0.22461482801E+04  0.22554515362E+04  0.25500000920E-02 0. -1.
</event>
<event>
 5   0  0.1483942E-01  0.5863759E+03  0.7818609E-02  0.9934082E-01
       -2   -1    0    0    0  501  0.00000000000E+00  0.00000000000E+00  0.88169409938E+02  0.88169409975E+02  0.25500000920E-02 0.  1.
        2   -1    0    0  501    0  0.00000000000E+00  0.00000000000E+00 -0.97493193141E+03  0.97493193141E+03  0.25500000920E-02 0. -1.
    10030    2    1    2    0    0  0.00000000000E+00  0.00000000000E+00 -0.88676252147E+03  0.10631013414E+04  0.58637589699E+03 0.  0.
        4    1    3    3  502    0 -0.80754301398E+02  0.11072072201E+03  0.26523218620E+02  0.13959021994E+03  0.12699999809E+01 0.  1.
       -4    1    3    3    0  502  0.80754301398E+02 -0.11072072201E+03 -0.91328574009E+03  0.92351112145E+03  0.12699999809E+01 0. -1.
</event>
<event>
 5   0  0.1513339E-01  0.5598033E+03  0.7818609E-02  0.9992500E-01
       -2   -1    0    0    0  501  0.00000000000E+00  0.00000000000E+00  0.64762075052E+02  0.64762075102E+02  0.25500000920E-02 0. -1.
        2   -1    0    0  501    0  0.00000000000E+00  0.00000000000E+00 -0.12097347461E+04  0.12097347461E+04  0.25500000920E-02 0.  1.
    10030    2    1    2    0    0  0.00000000000E+00  0.00000000000E+00 -0.11449726711E+04  0.12744968212E+04  0.55980329566E+03 0.  0.
        3    1    3    3  502    0  0.20171935730E+03 -0.19391253239E+03 -0.55604478904E+03  0.62247778028E+03  0.10100000352E+00 0. -1.
       -3    1    3    3    0  502 -0.20171935730E+03  0.19391253239E+03 -0.58892788205E+03  0.65201904097E+03  0.10100000352E+00 0.  1.
</event>
<event>
 5   0  0.9497860E-02  0.6287037E+03  0.7818609E-02  0.9847582E-01
       -1   -1    0    0    0  501  0.00000000000E+00  0.00000000000E+00  0.11616102604E+03  0.11616102615E+03  0.50400001928E-02 0.  1.
        1   -1    0    0  501    0  0.00000000000E+00  0.00000000000E+00 -0.85069062574E+03  0.85069062576E+03  0.50400001928E-02 0. -1.
    10030    2    1    2    0    0  0.00000000000E+00  0.00000000000E+00 -0.73452959971E+03  0.96685165190E+03  0.62870373304E+03 0.  0.
        5    1    3    3  502    0  0.52411252349E+02 -0.15527388982E+03  0.45206032545E+02  0.17006644469E+03  0.46999998093E+01 0.  1.
       -5    1    3    3    0  502 -0.52411252349E+02  0.15527388982E+03 -0.77973563225E+03  0.79678520721E+03  0.46999998093E+01 0. -1.
</event>
<event>
 5   0  0.1502642E-01  0.6849395E+03  0.7818609E-02  0.9743340E-01
       -2   -1    0    0    0  501  0.00000000000E+00  0.00000000000E+00  0.48232144288E+03  0.48232144289E+03  0.25500000920E-02 0.  1.
        2   -1    0    0  501    0  0.00000000000E+00  0.00000000000E+00 -0.24316881230E+03  0.24316881232E+03  0.25500000920E-02 0. -1.
    10030    2    1    2    0    0  0.00000000000E+00  0.00000000000E+00  0.23915263058E+03  0.72549025521E+03  0.68493950805E+03 0.  0.
        2    1    3    3  502    0 -0.23552126118E+02 -0.48796826201E+02  0.47775264325E+03  0.48081537104E+03  0.25500000920E-02 0.  1.
       -2    1    3    3    0  502  0.23552126118E+02  0.48796826201E+02 -0.23860001267E+03  0.24467488417E+03  0.25500000920E-02 0. -1.
</event>
<event>
 5   0  0.6170500E-02  0.5763291E+03  0.7818609E-02  0.9955770E-01
        3   -1    0    0  501    0  0.00000000000E+00  0.00000000000E+00  0.18677890539E+03  0.18677893270E+03  0.10100000352E+00 0.  1.
       -3   -1    0    0    0  501  0.00000000000E+00  0.00000000000E+00 -0.44458340249E+03  0.44458341397E+03  0.10100000352E+00 0. -1.
    10030    2    1    2    0    0  0.00000000000E+00  0.00000000000E+00 -0.25780449710E+03  0.63136234666E+03  0.57632911956E+03 0.  0.
        4    1    3    3  502    0  0.21159981571E+03 -0.74577301726E+02 -0.32700397661E+03  0.39657214925E+03  0.12699999809E+01 0. -1.
       -4    1    3    3    0  502 -0.21159981571E+03  0.74577301726E+02  0.69199479505E+02  0.23479019742E+03  0.12699999809E+01 0.  1.
</event>
<event>
 5   0  0.1483942E-01  0.6038821E+03  0.7818609E-02  0.9897384E-01
       -2   -1    0    0    0  501  0.00000000000E+00  0.00000000000E+00  0.17072130916E+03  0.17072130918E+03  0.25500000920E-02 0. -1.
        2   -1    0    0  501    0  0.00000000000E+00  0.00000000000E+00 -0.53401890214E+03  0.53401890215E+03  0.25500000920E-02 0.  1.
    10030    2    1    2    0    0  0.00000000000E+00  0.00000000000E+00 -0.36329759298E+03  0.70474021133E+03  0.60388212790E+03 0.  0.
        4    1    3    3  502    0  0.50608552426E+02 -0.35622388533E+02 -0.52653438608E+03  0.53016059149E+03  0.12699999809E+01 0.  1.
       -4    1    3    3    0  502 -0.50608552426E+02  0.35622388533E+02  0.16323679310E+03  0.17457961984E+03  0.12699999809E+01 0. -1.
</event>
<event>
 5   0  0.9411028E-02  0.5905751E+03  0.7818609E-02  0.9925155E-01
        1   -1    0    0  501    0  0.00000000000E+00  0.00000000000E+00  0.25075075408E+03  0.25075075414E+03  0.50400001928E-02 0. -1.
       -1   -1    0    0    0  501  0.00000000000E+00  0.00000000000E+00 -0.34773465481E+03  0.34773465485E+03  0.50400001928E-02 0.  1.
    10030    2    1    2    0    0  0.00000000000E+00  0.00000000000E+00 -0.96983900726E+02  0.59848540898E+03  0.59057506531E+03 0.  0.
        4    1    3    3  502    0  0.28786002734E+03  0.53501918508E+02 -0.87309892217E+02  0.30553310917E+03  0.12699999809E+01 0.  1.
       -4    1    3    3    0  502 -0.28786002734E+03 -0.53501918508E+02 -0.96740085094E+01  0.29295229981E+03  0.12699999809E+01 0. -1.
</event>
<event>
 5   0  0.1502642E-01  0.5978397E+03  0.7818609E-02  0.9909898E-01
        2   -1    0    0  501    0  0.00000000000E+00  0.00000000000E+00  0.38765019359E+03  0.38765019360E+03  0.25500000920E-02 0.  1.
       -2   -1    0    0    0  501  0.00000000000E+00  0.00000000000E+00 -0.23049921744E+03  0.23049921746E+03  0.25500000920E-02 0. -1.
    10030    2    1    2    0    0  0.00000000000E+00  0.00000000000E+00  0.15715097615E+03  0.61814941106E+03  0.59783966503E+03 0.  0.
        2    1    3    3  502    0 -0.11416877796E+03 -0.84911525541E+02  0.35039131937E+03  0.37817793924E+03  0.25500000920E-02 0.  1.
       -2    1    3    3    0  502  0.11416877796E+03  0.84911525541E+02 -0.19324034322E+03  0.23997147182E+03  0.25500000920E-02 0. -1.
</event>
<event>
 5   0  0.8860626E-02  0.6065253E+03  0.7818609E-02  0.9891960E-01
       -1   -1    0    0    0  501  0.00000000000E+00  0.00000000000E+00  0.16347380020E+03  0.16347380028E+03  0.50400001928E-02 0. -1.
        1   -1    0    0  501    0  0.00000000000E+00  0.00000000000E+00 -0.56258708766E+03  0.56258708769E+03  0.50400001928E-02 0.  1.
    10030    2    1    2    0    0  0.00000000000E+00  0.00000000000E+00 -0.39911328746E+03  0.72606088797E+03  0.60652534721E+03 0.  0.
        3    1    3    3  502    0 -0.15017397461E+03  0.15787361162E+03  0.52945316744E+02  0.22423094492E+03  0.10100000352E+00 0. -1.
       -3    1    3    3    0  502  0.15017397461E+03 -0.15787361162E+03 -0.45205860421E+03  0.50182994304E+03  0.10100000352E+00 0.  1.
</event>
<event>
 5   0  0.9497860E-02  0.5851225E+03  0.7818609E-02  0.9936762E-01
        1   -1    0    0  501    0  0.00000000000E+00  0.00000000000E+00  0.16674323168E+03  0.16674323176E+03  0.50400001928E-02 0.  1.
       -1   -1    0    0    0  501  0.00000000000E+00  0.00000000000E+00 -0.51331664637E+03  0.51331664640E+03  0.50400001928E-02 0. -1.
    10030    2    1    2    0    0  0.00000000000E+00  0.00000000000E+00 -0.34657341469E+03  0.68005987815E+03  0.58512247103E+03 0.  0.
        5    1    3    3  502    0 -0.19619280096E+03  0.21618002057E+03 -0.15171228577E+03  0.32903514113E+03  0.46999998093E+01 0. -1.
       -5    1    3    3    0  502  0.19619280096E+03 -0.21618002057E+03 -0.19486112892E+03  0.35102473703E+03  0.46999998093E+01 0.  1.
</event>
<event>
 5   0  0.9177281E-02  0.5947543E+03  0.7818609E-02  0.9916349E-01
       -1   -1    0    0    0  501  0.00000000000E+00  0.00000000000E+00  0.10303049625E+03  0.10303049638E+03  0.50400001928E-02 0.  1.
        1   -1    0    0  501    0  0.00000000000E+00  0.00000000000E+00 -0.85832027681E+03  0.85832027682E+03  0.50400001928E-02 0. -1.
    10030    2    1    2    0    0  0.00000000000E+00  0.00000000000E+00 -0.75528978055E+03  0.96135077320E+03  0.59475428248E+03 0.  0.
        1    1    3    3  502    0  0.29323918601E+03 -0.29863565607E+02 -0.44132528385E+03  0.53070618892E+03  0.50400001928E-02 0. -1.
       -1    1    3    3    0  502 -0.29323918601E+03  0.29863565607E+02 -0.31396449670E+03  0.43064458428E+03  0.50400001928E-02 0.  1.
</event>
<event>
 5   0  0.1488510E-01  0.6049358E+03  0.7818609E-02  0.9895218E-01
       -2   -1    0    0    0  501  0.00000000000E+00  0.00000000000E+00  0.10359609094E+03  0.10359609097E+03  0.25500000920E-02 0. -1.
        2   -1    0    0  501    0  0.00000000000E+00  0.00000000000E+00 -0.88311096314E+03  0.88311096314E+03  0.25500000920E-02 0.  1.
    10030    2    1    2    0    0  0.00000000000E+00  0.00000000000E+00 -0.77951487220E+03  0.98670705411E+03  0.60493584341E+03 0.  0.
        5    1    3    3  502    0 -0.10739528157E+03 -0.20891322015E+03 -0.70046376566E+03  0.73881665998E+03  0.46999998093E+01 0.  1.
       -5    1    3    3    0  502  0.10739528157E+03  0.20891322015E+03 -0.79051106541E+02  0.24789039413E+03  0.46999998093E+01 0. -1.
</event>
<event>
 5   0  0.9497860E-02  0.6539506E+03  0.7818609E-02  0.9799394E-01
        1   -1    0    0  501    0  0.00000000000E+00  0.00000000000E+00  0.12119216616E+04  0.12119216616E+04  0.50400001928E-02 0. -1.
       -1   -1    0    0    0  501  0.00000000000E+00  0.00000000000E+00 -0.88217615137E+02  0.88217615281E+02  0.50400001928E-02 0.  1.
    10030    2    1    2    0    0  0.00000000000E+00  0.00000000000E+00  0.11237040464E+04  0.13001392769E+04  0.65395057556E+03 0.  0.
        5    1    3    3  502    0 -0.11458264312E+02 -0.23622558602E+03  0.10106455432E+04  0.10379596925E+04  0.46999998093E+01 0. -1.
       -5    1    3    3    0  502  0.11458264312E+02  0.23622558602E+03  0.11305850329E+03  0.26217958440E+03  0.46999998093E+01 0.  1.
</event>
<event>
 5   0  0.1513339E-01  0.6093256E+03  0.7818609E-02  0.9886245E-01
        2   -1    0    0  501    0  0.00000000000E+00  0.00000000000E+00  0.71257594869E+03  0.71257594870E+03  0.25500000920E-02 0.  1.
       -2   -1    0    0    0  501  0.00000000000E+00  0.00000000000E+00 -0.13025900231E+03  0.13025900234E+03  0.25500000920E-02 0. -1.
    10030    2    1    2    0    0  0.00000000000E+00  0.00000000000E+00  0.58231694638E+03  0.84283495103E+03  0.60932563432E+03 0.  0.
        3    1    3    3  502    0 -0.15705033184E+03  0.89499954334E+02 -0.48068666033E+02  0.18704452788E+03  0.10100000352E+00 0. -1.
       -3    1    3    3    0  502  0.15705033184E+03 -0.89499954334E+02  0.63038561242E+03  0.65579042315E+03  0.10100000352E+00 0.  1.
</event>
<event>
 5   0  0.9411028E-02  0.6051842E+03  0.7818609E-02  0.9894708E-01
        1   -1    0    0  501    0  0.00000000000E+00  0.00000000000E+00  0.98884513135E+03  0.98884513136E+03  0.50400001928E-02 0.  1.
       -1   -1    0    0    0  501  0.00000000000E+00  0.00000000000E+00 -0.92594867336E+02  0.92594867473E+02  0.50400001928E-02 0. -1.
    10030    2    1    2    0    0  0.00000000000E+00  0.00000000000E+00  0.89625026401E+03  0.10814399988E+04  0.60518421603E+03 0.  0.
        4    1    3    3  502    0 -0.28975050968E+01 -0.48619908017E+02 -0.85539281154E+02  0.98442229310E+02  0.12699999809E+01 0. -1.
       -4    1    3    3    0  502  0.28975050968E+01  0.48619908017E+02  0.98178954517E+03  0.98299776953E+03  0.12699999809E+01 0.  1.
</event>
<event>
 5   0  0.8860626E-02  0.4937927E+03  0.7818609E-02  0.1015412E+00
       -1   -1    0    0    0  501  0.00000000000E+00  0.00000000000E+00  0.12250905738E+03  0.12250905748E+03  0.50400001928E-02 0.  1.
        1   -1    0    0  501    0  0.00000000000E+00  0.00000000000E+00 -0.49757796739E+03  0.49757796742E+03  0.50400001928E-02 0. -1.
    10030    2    1    2    0    0  0.00000000000E+00  0.00000000000E+00 -0.37506891001E+03  0.62008702490E+03  0.49379270063E+03 0.  0.
        3    1    3    3  502    0  0.42407459816E+02 -0.22970859744E+03 -0.87125433487E+02  0.24930961423E+03  0.10100000352E+00 0.  1.
       -3    1    3    3    0  502 -0.42407459816E+02  0.22970859744E+03 -0.28794347652E+03  0.37077741067E+03  0.10100000352E+00 0. -1.
</event>
<event>
 5   0  0.1513339E-01  0.5985590E+03  0.7818609E-02  0.9908400E-01
       -2   -1    0    0    0  501  0.00000000000E+00  0.00000000000E+00  0.20730155559E+03  0.20730155561E+03  0.25500000920E-02 0.  1.
        2   -1    0    0  501    0  0.00000000000E+00  0.00000000000E+00 -0.43206726189E+03  0.43206726189E+03  0.25500000920E-02 0. -1.
    10030    2    1    2    0    0  0.00000000000E+00  0.00000000000E+00 -0.22476570629E+03  0.63936881750E+03  0.59855898796E+03 0.  0.
        3    1    3    3  502    0  0.12824102925E+03  0.65790198435E+02  0.16778614121E+03  0.22119292750E+03  0.10100000352E+00 0.  1.
       -3    1    3    3    0  502 -0.12824102925E+03 -0.65790198435E+02 -0.39255184751E+03  0.41817589000E+03  0.10100000352E+00 0. -1.
</event>
<event>
 5   0  0.1488510E-01  0.5865567E+03  0.7818609E-02  0.9933696E-01
        2   -1    0    0  501    0  0.00000000000E+00  0.00000000000E+00  0.68153093530E+03  0.68153093531E+03  0.25500000920E-02 0.  1.
       -2   -1    0    0    0  501  0.00000000000E+00  0.00000000000E+00 -0.12620437757E+03  0.12620437760E+03  0.25500000920E-02 0. -1.
    10030    2    1    2    0    0  0.00000000000E+00  0.00000000000E+00  0.55532655773E+03  0.80773531291E+03  0.58655668950E+03 0.  0.
        5    1    3    3  502    0 -0.10593536376E+03 -0.26832090013E+03  0.20516437091E+03  0.35402389161E+03  0.46999998093E+01 0. -1.
       -5    1    3    3    0  502  0.10593536376E+03  0.26832090013E+03  0.35016218682E+03  0.45371142130E+03  0.46999998093E+01 0.  1.
</event>
<event>
 5   0  0.1488510E-01  0.6206192E+03  0.7818609E-02  0.9863528E-01
       -2   -1    0    0    0  501  0.00000000000E+00  0.00000000000E+00  0.19293754084E+03  0.19293754086E+03  0.25500000920E-02 0.  1.
        2   -1    0    0  501    0  0.00000000000E+00  0.00000000000E+00 -0.49908405079E+03  0.49908405080E+03  0.25500000920E-02 0. -1.
    10030    2    1    2    0    0  0.00000000000E+00  0.00000000000E+00 -0.30614650995E+03  0.69202159166E+03  0.62061920512E+03 0.  0.
        5    1    3    3  502    0  0.20160037892E+02  0.11936179117E+03  0.16548060552E+03  0.20508433660E+03  0.46999998093E+01 0.  1.
       -5    1    3    3    0  502 -0.20160037892E+02 -0.11936179117E+03 -0.47162711547E+03  0.48693725505E+03  0.46999998093E+01 0. -1.
</event>
<event>
 5   0  0.9411028E-02  0.5976566E+03  0.7818609E-02  0.9910280E-01
        1   -1    0    0  501    0  0.00000000000E+00  0.00000000000E+00  0.67220451149E+03  0.67220451151E+03  0.50400001928E-02 0.  1.
       -1   -1    0    0    0  501  0.00000000000E+00  0.00000000000E+00 -0.13284404030E+03  0.13284404040E+03  0.50400001928E-02 0. -1.
    10030    2    1    2    0    0  0.00000000000E+00  0.00000000000E+00  0.53936047119E+03  0.80504855191E+03  0.59765663474E+03 0.  0.
        4    1    3    3  502    0  0.18345628955E+03 -0.83842674208E+02 -0.27306713699E+02  0.20355115747E+03  0.12699999809E+01 0. -1.
       -4    1    3    3    0  502 -0.18345628955E+03  0.83842674208E+02  0.56666718489E+03  0.60149739445E+03  0.12699999809E+01 0.  1.
</event>
<event>
 5   0  0.9497860E-02  0.5921453E+03  0.7818609E-02  0.9921837E-01
       -1   -1    0    0    0  501  0.00000000000E+00  0.00000000000E+00  0.62668546784E+03  0.62668546786E+03  0.50400001928E-02 0.  1.
        1   -1    0    0  501    0  0.00000000000E+00  0.00000000000E+00 -0.13987722303E+03  0.13987722312E+03  0.50400001928E-02 0. -1.
    10030    2    1    2    0    0  0.00000000000E+00  0.00000000000E+00  0.48680824481E+03  0.76656269099E+03  0.59214533013E+03 0.  0.
        5    1    3    3  502    0 -0.14058109696E+03  0.49048506052E+02  0.57463769204E+03  0.59363235077E+03  0.46999998093E+01 0.  1.
       -5    1    3    3    0  502  0.14058109696E+03 -0.49048506052E+02 -0.87829447233E+02  0.17293034021E+03  0.46999998093E+01 0. -1.
</event>
<event>
 5   0  0.9420349E-02  0.5814664E+03  0.7818609E-02  0.9944621E-01
       -1   -1    0    0    0  501  0.00000000000E+00  0.00000000000E+00  0.16441892471E+03  0.16441892479E+03  0.50400001928E-02 0.  1.
        1   -1    0    0  501    0  0.00000000000E+00  0.00000000000E+00 -0.51408799312E+03  0.51408799315E+03  0.50400001928E-02 0. -1.
    10030    2    1    2    0    0  0.00000000000E+00  0.00000000000E+00 -0.34966906841E+03  0.67850691794E+03  0.58146640512E+03 0.  0.
        2    1    3    3  502    0 -0.16381861879E+03 -0.23243886835E+03 -0.10422637611E+03  0.30286548972E+03  0.25500000920E-02 0. -1.
       -2    1    3    3    0  502  0.16381861879E+03  0.23243886835E+03 -0.24544269230E+03  0.37564142822E+03  0.25500000920E-02 0.  1.
</event>
<event>
 5   0  0.9177281E-02  0.5931787E+03  0.7818609E-02  0.9919660E-01
        1   -1    0    0  501    0  0.00000000000E+00  0.00000000000E+00  0.80320522447E+02  0.80320522605E+02  0.50400001928E-02 0.  1.
       -1   -1    0    0    0  501  0.00000000000E+00  0.00000000000E+00 -0.10951777996E+04  0.10951777996E+04  0.50400001928E-02 0. -1.
    10030    2    1    2    0    0  0.00000000000E+00  0.00000000000E+00 -0.10148572772E+04  0.11754983222E+04  0.59317873575E+03 0.  0.
        1    1    3    3  502    0 -0.19941674978E+03  0.16576987344E+03 -0.22218481786E+03  0.34148614078E+03  0.50400001928E-02 0.  1.
       -1    1    3    3    0  502  0.19941674978E+03 -0.16576987344E+03 -0.79267245931E+03  0.83401218145E+03  0.50400001928E-02 0. -1.
</event>
<event>
 5   0  0.6170500E-02  0.6168521E+03  0.7818609E-02  0.9871047E-01
       -3   -1    0    0    0  501  0.00000000000E+00  0.00000000000E+00  0.22613896481E+03  0.22613898736E+03  0.10100000352E+00 0. -1.
        3   -1    0    0  501    0  0.00000000000E+00  0.00000000000E+00 -0.42065554374E+03  0.42065555587E+03  0.10100000352E+00 0.  1.
    10030    2    1    2    0    0  0.00000000000E+00  0.00000000000E+00 -0.19451657893E+03  0.64679454323E+03  0.61685207439E+03 0.  0.
        2    1    3    3  502    0  0.75189094623E+02 -0.19483156409E+03  0.14072554490E+03  0.25182616486E+03  0.25500000920E-02 0. -1.
       -2    1    3    3    0  502 -0.75189094623E+02  0.19483156409E+03 -0.33524212383E+03  0.39496837837E+03  0.25500000920E-02 0.  1.
</event>
<event>
 5   0  0.9411028E-02  0.6084562E+03  0.7818609E-02  0.9888016E-01
        1   -1    0    0  501    0  0.00000000000E+00  0.00000000000E+00  0.39565727245E+03  0.39565727248E+03  0.50400001928E-02 0. -1.
       -1   -1    0    0    0  501  0.00000000000E+00  0.00000000000E+00 -0.23392654705E+03  0.23392654710E+03  0.50400001928E-02 0.  1.
    10030    2    1    2    0    0  0.00000000000E+00  0.00000000000E+00  0.16173072540E+03  0.62958381958E+03  0.60845620906E+03 0.  0.
        4    1    3    3  502    0  0.10621091634E+03  0.26074315758E+03  0.20012984257E+03  0.34542918197E+03  0.12699999809E+01 0.  1.
       -4    1    3    3    0  502 -0.10621091634E+03 -0.26074315758E+03 -0.38399117169E+02  0.28415463761E+03  0.12699999809E+01 0. -1.
</event>
<event>
 5   0  0.1513339E-01  0.6027164E+03  0.7818609E-02  0.9899786E-01
       -2   -1    0    0    0  501  0.00000000000E+00  0.00000000000E+00  0.28577010917E+03  0.28577010918E+03  0.25500000920E-02 0. -1.
        2   -1    0    0  501    0  0.00000000000E+00  0.00000000000E+00 -0.31779663063E+03  0.31779663064E+03  0.25500000920E-02 0.  1.
    10030    2    1    2    0    0  0.00000000000E+00  0.00000000000E+00 -0.32026521465E+02  0.60356673983E+03  0.60271644357E+03 0.  0.
        3    1    3    3  502    0 -0.17315131137E+03 -0.11024259591E+03  0.20493790212E+03  0.29005923620E+03  0.10100000352E+00 0. -1.
       -3    1    3    3    0  502  0.17315131137E+03  0.11024259591E+03 -0.23696442358E+03  0.31350750362E+03  0.10100000352E+00 0.  1.
</event>
<event>
 5   0  0.6170500E-02  0.6020999E+03  0.7818609E-02  0.9901059E-01
        3   -1    0    0  501    0  0.00000000000E+00  0.00000000000E+00  0.70470824293E+02  0.70470896671E+02  0.10100000352E+00 0.  1.
       -3   -1    0    0    0  501  0.00000000000E+00  0.00000000000E+00 -0.12860787289E+04  0.12860787329E+04  0.10100000352E+00 0. -1.
    10030    2    1    2    0    0  0.00000000000E+00  0.00000000000E+00 -0.12156079047E+04  0.13565496296E+04  0.60209992499E+03 0.  0.
        3    1    3    3  502    0 -0.10398849183E+02 -0.20288426080E+03 -0.11083668943E+04  0.11268306625E+04  0.10100000352E+00 0. -1.
       -3    1    3    3    0  502  0.10398849183E+02  0.20288426080E+03 -0.10724101037E+03  0.22971896711E+03  0.10100000352E+00 0.  1.
</event>
<event>
 5   0  0.1488510E-01  0.6110671E+03  0.7818609E-02  0.9882708E-01
       -2   -1    0    0    0  501  0.00000000000E+00  0.00000000000E+00  0.93420594299E+02  0.93420594334E+02  0.25500000920E-02 0.  1.
        2   -1    0    0  501    0  0.00000000000E+00  0.00000000000E+00 -0.99925234512E+03  0.99925234513E+03  0.25500000920E-02 0. -1.
    10030    2    1    2    0    0  0.00000000000E+00  0.00000000000E+00 -0.90583175082E+03  0.10926729395E+04  0.61106709274E+03 0.  0.
        5    1    3    3  502    0  0.75612084514E+02 -0.46551180216E+02 -0.97560473203E+03  0.97964834653E+03  0.46999998093E+01 0. -1.
       -5    1    3    3    0  502 -0.75612084514E+02  0.46551180216E+02  0.69772981201E+02  0.11302459293E+03  0.46999998093E+01 0.  1.
</event>
<event>
 5   0  0.1488510E-01  0.5749018E+03  0.7818609E-02  0.9958890E-01
        2   -1    0    0  501    0  0.00000000000E+00  0.00000000000E+00  0.10241828443E+04  0.10241828443E+04  0.25500000920E-02 0. -1.
       -2   -1    0    0    0  501  0.00000000000E+00  0.00000000000E+00 -0.80677007999E+02  0.80677008039E+02  0.25500000920E-02 0.  1.
    10030    2    1    2    0    0  0.00000000000E+00  0.00000000000E+00  0.94350583629E+03  0.11048598523E+04  0.57490175698E+03 0.  0.
        5    1    3    3  502    0 -0.99953631346E+02 -0.37702316753E+01 -0.46074189915E+02  0.11022642170E+03  0.46999998093E+01 0.  1.
       -5    1    3    3    0  502  0.99953631346E+02  0.37702316753E+01  0.98958002620E+03  0.99463343063E+03  0.46999998093E+01 0. -1.
</event>
<event>
 5   0  0.9177281E-02  0.6034742E+03  0.7818609E-02  0.9898224E-01
        1   -1    0    0  501    0  0.00000000000E+00  0.00000000000E+00  0.38224055931E+03  0.38224055934E+03  0.50400001928E-02 0. -1.
       -1   -1    0    0    0  501  0.00000000000E+00  0.00000000000E+00 -0.23818843952E+03  0.23818843957E+03  0.50400001928E-02 0.  1.
    10030    2    1    2    0    0  0.00000000000E+00  0.00000000000E+00  0.14405211979E+03  0.62042899891E+03  0.60347421608E+03 0.  0.
        1    1    3    3  502    0 -0.14231798654E+02  0.30128458150E+03  0.63403582024E+02  0.30821251983E+03  0.50400001928E-02 0.  1.
       -1    1    3    3    0  502  0.14231798654E+02 -0.30128458150E+03  0.80648537761E+02  0.31221647908E+03  0.50400001928E-02 0. -1.
</event>
<event>
 5   0  0.1532571E-01  0.6018488E+03  0.7818609E-02  0.9901578E-01
        2   -1    0    0  501    0  0.00000000000E+00  0.00000000000E+00  0.70456199597E+02  0.70456199643E+02  0.25500000920E-02 0. -1.
       -2   -1    0    0    0  501  0.00000000000E+00  0.00000000000E+00 -0.12852735254E+04  0.12852735254E+04  0.25500000920E-02 0.  1.
    10030    2    1    2    0    0  0.00000000000E+00  0.00000000000E+00 -0.12148173258E+04  0.13557297250E+04  0.60184877860E+03 0.  0.
        1    1    3    3  502    0  0.17575541585E+03 -0.23820406802E+03 -0.72922343340E+03  0.78701839881E+03  0.50400001928E-02 0.  1.
       -1    1    3    3    0  502 -0.17575541585E+03  0.23820406802E+03 -0.48559389239E+03  0.56871132622E+03  0.50400001928E-02 0. -1.
</event>
<event>
 5   0  0.1532571E-01  0.6047506E+03  0.7818609E-02  0.9895599E-01
       -2   -1    0    0    0  501  0.00000000000E+00  0.00000000000E+00  0.10173445258E+03  0.10173445261E+03  0.25500000920E-02 0.  1.
        2   -1    0    0  501    0  0.00000000000E+00  0.00000000000E+00 -0.89872027085E+03  0.89872027085E+03  0.25500000920E-02 0. -1.
    10030    2    1    2    0    0  0.00000000000E+00  0.00000000000E+00 -0.79698581827E+03  0.10004547235E+04  0.60475057601E+03 0.  0.
        1    1    3    3  502    0 -0.14417324421E+03  0.18629959907E+03 -0.71210599211E+03  0.75005893701E+03  0.50400001928E-02 0. -1.
       -1    1    3    3    0  502  0.14417324421E+03 -0.18629959907E+03 -0.84879826155E+02  0.25039578645E+03  0.50400001928E-02 0.  1.
</event>
<event>
 5   0  0.9177281E-02  0.6029016E+03  0.7818609E-02  0.9899404E-01
        1   -1    0    0  501    0  0.00000000000E+00  0.00000000000E+00  0.40511491301E+03  0.40511491304E+03  0.50400001928E-02 0. -1.
       -1   -1    0    0    0  501  0.00000000000E+00  0.00000000000E+00 -0.22431310485E+03  0.22431310491E+03  0.50400001928E-02 0.  1.
    10030    2    1    2    0    0  0.00000000000E+00  0.00000000000E+00  0.18080180815E+03  0.62942801795E+03  0.60290159723E+03 0.  0.
        1    1    3    3  502    0 -0.17805518892E+03  0.23605349977E+03  0.15170126655E+03  0.33232240272E+03  0.50400001928E-02 0.  1.
       -1    1    3    3    0  502  0.17805518892E+03 -0.23605349977E+03  0.29100541602E+02  0.29710561523E+03  0.50400001928E-02 0. -1.
</event>
<event>
 5   0  0.1483942E-01  0.6072067E+03  0.7818609E-02  0.9890566E-01
       -2   -1    0    0    0  501  0.00000000000E+00  0.00000000000E+00  0.22119068709E+03  0.22119068711E+03  0.25500000920E-02 0. -1.
        2   -1    0    0  501    0  0.00000000000E+00  0.00000000000E+00 -0.41672179022E+03  0.41672179022E+03  0.25500000920E-02 0.  1.
    10030    2    1    2    0    0  0.00000000000E+00  0.00000000000E+00 -0.19553110312E+03  0.63791247733E+03  0.60720665053E+03 0.  0.
        4    1    3    3  502    0 -0.11136910937E+03 -0.26975005316E+03 -0.98360242312E+01  0.29200433212E+03  0.12699999809E+01 0. -1.
       -4    1    3    3    0  502  0.11136910937E+03  0.26975005316E+03 -0.18569507889E+03  0.34590814522E+03  0.12699999809E+01 0.  1.
</event>
<event>
 5   0  0.9420349E-02  0.6098603E+03  0.7818609E-02  0.9885158E-01
        1   -1    0    0  501    0  0.00000000000E+00  0.00000000000E+00  0.15831365598E+04  0.15831365598E+04  0.50400001928E-02 0. -1.
       -1   -1    0    0    0  501  0.00000000000E+00  0.00000000000E+00 -0.58733019693E+02  0.58733019909E+02  0.50400001928E-02 0.  1.
    10030    2    1    2    0    0  0.00000000000E+00  0.00000000000E+00  0.15244035401E+04  0.16418695797E+04  0.60986028213E+03 0.  0.
        2    1    3    3  502    0 -0.12898909739E+03 -0.25072264983E+03  0.44960016041E+03  0.53069797308E+03  0.25500000920E-02 0. -1.
       -2    1    3    3    0  502  0.12898909739E+03  0.25072264983E+03  0.10748033797E+04  0.11111716067E+04  0.25500000920E-02 0.  1.
</event>
<event>
 5   0  0.1502642E-01  0.5989568E+03  0.7818609E-02  0.9907573E-01
        2   -1    0    0  501    0  0.00000000000E+00  0.00000000000E+00  0.44103752245E+03  0.44103752245E+03  0.25500000920E-02 0. -1.
       -2   -1    0    0    0  501  0.00000000000E+00  0.00000000000E+00 -0.20335532000E+03  0.20335532001E+03  0.25500000920E-02 0.  1.
    10030    2    1    2    0    0  0.00000000000E+00  0.00000000000E+00  0.23768220245E+03  0.64439284247E+03  0.59895684825E+03 0.  0.
        2    1    3    3  502    0 -0.25412623278E+03 -0.16860512734E+02  0.28834570449E+03  0.38471764241E+03  0.25500000920E-02 0. -1.
       -2    1    3    3    0  502  0.25412623278E+03  0.16860512734E+02 -0.50663502041E+02  0.25967520006E+03  0.25500000920E-02 0.  1.
</event>
<event>
 5   0  0.9177281E-02  0.5726728E+03  0.7818609E-02  0.9963782E-01
       -1   -1    0    0    0  501  0.00000000000E+00  0.00000000000E+00  0.15395533392E+03  0.15395533400E+03  0.50400001928E-02 0.  1.
        1   -1    0    0  501    0  0.00000000000E+00  0.00000000000E+00 -0.53254749890E+03  0.53254749892E+03  0.50400001928E-02 0. -1.
    10030    2    1    2    0    0  0.00000000000E+00  0.00000000000E+00 -0.37859216498E+03  0.68650283292E+03  0.57267277937E+03 0.  0.
        1    1    3    3  502    0  0.14359978738E+03 -0.59920324635E+02 -0.47744299998E+03  0.50215850335E+03  0.50400001928E-02 0. -1.
       -1    1    3    3    0  502 -0.14359978738E+03  0.59920324635E+02  0.98850834996E+02  0.18434432957E+03  0.50400001928E-02 0.  1.
</event>
<event>
 5   0  0.1502642E-01  0.5936182E+03  0.7818609E-02  0.9918735E-01
       -2   -1    0    0    0  501  0.00000000000E+00  0.00000000000E+00  0.43643478864E+02  0.43643478939E+02  0.25500000920E-02 0. -1.
        2   -1    0    0  501    0  0.00000000000E+00  0.00000000000E+00 -0.20185293580E+04  0.20185293580E+04  0.25500000920E-02 0.  1.
    10030    2    1    2    0    0  0.00000000000E+00  0.00000000000E+00 -0.19748858791E+04  0.20621728369E+04  0.59361820542E+03 0.  0.
        2    1    3    3  502    0  0.72791930233E+02 -0.22229391551E+03 -0.35273111943E+03  0.42324046664E+03  0.25500000920E-02 0. -1.
       -2    1    3    3    0  502 -0.72791930233E+02  0.22229391551E+03 -0.16221547597E+04  0.16389323703E+04  0.25500000920E-02 0.  1.
</event>
<event>
 5   0  0.1488510E-01  0.6293575E+03  0.7818609E-02  0.9846303E-01
       -2   -1    0    0    0  501  0.00000000000E+00  0.00000000000E+00  0.21712984678E+03  0.21712984679E+03  0.25500000920E-02 0.  1.
        2   -1    0    0  501    0  0.00000000000E+00  0.00000000000E+00 -0.45605300074E+03  0.45605300075E+03  0.25500000920E-02 0. -1.
    10030    2    1    2    0    0  0.00000000000E+00  0.00000000000E+00 -0.23892315396E+03  0.67318284754E+03  0.62935750788E+03 0.  0.
        5    1    3    3  502    0 -0.11209058520E+03  0.72132157363E+02 -0.42432310429E+03  0.44479156270E+03  0.46999998093E+01 0. -1.
       -5    1    3    3    0  502  0.11209058520E+03 -0.72132157363E+02  0.18539995032E+03  0.22839128485E+03  0.46999998093E+01 0.  1.
</event>
<event>
 5   0  0.1488510E-01  0.5929880E+03  0.7818609E-02  0.9920061E-01
        2   -1    0    0  501    0  0.00000000000E+00  0.00000000000E+00  0.75440696259E+03  0.75440696260E+03  0.25500000920E-02 0. -1.
       -2   -1    0    0    0  501  0.00000000000E+00  0.00000000000E+00 -0.11652687561E+03  0.11652687564E+03  0.25500000920E-02 0.  1.
    10030    2    1    2    0    0  0.00000000000E+00  0.00000000000E+00  0.63788008698E+03  0.87093383823E+03  0.59298798066E+03 0.  0.
        5    1    3    3  502    0 -0.13905350723E+03  0.26178062474E+03  0.32576966584E+03  0.44046899838E+03  0.46999998093E+01 0.  1.
       -5    1    3    3    0  502  0.13905350723E+03 -0.26178062474E+03  0.31211042115E+03  0.43046483985E+03  0.46999998093E+01 0. -1.
</event>
<event>
 5   0  0.1488510E-01  0.6092455E+03  0.7818609E-02  0.9886408E-01
        2   -1    0    0  501    0  0.00000000000E+00  0.00000000000E+00  0.72582361851E+03  0.72582361851E+03  0.25500000920E-02 0. -1.
       -2   -1    0    0    0  501  0.00000000000E+00  0.00000000000E+00 -0.12784790976E+03  0.12784790979E+03  0.25500000920E-02 0.  1.
    10030    2    1    2    0    0  0.00000000000E+00  0.00000000000E+00  0.59797570875E+03  0.85367152830E+03  0.60924554162E+03 0.  0.
        5    1    3    3  502    0  0.73815575399E+02 -0.13161283397E+00 -0.11507446482E+03  0.13679539080E+03  0.46999998093E+01 0.  1.
       -5    1    3    3    0  502 -0.73815575399E+02  0.13161283397E+00  0.71305017356E+03  0.71687613750E+03  0.46999998093E+01 0. -1.
</event>
<event>
 5   0  0.9177281E-02  0.6172542E+03  0.7818609E-02  0.9870242E-01
       -1   -1    0    0    0  501  0.00000000000E+00  0.00000000000E+00  0.26121313174E+03  0.26121313179E+03  0.50400001928E-02 0. -1.
        1   -1    0    0  501    0  0.00000000000E+00  0.00000000000E+00 -0.36464741692E+03  0.36464741695E+03  0.50400001928E-02 0.  1.
    10030    2    1    2    0    0  0.00000000000E+00  0.00000000000E+00 -0.10343428518E+03  0.62586054875E+03  0.61725422244E+03 0.  0.
        1    1    3    3  502    0 -0.28932571688E+03 -0.11864380472E+02 -0.15997927955E+03  0.33082246580E+03  0.50400001928E-02 0.  1.
       -1    1    3    3    0  502  0.28932571688E+03  0.11864380472E+02  0.56544994369E+02  0.29503808294E+03  0.50400001928E-02 0. -1.
</event>
<event>
 5   0  0.6170500E-02  0.5870876E+03  0.7818609E-02  0.9932563E-01
        3   -1    0    0  501    0  0.00000000000E+00  0.00000000000E+00  0.92882206265E+02  0.92882261179E+02  0.10100000352E+00 0.  1.
       -3   -1    0    0    0  501  0.00000000000E+00  0.00000000000E+00 -0.92771206701E+03  0.92771207251E+03  0.10100000352E+00 0. -1.
    10030    2    1    2    0    0  0.00000000000E+00  0.00000000000E+00 -0.83482986075E+03  0.10205943337E+04  0.58708764044E+03 0.  0.
        1    1    3    3  502    0 -0.15098467525E+03  0.14190810193E+03 -0.55953983881E+02  0.21462788703E+03  0.50400001928E-02 0.  1.
       -1    1    3    3    0  502  0.15098467525E+03 -0.14190810193E+03 -0.77887587686E+03  0.80596644666E+03  0.50400001928E-02 0. -1.
</event>
<event>
 5   0  0.9177281E-02  0.6015801E+03  0.7818609E-02  0.9902133E-01
       -1   -1    0    0    0  501  0.00000000000E+00  0.00000000000E+00  0.50861920226E+03  0.50861920229E+03  0.50400001928E-02 0. -1.
        1   -1    0    0  501    0  0.00000000000E+00  0.00000000000E+00 -0.17788291289E+03  0.17788291296E+03  0.50400001928E-02 0.  1.
    10030    2    1    2    0    0  0.00000000000E+00  0.00000000000E+00  0.33073628937E+03  0.68650211525E+03  0.60158013692E+03 0.  0.
        1    1    3    3  502    0  0.18001333615E+03 -0.23483077095E+03  0.22707945681E+03  0.37298173133E+03  0.50400001928E-02 0. -1.
       -1    1    3    3    0  502 -0.18001333615E+03  0.23483077095E+03  0.10365683256E+03  0.31352038393E+03  0.50400001928E-02 0.  1.
</event>
<event>
 5   0  0.8860626E-02  0.4887881E+03  0.7818609E-02  0.1016748E+00
       -1   -1    0    0    0  501  0.00000000000E+00  0.00000000000E+00  0.57848183189E+02  0.57848183409E+02  0.50400001928E-02 0. -1.
        1   -1    0    0  501    0  0.00000000000E+00  0.00000000000E+00 -0.10325036095E+04  0.10325036095E+04  0.50400001928E-02 0.  1.
    10030    2    1    2    0    0  0.00000000000E+00  0.00000000000E+00 -0.97465542633E+03  0.10903517929E+04  0.48878812618E+03 0.  0.
        3    1    3    3  502    0 -0.47879382446E+01  0.84896411703E+02  0.23786410401E+02  0.88295688419E+02  0.10100000352E+00 0. -1.
       -3    1    3    3    0  502  0.47879382446E+01 -0.84896411703E+02 -0.99844183673E+03  0.10020561045E+04  0.10100000352E+00 0.  1.
</event>
<event>
 5   0  0.1532571E-01  0.6229939E+03  0.7818609E-02  0.9858817E-01
        2   -1    0    0  501    0  0.00000000000E+00  0.00000000000E+00  0.65386473942E+03  0.65386473942E+03  0.25500000920E-02 0. -1.
       -2   -1    0    0    0  501  0.00000000000E+00  0.00000000000E+00 -0.14839516251E+03  0.14839516253E+03  0.25500000920E-02 0.  1.
    10030    2    1    2    0    0  0.00000000000E+00  0.00000000000E+00  0.50546957691E+03  0.80225990195E+03  0.62299394628E+03 0.  0.
        1    1    3    3  502    0  0.14557559830E+03  0.22742171531E+03  0.45271966696E+03  0.52713185096E+03  0.50400001928E-02 0. -1.
       -1    1    3    3    0  502 -0.14557559830E+03 -0.22742171531E+03  0.52749909950E+02  0.27512805099E+03  0.50400001928E-02 0.  1.
</event>
<event>
 5   0  0.8860626E-02  0.6014430E+03  0.7818609E-02  0.9902417E-01
       -1   -1    0    0    0  501  0.00000000000E+00  0.00000000000E+00  0.21619977940E+03  0.21619977946E+03  0.50400001928E-02 0.  1.
        1   -1    0    0  501    0  0.00000000000E+00  0.00000000000E+00 -0.41828634421E+03  0.41828634424E+03  0.50400001928E-02 0. -1.
    10030    2    1    2    0    0  0.00000000000E+00  0.00000000000E+00 -0.20208656481E+03  0.63448612370E+03  0.60144298274E+03 0.  0.
        3    1    3    3  502    0 -0.20479642500E+03 -0.12087216776E+02 -0.33299987555E+03  0.39112223642E+03  0.10100000352E+00 0. -1.
       -3    1    3    3    0  502  0.20479642500E+03  0.12087216776E+02  0.13091331073E+03  0.24336388728E+03  0.10100000352E+00 0.  1.
</event>
<event>
 5   0  0.1532571E-01  0.5464685E+03  0.7818609E-02  0.1002315E+00
        2   -1    0    0  501    0  0.00000000000E+00  0.00000000000E+00  0.10295774431E+04  0.10295774431E+04  0.25500000920E-02 0. -1.
       -2   -1    0    0    0  501  0.00000000000E+00  0.00000000000E+00 -0.72512233985E+02  0.72512234030E+02  0.25500000920E-02 0.  1.
    10030    2    1    2    0    0  0.00000000000E+00  0.00000000000E+00  0.95706520915E+03  0.11020896772E+04  0.54646851872E+03 0.  0.
        1    1    3    3  502    0 -0.83291545406E+02  0.48129628620E+02 -0.37230985809E+02  0.10315080716E+03  0.50400001928E-02 0.  1.
       -1    1    3    3    0  502  0.83291545406E+02 -0.48129628620E+02  0.99429619496E+03  0.99893887001E+03  0.50400001928E-02 0. -1.
</event>
<event>
 5   0  0.1513339E-01  0.5844906E+03  0.7818609E-02  0.9938116E-01
        2   -1    0    0  501    0  0.00000000000E+00  0.00000000000E+00  0.11741014648E+04  0.11741014648E+04  0.25500000920E-02 0.  1.
       -2   -1    0    0    0  501  0.00000000000E+00  0.00000000000E+00 -0.72742693805E+02  0.72742693850E+02  0.25500000920E-02 0. -1.
    10030    2    1    2    0    0  0.00000000000E+00  0.00000000000E+00  0.11013587710E+04  0.12468441587E+04  0.58449055897E+03 0.  0.
        3    1    3    3  502    0 -0.19514078029E+03  0.16342068995E+03  0.24434903207E+03  0.35283523876E+03  0.10100000352E+00 0. -1.
       -3    1    3    3    0  502  0.19514078029E+03 -0.16342068995E+03  0.85700973896E+03  0.89400891993E+03  0.10100000352E+00 0.  1.
</event>
<event>
 5   0  0.1502642E-01  0.5995982E+03  0.7818609E-02  0.9906240E-01
        2   -1    0    0  501    0  0.00000000000E+00  0.00000000000E+00  0.36615075711E+03  0.36615075711E+03  0.25500000920E-02 0.  1.
       -2   -1    0    0    0  501  0.00000000000E+00  0.00000000000E+00 -0.24547133216E+03  0.24547133218E+03  0.25500000920E-02 0. -1.
    10030    2    1    2    0    0  0.00000000000E+00  0.00000000000E+00  0.12067942494E+03  0.61162208929E+03  0.59959824592E+03 0.  0.
        2    1    3    3  502    0 -0.12109192074E+03 -0.86380680523E+02  0.32585670837E+03  0.35820032054E+03  0.25500000920E-02 0.  1.
       -2    1    3    3    0  502  0.12109192074E+03  0.86380680523E+02 -0.20517728343E+03  0.25342176875E+03  0.25500000920E-02 0. -1.
</event>
<event>
 5   0  0.9420349E-02  0.5910906E+03  0.7818609E-02  0.9924065E-01
       -1   -1    0    0    0  501  0.00000000000E+00  0.00000000000E+00  0.71656153589E+03  0.71656153591E+03  0.50400001928E-02 0. -1.
        1   -1    0    0  501    0  0.00000000000E+00  0.00000000000E+00 -0.12189746282E+03  0.12189746292E+03  0.50400001928E-02 0.  1.
    10030    2    1    2    0    0  0.00000000000E+00  0.00000000000E+00  0.59466407307E+03  0.83845899883E+03  0.59109063004E+03 0.  0.
        2    1    3    3  502    0 -0.33466522880E+02 -0.29284633107E+03  0.26664361489E+03  0.39746421115E+03  0.25500000920E-02 0.  1.
       -2    1    3    3    0  502  0.33466522880E+02  0.29284633107E+03  0.32802045818E+03  0.44099478768E+03  0.25500000920E-02 0. -1.
</event>
<event>
 5   0  0.1488510E-01  0.5874955E+03  0.7818609E-02  0.9931694E-01
        2   -1    0    0  501    0  0.00000000000E+00  0.00000000000E+00  0.57860064274E+03  0.57860064275E+03  0.25500000920E-02 0. -1.
       -2   -1    0    0    0  501  0.00000000000E+00  0.00000000000E+00 -0.14913175588E+03  0.14913175590E+03  0.25500000920E-02 0.  1.
    10030    2    1    2    0    0  0.00000000000E+00  0.00000000000E+00  0.42946888686E+03  0.72773239864E+03  0.58749546318E+03 0.  0.
        5    1    3    3  502    0 -0.17706662740E+02 -0.14264826609E+03  0.53200588573E+03  0.55110289981E+03  0.46999998093E+01 0. -1.
       -5    1    3    3    0  502  0.17706662740E+02  0.14264826609E+03 -0.10253699887E+03  0.17662949884E+03  0.46999998093E+01 0.  1.
</event>
<event>
 5   0  0.9497860E-02  0.5936317E+03  0.7818609E-02  0.9918707E-01
        1   -1    0    0  501    0  0.00000000000E+00  0.00000000000E+00  0.86387489996E+03  0.86387489998E+03  0.50400001928E-02 0. -1.
       -1   -1    0    0    0  501  0.00000000000E+00  0.00000000000E+00 -0.10198194052E+03  0.10198194064E+03  0.50400001928E-02 0.  1.
    10030    2    1    2    0    0  0.00000000000E+00  0.00000000000E+00  0.76189295945E+03  0.96585684062E+03  0.59363166603E+03 0.  0.
        5    1    3    3  502    0  0.14207176246E+03 -0.14842026449E+03  0.32501309211E+02  0.20806582059E+03  0.46999998093E+01 0.  1.
       -5    1    3    3    0  502 -0.14207176246E+03  0.14842026449E+03  0.72939165024E+03  0.75779102003E+03  0.46999998093E+01 0. -1.
</event>
<event>
 5   0  0.1488510E-01  0.6004881E+03  0.7818609E-02  0.9904394E-01
        2   -1    0    0  501    0  0.00000000000E+00  0.00000000000E+00  0.56210071855E+03  0.56210071856E+03  0.25500000920E-02 0.  1.
       -2   -1    0    0    0  501  0.00000000000E+00  0.00000000000E+00 -0.16037428811E+03  0.16037428813E+03  0.25500000920E-02 0. -1.
    10030    2    1    2    0    0  0.00000000000E+00  0.00000000000E+00  0.40172643044E+03  0.72247500669E+03  0.60048814342E+03 0.  0.
        5    1    3    3  502    0  0.31302791659E+02  0.98799968327E+02  0.53984975727E+03  0.54972825008E+03  0.46999998093E+01 0.  1.
       -5    1    3    3    0  502 -0.31302791659E+02 -0.98799968327E+02 -0.13812332683E+03  0.17274675662E+03  0.46999998093E+01 0. -1.
</event>
<event>
 5   0  0.1532571E-01  0.5938723E+03  0.7818609E-02  0.9918201E-01
        2   -1    0    0  501    0  0.00000000000E+00  0.00000000000E+00  0.37182614522E+03  0.37182614523E+03  0.25500000920E-02 0. -1.
       -2   -1    0    0    0  501  0.00000000000E+00  0.00000000000E+00 -0.23712980869E+03  0.23712980870E+03  0.25500000920E-02 0.  1.
    10030    2    1    2    0    0  0.00000000000E+00  0.00000000000E+00  0.13469633653E+03  0.60895595394E+03  0.59387225121E+03 0.  0.
        1    1    3    3  502    0 -0.14032195302E+03 -0.18085625583E+03 -0.12659005296E+03  0.26158034580E+03  0.50400001928E-02 0.  1.
       -1    1    3    3    0  502  0.14032195302E+03  0.18085625583E+03  0.26128638949E+03  0.34737560814E+03  0.50400001928E-02 0. -1.
</event>
<event>
 5   0  0.1483942E-01  0.6443792E+03  0.7818609E-02  0.9817384E-01
        2   -1    0    0  501    0  0.00000000000E+00  0.00000000000E+00  0.73083821316E+03  0.73083821316E+03  0.25500000920E-02 0.  1.
       -2   -1    0    0    0  501  0.00000000000E+00  0.00000000000E+00 -0.14203711209E+03  0.14203711212E+03  0.25500000920E-02 0. -1.
    10030    2    1    2    0    0  0.00000000000E+00  0.00000000000E+00  0.58880110106E+03  0.87287532528E+03  0.64437923373E+03 0.  0.
        4    1    3    3  502    0  0.21732964396E+03 -0.11338139501E+03  0.57762840544E+03  0.62749000195E+03  0.12699999809E+01 0.  1.
       -4    1    3    3    0  502 -0.21732964396E+03  0.11338139501E+03  0.11172695620E+02  0.24538532333E+03  0.12699999809E+01 0. -1.
</event>
<event>
 5   0  0.6170500E-02  0.6527124E+03  0.7818609E-02  0.9801703E-01
       -3   -1    0    0    0  501  0.00000000000E+00  0.00000000000E+00  0.17026618301E+04  0.17026618331E+04  0.10100000352E+00 0.  1.
        3   -1    0    0  501    0  0.00000000000E+00  0.00000000000E+00 -0.62553994054E+02  0.62554075591E+02  0.10100000352E+00 0. -1.
    10030    2    1    2    0    0  0.00000000000E+00  0.00000000000E+00  0.16401078360E+04  0.17652159087E+04  0.65271241019E+03 0.  0.
        3    1    3    3  502    0 -0.55985745382E+02  0.11940103753E+02  0.16889780441E+04  0.16899478730E+04  0.10100000352E+00 0.  1.
       -3    1    3    3    0  502  0.55985745382E+02 -0.11940103753E+02 -0.48870208046E+02  0.75268035706E+02  0.10100000352E+00 0. -1.
</event>
<event>
 5   0  0.9420349E-02  0.6080691E+03  0.7818609E-02  0.9888805E-01
       -1   -1    0    0    0  501  0.00000000000E+00  0.00000000000E+00  0.13925386265E+03  0.13925386274E+03  0.50400001928E-02 0. -1.
        1   -1    0    0  501    0  0.00000000000E+00  0.00000000000E+00 -0.66380201541E+03  0.66380201543E+03  0.50400001928E-02 0.  1.
    10030    2    1    2    0    0  0.00000000000E+00  0.00000000000E+00 -0.52454815276E+03  0.80305587817E+03  0.60806905767E+03 0.  0.
        2    1    3    3  502    0  0.27783702573E+03  0.53902425201E+02 -0.11557844283E+03  0.30570780291E+03  0.25500000920E-02 0. -1.
       -2    1    3    3    0  502 -0.27783702573E+03 -0.53902425201E+02 -0.40896970993E+03  0.49734807525E+03  0.25500000920E-02 0.  1.
</event>
<event>
 5   0  0.9420349E-02  0.6094636E+03  0.7818609E-02  0.9885964E-01
        1   -1    0    0  501    0  0.00000000000E+00  0.00000000000E+00  0.44988210834E+03  0.44988210837E+03  0.50400001928E-02 0.  1.
       -1   -1    0    0    0  501  0.00000000000E+00  0.00000000000E+00 -0.20641286779E+03  0.20641286786E+03  0.50400001928E-02 0. -1.
    10030    2    1    2    0    0  0.00000000000E+00  0.00000000000E+00  0.24346924054E+03  0.65629497622E+03  0.60946355488E+03 0.  0.
        2    1    3    3  502    0 -0.26202980570E+03 -0.12761660527E+03  0.21754218912E+03  0.36368973187E+03  0.25500000920E-02 0.  1.
       -2    1    3    3    0  502  0.26202980570E+03  0.12761660527E+03  0.25927051424E+02  0.29260524435E+03  0.25500000920E-02 0. -1.
</event>
<event>
 5   0  0.1488510E-01  0.5813664E+03  0.7818609E-02  0.9944837E-01
        2   -1    0    0  501    0  0.00000000000E+00  0.00000000000E+00  0.62584779772E+03  0.62584779772E+03  0.25500000920E-02 0.  1.
       -2   -1    0    0    0  501  0.00000000000E+00  0.00000000000E+00 -0.13501162647E+03  0.13501162650E+03  0.25500000920E-02 0. -1.
    10030    2    1    2    0    0  0.00000000000E+00  0.00000000000E+00  0.49083617125E+03  0.76085942422E+03  0.58136642182E+03 0.  0.
        5    1    3    3  502    0  0.24749231327E+03 -0.13469479333E+03  0.15214308822E+03  0.32025730556E+03  0.46999998093E+01 0.  1.
       -5    1    3    3    0  502 -0.24749231327E+03  0.13469479333E+03  0.33869308303E+03  0.44060211865E+03  0.46999998093E+01 0. -1.
</event>
<event>
 5   0  0.1513339E-01  0.6028011E+03  0.7818609E-02  0.9899612E-01
        2   -1    0    0  501    0  0.00000000000E+00  0.00000000000E+00  0.34667496603E+03  0.34667496604E+03  0.25500000920E-02 0.  1.
       -2   -1    0    0    0  501  0.00000000000E+00  0.00000000000E+00 -0.26203876920E+03  0.26203876921E+03  0.25500000920E-02 0. -1.
    10030    2    1    2    0    0  0.00000000000E+00  0.00000000000E+00  0.84636196829E+02  0.60871373525E+03  0.60280106641E+03 0.  0.
        3    1    3    3  502    0  0.25488190475E+03 -0.10754438206E+03  0.16312300564E+03  0.32115370876E+03  0.10100000352E+00 0.  1.
       -3    1    3    3    0  502 -0.25488190475E+03  0.10754438206E+03 -0.78486808810E+02  0.28756002649E+03  0.10100000352E+00 0. -1.
</event>
<event>
 5   0  0.6170500E-02  0.6272820E+03  0.7818609E-02  0.9850367E-01
        4   -1    0    0  501    0  0.00000000000E+00  0.00000000000E+00  0.12129274491E+04  0.12129281139E+04  0.12699999809E+01 0.  1.
       -4   -1    0    0    0  501  0.00000000000E+00  0.00000000000E+00 -0.81096196215E+02  0.81106139968E+02  0.12699999809E+01 0. -1.
    10030    2    1    2    0    0  0.00000000000E+00  0.00000000000E+00  0.11318312528E+04  0.12940342539E+04  0.62728196639E+03 0.  0.
        3    1    3    3  502    0 -0.22217468451E+02 -0.28525272338E+03  0.83096647633E+03  0.87884471159E+03  0.10100000352E+00 0.  1.
       -3    1    3    3    0  502  0.22217468451E+02  0.28525272338E+03  0.30086477651E+03  0.41518954231E+03  0.10100000352E+00 0. -1.
</event>
<event>
 5   0  0.1502642E-01  0.5980538E+03  0.7818609E-02  0.9909452E-01
       -2   -1    0    0    0  501  0.00000000000E+00  0.00000000000E+00  0.11113633093E+03  0.11113633096E+03  0.25500000920E-02 0. -1.
        2   -1    0    0  501    0  0.00000000000E+00  0.00000000000E+00 -0.80457117290E+03  0.80457117290E+03  0.25500000920E-02 0.  1.
    10030    2    1    2    0    0  0.00000000000E+00  0.00000000000E+00 -0.69343484197E+03  0.91570750387E+03  0.59805380409E+03 0.  0.
        2    1    3    3  502    0  0.14602493041E+03  0.73988458692E+02 -0.72986966067E+03  0.74800220180E+03  0.25500000920E-02 0.  1.
       -2    1    3    3    0  502 -0.14602493041E+03 -0.73988458692E+02  0.36434818706E+02  0.16770530207E+03  0.25500000920E-02 0. -1.
</event>
<event>
 5   0  0.9420349E-02  0.5894873E+03  0.7818609E-02  0.9927460E-01
        1   -1    0    0  501    0  0.00000000000E+00  0.00000000000E+00  0.13377661841E+04  0.13377661841E+04  0.50400001928E-02 0.  1.
       -1   -1    0    0    0  501  0.00000000000E+00  0.00000000000E+00 -0.64939472772E+02  0.64939472968E+02  0.50400001928E-02 0. -1.
    10030    2    1    2    0    0  0.00000000000E+00  0.00000000000E+00  0.12728267113E+04  0.14027056570E+04  0.58948733940E+03 0.  0.
        2    1    3    3  502    0 -0.48191431950E+02  0.23353899355E+03  0.10486361241E+04  0.10754071771E+04  0.25500000920E-02 0.  1.
       -2    1    3    3    0  502  0.48191431950E+02 -0.23353899355E+03  0.22419058715E+03  0.32729847997E+03  0.25500000920E-02 0. -1.
</event>
<event>
 5   0  0.6170500E-02  0.6098651E+03  0.7818609E-02  0.9885148E-01
        3   -1    0    0  501    0  0.00000000000E+00  0.00000000000E+00  0.63806935175E+02  0.63807015111E+02  0.10100000352E+00 0.  1.
       -3   -1    0    0    0  501  0.00000000000E+00  0.00000000000E+00 -0.14572677517E+04  0.14572677552E+04  0.10100000352E+00 0. -1.
    10030    2    1    2    0    0  0.00000000000E+00  0.00000000000E+00 -0.13934608166E+04  0.15210747704E+04  0.60986507499E+03 0.  0.
        4    1    3    3  502    0  0.20872465624E+03  0.39125653735E+02 -0.12425115726E+04  0.12605290238E+04  0.12699999809E+01 0. -1.
       -4    1    3    3    0  502 -0.20872465624E+03 -0.39125653735E+02 -0.15094924401E+03  0.26054574660E+03  0.12699999809E+01 0.  1.
</event>
<event>
 5   0  0.8860626E-02  0.5965356E+03  0.7818609E-02  0.9912620E-01
        1   -1    0    0  501    0  0.00000000000E+00  0.00000000000E+00  0.31081855178E+04  0.31081855178E+04  0.50400001928E-02 0. -1.
       -1   -1    0    0    0  501  0.00000000000E+00  0.00000000000E+00 -0.28622382856E+02  0.28622383300E+02  0.50400001928E-02 0.  1.
    10030    2    1    2    0    0  0.00000000000E+00  0.00000000000E+00  0.30795631350E+04  0.31368079011E+04  0.59653558681E+03 0.  0.
        3    1    3    3  502    0 -0.22262367163E+03  0.26028876559E+02  0.25745579819E+04  0.25842963479E+04  0.10100000352E+00 0. -1.
       -3    1    3    3    0  502  0.22262367163E+03 -0.26028876559E+02  0.50500515305E+03  0.55251155317E+03  0.10100000352E+00 0.  1.
</event>
<event>
 5   0  0.1532571E-01  0.4803760E+03  0.7818609E-02  0.1019032E+00
       -2   -1    0    0    0  501  0.00000000000E+00  0.00000000000E+00  0.37014141021E+02  0.37014141109E+02  0.25500000920E-02 0. -1.
        2   -1    0    0  501    0  0.00000000000E+00  0.00000000000E+00 -0.15586007564E+04  0.15586007564E+04  0.25500000920E-02 0.  1.
    10030    2    1    2    0    0  0.00000000000E+00  0.00000000000E+00 -0.15215866154E+04  0.15956148975E+04  0.48037597053E+03 0.  0.
        1    1    3    3  502    0 -0.99611681657E+02 -0.12506272432E+03 -0.16542934439E+03  0.23006529540E+03  0.50400001928E-02 0. -1.
       -1    1    3    3    0  502  0.99611681657E+02  0.12506272432E+03 -0.13561572710E+04  0.13655496021E+04  0.50400001928E-02 0.  1.
</event>
<event>
 5   0  0.9420349E-02  0.6129510E+03  0.7818609E-02  0.9878895E-01
       -1   -1    0    0    0  501  0.00000000000E+00  0.00000000000E+00  0.13019159189E+03  0.13019159199E+03  0.50400001928E-02 0. -1.
        1   -1    0    0  501    0  0.00000000000E+00  0.00000000000E+00 -0.72145392081E+03  0.72145392083E+03  0.50400001928E-02 0.  1.
    10030    2    1    2    0    0  0.00000000000E+00  0.00000000000E+00 -0.59126232892E+03  0.85164551281E+03  0.61295100774E+03 0.  0.
        2    1    3    3  502    0 -0.30445034221E+03  0.35053126084E+02 -0.29968244464E+03  0.42863539302E+03  0.25500000920E-02 0. -1.
       -2    1    3    3    0  502  0.30445034221E+03 -0.35053126084E+02 -0.29157988428E+03  0.42301011979E+03  0.25500000920E-02 0.  1.
</event>
<event>
 5   0  0.1532571E-01  0.5894515E+03  0.7818609E-02  0.9927536E-01
       -2   -1    0    0    0  501  0.00000000000E+00  0.00000000000E+00  0.12408801715E+03  0.12408801718E+03  0.25500000920E-02 0. -1.
        2   -1    0    0  501    0  0.00000000000E+00  0.00000000000E+00 -0.70001329084E+03  0.70001329084E+03  0.25500000920E-02 0.  1.
    10030    2    1    2    0    0  0.00000000000E+00  0.00000000000E+00 -0.57592527369E+03  0.82410130802E+03  0.58945147808E+03 0.  0.
        1    1    3    3  502    0 -0.12907772608E+03 -0.25426472968E+03 -0.18379242526E+03  0.33925103941E+03  0.50400001928E-02 0. -1.
       -1    1    3    3    0  502  0.12907772608E+03  0.25426472968E+03 -0.39213284843E+03  0.48485026861E+03  0.50400001928E-02 0.  1.
</event>
<event>
 5   0  0.6170500E-02  0.5951128E+03  0.7818609E-02  0.9915598E-01
        3   -1    0    0  501    0  0.00000000000E+00  0.00000000000E+00  0.14476866592E+03  0.14476870115E+03  0.10100000352E+00 0.  1.
       -3   -1    0    0    0  501  0.00000000000E+00  0.00000000000E+00 -0.61159501568E+03  0.61159502402E+03  0.10100000352E+00 0. -1.
    10030    2    1    2    0    0  0.00000000000E+00  0.00000000000E+00 -0.46682634976E+03  0.75636372517E+03  0.59511279933E+03 0.  0.
        1    1    3    3  502    0 -0.82583366647E+02 -0.47563313139E+02 -0.59167367746E+03  0.59929960940E+03  0.50400001928E-02 0. -1.
       -1    1    3    3    0  502  0.82583366647E+02  0.47563313139E+02  0.12484732770E+03  0.15706411577E+03  0.50400001928E-02 0.  1.
</event>
<event>
 5   0  0.1513339E-01  0.6132924E+03  0.7818609E-02  0.9878206E-01
       -2   -1    0    0    0  501  0.00000000000E+00  0.00000000000E+00  0.11792595334E+03  0.11792595337E+03  0.25500000920E-02 0.  1.
        2   -1    0    0  501    0  0.00000000000E+00  0.00000000000E+00 -0.79738083282E+03  0.79738083282E+03  0.25500000920E-02 0. -1.
    10030    2    1    2    0    0  0.00000000000E+00  0.00000000000E+00 -0.67945487948E+03  0.91530678619E+03  0.61329240954E+03 0.  0.
        3    1    3    3  502    0  0.30528802444E+03  0.25254566276E+02 -0.36047802865E+03  0.47305706878E+03  0.10100000352E+00 0.  1.
       -3    1    3    3    0  502 -0.30528802444E+03 -0.25254566276E+02 -0.31897685083E+03  0.44224971741E+03  0.10100000352E+00 0. -1.
</event>
<event>
 5   0  0.9177281E-02  0.6128384E+03  0.7818609E-02  0.9879123E-01
       -1   -1    0    0    0  501  0.00000000000E+00  0.00000000000E+00  0.13650686197E+03  0.13650686207E+03  0.50400001928E-02 0. -1.
        1   -1    0    0  501    0  0.00000000000E+00  0.00000000000E+00 -0.68782413007E+03  0.68782413009E+03  0.50400001928E-02 0.  1.
    10030    2    1    2    0    0  0.00000000000E+00  0.00000000000E+00 -0.55131726810E+03  0.82433099215E+03  0.61283835922E+03 0.  0.
        1    1    3    3  502    0 -0.27951791102E+02  0.28803437180E+03 -0.14015916106E+03  0.32154267589E+03  0.50400001928E-02 0. -1.
       -1    1    3    3    0  502  0.27951791102E+02 -0.28803437180E+03 -0.41115810704E+03  0.50278831627E+03  0.50400001928E-02 0.  1.
</event>
<event>
 5   0  0.9177281E-02  0.5470285E+03  0.7818609E-02  0.1002184E+00
       -1   -1    0    0    0  501  0.00000000000E+00  0.00000000000E+00  0.49197228334E+02  0.49197228592E+02  0.50400001928E-02 0. -1.
        1   -1    0    0  501    0  0.00000000000E+00  0.00000000000E+00 -0.15206149533E+04  0.15206149534E+04  0.50400001928E-02 0.  1.
    10030    2    1    2    0    0  0.00000000000E+00  0.00000000000E+00 -0.14714177250E+04  0.15698121819E+04  0.54702848656E+03 0.  0.
        1    1    3    3  502    0  0.10349322837E+03 -0.54346164841E+02 -0.14453203993E+04  0.14500397962E+04  0.50400001928E-02 0.  1.
       -1    1    3    3    0  502 -0.10349322837E+03  0.54346164841E+02 -0.26097325721E+02  0.11977238574E+03  0.50400001928E-02 0. -1.
</event>
<event>
 5   0  0.1532571E-01  0.4485106E+03  0.7818609E-02  0.1028167E+00
       -2   -1    0    0    0  501  0.00000000000E+00  0.00000000000E+00  0.30503102132E+02  0.30503102239E+02  0.25500000920E-02 0. -1.
        2   -1    0    0  501    0  0.00000000000E+00  0.00000000000E+00 -0.16486992382E+04  0.16486992382E+04  0.25500000920E-02 0.  1.
    10030    2    1    2    0    0  0.00000000000E+00  0.00000000000E+00 -0.16181961361E+04  0.16792023404E+04  0.44851060785E+03 0.  0.
        1    1    3    3  502    0  0.11293432530E+03 -0.75233300909E+02 -0.14065598011E+03  0.19544389518E+03  0.50400001928E-02 0. -1.
       -1    1    3    3    0  502 -0.11293432530E+03  0.75233300909E+02 -0.14775401559E+04  0.14837584453E+04  0.50400001928E-02 0.  1.
</event>
<event>
 5   0  0.6170500E-02  0.6058949E+03  0.7818609E-02  0.9893251E-01
       -4   -1    0    0    0  501  0.00000000000E+00  0.00000000000E+00  0.60290654868E+03  0.60290788629E+03  0.12699999809E+01 0.  1.
        4   -1    0    0  501    0  0.00000000000E+00  0.00000000000E+00 -0.15222034113E+03  0.15222563895E+03  0.12699999809E+01 0. -1.
    10030    2    1    2    0    0  0.00000000000E+00  0.00000000000E+00  0.45068620755E+03  0.75513352524E+03  0.60589486156E+03 0.  0.
        1    1    3    3  502    0  0.20516826048E+03 -0.10744477629E+03 -0.18050809925E+02  0.23230201640E+03  0.50400001928E-02 0. -1.
       -1    1    3    3    0  502 -0.20516826048E+03  0.10744477629E+03  0.46873701748E+03  0.52283150884E+03  0.50400001928E-02 0.  1.
</event>
<event>
 5   0  0.9177281E-02  0.5565903E+03  0.7818609E-02  0.9999799E-01
        1   -1    0    0  501    0  0.00000000000E+00  0.00000000000E+00  0.10050937101E+04  0.10050937101E+04  0.50400001928E-02 0.  1.
       -1   -1    0    0    0  501  0.00000000000E+00  0.00000000000E+00 -0.77055698797E+02  0.77055698962E+02  0.50400001928E-02 0. -1.
    10030    2    1    2    0    0  0.00000000000E+00  0.00000000000E+00  0.92803801133E+03  0.10821494091E+04  0.55659032793E+03 0.  0.
        1    1    3    3  502    0 -0.20152047705E+03 -0.40352200972E+02  0.82884086775E+03  0.85394144229E+03  0.50400001928E-02 0.  1.
       -1    1    3    3    0  502  0.20152047705E+03  0.40352200972E+02  0.99197143583E+02  0.22820796681E+03  0.50400001928E-02 0. -1.
</event>
<event>
 5   0  0.1513339E-01  0.4685137E+03  0.7818609E-02  0.1022341E+00
       -2   -1    0    0    0  501  0.00000000000E+00  0.00000000000E+00  0.73043661113E+02  0.73043661157E+02  0.25500000920E-02 0. -1.
        2   -1    0    0  501    0  0.00000000000E+00  0.00000000000E+00 -0.75128055734E+03  0.75128055734E+03  0.25500000920E-02 0.  1.
    10030    2    1    2    0    0  0.00000000000E+00  0.00000000000E+00 -0.67823689623E+03  0.82432421850E+03  0.46851374559E+03 0.  0.
        3    1    3    3  502    0 -0.23095379284E+03  0.26390183999E+02 -0.28811954199E+03  0.37020126542E+03  0.10100000352E+00 0. -1.
       -3    1    3    3    0  502  0.23095379284E+03 -0.26390183999E+02 -0.39011735424E+03  0.45412295308E+03  0.10100000352E+00 0.  1.
</event>
<event>
 5   0  0.9411028E-02  0.6003588E+03  0.7818609E-02  0.9904662E-01
       -1   -1    0    0    0  501  0.00000000000E+00  0.00000000000E+00  0.41281780173E+03  0.41281780176E+03  0.50400001928E-02 0. -1.
        1   -1    0    0  501    0  0.00000000000E+00  0.00000000000E+00 -0.21827465187E+03  0.21827465193E+03  0.50400001928E-02 0.  1.
    10030    2    1    2    0    0  0.00000000000E+00  0.00000000000E+00  0.19454314986E+03  0.63109245369E+03  0.60035876602E+03 0.  0.
        4    1    3    3  502    0  0.80478006123E+02  0.45850337837E+02  0.39741794198E+03  0.40807057779E+03  0.12699999809E+01 0. -1.
       -4    1    3    3    0  502 -0.80478006123E+02 -0.45850337837E+02 -0.20287479212E+03  0.22302187589E+03  0.12699999809E+01 0.  1.
</event>
<event>
 5   0  0.9411028E-02  0.6021046E+03  0.7818609E-02  0.9901049E-01
        1   -1    0    0  501    0  0.00000000000E+00  0.00000000000E+00  0.11739085806E+04  0.11739085806E+04  0.50400001928E-02 0. -1.
       -1   -1    0    0    0  501  0.00000000000E+00  0.00000000000E+00 -0.77205741568E+02  0.77205741732E+02  0.50400001928E-02 0.  1.
    10030    2    1    2    0    0  0.00000000000E+00  0.00000000000E+00  0.10967028390E+04  0.12511143223E+04  0.60210458429E+03 0.  0.
        4    1    3    3  502    0 -0.85519509428E+02  0.19057020546E+03  0.99883118118E+03  0.10204390874E+04  0.12699999809E+01 0. -1.
       -4    1    3    3    0  502  0.85519509428E+02 -0.19057020546E+03  0.97871657848E+02  0.23067523494E+03  0.12699999809E+01 0.  1.
</event>
<event>
 5   0  0.9411028E-02  0.6022891E+03  0.7818609E-02  0.9900668E-01
        1   -1    0    0  501    0  0.00000000000E+00  0.00000000000E+00  0.28061709810E+03  0.28061709815E+03  0.50400001928E-02 0. -1.
       -1   -1    0    0    0  501  0.00000000000E+00  0.00000000000E+00 -0.32317356360E+03  0.32317356363E+03  0.50400001928E-02 0.  1.
    10030    2    1    2    0    0  0.00000000000E+00  0.00000000000E+00 -0.42556465496E+02  0.60379066178E+03  0.60228905892E+03 0.  0.
        4    1    3    3  502    0 -0.18119164797E+03  0.10614215770E+03  0.19510671412E+03  0.28664405407E+03  0.12699999809E+01 0. -1.
       -4    1    3    3    0  502  0.18119164797E+03 -0.10614215770E+03 -0.23766317962E+03  0.31714660771E+03  0.12699999809E+01 0.  1.
</event>
<event>
 5   0  0.1502642E-01  0.6013618E+03  0.7818609E-02  0.9902585E-01
        2   -1    0    0  501    0  0.00000000000E+00  0.00000000000E+00  0.11822878088E+04  0.11822878088E+04  0.25500000920E-02 0. -1.
       -2   -1    0    0    0  501  0.00000000000E+00  0.00000000000E+00 -0.76469548568E+02  0.76469548611E+02  0.25500000920E-02 0.  1.
    10030    2    1    2    0    0  0.00000000000E+00  0.00000000000E+00  0.11058182603E+04  0.12587573575E+04  0.60136183799E+03 0.  0.
        2    1    3    3  502    0 -0.14717132677E+03  0.11833439355E+03  0.63147585527E+02  0.19912319223E+03  0.25500000920E-02 0.  1.
       -2    1    3    3    0  502  0.14717132677E+03 -0.11833439355E+03  0.10426706747E+04  0.10596341652E+04  0.25500000920E-02 0. -1.
</event>
<event>
 5   0  0.1483942E-01  0.5157012E+03  0.7818609E-02  0.1009760E+00
        2   -1    0    0  501    0  0.00000000000E+00  0.00000000000E+00  0.11544820488E+03  0.11544820491E+03  0.25500000920E-02 0.  1.
       -2   -1    0    0    0  501  0.00000000000E+00  0.00000000000E+00 -0.57590261227E+03  0.57590261227E+03  0.25500000920E-02 0. -1.
    10030    2    1    2    0    0  0.00000000000E+00  0.00000000000E+00 -0.46045440738E+03  0.69135081718E+03  0.51570116457E+03 0.  0.
        4    1    3    3  502    0 -0.25205034092E+03  0.52002594308E+02 -0.20895990190E+03  0.33151093145E+03  0.12699999809E+01 0.  1.
       -4    1    3    3    0  502  0.25205034092E+03 -0.52002594308E+02 -0.25149450549E+03  0.35983988573E+03  0.12699999809E+01 0. -1.
</event>
<event>
 5   0  0.1513339E-01  0.6025385E+03  0.7818609E-02  0.9900153E-01
       -2   -1    0    0    0  501  0.00000000000E+00  0.00000000000E+00  0.33349234650E+02  0.33349234748E+02  0.25500000920E-02 0. -1.
        2   -1    0    0  501    0  0.00000000000E+00  0.00000000000E+00 -0.27215963611E+04  0.27215963611E+04  0.25500000920E-02 0.  1.
    10030    2    1    2    0    0  0.00000000000E+00  0.00000000000E+00 -0.26882471265E+04  0.27549455958E+04  0.60253848277E+03 0.  0.
        3    1    3    3  502    0 -0.46178543670E+02 -0.84213387993E+02 -0.38522856349E+02  0.10348127017E+03  0.10100000352E+00 0. -1.
       -3    1    3    3    0  502  0.46178543670E+02  0.84213387993E+02 -0.26497242701E+04  0.26514643257E+04  0.10100000352E+00 0.  1.
</event>
<event>
 5   0  0.8860626E-02  0.6131263E+03  0.7818609E-02  0.9878541E-01
        1   -1    0    0  501    0  0.00000000000E+00  0.00000000000E+00  0.49241458092E+03  0.49241458095E+03  0.50400001928E-02 0. -1.
       -1   -1    0    0    0  501  0.00000000000E+00  0.00000000000E+00 -0.19085739177E+03  0.19085739184E+03  0.50400001928E-02 0.  1.
    10030    2    1    2    0    0  0.00000000000E+00  0.00000000000E+00  0.30155718915E+03  0.68327197279E+03  0.61312629243E+03 0.  0.
        3    1    3    3  502    0  0.17199516428E+03  0.97666019702E+02  0.41179717750E+03  0.45683466762E+03  0.10100000352E+00 0. -1.
       -3    1    3    3    0  502 -0.17199516428E+03 -0.97666019702E+02 -0.11023998835E+03  0.22643730517E+03  0.10100000352E+00 0.  1.
</event>
<event>
 5   0  0.1513339E-01  0.5991159E+03  0.7818609E-02  0.9907242E-01
        2   -1    0    0  501    0  0.00000000000E+00  0.00000000000E+00  0.15664868727E+04  0.15664868727E+04  0.25500000920E-02 0. -1.
       -2   -1    0    0    0  501  0.00000000000E+00  0.00000000000E+00 -0.57284202974E+02  0.57284203031E+02  0.25500000920E-02 0.  1.
    10030    2    1    2    0    0  0.00000000000E+00  0.00000000000E+00  0.15092026697E+04  0.16237710757E+04  0.59911585530E+03 0.  0.
        3    1    3    3  502    0  0.12361438409E+03  0.25739245076E+03  0.10000806820E+04  0.10400446002E+04  0.10100000352E+00 0. -1.
       -3    1    3    3    0  502 -0.12361438409E+03 -0.25739245076E+03  0.50912198770E+03  0.58372647552E+03  0.10100000352E+00 0.  1.
</event>
<event>
 5   0  0.6170500E-02  0.4059387E+03  0.7818609E-02  0.1041743E+00
       -3   -1    0    0    0  501  0.00000000000E+00  0.00000000000E+00  0.21921418870E+03  0.21921421197E+03  0.10100000352E+00 0.  1.
        3   -1    0    0  501    0  0.00000000000E+00  0.00000000000E+00 -0.18792824097E+03  0.18792826811E+03  0.10100000352E+00 0. -1.
    10030    2    1    2    0    0  0.00000000000E+00  0.00000000000E+00  0.31285947733E+02  0.40714248008E+03  0.40593865122E+03 0.  0.
        2    1    3    3  502    0  0.19690247750E+03  0.14786474961E+02 -0.31478495489E+02  0.19995029676E+03  0.25500000920E-02 0. -1.
       -2    1    3    3    0  502 -0.19690247750E+03 -0.14786474961E+02  0.62764443222E+02  0.20719218332E+03  0.25500000920E-02 0.  1.
</event>
<event>
 5   0  0.6170500E-02  0.5761783E+03  0.7818609E-02  0.9956099E-01
       -3   -1    0    0    0  501  0.00000000000E+00  0.00000000000E+00  0.14589882783E+03  0.14589886279E+03  0.10100000352E+00 0. -1.
        3   -1    0    0  501    0  0.00000000000E+00  0.00000000000E+00 -0.56885554007E+03  0.56885554903E+03  0.10100000352E+00 0.  1.
    10030    2    1    2    0    0  0.00000000000E+00  0.00000000000E+00 -0.42295671224E+03  0.71475441182E+03  0.57617834807E+03 0.  0.
        5    1    3    3  502    0  0.11436776320E+03  0.18416915514E+03 -0.44676670820E+03  0.49660934800E+03  0.46999998093E+01 0.  1.
       -5    1    3    3    0  502 -0.11436776320E+03 -0.18416915514E+03  0.23809995961E+02  0.21814506382E+03  0.46999998093E+01 0. -1.
</event>
<event>
 5   0  0.1502642E-01  0.6138214E+03  0.7818609E-02  0.9877139E-01
        2   -1    0    0  501    0  0.00000000000E+00  0.00000000000E+00  0.67010471393E+03  0.67010471393E+03  0.25500000920E-02 0. -1.
       -2   -1    0    0    0  501  0.00000000000E+00  0.00000000000E+00 -0.14056634500E+03  0.14056634502E+03  0.25500000920E-02 0.  1.
    10030    2    1    2    0    0  0.00000000000E+00  0.00000000000E+00  0.52953836893E+03  0.81067105896E+03  0.61382137602E+03 0.  0.
        2    1    3    3  502    0  0.18979055862E+03  0.24091087943E+03  0.28015188123E+03  0.41538365944E+03  0.25500000920E-02 0. -1.
       -2    1    3    3    0  502 -0.18979055862E+03 -0.24091087943E+03  0.24938648769E+03  0.39528739952E+03  0.25500000920E-02 0.  1.
</event>
<event>
 5   0  0.8860626E-02  0.5982289E+03  0.7818609E-02  0.9909087E-01
        1   -1    0    0  501    0  0.00000000000E+00  0.00000000000E+00  0.68862881752E+03  0.68862881754E+03  0.50400001928E-02 0. -1.
       -1   -1    0    0    0  501  0.00000000000E+00  0.00000000000E+00 -0.12992404516E+03  0.12992404526E+03  0.50400001928E-02 0.  1.
    10030    2    1    2    0    0  0.00000000000E+00  0.00000000000E+00  0.55870477236E+03  0.81855286280E+03  0.59822885799E+03 0.  0.
        3    1    3    3  502    0  0.23953879026E+03 -0.14907280988E+03  0.41527498541E+03  0.50205065321E+03  0.10100000352E+00 0. -1.
       -3    1    3    3    0  502 -0.23953879026E+03  0.14907280988E+03  0.14342978695E+03  0.31650220958E+03  0.10100000352E+00 0.  1.
</event>
<event>
 5   0  0.1488510E-01  0.5863371E+03  0.7818609E-02  0.9934165E-01
       -2   -1    0    0    0  501  0.00000000000E+00  0.00000000000E+00  0.11346978335E+03  0.11346978338E+03  0.25500000920E-02 0. -1.
        2   -1    0    0  501    0  0.00000000000E+00  0.00000000000E+00 -0.75745100121E+03  0.75745100121E+03  0.25500000920E-02 0.  1.
    10030    2    1    2    0    0  0.00000000000E+00  0.00000000000E+00 -0.64398121786E+03  0.87092078460E+03  0.58633710789E+03 0.  0.
        5    1    3    3  502    0 -0.57043814513E+02  0.22620452051E+03 -0.58352121847E+02  0.24051931730E+03  0.46999998093E+01 0. -1.
       -5    1    3    3    0  502  0.57043814513E+02 -0.22620452051E+03 -0.58562909601E+03  0.63040146729E+03  0.46999998093E+01 0.  1.
</event>
<event>
 5   0  0.9497860E-02  0.6109822E+03  0.7818609E-02  0.9882880E-01
       -1   -1    0    0    0  501  0.00000000000E+00  0.00000000000E+00  0.24771111088E+03  0.24771111093E+03  0.50400001928E-02 0. -1.
        1   -1    0    0  501    0  0.00000000000E+00  0.00000000000E+00 -0.37674857931E+03  0.37674857934E+03  0.50400001928E-02 0.  1.
    10030    2    1    2    0    0  0.00000000000E+00  0.00000000000E+00 -0.12903746842E+03  0.62445969028E+03  0.61098219002E+03 0.  0.
        5    1    3    3  502    0 -0.18527758695E+03 -0.17652214642E+03 -0.23497554169E+03  0.34745279909E+03  0.46999998093E+01 0.  1.
       -5    1    3    3    0  502  0.18527758695E+03  0.17652214642E+03  0.10593807327E+03  0.27700689119E+03  0.46999998093E+01 0. -1.
</event>
<event>
 5   0  0.1488510E-01  0.5915545E+03  0.7818609E-02  0.9923084E-01
       -2   -1    0    0    0  501  0.00000000000E+00  0.00000000000E+00  0.36990751581E+03  0.36990751582E+03  0.25500000920E-02 0.  1.
        2   -1    0    0  501    0  0.00000000000E+00  0.00000000000E+00 -0.23650286714E+03  0.23650286715E+03  0.25500000920E-02 0. -1.
    10030    2    1    2    0    0  0.00000000000E+00  0.00000000000E+00  0.13340464867E+03  0.60641038297E+03  0.59155452182E+03 0.  0.
        5    1    3    3  502    0 -0.77000454397E+02 -0.21615195721E+03 -0.12456128289E+03  0.26112897537E+03  0.46999998093E+01 0. -1.
       -5    1    3    3    0  502  0.77000454397E+02  0.21615195721E+03  0.25796593157E+03  0.34528140760E+03  0.46999998093E+01 0.  1.
</event>
<event>
 5   0  0.1532571E-01  0.5539324E+03  0.7818609E-02  0.1000588E+00
        2   -1    0    0  501    0  0.00000000000E+00  0.00000000000E+00  0.26950248263E+03  0.26950248264E+03  0.25500000920E-02 0.  1.
       -2   -1    0    0    0  501  0.00000000000E+00  0.00000000000E+00 -0.28463657826E+03  0.28463657827E+03  0.25500000920E-02 0. -1.
    10030    2    1    2    0    0  0.00000000000E+00  0.00000000000E+00 -0.15134095631E+02  0.55413906091E+03  0.55393235866E+03 0.  0.
        1    1    3    3  502    0  0.10560790156E+02 -0.25228292070E+03  0.10628254658E+03  0.27396018341E+03  0.50400001928E-02 0.  1.
       -1    1    3    3    0  502 -0.10560790156E+02  0.25228292070E+03 -0.12141664221E+03  0.28017887750E+03  0.50400001928E-02 0. -1.
</event>
<event>
 5   0  0.1483942E-01  0.5877028E+03  0.7818609E-02  0.9931252E-01
       -2   -1    0    0    0  501  0.00000000000E+00  0.00000000000E+00  0.23469585006E+03  0.23469585007E+03  0.25500000920E-02 0. -1.
        2   -1    0    0  501    0  0.00000000000E+00  0.00000000000E+00 -0.36791727902E+03  0.36791727903E+03  0.25500000920E-02 0.  1.
    10030    2    1    2    0    0  0.00000000000E+00  0.00000000000E+00 -0.13322142896E+03  0.60261312910E+03  0.58770284518E+03 0.  0.
        4    1    3    3  502    0 -0.17409069312E+03 -0.18352447577E+03 -0.21993100459E+03  0.33520152494E+03  0.12699999809E+01 0.  1.
       -4    1    3    3    0  502  0.17409069312E+03  0.18352447577E+03  0.86709575630E+02  0.26741160417E+03  0.12699999809E+01 0. -1.
</event>
<event>
 5   0  0.8860626E-02  0.5760949E+03  0.7818609E-02  0.9956281E-01
        1   -1    0    0  501    0  0.00000000000E+00  0.00000000000E+00  0.32622405291E+03  0.32622405295E+03  0.50400001928E-02 0.  1.
       -1   -1    0    0    0  501  0.00000000000E+00  0.00000000000E+00 -0.25433849129E+03  0.25433849134E+03  0.50400001928E-02 0. -1.
    10030    2    1    2    0    0  0.00000000000E+00  0.00000000000E+00  0.71885561621E+02  0.58056254430E+03  0.57609490006E+03 0.  0.
        3    1    3    3  502    0  0.17013904921E+02  0.16314412294E+03  0.27456131335E+03  0.31982714519E+03  0.10100000352E+00 0.  1.
       -3    1    3    3    0  502 -0.17013904921E+02 -0.16314412294E+03 -0.20267575173E+03  0.26073539911E+03  0.10100000352E+00 0. -1.
</event>
<event>
 5   0  0.9411028E-02  0.6402804E+03  0.7818609E-02  0.9825190E-01
       -1   -1    0    0    0  501  0.00000000000E+00  0.00000000000E+00  0.12237541494E+03  0.12237541504E+03  0.50400001928E-02 0. -1.
        1   -1    0    0  501    0  0.00000000000E+00  0.00000000000E+00 -0.83750271029E+03  0.83750271031E+03  0.50400001928E-02 0.  1.
    10030    2    1    2    0    0  0.00000000000E+00  0.00000000000E+00 -0.71512729536E+03  0.95987812535E+03  0.64028038152E+03 0.  0.
        4    1    3    3  502    0 -0.21018084791E+03 -0.81500059542E+02 -0.69833621593E+03  0.73382104897E+03  0.12699999809E+01 0.  1.
       -4    1    3    3    0  502  0.21018084791E+03  0.81500059542E+02 -0.16791079422E+02  0.22605707638E+03  0.12699999809E+01 0. -1.
</event>
<event>
 5   0  0.1532571E-01  0.6895008E+03  0.7818609E-02  0.9735358E-01
        2   -1    0    0  501    0  0.00000000000E+00  0.00000000000E+00  0.98138337114E+03  0.98138337114E+03  0.25500000920E-02 0. -1.
       -2   -1    0    0    0  501  0.00000000000E+00  0.00000000000E+00 -0.12110743584E+03  0.12110743587E+03  0.25500000920E-02 0.  1.
    10030    2    1    2    0    0  0.00000000000E+00  0.00000000000E+00  0.86027593530E+03  0.11024908070E+04  0.68950075757E+03 0.  0.
        1    1    3    3  502    0  0.20593570370E+03 -0.87057368735E-01 -0.11951276017E+02  0.20628222090E+03  0.50400001928E-02 0.  1.
       -1    1    3    3    0  502 -0.20593570370E+03  0.87057368735E-01  0.87222721132E+03  0.89620858611E+03  0.50400001928E-02 0. -1.
</event>
<event>
 5   0  0.9411028E-02  0.5916651E+03  0.7818609E-02  0.9922851E-01
       -1   -1    0    0    0  501  0.00000000000E+00  0.00000000000E+00  0.13434241690E+03  0.13434241699E+03  0.50400001928E-02 0. -1.
        1   -1    0    0  501    0  0.00000000000E+00  0.00000000000E+00 -0.65144653578E+03  0.65144653580E+03  0.50400001928E-02 0.  1.
    10030    2    1    2    0    0  0.00000000000E+00  0.00000000000E+00 -0.51710411888E+03  0.78578895279E+03  0.59166511522E+03 0.  0.
        4    1    3    3  502    0 -0.15773070460E+03  0.19131917808E+03 -0.44265737204E+02  0.25187908104E+03  0.12699999809E+01 0. -1.
       -4    1    3    3    0  502  0.15773070460E+03 -0.19131917808E+03 -0.47283838168E+03  0.53390987176E+03  0.12699999809E+01 0.  1.
</event>
<event>
 5   0  0.1483942E-01  0.5214984E+03  0.7818609E-02  0.1008315E+00
        2   -1    0    0  501    0  0.00000000000E+00  0.00000000000E+00  0.50686857018E+03  0.50686857019E+03  0.25500000920E-02 0.  1.
       -2   -1    0    0    0  501  0.00000000000E+00  0.00000000000E+00 -0.13413762660E+03  0.13413762662E+03  0.25500000920E-02 0. -1.
    10030    2    1    2    0    0  0.00000000000E+00  0.00000000000E+00  0.37273094358E+03  0.64100619681E+03  0.52149840656E+03 0.  0.
        4    1    3    3  502    0  0.23121510438E+03  0.85079162251E+02  0.81420301975E+02  0.25947980040E+03  0.12699999809E+01 0. -1.
       -4    1    3    3    0  502 -0.23121510438E+03 -0.85079162251E+02  0.29131064161E+03  0.38152639641E+03  0.12699999809E+01 0.  1.
</event>
<event>
 5   0  0.1513339E-01  0.5910565E+03  0.7818609E-02  0.9924137E-01
       -2   -1    0    0    0  501  0.00000000000E+00  0.00000000000E+00  0.41686515244E+03  0.41686515245E+03  0.25500000920E-02 0.  1.
        2   -1    0    0  501    0  0.00000000000E+00  0.00000000000E+00 -0.20950890183E+03  0.20950890185E+03  0.25500000920E-02 0. -1.
    10030    2    1    2    0    0  0.00000000000E+00  0.00000000000E+00  0.20735625060E+03  0.62637405430E+03  0.59105654656E+03 0.  0.
        3    1    3    3  502    0 -0.89275789287E+02 -0.76260986339E+02 -0.18373007377E+03  0.21804278204E+03  0.10100000352E+00 0. -1.
       -3    1    3    3    0  502  0.89275789287E+02  0.76260986339E+02  0.39108632437E+03  0.40833127226E+03  0.10100000352E+00 0.  1.
</event>
<event>
 5   0  0.1488510E-01  0.5925535E+03  0.7818609E-02  0.9920977E-01
        2   -1    0    0  501    0  0.00000000000E+00  0.00000000000E+00  0.13955429426E+04  0.13955429426E+04  0.25500000920E-02 0.  1.
       -2   -1    0    0    0  501  0.00000000000E+00  0.00000000000E+00 -0.62900188357E+02  0.62900188409E+02  0.25500000920E-02 0. -1.
    10030    2    1    2    0    0  0.00000000000E+00  0.00000000000E+00  0.13326427542E+04  0.14584431310E+04  0.59255350471E+03 0.  0.
        5    1    3    3  502    0 -0.19580372437E+02  0.29344199449E+03  0.75390401752E+03  0.80924962326E+03  0.46999998093E+01 0. -1.
       -5    1    3    3    0  502  0.19580372437E+02 -0.29344199449E+03  0.57873873667E+03  0.64919350770E+03  0.46999998093E+01 0.  1.
</event>
<event>
 5   0  0.9420349E-02  0.5875207E+03  0.7818609E-02  0.9931640E-01
       -1   -1    0    0    0  501  0.00000000000E+00  0.00000000000E+00  0.48413126487E+03  0.48413126490E+03  0.50400001928E-02 0. -1.
        1   -1    0    0  501    0  0.00000000000E+00  0.00000000000E+00 -0.17824740241E+03  0.17824740248E+03  0.50400001928E-02 0.  1.
    10030    2    1    2    0    0  0.00000000000E+00  0.00000000000E+00  0.30588386246E+03  0.66237866738E+03  0.58752069043E+03 0.  0.
        2    1    3    3  502    0  0.71240336424E+02  0.26513785907E+03  0.35118495030E+02  0.27677893443E+03  0.25500000920E-02 0.  1.
       -2    1    3    3    0  502 -0.71240336424E+02 -0.26513785907E+03  0.27076536743E+03  0.38559973295E+03  0.25500000920E-02 0. -1.
</event>
<event>
 5   0  0.9420349E-02  0.5437797E+03  0.7818609E-02  0.1002944E+00
       -1   -1    0    0    0  501  0.00000000000E+00  0.00000000000E+00  0.55930998477E+02  0.55930998704E+02  0.50400001928E-02 0. -1.
        1   -1    0    0  501    0  0.00000000000E+00  0.00000000000E+00 -0.13217014977E+04  0.13217014977E+04  0.50400001928E-02 0.  1.
    10030    2    1    2    0    0  0.00000000000E+00  0.00000000000E+00 -0.12657704992E+04  0.13776324964E+04  0.54377967825E+03 0.  0.
        2    1    3    3  502    0  0.21478652206E+03 -0.15384211617E+03 -0.79556748503E+03  0.83828889413E+03  0.25500000920E-02 0.  1.
       -2    1    3    3    0  502 -0.21478652206E+03  0.15384211617E+03 -0.47020301420E+03  0.53934360230E+03  0.25500000920E-02 0. -1.
</event>
<event>
 5   0  0.6170500E-02  0.6227606E+03  0.7818609E-02  0.9859279E-01
       -3   -1    0    0    0  501  0.00000000000E+00  0.00000000000E+00  0.22940512484E+03  0.22940514708E+03  0.10100000352E+00 0. -1.
        3   -1    0    0  501    0  0.00000000000E+00  0.00000000000E+00 -0.42264831144E+03  0.42264832351E+03  0.10100000352E+00 0.  1.
    10030    2    1    2    0    0  0.00000000000E+00  0.00000000000E+00 -0.19324318659E+03  0.65205347058E+03  0.62276062764E+03 0.  0.
        2    1    3    3  502    0 -0.19352099327E+03  0.22424347847E+03  0.39277025651E+01  0.29622785036E+03  0.25500000920E-02 0. -1.
       -2    1    3    3    0  502  0.19352099327E+03 -0.22424347847E+03 -0.19717088916E+03  0.35582562023E+03  0.25500000920E-02 0.  1.
</event>
<event>
 5   0  0.9177281E-02  0.6071756E+03  0.7818609E-02  0.9890630E-01
        1   -1    0    0  501    0  0.00000000000E+00  0.00000000000E+00  0.38513510502E+03  0.38513510505E+03  0.50400001928E-02 0.  1.
       -1   -1    0    0    0  501  0.00000000000E+00  0.00000000000E+00 -0.23930706356E+03  0.23930706362E+03  0.50400001928E-02 0. -1.
    10030    2    1    2    0    0  0.00000000000E+00  0.00000000000E+00  0.14582804146E+03  0.62444216867E+03  0.60717559596E+03 0.  0.
        1    1    3    3  502    0  0.27440650080E+03  0.68182487759E+02  0.18659136502E+03  0.33876852989E+03  0.50400001928E-02 0.  1.
       -1    1    3    3    0  502 -0.27440650080E+03 -0.68182487759E+02 -0.40763323564E+02  0.28567363878E+03  0.50400001928E-02 0. -1.
</event>
<event>
 5   0  0.1488510E-01  0.5888132E+03  0.7818609E-02  0.9928891E-01
       -2   -1    0    0    0  501  0.00000000000E+00  0.00000000000E+00  0.32611239967E+03  0.32611239968E+03  0.25500000920E-02 0.  1.
        2   -1    0    0  501    0  0.00000000000E+00  0.00000000000E+00 -0.26578338314E+03  0.26578338316E+03  0.25500000920E-02 0. -1.
    10030    2    1    2    0    0  0.00000000000E+00  0.00000000000E+00  0.60329016529E+02  0.59189578284E+03  0.58881323653E+03 0.  0.
        5    1    3    3  502    0  0.21388224313E+03  0.91489376329E+02  0.21148967406E+03  0.31442947085E+03  0.46999998093E+01 0.  1.
       -5    1    3    3    0  502 -0.21388224313E+03 -0.91489376329E+02 -0.15116065753E+03  0.27746631199E+03  0.46999998093E+01 0. -1.
</event>
<event>
 5   0  0.1483942E-01  0.5879904E+03  0.7818609E-02  0.9930640E-01
       -2   -1    0    0    0  501  0.00000000000E+00  0.00000000000E+00  0.87659646672E+02  0.87659646709E+02  0.25500000920E-02 0. -1.
        2   -1    0    0  501    0  0.00000000000E+00  0.00000000000E+00 -0.98600882861E+03  0.98600882861E+03  0.25500000920E-02 0.  1.
    10030    2    1    2    0    0  0.00000000000E+00  0.00000000000E+00 -0.89834918193E+03  0.10736684753E+04  0.58799042697E+03 0.  0.
        4    1    3    3  502    0 -0.16623194126E+03  0.22794051925E+03 -0.60021037916E+03  0.66320739649E+03  0.12699999809E+01 0.  1.
       -4    1    3    3    0  502  0.16623194126E+03 -0.22794051925E+03 -0.29813880278E+03  0.41046107883E+03  0.12699999809E+01 0. -1.
</event>
<event>
 5   0  0.1532571E-01  0.5962750E+03  0.7818609E-02  0.9913165E-01
        2   -1    0    0  501    0  0.00000000000E+00  0.00000000000E+00  0.30905783427E+03  0.30905783428E+03  0.25500000920E-02 0.  1.
       -2   -1    0    0    0  501  0.00000000000E+00  0.00000000000E+00 -0.28760300855E+03  0.28760300856E+03  0.25500000920E-02 0. -1.
    10030    2    1    2    0    0  0.00000000000E+00  0.00000000000E+00  0.21454825721E+02  0.59666084284E+03  0.59627498004E+03 0.  0.
        1    1    3    3  502    0 -0.97348132064E+02 -0.27974887096E+03  0.44659138603E+02  0.29955054382E+03  0.50400001928E-02 0.  1.
       -1    1    3    3    0  502  0.97348132064E+02  0.27974887096E+03 -0.23204312882E+02  0.29711029901E+03  0.50400001928E-02 0. -1.
</event>
<event>
 5   0  0.1532571E-01  0.4466995E+03  0.7818609E-02  0.1028711E+00
        2   -1    0    0  501    0  0.00000000000E+00  0.00000000000E+00  0.45007184277E+03  0.45007184278E+03  0.25500000920E-02 0. -1.
       -2   -1    0    0    0  501  0.00000000000E+00  0.00000000000E+00 -0.11083812804E+03  0.11083812807E+03  0.25500000920E-02 0.  1.
    10030    2    1    2    0    0  0.00000000000E+00  0.00000000000E+00  0.33923371473E+03  0.56090997085E+03  0.44669954353E+03 0.  0.
        1    1    3    3  502    0  0.15131378733E+03 -0.16424622404E+03  0.17404499454E+03  0.28313308620E+03  0.50400001928E-02 0. -1.
       -1    1    3    3    0  502 -0.15131378733E+03  0.16424622404E+03  0.16518872018E+03  0.27777688466E+03  0.50400001928E-02 0.  1.
</event>
<event>
 5   0  0.9420349E-02  0.5863136E+03  0.7818609E-02  0.9934215E-01
       -1   -1    0    0    0  501  0.00000000000E+00  0.00000000000E+00  0.33763845960E+03  0.33763845964E+03  0.50400001928E-02 0.  1.
        1   -1    0    0  501    0  0.00000000000E+00  0.00000000000E+00 -0.25453529796E+03  0.25453529801E+03  0.50400001928E-02 0. -1.
    10030    2    1    2    0    0  0.00000000000E+00  0.00000000000E+00  0.83103161637E+02  0.59217375765E+03  0.58631358826E+03 0.  0.
        2    1    3    3  502    0 -0.11875457748E+03 -0.23180288035E+03 -0.94350663715E+02  0.27701493238E+03  0.25500000920E-02 0. -1.
       -2    1    3    3    0  502  0.11875457748E+03  0.23180288035E+03  0.17745382535E+03  0.31515882527E+03  0.25500000920E-02 0.  1.
</event>
<event>
 5   0  0.9497860E-02  0.5963968E+03  0.7818609E-02  0.9912910E-01
        1   -1    0    0  501    0  0.00000000000E+00  0.00000000000E+00  0.58721806440E+03  0.58721806442E+03  0.50400001928E-02 0.  1.
       -1   -1    0    0    0  501  0.00000000000E+00  0.00000000000E+00 -0.15142977346E+03  0.15142977354E+03  0.50400001928E-02 0. -1.
    10030    2    1    2    0    0  0.00000000000E+00  0.00000000000E+00  0.43578829094E+03  0.73864783796E+03  0.59639684272E+03 0.  0.
        5    1    3    3  502    0 -0.23233152359E+03 -0.55998239418E+02 -0.29181424565E+01  0.23904883439E+03  0.46999998093E+01 0. -1.
       -5    1    3    3    0  502  0.23233152359E+03  0.55998239418E+02  0.43870643339E+03  0.49959900357E+03  0.46999998093E+01 0.  1.
</event>
<event>
 5   0  0.1488510E-01  0.6110989E+03  0.7818609E-02  0.9882643E-01
        2   -1    0    0  501    0  0.00000000000E+00  0.00000000000E+00  0.32616583555E+03  0.32616583556E+03  0.25500000920E-02 0. -1.
       -2   -1    0    0    0  501  0.00000000000E+00  0.00000000000E+00 -0.28623618365E+03  0.28623618367E+03  0.25500000920E-02 0.  1.
    10030    2    1    2    0    0  0.00000000000E+00  0.00000000000E+00  0.39929651893E+02  0.61240201922E+03  0.61109889220E+03 0.  0.
        5    1    3    3  502    0 -0.23871429433E+03  0.14472420184E+03  0.14436157615E+03  0.31431188903E+03  0.46999998093E+01 0. -1.
       -5    1    3    3    0  502  0.23871429433E+03 -0.14472420184E+03 -0.10443192426E+03  0.29809013020E+03  0.46999998093E+01 0.  1.
</event>
<event>
 5   0  0.9420349E-02  0.6105092E+03  0.7818609E-02  0.9883840E-01
       -1   -1    0    0    0  501  0.00000000000E+00  0.00000000000E+00  0.69686763066E+02  0.69686763249E+02  0.50400001928E-02 0.  1.
        1   -1    0    0  501    0  0.00000000000E+00  0.00000000000E+00 -0.13371314572E+04  0.13371314572E+04  0.50400001928E-02 0. -1.
    10030    2    1    2    0    0  0.00000000000E+00  0.00000000000E+00 -0.12674446941E+04  0.14068182205E+04  0.61050917497E+03 0.  0.
        2    1    3    3  502    0  0.20614216791E+03 -0.15598222563E+03 -0.25962907674E+03  0.36637727222E+03  0.25500000920E-02 0.  1.
       -2    1    3    3    0  502 -0.20614216791E+03  0.15598222563E+03 -0.10078156174E+04  0.10404409482E+04  0.25500000920E-02 0. -1.
</event>
<event>
 5   0  0.1502642E-01  0.6013685E+03  0.7818609E-02  0.9902571E-01
       -2   -1    0    0    0  501  0.00000000000E+00  0.00000000000E+00  0.13386587356E+03  0.13386587358E+03  0.25500000920E-02 0. -1.
        2   -1    0    0  501    0  0.00000000000E+00  0.00000000000E+00 -0.67538503299E+03  0.67538503300E+03  0.25500000920E-02 0.  1.
    10030    2    1    2    0    0  0.00000000000E+00  0.00000000000E+00 -0.54151915944E+03  0.80925090658E+03  0.60136846423E+03 0.  0.
        2    1    3    3  502    0 -0.21560316561E+03 -0.86696197704E+02 -0.52753484855E+03  0.57644945325E+03  0.25500000920E-02 0.  1.
       -2    1    3    3    0  502  0.21560316561E+03  0.86696197704E+02 -0.13984310890E+02  0.23280145333E+03  0.25500000920E-02 0. -1.
</event>
<event>
 5   0  0.9177281E-02  0.5914101E+03  0.7818609E-02  0.9923389E-01
       -1   -1    0    0    0  501  0.00000000000E+00  0.00000000000E+00  0.14403902333E+03  0.14403902342E+03  0.50400001928E-02 0. -1.
        1   -1    0    0  501    0  0.00000000000E+00  0.00000000000E+00 -0.60706788784E+03  0.60706788786E+03  0.50400001928E-02 0.  1.
    10030    2    1    2    0    0  0.00000000000E+00  0.00000000000E+00 -0.46302886451E+03  0.75110691128E+03  0.59141006316E+03 0.  0.
        1    1    3    3  502    0  0.17430801196E+03 -0.20151404082E+03 -0.39440637992E+03  0.47597015056E+03  0.50400001928E-02 0.  1.
       -1    1    3    3    0  502 -0.17430801196E+03  0.20151404082E+03 -0.68622484586E+02  0.27513676072E+03  0.50400001928E-02 0. -1.
</event>
<event>
 5   0  0.1513339E-01  0.3728335E+03  0.7818609E-02  0.1053615E+00
        2   -1    0    0  501    0  0.00000000000E+00  0.00000000000E+00  0.26373054711E+03  0.26373054712E+03  0.25500000920E-02 0. -1.
       -2   -1    0    0    0  501  0.00000000000E+00  0.00000000000E+00 -0.13176781626E+03  0.13176781628E+03  0.25500000920E-02 0.  1.
    10030    2    1    2    0    0  0.00000000000E+00  0.00000000000E+00  0.13196273085E+03  0.39549836340E+03  0.37283346567E+03 0.  0.
        3    1    3    3  502    0  0.26172379154E+02  0.11555971871E+03  0.21864737459E+03  0.24868801063E+03  0.10100000352E+00 0. -1.
       -3    1    3    3    0  502 -0.26172379154E+02 -0.11555971871E+03 -0.86684643738E+02  0.14681035277E+03  0.10100000352E+00 0.  1.
</event>
<event>
 5   0  0.1488510E-01  0.6082599E+03  0.7818609E-02  0.9888416E-01
       -2   -1    0    0    0  501  0.00000000000E+00  0.00000000000E+00  0.63333421200E+02  0.63333421252E+02  0.25500000920E-02 0. -1.
        2   -1    0    0  501    0  0.00000000000E+00  0.00000000000E+00 -0.14604457584E+04  0.14604457584E+04  0.25500000920E-02 0.  1.
    10030    2    1    2    0    0  0.00000000000E+00  0.00000000000E+00 -0.13971123372E+04  0.15237791797E+04  0.60825989971E+03 0.  0.
        5    1    3    3  502    0 -0.17302462697E+02 -0.14584016200E+03 -0.31490091871E+02  0.15027456190E+03  0.46999998093E+01 0. -1.
       -5    1    3    3    0  502  0.17302462697E+02  0.14584016200E+03 -0.13656222454E+04  0.13735046178E+04  0.46999998093E+01 0.  1.
</event>
<event>
 5   0  0.9177281E-02  0.6057087E+03  0.7818609E-02  0.9893633E-01
        1   -1    0    0  501    0  0.00000000000E+00  0.00000000000E+00  0.30362558777E+03  0.30362558781E+03  0.50400001928E-02 0. -1.
       -1   -1    0    0    0  501  0.00000000000E+00  0.00000000000E+00 -0.30208506003E+03  0.30208506007E+03  0.50400001928E-02 0.  1.
    10030    2    1    2    0    0  0.00000000000E+00  0.00000000000E+00  0.15405277422E+01  0.60571064788E+03  0.60570868883E+03 0.  0.
        1    1    3    3  502    0 -0.25652899039E+03  0.60091179540E+02 -0.14857104121E+03  0.30247549832E+03  0.50400001928E-02 0.  1.
       -1    1    3    3    0  502  0.25652899039E+03 -0.60091179540E+02  0.15011156895E+03  0.30323514956E+03  0.50400001928E-02 0. -1.
</event>
<event>
 5   0  0.9411028E-02  0.6098482E+03  0.7818609E-02  0.9885182E-01
        1   -1    0    0  501    0  0.00000000000E+00  0.00000000000E+00  0.54620851598E+03  0.54620851600E+03  0.50400001928E-02 0.  1.
       -1   -1    0    0    0  501  0.00000000000E+00  0.00000000000E+00 -0.17022566130E+03  0.17022566137E+03  0.50400001928E-02 0. -1.
    10030    2    1    2    0    0  0.00000000000E+00  0.00000000000E+00  0.37598285468E+03  0.71643417737E+03  0.60984819709E+03 0.  0.
        4    1    3    3  502    0  0.23792130906E+03  0.15204756146E+03  0.52754087199E+02  0.28724487266E+03  0.12699999809E+01 0. -1.
       -4    1    3    3    0  502 -0.23792130906E+03 -0.15204756146E+03  0.32322876748E+03  0.42918930471E+03  0.12699999809E+01 0.  1.
</event>
<event>
 5   0  0.9497860E-02  0.5988498E+03  0.7818609E-02  0.9907795E-01
       -1   -1    0    0    0  501  0.00000000000E+00  0.00000000000E+00  0.15703713545E+04  0.15703713545E+04  0.50400001928E-02 0. -1.
        1   -1    0    0  501    0  0.00000000000E+00  0.00000000000E+00 -0.57091761512E+02  0.57091761734E+02  0.50400001928E-02 0.  1.
    10030    2    1    2    0    0  0.00000000000E+00  0.00000000000E+00  0.15132795930E+04  0.16274631162E+04  0.59884978765E+03 0.  0.
        5    1    3    3  502    0  0.10562570157E+03  0.27466665332E+03  0.60693171227E+03  0.67452705849E+03  0.46999998093E+01 0. -1.
       -5    1    3    3    0  502 -0.10562570157E+03 -0.27466665332E+03  0.90634788069E+03  0.95293605772E+03  0.46999998093E+01 0.  1.
</event>
<event>
 5   0  0.9497860E-02  0.5982078E+03  0.7818609E-02  0.9909131E-01
        1   -1    0    0  501    0  0.00000000000E+00  0.00000000000E+00  0.69043695842E+03  0.69043695844E+03  0.50400001928E-02 0. -1.
       -1   -1    0    0    0  501  0.00000000000E+00  0.00000000000E+00 -0.12957469380E+03  0.12957469390E+03  0.50400001928E-02 0.  1.
    10030    2    1    2    0    0  0.00000000000E+00  0.00000000000E+00  0.56086226462E+03  0.82001165233E+03  0.59820784857E+03 0.  0.
        5    1    3    3  502    0  0.13281210688E+02 -0.23574236793E+03  0.53203643796E+03  0.58209596795E+03  0.46999998093E+01 0. -1.
       -5    1    3    3    0  502 -0.13281210688E+02  0.23574236793E+03  0.28825826661E+02  0.23791568438E+03  0.46999998093E+01 0.  1.
</event>
<event>
 5   0  0.1488510E-01  0.6058867E+03  0.7818609E-02  0.9893268E-01
       -2   -1    0    0    0  501  0.00000000000E+00  0.00000000000E+00  0.59201484352E+02  0.59201484407E+02  0.25500000920E-02 0.  1.
        2   -1    0    0  501    0  0.00000000000E+00  0.00000000000E+00 -0.15502087802E+04  0.15502087802E+04  0.25500000920E-02 0. -1.
    10030    2    1    2    0    0  0.00000000000E+00  0.00000000000E+00 -0.14910072958E+04  0.16094102646E+04  0.60588665900E+03 0.  0.
        5    1    3    3  502    0  0.13229286989E+03 -0.26946235716E+02 -0.25237350266E+02  0.13742822450E+03  0.46999998093E+01 0.  1.
       -5    1    3    3    0  502 -0.13229286989E+03  0.26946235716E+02 -0.14657699456E+04  0.14719820401E+04  0.46999998093E+01 0. -1.
</event>
<event>
 5   0  0.1488510E-01  0.6215527E+03  0.7818609E-02  0.9861673E-01
        2   -1    0    0  501    0  0.00000000000E+00  0.00000000000E+00  0.89196542474E+03  0.89196542474E+03  0.25500000920E-02 0.  1.
       -2   -1    0    0    0  501  0.00000000000E+00  0.00000000000E+00 -0.10827991937E+03  0.10827991940E+03  0.25500000920E-02 0. -1.
    10030    2    1    2    0    0  0.00000000000E+00  0.00000000000E+00  0.78368550536E+03  0.10002453441E+04  0.62155271470E+03 0.  0.
        5    1    3    3  502    0 -0.45249075717E+02  0.30255591359E+03  0.30410742620E+03  0.43138263336E+03  0.46999998093E+01 0. -1.
       -5    1    3    3    0  502  0.45249075717E+02 -0.30255591359E+03  0.47957807917E+03  0.56886271078E+03  0.46999998093E+01 0.  1.
</event>
<event>
 5   0  0.1513339E-01  0.5974408E+03  0.7818609E-02  0.9910730E-01
        2   -1    0    0  501    0  0.00000000000E+00  0.00000000000E+00  0.14923109808E+04  0.14923109808E+04  0.25500000920E-02 0.  1.
       -2   -1    0    0    0  501  0.00000000000E+00  0.00000000000E+00 -0.59795773758E+02  0.59795773813E+02  0.25500000920E-02 0. -1.
    10030    2    1    2    0    0  0.00000000000E+00  0.00000000000E+00  0.14325152070E+04  0.15521067546E+04  0.59744084168E+03 0.  0.
        3    1    3    3  502    0  0.66697528166E+02  0.59246802892E+01 -0.40047605514E+02  0.78022323782E+02  0.10100000352E+00 0. -1.
       -3    1    3    3    0  502 -0.66697528166E+02 -0.59246802892E+01  0.14725628125E+04  0.14740844308E+04  0.10100000352E+00 0.  1.
</event>
<event>
 5   0  0.1488510E-01  0.5954650E+03  0.7818609E-02  0.9914860E-01
        2   -1    0    0  501    0  0.00000000000E+00  0.00000000000E+00  0.12790611164E+04  0.12790611164E+04  0.25500000920E-02 0.  1.
       -2   -1    0    0    0  501  0.00000000000E+00  0.00000000000E+00 -0.69304453099E+02  0.69304453146E+02  0.25500000920E-02 0. -1.
    10030    2    1    2    0    0  0.00000000000E+00  0.00000000000E+00  0.12097566633E+04  0.13483655695E+04  0.59546496516E+03 0.  0.
        5    1    3    3  502    0  0.14559768179E+03 -0.19614126286E+02  0.11911726216E+04  0.12002073585E+04  0.46999998093E+01 0.  1.
       -5    1    3    3    0  502 -0.14559768179E+03  0.19614126286E+02  0.18584041656E+02  0.14815821103E+03  0.46999998093E+01 0. -1.
</event>
<event>
 5   0  0.9420349E-02  0.5906943E+03  0.7818609E-02  0.9924903E-01
        1   -1    0    0  501    0  0.00000000000E+00  0.00000000000E+00  0.11383940153E+04  0.11383940153E+04  0.50400001928E-02 0. -1.
       -1   -1    0    0    0  501  0.00000000000E+00  0.00000000000E+00 -0.76625448198E+02  0.76625448364E+02  0.50400001928E-02 0.  1.
    10030    2    1    2    0    0  0.00000000000E+00  0.00000000000E+00  0.10617685671E+04  0.12150194637E+04  0.59069434315E+03 0.  0.
        2    1    3    3  502    0  0.21818724942E+03 -0.14075702014E+03  0.82040637193E+03  0.86051428206E+03  0.25500000920E-02 0. -1.
       -2    1    3    3    0  502 -0.21818724942E+03  0.14075702014E+03  0.24136219519E+03  0.35450518163E+03  0.25500000920E-02 0.  1.
</event>
<event>
 5   0  0.1513339E-01  0.7144197E+03  0.7818609E-02  0.9692885E-01
        2   -1    0    0  501    0  0.00000000000E+00  0.00000000000E+00  0.12358984856E+03  0.12358984859E+03  0.25500000920E-02 0. -1.
       -2   -1    0    0    0  501  0.00000000000E+00  0.00000000000E+00 -0.10324382298E+04  0.10324382298E+04  0.25500000920E-02 0.  1.
    10030    2    1    2    0    0  0.00000000000E+00  0.00000000000E+00 -0.90884838123E+03  0.11560280784E+04  0.71441972114E+03 0.  0.
        3    1    3    3  502    0  0.92333327639E+02 -0.54535436317E+02  0.96928858569E+02  0.14455023705E+03  0.10100000352E+00 0. -1.
       -3    1    3    3    0  502 -0.92333327639E+02  0.54535436317E+02 -0.10057772398E+04  0.10114778413E+04  0.10100000352E+00 0.  1.
</event>
<event>
 5   0  0.1502642E-01  0.6172973E+03  0.7818609E-02  0.9870155E-01
       -2   -1    0    0    0  501  0.00000000000E+00  0.00000000000E+00  0.19054659965E+03  0.19054659967E+03  0.25500000920E-02 0.  1.
        2   -1    0    0  501    0  0.00000000000E+00  0.00000000000E+00 -0.49995118948E+03  0.49995118949E+03  0.25500000920E-02 0. -1.
    10030    2    1    2    0    0  0.00000000000E+00  0.00000000000E+00 -0.30940458983E+03  0.69049778916E+03  0.61729733243E+03 0.  0.
        2    1    3    3  502    0  0.18859198754E+03 -0.70657206668E+02 -0.41632768993E+03  0.46248040394E+03  0.25500000920E-02 0. -1.
       -2    1    3    3    0  502 -0.18859198754E+03  0.70657206668E+02  0.10692310010E+03  0.22801738522E+03  0.25500000920E-02 0.  1.
</event>
<event>
 5   0  0.1513339E-01  0.4775407E+03  0.7818609E-02  0.1019813E+00
        2   -1    0    0  501    0  0.00000000000E+00  0.00000000000E+00  0.32591150423E+03  0.32591150424E+03  0.25500000920E-02 0. -1.
       -2   -1    0    0    0  501  0.00000000000E+00  0.00000000000E+00 -0.17492868031E+03  0.17492868033E+03  0.25500000920E-02 0.  1.
    10030    2    1    2    0    0  0.00000000000E+00  0.00000000000E+00  0.15098282392E+03  0.50084018457E+03  0.47754065519E+03 0.  0.
        3    1    3    3  502    0  0.20400221772E+03 -0.89663243973E+02  0.16543618539E+03  0.27753476141E+03  0.10100000352E+00 0. -1.
       -3    1    3    3    0  502 -0.20400221772E+03  0.89663243973E+02 -0.14453361474E+02  0.22330542316E+03  0.10100000352E+00 0.  1.
</event>
<event>
 5   0  0.6170500E-02  0.6012809E+03  0.7818609E-02  0.9902752E-01
        4   -1    0    0  501    0  0.00000000000E+00  0.00000000000E+00  0.11542283948E+03  0.11542982619E+03  0.12699999809E+01 0. -1.
       -4   -1    0    0    0  501  0.00000000000E+00  0.00000000000E+00 -0.78304333491E+03  0.78304436480E+03  0.12699999809E+01 0.  1.
    10030    2    1    2    0    0  0.00000000000E+00  0.00000000000E+00 -0.66762049542E+03  0.89847419099E+03  0.60128092100E+03 0.  0.
        4    1    3    3  502    0 -0.26712527712E+03  0.88902177210E+02 -0.17621245222E+03  0.33213243143E+03  0.12699999809E+01 0. -1.
       -4    1    3    3    0  502  0.26712527712E+03 -0.88902177210E+02 -0.49140804321E+03  0.56634175956E+03  0.12699999809E+01 0.  1.
</event>
<event>
 5   0  0.1502642E-01  0.5976087E+03  0.7818609E-02  0.9910380E-01
        2   -1    0    0  501    0  0.00000000000E+00  0.00000000000E+00  0.38956303329E+03  0.38956303330E+03  0.25500000920E-02 0. -1.
       -2   -1    0    0    0  501  0.00000000000E+00  0.00000000000E+00 -0.22919023240E+03  0.22919023242E+03  0.25500000920E-02 0.  1.
    10030    2    1    2    0    0  0.00000000000E+00  0.00000000000E+00  0.16037280089E+03  0.61875326572E+03  0.59760870858E+03 0.  0.
        2    1    3    3  502    0 -0.21908084550E+03  0.20209331732E+03  0.10205028336E+03  0.31504346702E+03  0.25500000920E-02 0. -1.
       -2    1    3    3    0  502  0.21908084550E+03 -0.20209331732E+03  0.58322517527E+02  0.30370979870E+03  0.25500000920E-02 0.  1.
</event>
<event>
 5   0  0.9420349E-02  0.6024677E+03  0.7818609E-02  0.9900300E-01
       -1   -1    0    0    0  501  0.00000000000E+00  0.00000000000E+00  0.10889621509E+03  0.10889621521E+03  0.50400001928E-02 0.  1.
        1   -1    0    0  501    0  0.00000000000E+00  0.00000000000E+00 -0.83328724402E+03  0.83328724404E+03  0.50400001928E-02 0. -1.
    10030    2    1    2    0    0  0.00000000000E+00  0.00000000000E+00 -0.72439102893E+03  0.94218345924E+03  0.60246768219E+03 0.  0.
        2    1    3    3  502    0  0.60036838706E+00  0.28054864670E+03 -0.53375128937E+03  0.60299116288E+03  0.25500000920E-02 0. -1.
       -2    1    3    3    0  502 -0.60036838706E+00 -0.28054864670E+03 -0.19063973956E+03  0.33919229636E+03  0.25500000920E-02 0.  1.
</event>
<event>
 5   0  0.9420349E-02  0.6131537E+03  0.7818609E-02  0.9878486E-01
        1   -1    0    0  501    0  0.00000000000E+00  0.00000000000E+00  0.17455647780E+04  0.17455647780E+04  0.50400001928E-02 0.  1.
       -1   -1    0    0    0  501  0.00000000000E+00  0.00000000000E+00 -0.53844670495E+02  0.53844670731E+02  0.50400001928E-02 0. -1.
    10030    2    1    2    0    0  0.00000000000E+00  0.00000000000E+00  0.16917201075E+04  0.17994094488E+04  0.61315368553E+03 0.  0.
        2    1    3    3  502    0  0.23945956970E+03  0.18764276946E+03  0.73454839541E+03  0.79505474004E+03  0.25500000920E-02 0. -1.
       -2    1    3    3    0  502 -0.23945956970E+03 -0.18764276946E+03  0.95717171211E+03  0.10043547087E+04  0.25500000920E-02 0.  1.
</event>
<event>
 5   0  0.6170500E-02  0.5963556E+03  0.7818609E-02  0.9912996E-01
        3   -1    0    0  501    0  0.00000000000E+00  0.00000000000E+00  0.14062042229E+03  0.14062045856E+03  0.10100000352E+00 0. -1.
       -3   -1    0    0    0  501  0.00000000000E+00  0.00000000000E+00 -0.63226944079E+03  0.63226944886E+03  0.10100000352E+00 0.  1.
    10030    2    1    2    0    0  0.00000000000E+00  0.00000000000E+00 -0.49164901851E+03  0.77288990742E+03  0.59635564187E+03 0.  0.
        3    1    3    3  502    0  0.56470110009E+02  0.70202688890E+02  0.12255748681E+03  0.15211061313E+03  0.10100000352E+00 0. -1.
       -3    1    3    3    0  502 -0.56470110009E+02 -0.70202688890E+02 -0.61420650531E+03  0.62077929429E+03  0.10100000352E+00 0.  1.
</event>
<event>
 5   0  0.1483942E-01  0.5992432E+03  0.7818609E-02  0.9906977E-01
        2   -1    0    0  501    0  0.00000000000E+00  0.00000000000E+00  0.11371261742E+04  0.11371261742E+04  0.25500000920E-02 0.  1.
       -2   -1    0    0    0  501  0.00000000000E+00  0.00000000000E+00 -0.78947366808E+02  0.78947366850E+02  0.25500000920E-02 0. -1.
    10030    2    1    2    0    0  0.00000000000E+00  0.00000000000E+00  0.10581788074E+04  0.12160735410E+04  0.59924324679E+03 0.  0.
        4    1    3    3  502    0 -0.24449316635E+02  0.28004231132E+03  0.73949714419E+03  0.79112521409E+03  0.12699999809E+01 0. -1.
       -4    1    3    3    0  502  0.24449316635E+02 -0.28004231132E+03  0.31868166317E+03  0.42494832692E+03  0.12699999809E+01 0.  1.
</event>
<event>
 5   0  0.6170500E-02  0.6009973E+03  0.7818609E-02  0.9903339E-01
       -3   -1    0    0    0  501  0.00000000000E+00  0.00000000000E+00  0.75715387336E+03  0.75715388010E+03  0.10100000352E+00 0.  1.
        3   -1    0    0  501    0  0.00000000000E+00  0.00000000000E+00 -0.11926165399E+03  0.11926169676E+03  0.10100000352E+00 0. -1.
    10030    2    1    2    0    0  0.00000000000E+00  0.00000000000E+00  0.63789221938E+03  0.87641557686E+03  0.60099732097E+03 0.  0.
        1    1    3    3  502    0 -0.29945087569E+03  0.16190671697E+02  0.29102949412E+03  0.41788889824E+03  0.50400001928E-02 0.  1.
       -1    1    3    3    0  502  0.29945087569E+03 -0.16190671697E+02  0.34686272526E+03  0.45852667861E+03  0.50400001928E-02 0. -1.
</event>
<event>
 5   0  0.8860626E-02  0.5742866E+03  0.7818609E-02  0.9960238E-01
        1   -1    0    0  501    0  0.00000000000E+00  0.00000000000E+00  0.84063708571E+03  0.84063708573E+03  0.50400001928E-02 0.  1.
       -1   -1    0    0    0  501  0.00000000000E+00  0.00000000000E+00 -0.98081900523E+02  0.98081900652E+02  0.50400001928E-02 0. -1.
    10030    2    1    2    0    0  0.00000000000E+00  0.00000000000E+00  0.74255518519E+03  0.93871898638E+03  0.57428662908E+03 0.  0.
        3    1    3    3  502    0 -0.18765240159E+03  0.21475123603E+03  0.31657995940E+03  0.42609200661E+03  0.10100000352E+00 0. -1.
       -3    1    3    3    0  502  0.18765240159E+03 -0.21475123603E+03  0.42597522579E+03  0.51262697977E+03  0.10100000352E+00 0.  1.
</event>
<event>
 5   0  0.6170500E-02  0.5936067E+03  0.7818609E-02  0.9918760E-01
       -4   -1    0    0    0  501  0.00000000000E+00  0.00000000000E+00  0.17345358696E+03  0.17345823627E+03  0.12699999809E+01 0.  1.
        4   -1    0    0  501    0  0.00000000000E+00  0.00000000000E+00 -0.50785978997E+03  0.50786137791E+03  0.12699999809E+01 0. -1.
    10030    2    1    2    0    0  0.00000000000E+00  0.00000000000E+00 -0.33440620301E+03  0.68131961417E+03  0.59360669474E+03 0.  0.
        2    1    3    3  502    0 -0.20941052513E+03 -0.16116992687E+03 -0.32231554740E+03  0.41679230495E+03  0.25500000920E-02 0.  1.
       -2    1    3    3    0  502  0.20941052513E+03  0.16116992687E+03 -0.12090655619E+02  0.26452730922E+03  0.25500000920E-02 0. -1.
</event>
<event>
 5   0  0.1532571E-01  0.5882450E+03  0.7818609E-02  0.9930098E-01
       -2   -1    0    0    0  501  0.00000000000E+00  0.00000000000E+00  0.97041393188E+02  0.97041393222E+02  0.25500000920E-02 0. -1.
        2   -1    0    0  501    0  0.00000000000E+00  0.00000000000E+00 -0.89145518530E+03  0.89145518530E+03  0.25500000920E-02 0.  1.
    10030    2    1    2    0    0  0.00000000000E+00  0.00000000000E+00 -0.79441379211E+03  0.98849657852E+03  0.58824502774E+03 0.  0.
        1    1    3    3  502    0  0.23675398486E+03 -0.15634408065E+03 -0.26691087077E+03  0.38953476593E+03  0.50400001928E-02 0.  1.
       -1    1    3    3    0  502 -0.23675398486E+03  0.15634408065E+03 -0.52750292133E+03  0.59896181259E+03  0.50400001928E-02 0. -1.
</event>
<event>
 5   0  0.1513339E-01  0.5799486E+03  0.7818609E-02  0.9947902E-01
       -2   -1    0    0    0  501  0.00000000000E+00  0.00000000000E+00  0.65749693089E+02  0.65749693138E+02  0.25500000920E-02 0. -1.
        2   -1    0    0  501    0  0.00000000000E+00  0.00000000000E+00 -0.12788668803E+04  0.12788668803E+04  0.25500000920E-02 0.  1.
    10030    2    1    2    0    0  0.00000000000E+00  0.00000000000E+00 -0.12131171872E+04  0.13446165734E+04  0.57994863537E+03 0.  0.
        3    1    3    3  502    0  0.17551170306E+03  0.69482313845E+02 -0.96207537356E+02  0.21186800205E+03  0.10100000352E+00 0. -1.
       -3    1    3    3    0  502 -0.17551170306E+03 -0.69482313845E+02 -0.11169096498E+04  0.11327485714E+04  0.10100000352E+00 0.  1.
</event>
<event>
 5   0  0.1502642E-01  0.5921442E+03  0.7818609E-02  0.9921840E-01
       -2   -1    0    0    0  501  0.00000000000E+00  0.00000000000E+00  0.21448583301E+03  0.21448583303E+03  0.25500000920E-02 0.  1.
        2   -1    0    0  501    0  0.00000000000E+00  0.00000000000E+00 -0.40869216823E+03  0.40869216824E+03  0.25500000920E-02 0. -1.
    10030    2    1    2    0    0  0.00000000000E+00  0.00000000000E+00 -0.19420633522E+03  0.62317800127E+03  0.59214417216E+03 0.  0.
        2    1    3    3  502    0  0.14271986715E+02 -0.62827364069E+02  0.20701891038E+03  0.21681281453E+03  0.25500000920E-02 0.  1.
       -2    1    3    3    0  502 -0.14271986715E+02  0.62827364069E+02 -0.40122524560E+03  0.40636518674E+03  0.25500000920E-02 0. -1.
</event>
<event>
 5   0  0.9177281E-02  0.5978521E+03  0.7818609E-02  0.9909872E-01
       -1   -1    0    0    0  501  0.00000000000E+00  0.00000000000E+00  0.24054084508E+03  0.24054084514E+03  0.50400001928E-02 0.  1.
        1   -1    0    0  501    0  0.00000000000E+00  0.00000000000E+00 -0.37148274203E+03  0.37148274207E+03  0.50400001928E-02 0. -1.
    10030    2    1    2    0    0  0.00000000000E+00  0.00000000000E+00 -0.13094189695E+03  0.61202358721E+03  0.59785206441E+03 0.  0.
        1    1    3    3  502    0  0.17010784167E+02 -0.29695755126E+03 -0.35040603875E+02  0.29950124870E+03  0.50400001928E-02 0.  1.
       -1    1    3    3    0  502 -0.17010784167E+02  0.29695755126E+03 -0.95901293075E+02  0.31252233851E+03  0.50400001928E-02 0. -1.
</event>
<event>
 5   0  0.1483942E-01  0.7043369E+03  0.7818609E-02  0.9709844E-01
        2   -1    0    0  501    0  0.00000000000E+00  0.00000000000E+00  0.13542074613E+04  0.13542074613E+04  0.25500000920E-02 0.  1.
       -2   -1    0    0    0  501  0.00000000000E+00  0.00000000000E+00 -0.91583166868E+02  0.91583166903E+02  0.25500000920E-02 0. -1.
    10030    2    1    2    0    0  0.00000000000E+00  0.00000000000E+00  0.12626242944E+04  0.14457906282E+04  0.70433687373E+03 0.  0.
        4    1    3    3  502    0  0.29048697764E+03  0.14204042868E+03  0.34494186581E+03  0.47280510916E+03  0.12699999809E+01 0.  1.
       -4    1    3    3    0  502 -0.29048697764E+03 -0.14204042868E+03  0.91768242857E+03  0.97298551900E+03  0.12699999809E+01 0. -1.
</event>
<event>
 5   0  0.9177281E-02  0.6021952E+03  0.7818609E-02  0.9900862E-01
        1   -1    0    0  501    0  0.00000000000E+00  0.00000000000E+00  0.53004012194E+03  0.53004012196E+03  0.50400001928E-02 0. -1.
       -1   -1    0    0    0  501  0.00000000000E+00  0.00000000000E+00 -0.17104319639E+03  0.17104319647E+03  0.50400001928E-02 0.  1.
    10030    2    1    2    0    0  0.00000000000E+00  0.00000000000E+00  0.35899692555E+03  0.70108331843E+03  0.60219517337E+03 0.  0.
        1    1    3    3  502    0  0.21098298230E+03 -0.21119234857E+03  0.13375616226E+03  0.32711884367E+03  0.50400001928E-02 0. -1.
       -1    1    3    3    0  502 -0.21098298230E+03  0.21119234857E+03  0.22524076328E+03  0.37396447476E+03  0.50400001928E-02 0.  1.
</event>
<event>
 5   0  0.1513339E-01  0.4601064E+03  0.7818609E-02  0.1024750E+00
       -2   -1    0    0    0  501  0.00000000000E+00  0.00000000000E+00  0.75239044554E+02  0.75239044598E+02  0.25500000920E-02 0. -1.
        2   -1    0    0  501    0  0.00000000000E+00  0.00000000000E+00 -0.70341769442E+03  0.70341769443E+03  0.25500000920E-02 0.  1.
    10030    2    1    2    0    0  0.00000000000E+00  0.00000000000E+00 -0.62817864987E+03  0.77865673902E+03  0.46010640191E+03 0.  0.
        3    1    3    3  502    0 -0.21227459737E+03  0.88040047271E+02 -0.29610662686E+03  0.37482088961E+03  0.10100000352E+00 0. -1.
       -3    1    3    3    0  502  0.21227459737E+03 -0.88040047271E+02 -0.33207202300E+03  0.40383584942E+03  0.10100000352E+00 0.  1.
</event>
<event>
 5   0  0.1513339E-01  0.6208763E+03  0.7818609E-02  0.9863017E-01
       -2   -1    0    0    0  501  0.00000000000E+00  0.00000000000E+00  0.81999518912E+02  0.81999518951E+02  0.25500000920E-02 0.  1.
        2   -1    0    0  501    0  0.00000000000E+00  0.00000000000E+00 -0.11752733784E+04  0.11752733784E+04  0.25500000920E-02 0. -1.
    10030    2    1    2    0    0  0.00000000000E+00  0.00000000000E+00 -0.10932738595E+04  0.12572728974E+04  0.62087632149E+03 0.  0.
        3    1    3    3  502    0 -0.79383637309E+02  0.29479021552E+03 -0.43264543534E+03  0.52951403754E+03  0.10100000352E+00 0.  1.
       -3    1    3    3    0  502  0.79383637309E+02 -0.29479021552E+03 -0.66062842417E+03  0.72775885983E+03  0.10100000352E+00 0. -1.
</event>
<event>
 5   0  0.9411028E-02  0.5905191E+03  0.7818609E-02  0.9925273E-01
       -1   -1    0    0    0  501  0.00000000000E+00  0.00000000000E+00  0.38194930401E+03  0.38194930404E+03  0.50400001928E-02 0.  1.
        1   -1    0    0  501    0  0.00000000000E+00  0.00000000000E+00 -0.22824549650E+03  0.22824549655E+03  0.50400001928E-02 0. -1.
    10030    2    1    2    0    0  0.00000000000E+00  0.00000000000E+00  0.15370380751E+03  0.61019480060E+03  0.59051912266E+03 0.  0.
        4    1    3    3  502    0 -0.13676972728E+03  0.69134465167E+02 -0.18392779892E+03  0.23940881498E+03  0.12699999809E+01 0. -1.
       -4    1    3    3    0  502  0.13676972728E+03 -0.69134465167E+02  0.33763160643E+03  0.37078598562E+03  0.12699999809E+01 0.  1.
</event>
<event>
 5   0  0.9177281E-02  0.5962323E+03  0.7818609E-02  0.9913254E-01
        1   -1    0    0  501    0  0.00000000000E+00  0.00000000000E+00  0.11190851420E+04  0.11190851420E+04  0.50400001928E-02 0.  1.
       -1   -1    0    0    0  501  0.00000000000E+00  0.00000000000E+00 -0.79415983603E+02  0.79415983763E+02  0.50400001928E-02 0. -1.
    10030    2    1    2    0    0  0.00000000000E+00  0.00000000000E+00  0.10396691584E+04  0.11985011258E+04  0.59623232851E+03 0.  0.
        1    1    3    3  502    0  0.23564025242E+03 -0.61196708333E+02  0.17398871601E+03  0.29923809750E+03  0.50400001928E-02 0. -1.
       -1    1    3    3    0  502 -0.23564025242E+03  0.61196708333E+02  0.86568044240E+03  0.89926302829E+03  0.50400001928E-02 0.  1.
</event>
<event>
 5   0  0.1532571E-01  0.6082030E+03  0.7818609E-02  0.9888532E-01
       -2   -1    0    0    0  501  0.00000000000E+00  0.00000000000E+00  0.73527895517E+02  0.73527895561E+02  0.25500000920E-02 0.  1.
        2   -1    0    0  501    0  0.00000000000E+00  0.00000000000E+00 -0.12577231277E+04  0.12577231277E+04  0.25500000920E-02 0. -1.
    10030    2    1    2    0    0  0.00000000000E+00  0.00000000000E+00 -0.11841952322E+04  0.13312510233E+04  0.60820304095E+03 0.  0.
        1    1    3    3  502    0  0.65299250299E+02 -0.17567310527E+03 -0.11162871093E+04  0.11319107484E+04  0.50400001928E-02 0. -1.
       -1    1    3    3    0  502 -0.65299250299E+02  0.17567310527E+03 -0.67908122937E+02  0.19934027488E+03  0.50400001928E-02 0.  1.
</event>
<event>
 5   0  0.9420349E-02  0.6060752E+03  0.7818609E-02  0.9892881E-01
        1   -1    0    0  501    0  0.00000000000E+00  0.00000000000E+00  0.35491980244E+03  0.35491980248E+03  0.50400001928E-02 0.  1.
       -1   -1    0    0    0  501  0.00000000000E+00  0.00000000000E+00 -0.25873957134E+03  0.25873957139E+03  0.50400001928E-02 0. -1.
    10030    2    1    2    0    0  0.00000000000E+00  0.00000000000E+00  0.96180231105E+02  0.61365937386E+03  0.60607523483E+03 0.  0.
        2    1    3    3  502    0 -0.13608564644E+01 -0.63117297882E+02 -0.25200726612E+03  0.25979474091E+03  0.25500000920E-02 0. -1.
       -2    1    3    3    0  502  0.13608564644E+01  0.63117297882E+02  0.34818749723E+03  0.35386463295E+03  0.25500000920E-02 0.  1.
</event>
<event>
 5   0  0.1488510E-01  0.6030110E+03  0.7818609E-02  0.9899179E-01
        2   -1    0    0  501    0  0.00000000000E+00  0.00000000000E+00  0.56337621215E+03  0.56337621216E+03  0.25500000920E-02 0. -1.
       -2   -1    0    0    0  501  0.00000000000E+00  0.00000000000E+00 -0.16135855814E+03  0.16135855816E+03  0.25500000920E-02 0.  1.
    10030    2    1    2    0    0  0.00000000000E+00  0.00000000000E+00  0.40201765401E+03  0.72473477032E+03  0.60301102243E+03 0.  0.
        5    1    3    3  502    0  0.68716445750E+02 -0.29081091634E+03  0.15307669642E+03  0.33577895105E+03  0.46999998093E+01 0.  1.
       -5    1    3    3    0  502 -0.68716445750E+02  0.29081091634E+03  0.24894095759E+03  0.38895581928E+03  0.46999998093E+01 0. -1.
</event>
<event>
 5   0  0.9420349E-02  0.6062306E+03  0.7818609E-02  0.9892563E-01
       -1   -1    0    0    0  501  0.00000000000E+00  0.00000000000E+00  0.15342761010E+03  0.15342761019E+03  0.50400001928E-02 0.  1.
        1   -1    0    0  501    0  0.00000000000E+00  0.00000000000E+00 -0.59884191893E+03  0.59884191896E+03  0.50400001928E-02 0. -1.
    10030    2    1    2    0    0  0.00000000000E+00  0.00000000000E+00 -0.44541430883E+03  0.75226952914E+03  0.60623059801E+03 0.  0.
        2    1    3    3  502    0  0.31272903752E+02 -0.12764829949E+03 -0.56164871875E+03  0.57682004659E+03  0.25500000920E-02 0. -1.
       -2    1    3    3    0  502 -0.31272903752E+02  0.12764829949E+03  0.11623440992E+03  0.17544948255E+03  0.25500000920E-02 0.  1.
</event>
<event>
 5   0  0.9497860E-02  0.6115291E+03  0.7818609E-02  0.9881771E-01
       -1   -1    0    0    0  501  0.00000000000E+00  0.00000000000E+00  0.76245386876E+02  0.76245387042E+02  0.50400001928E-02 0. -1.
        1   -1    0    0  501    0  0.00000000000E+00  0.00000000000E+00 -0.12261981367E+04  0.12261981367E+04  0.50400001928E-02 0.  1.
    10030    2    1    2    0    0  0.00000000000E+00  0.00000000000E+00 -0.11499527498E+04  0.13024435238E+04  0.61152907187E+03 0.  0.
        5    1    3    3  502    0 -0.22675461879E+03  0.12900830269E+03 -0.23547924266E+03  0.35147313272E+03  0.46999998093E+01 0. -1.
       -5    1    3    3    0  502  0.22675461879E+03 -0.12900830269E+03 -0.91447350717E+03  0.95097039103E+03  0.46999998093E+01 0.  1.
</event>
<event>
 5   0  0.9177281E-02  0.6034370E+03  0.7818609E-02  0.9898301E-01
       -1   -1    0    0    0  501  0.00000000000E+00  0.00000000000E+00  0.85011851954E+02  0.85011852103E+02  0.50400001928E-02 0. -1.
        1   -1    0    0  501    0  0.00000000000E+00  0.00000000000E+00 -0.10708394140E+04  0.10708394140E+04  0.50400001928E-02 0.  1.
    10030    2    1    2    0    0  0.00000000000E+00  0.00000000000E+00 -0.98582756207E+03  0.11558512661E+04  0.60343696216E+03 0.  0.
        1    1    3    3  502    0  0.75191645580E+02  0.21977161207E+03 -0.86175885506E+03  0.89251424041E+03  0.50400001928E-02 0.  1.
       -1    1    3    3    0  502 -0.75191645580E+02 -0.21977161207E+03 -0.12406870701E+03  0.26333702573E+03  0.50400001928E-02 0. -1.
</event>
<event>
 5   0  0.1488510E-01  0.6111903E+03  0.7818609E-02  0.9882458E-01
       -2   -1    0    0    0  501  0.00000000000E+00  0.00000000000E+00  0.10988638998E+03  0.10988639001E+03  0.25500000920E-02 0.  1.
        2   -1    0    0  501    0  0.00000000000E+00  0.00000000000E+00 -0.84986311506E+03  0.84986311507E+03  0.25500000920E-02 0. -1.
    10030    2    1    2    0    0  0.00000000000E+00  0.00000000000E+00 -0.73997672509E+03  0.95974950507E+03  0.61119028037E+03 0.  0.
        5    1    3    3  502    0 -0.17533889847E+03 -0.24075643018E+03 -0.47717081703E+03  0.56251352572E+03  0.46999998093E+01 0.  1.
       -5    1    3    3    0  502  0.17533889847E+03  0.24075643018E+03 -0.26280590805E+03  0.39723597935E+03  0.46999998093E+01 0. -1.
</event>
<event>
 5   0  0.9420349E-02  0.6260413E+03  0.7818609E-02  0.9852805E-01
        1   -1    0    0  501    0  0.00000000000E+00  0.00000000000E+00  0.65397559333E+03  0.65397559335E+03  0.50400001928E-02 0. -1.
       -1   -1    0    0    0  501  0.00000000000E+00  0.00000000000E+00 -0.14982503363E+03  0.14982503372E+03  0.50400001928E-02 0.  1.
    10030    2    1    2    0    0  0.00000000000E+00  0.00000000000E+00  0.50415055970E+03  0.80380062707E+03  0.62604126160E+03 0.  0.
        2    1    3    3  502    0 -0.23351457358E+03  0.20213785576E+03  0.18669317333E+03  0.36089210268E+03  0.25500000920E-02 0. -1.
       -2    1    3    3    0  502  0.23351457358E+03 -0.20213785576E+03  0.31745738637E+03  0.44290852438E+03  0.25500000920E-02 0.  1.
</event>
<event>
 5   0  0.8860626E-02  0.6081546E+03  0.7818609E-02  0.9888631E-01
        1   -1    0    0  501    0  0.00000000000E+00  0.00000000000E+00  0.12709214701E+03  0.12709214711E+03  0.50400001928E-02 0. -1.
       -1   -1    0    0    0  501  0.00000000000E+00  0.00000000000E+00 -0.72752733315E+03  0.72752733317E+03  0.50400001928E-02 0.  1.
    10030    2    1    2    0    0  0.00000000000E+00  0.00000000000E+00 -0.60043518614E+03  0.85461948028E+03  0.60815462122E+03 0.  0.
        3    1    3    3  502    0 -0.16080878582E+03  0.20011344323E+03 -0.52922927931E+03  0.58820786806E+03  0.10100000352E+00 0.  1.
       -3    1    3    3    0  502  0.16080878582E+03 -0.20011344323E+03 -0.71205906826E+02  0.26641161222E+03  0.10100000352E+00 0. -1.
</event>
<event>
 5   0  0.1513339E-01  0.5438583E+03  0.7818609E-02  0.1002926E+00
       -2   -1    0    0    0  501  0.00000000000E+00  0.00000000000E+00  0.15896690536E+03  0.15896690538E+03  0.25500000920E-02 0.  1.
        2   -1    0    0  501    0  0.00000000000E+00  0.00000000000E+00 -0.46516257413E+03  0.46516257413E+03  0.25500000920E-02 0. -1.
    10030    2    1    2    0    0  0.00000000000E+00  0.00000000000E+00 -0.30619566876E+03  0.62412947951E+03  0.54385827164E+03 0.  0.
        3    1    3    3  502    0 -0.79397016942E+02  0.25559558534E+03 -0.20828341524E+03  0.33913858644E+03  0.10100000352E+00 0. -1.
       -3    1    3    3    0  502  0.79397016942E+02 -0.25559558534E+03 -0.97912253524E+02  0.28499089308E+03  0.10100000352E+00 0.  1.
</event>
<event>
 5   0  0.1488510E-01  0.6522820E+03  0.7818609E-02  0.9802507E-01
       -2   -1    0    0    0  501  0.00000000000E+00  0.00000000000E+00  0.16752081926E+03  0.16752081928E+03  0.25500000920E-02 0. -1.
        2   -1    0    0  501    0  0.00000000000E+00  0.00000000000E+00 -0.63495364454E+03  0.63495364455E+03  0.25500000920E-02 0.  1.
    10030    2    1    2    0    0  0.00000000000E+00  0.00000000000E+00 -0.46743282529E+03  0.80247446382E+03  0.65228200875E+03 0.  0.
        5    1    3    3  502    0 -0.10572371152E+03 -0.24197012384E+03  0.17061042338E+01  0.26410612412E+03  0.46999998093E+01 0. -1.
       -5    1    3    3    0  502  0.10572371152E+03  0.24197012384E+03 -0.46913892952E+03  0.53836833970E+03  0.46999998093E+01 0.  1.
</event>
<event>
 5   0  0.1532571E-01  0.5809081E+03  0.7818609E-02  0.9945827E-01
       -2   -1    0    0    0  501  0.00000000000E+00  0.00000000000E+00  0.99842428593E+02  0.99842428626E+02  0.25500000920E-02 0. -1.
        2   -1    0    0  501    0  0.00000000000E+00  0.00000000000E+00 -0.84496704707E+03  0.84496704707E+03  0.25500000920E-02 0.  1.
    10030    2    1    2    0    0  0.00000000000E+00  0.00000000000E+00 -0.74512461848E+03  0.94480947570E+03  0.58090812381E+03 0.  0.
        1    1    3    3  502    0  0.56259963272E+02 -0.23964222726E+03 -0.12180637930E+03  0.27464590770E+03  0.50400001928E-02 0. -1.
       -1    1    3    3    0  502 -0.56259963272E+02  0.23964222726E+03 -0.62331823918E+03  0.67016356800E+03  0.50400001928E-02 0.  1.
</event>
<event>
 5   0  0.9411028E-02  0.6017285E+03  0.7818609E-02  0.9901826E-01
       -1   -1    0    0    0  501  0.00000000000E+00  0.00000000000E+00  0.48192782272E+03  0.48192782275E+03  0.50400001928E-02 0.  1.
        1   -1    0    0  501    0  0.00000000000E+00  0.00000000000E+00 -0.18782748235E+03  0.18782748241E+03  0.50400001928E-02 0. -1.
    10030    2    1    2    0    0  0.00000000000E+00  0.00000000000E+00  0.29410034038E+03  0.66975530516E+03  0.60172847580E+03 0.  0.
        4    1    3    3  502    0  0.16325634642E+03  0.14041468860E+03 -0.86820004491E+02  0.23218149259E+03  0.12699999809E+01 0. -1.
       -4    1    3    3    0  502 -0.16325634642E+03 -0.14041468860E+03  0.38092034487E+03  0.43757381258E+03  0.12699999809E+01 0.  1.
</event>
<event>
 5   0  0.8860626E-02  0.6160131E+03  0.7818609E-02  0.9872730E-01
       -1   -1    0    0    0  501  0.00000000000E+00  0.00000000000E+00  0.15856009948E+03  0.15856009956E+03  0.50400001928E-02 0.  1.
        1   -1    0    0  501    0  0.00000000000E+00  0.00000000000E+00 -0.59830955695E+03  0.59830955697E+03  0.50400001928E-02 0. -1.
    10030    2    1    2    0    0  0.00000000000E+00  0.00000000000E+00 -0.43974945747E+03  0.75686965654E+03  0.61601306126E+03 0.  0.
        3    1    3    3  502    0 -0.38342493474E+02  0.30497704246E+03 -0.19570824830E+03  0.36439384173E+03  0.10100000352E+00 0. -1.
       -3    1    3    3    0  502  0.38342493474E+02 -0.30497704246E+03 -0.24404120916E+03  0.39247581481E+03  0.10100000352E+00 0.  1.
</event>
<event>
 5   0  0.9177281E-02  0.5956949E+03  0.7818609E-02  0.9914378E-01
        1   -1    0    0  501    0  0.00000000000E+00  0.00000000000E+00  0.29860478956E+03  0.29860478960E+03  0.50400001928E-02 0. -1.
       -1   -1    0    0    0  501  0.00000000000E+00  0.00000000000E+00 -0.29709204869E+03  0.29709204873E+03  0.50400001928E-02 0.  1.
    10030    2    1    2    0    0  0.00000000000E+00  0.00000000000E+00  0.15127408736E+01  0.59569683833E+03  0.59569491756E+03 0.  0.
        1    1    3    3  502    0 -0.82772120667E+01 -0.14056100102E+03 -0.26170819036E+03  0.29718190418E+03  0.50400001928E-02 0.  1.
       -1    1    3    3    0  502  0.82772120667E+01  0.14056100102E+03  0.26322093123E+03  0.29851493415E+03  0.50400001928E-02 0. -1.
</event>
<event>
 5   0  0.1502642E-01  0.6412255E+03  0.7818609E-02  0.9823385E-01
       -2   -1    0    0    0  501  0.00000000000E+00  0.00000000000E+00  0.14047859772E+03  0.14047859774E+03  0.25500000920E-02 0.  1.
        2   -1    0    0  501    0  0.00000000000E+00  0.00000000000E+00 -0.73173096972E+03  0.73173096972E+03  0.25500000920E-02 0. -1.
    10030    2    1    2    0    0  0.00000000000E+00  0.00000000000E+00 -0.59125237200E+03  0.87220956746E+03  0.64122551585E+03 0.  0.
        2    1    3    3  502    0 -0.20161190930E+03  0.24865666849E+03 -0.27148310183E+03  0.41973869889E+03  0.25500000920E-02 0. -1.
       -2    1    3    3    0  502  0.20161190930E+03 -0.24865666849E+03 -0.31976927017E+03  0.45247086857E+03  0.25500000920E-02 0.  1.
</event>
<event>
 5   0  0.9177281E-02  0.5976543E+03  0.7818609E-02  0.9910285E-01
        1   -1    0    0  501    0  0.00000000000E+00  0.00000000000E+00  0.23536377193E+03  0.23536377198E+03  0.50400001928E-02 0.  1.
       -1   -1    0    0    0  501  0.00000000000E+00  0.00000000000E+00 -0.37940282427E+03  0.37940282431E+03  0.50400001928E-02 0. -1.
    10030    2    1    2    0    0  0.00000000000E+00  0.00000000000E+00 -0.14403905235E+03  0.61476659629E+03  0.59765434769E+03 0.  0.
        1    1    3    3  502    0 -0.61828993621E+02 -0.13219674437E+02 -0.37244374287E+03  0.37777232015E+03  0.50400001928E-02 0. -1.
       -1    1    3    3    0  502  0.61828993621E+02  0.13219674437E+02  0.22840469052E+03  0.23699427614E+03  0.50400001928E-02 0.  1.
</event>
<event>
 5   0  0.1488510E-01  0.5790123E+03  0.7818609E-02  0.9949932E-01
        2   -1    0    0  501    0  0.00000000000E+00  0.00000000000E+00  0.12004365113E+04  0.12004365113E+04  0.25500000920E-02 0. -1.
       -2   -1    0    0    0  501  0.00000000000E+00  0.00000000000E+00 -0.69819452438E+02  0.69819452485E+02  0.25500000920E-02 0.  1.
    10030    2    1    2    0    0  0.00000000000E+00  0.00000000000E+00  0.11306170589E+04  0.12702559638E+04  0.57901233127E+03 0.  0.
        5    1    3    3  502    0  0.87864271792E+02  0.14365077448E+03  0.10818433302E+04  0.10948802475E+04  0.46999998093E+01 0. -1.
       -5    1    3    3    0  502 -0.87864271792E+02 -0.14365077448E+03  0.48773728699E+02  0.17537571633E+03  0.46999998093E+01 0.  1.
</event>
<event>
 5   0  0.9411028E-02  0.5990217E+03  0.7818609E-02  0.9907438E-01
        1   -1    0    0  501    0  0.00000000000E+00  0.00000000000E+00  0.56150802677E+03  0.56150802679E+03  0.50400001928E-02 0.  1.
       -1   -1    0    0    0  501  0.00000000000E+00  0.00000000000E+00 -0.15976041560E+03  0.15976041568E+03  0.50400001928E-02 0. -1.
    10030    2    1    2    0    0  0.00000000000E+00  0.00000000000E+00  0.40174761117E+03  0.72126844248E+03  0.59902172167E+03 0.  0.
        4    1    3    3  502    0  0.27205796919E+03  0.11697652900E+03  0.14694383197E+03  0.33059514453E+03  0.12699999809E+01 0.  1.
       -4    1    3    3    0  502 -0.27205796919E+03 -0.11697652900E+03  0.25480377920E+03  0.39067329795E+03  0.12699999809E+01 0. -1.
</event>
<event>
 5   0  0.1532571E-01  0.6116420E+03  0.7818609E-02  0.9881543E-01
        2   -1    0    0  501    0  0.00000000000E+00  0.00000000000E+00  0.21712345215E+03  0.21712345216E+03  0.25500000920E-02 0.  1.
       -2   -1    0    0    0  501  0.00000000000E+00  0.00000000000E+00 -0.43075259402E+03  0.43075259403E+03  0.25500000920E-02 0. -1.
    10030    2    1    2    0    0  0.00000000000E+00  0.00000000000E+00 -0.21362914187E+03  0.64787604619E+03  0.61164202028E+03 0.  0.
        1    1    3    3  502    0  0.68972197562E+02  0.27980737477E+03  0.16071710364E+01  0.28818728986E+03  0.50400001928E-02 0.  1.
       -1    1    3    3    0  502 -0.68972197562E+02 -0.27980737477E+03 -0.21523631291E+03  0.35968875633E+03  0.50400001928E-02 0. -1.
</event>
<event>
 5   0  0.1513339E-01  0.5989142E+03  0.7818609E-02  0.9907661E-01
       -2   -1    0    0    0  501  0.00000000000E+00  0.00000000000E+00  0.21818214336E+03  0.21818214337E+03  0.25500000920E-02 0. -1.
        2   -1    0    0  501    0  0.00000000000E+00  0.00000000000E+00 -0.41100781715E+03  0.41100781716E+03  0.25500000920E-02 0.  1.
    10030    2    1    2    0    0  0.00000000000E+00  0.00000000000E+00 -0.19282567379E+03  0.62918996053E+03  0.59891423924E+03 0.  0.
        3    1    3    3  502    0  0.26697454912E+03 -0.10109901831E+03 -0.19141735971E+03  0.34371068820E+03  0.10100000352E+00 0.  1.
       -3    1    3    3    0  502 -0.26697454912E+03  0.10109901831E+03 -0.14083140818E+01  0.28547927233E+03  0.10100000352E+00 0. -1.
</event>
<event>
 5   0  0.6170500E-02  0.5996702E+03  0.7818609E-02  0.9906091E-01
        4   -1    0    0  501    0  0.00000000000E+00  0.00000000000E+00  0.35044773476E+03  0.35045003595E+03  0.12699999809E+01 0.  1.
       -4   -1    0    0    0  501  0.00000000000E+00  0.00000000000E+00 -0.25652735436E+03  0.25653049806E+03  0.12699999809E+01 0. -1.
    10030    2    1    2    0    0  0.00000000000E+00  0.00000000000E+00  0.93920380394E+02  0.60698053401E+03  0.59967018503E+03 0.  0.
        1    1    3    3  502    0  0.14025594748E+03  0.86403234801E+02  0.30054138010E+03  0.34272783803E+03  0.50400001928E-02 0.  1.
       -1    1    3    3    0  502 -0.14025594748E+03 -0.86403234801E+02 -0.20662099970E+03  0.26425269598E+03  0.50400001928E-02 0. -1.
</event>
<event>
 5   0  0.9497860E-02  0.7313593E+03  0.7818609E-02  0.9665057E-01
        1   -1    0    0  501    0  0.00000000000E+00  0.00000000000E+00  0.73647257167E+03  0.73647257169E+03  0.50400001928E-02 0. -1.
       -1   -1    0    0    0  501  0.00000000000E+00  0.00000000000E+00 -0.18157038919E+03  0.18157038926E+03  0.50400001928E-02 0.  1.
    10030    2    1    2    0    0  0.00000000000E+00  0.00000000000E+00  0.55490218249E+03  0.91804296095E+03  0.73135931389E+03 0.  0.
        5    1    3    3  502    0  0.22145972331E+03  0.28540616746E+03  0.34844167894E+03  0.50193105413E+03  0.46999998093E+01 0.  1.
       -5    1    3    3    0  502 -0.22145972331E+03 -0.28540616746E+03  0.20646050355E+03  0.41611190682E+03  0.46999998093E+01 0. -1.
</event>
<event>
 5   0  0.9497860E-02  0.6442112E+03  0.7818609E-02  0.9817703E-01
       -1   -1    0    0    0  501  0.00000000000E+00  0.00000000000E+00  0.28387577645E+03  0.28387577650E+03  0.50400001928E-02 0.  1.
        1   -1    0    0  501    0  0.00000000000E+00  0.00000000000E+00 -0.36548382686E+03  0.36548382690E+03  0.50400001928E-02 0. -1.
    10030    2    1    2    0    0  0.00000000000E+00  0.00000000000E+00 -0.81608050410E+02  0.64935960339E+03  0.64421116152E+03 0.  0.
        5    1    3    3  502    0  0.26757298973E+03 -0.42107802399E+01  0.13984003866E+03  0.30197741954E+03  0.46999998093E+01 0.  1.
       -5    1    3    3    0  502 -0.26757298973E+03  0.42107802399E+01 -0.22144808907E+03  0.34738218385E+03  0.46999998093E+01 0. -1.
</event>
<event>
 5   0  0.1488510E-01  0.6026703E+03  0.7818609E-02  0.9899881E-01
        2   -1    0    0  501    0  0.00000000000E+00  0.00000000000E+00  0.21143348525E+04  0.21143348525E+04  0.25500000920E-02 0.  1.
       -2   -1    0    0    0  501  0.00000000000E+00  0.00000000000E+00 -0.42946307736E+02  0.42946307812E+02  0.25500000920E-02 0. -1.
    10030    2    1    2    0    0  0.00000000000E+00  0.00000000000E+00  0.20713885448E+04  0.21572811603E+04  0.60267030893E+03 0.  0.
        5    1    3    3  502    0  0.17537469540E+03  0.34897503827E+02  0.19037352608E+04  0.19121203291E+04  0.46999998093E+01 0.  1.
       -5    1    3    3    0  502 -0.17537469540E+03 -0.34897503827E+02  0.16765328394E+03  0.24516083124E+03  0.46999998093E+01 0. -1.
</event>
<event>
 5   0  0.1532571E-01  0.6228006E+03  0.7818609E-02  0.9859200E-01
        2   -1    0    0  501    0  0.00000000000E+00  0.00000000000E+00  0.47112100694E+03  0.47112100695E+03  0.25500000920E-02 0. -1.
       -2   -1    0    0    0  501  0.00000000000E+00  0.00000000000E+00 -0.20582851429E+03  0.20582851431E+03  0.25500000920E-02 0.  1.
    10030    2    1    2    0    0  0.00000000000E+00  0.00000000000E+00  0.26529249265E+03  0.67694952126E+03  0.62280056814E+03 0.  0.
        1    1    3    3  502    0  0.65042893604E+02 -0.41369141525E+02 -0.19529432640E+03  0.20995679991E+03  0.50400001928E-02 0.  1.
       -1    1    3    3    0  502 -0.65042893604E+02  0.41369141525E+02  0.46058681905E+03  0.46699272134E+03  0.50400001928E-02 0. -1.
</event>
<event>
 5   0  0.9497860E-02  0.6098776E+03  0.7818609E-02  0.9885122E-01
       -1   -1    0    0    0  501  0.00000000000E+00  0.00000000000E+00  0.85325637062E+02  0.85325637211E+02  0.50400001928E-02 0.  1.
        1   -1    0    0  501    0  0.00000000000E+00  0.00000000000E+00 -0.10897976395E+04  0.10897976395E+04  0.50400001928E-02 0. -1.
    10030    2    1    2    0    0  0.00000000000E+00  0.00000000000E+00 -0.10044720025E+04  0.11751232768E+04  0.60987762037E+03 0.  0.
        5    1    3    3  502    0 -0.44325889268E+01 -0.35866997595E+02  0.81114358926E+02  0.88925353996E+02  0.46999998093E+01 0.  1.
       -5    1    3    3    0  502  0.44325889268E+01  0.35866997595E+02 -0.10855863614E+04  0.10861979228E+04  0.46999998093E+01 0. -1.
</event>
<event>
 5   0  0.9420349E-02  0.3940794E+03  0.7818609E-02  0.1045849E+00
        1   -1    0    0  501    0  0.00000000000E+00  0.00000000000E+00  0.13150762620E+03  0.13150762630E+03  0.50400001928E-02 0. -1.
       -1   -1    0    0    0  501  0.00000000000E+00  0.00000000000E+00 -0.29522726607E+03  0.29522726612E+03  0.50400001928E-02 0.  1.
    10030    2    1    2    0    0  0.00000000000E+00  0.00000000000E+00 -0.16371963987E+03  0.42673489241E+03  0.39407936754E+03 0.  0.
        2    1    3    3  502    0  0.17457838703E+03 -0.42036411351E+02  0.59789432468E+01  0.17966752869E+03  0.25500000920E-02 0. -1.
       -2    1    3    3    0  502 -0.17457838703E+03  0.42036411351E+02 -0.16969858312E+03  0.24706736372E+03  0.25500000920E-02 0.  1.
</event>
<event>
 5   0  0.1483942E-01  0.6050019E+03  0.7818609E-02  0.9895083E-01
       -2   -1    0    0    0  501  0.00000000000E+00  0.00000000000E+00  0.15607098889E+03  0.15607098891E+03  0.25500000920E-02 0.  1.
        2   -1    0    0  501    0  0.00000000000E+00  0.00000000000E+00 -0.58631536853E+03  0.58631536854E+03  0.25500000920E-02 0. -1.
    10030    2    1    2    0    0  0.00000000000E+00  0.00000000000E+00 -0.43024437965E+03  0.74238635745E+03  0.60500188223E+03 0.  0.
        4    1    3    3  502    0 -0.18595492657E+03 -0.10572789729E+03 -0.47757869157E+03  0.52329785258E+03  0.12699999809E+01 0. -1.
       -4    1    3    3    0  502  0.18595492657E+03  0.10572789729E+03  0.47334311919E+02  0.21908850487E+03  0.12699999809E+01 0.  1.
</event>
<event>
 5   0  0.1532571E-01  0.6007207E+03  0.7818609E-02  0.9903912E-01
       -2   -1    0    0    0  501  0.00000000000E+00  0.00000000000E+00  0.10302827765E+03  0.10302827768E+03  0.25500000920E-02 0. -1.
        2   -1    0    0  501    0  0.00000000000E+00  0.00000000000E+00 -0.87564626285E+03  0.87564626286E+03  0.25500000920E-02 0.  1.
    10030    2    1    2    0    0  0.00000000000E+00  0.00000000000E+00 -0.77261798521E+03  0.97867454054E+03  0.60072065491E+03 0.  0.
        1    1    3    3  502    0  0.21491891819E+03 -0.13346826064E+03 -0.65007522005E+03  0.69756842656E+03  0.50400001928E-02 0.  1.
       -1    1    3    3    0  502 -0.21491891819E+03  0.13346826064E+03 -0.12254276516E+03  0.28110611397E+03  0.50400001928E-02 0. -1.
</event>
<event>
 5   0  0.1488510E-01  0.5972057E+03  0.7818609E-02  0.9911220E-01
        2   -1    0    0  501    0  0.00000000000E+00  0.00000000000E+00  0.37407702547E+03  0.37407702547E+03  0.25500000920E-02 0.  1.
       -2   -1    0    0    0  501  0.00000000000E+00  0.00000000000E+00 -0.23835641197E+03  0.23835641198E+03  0.25500000920E-02 0. -1.
    10030    2    1    2    0    0  0.00000000000E+00  0.00000000000E+00  0.13572061350E+03  0.61243343746E+03  0.59720568516E+03 0.  0.
        5    1    3    3  502    0 -0.18660576478E+03 -0.12730209663E+03  0.26806645477E+03  0.35058415456E+03  0.46999998093E+01 0.  1.
       -5    1    3    3    0  502  0.18660576478E+03  0.12730209663E+03 -0.13234584127E+03  0.26184928290E+03  0.46999998093E+01 0. -1.
</event>
<event>
 5   0  0.1488510E-01  0.6050232E+03  0.7818609E-02  0.9895039E-01
        2   -1    0    0  501    0  0.00000000000E+00  0.00000000000E+00  0.62389659148E+03  0.62389659148E+03  0.25500000920E-02 0.  1.
       -2   -1    0    0    0  501  0.00000000000E+00  0.00000000000E+00 -0.14668018383E+03  0.14668018385E+03  0.25500000920E-02 0. -1.
    10030    2    1    2    0    0  0.00000000000E+00  0.00000000000E+00  0.47721640765E+03  0.77057677534E+03  0.60502319539E+03 0.  0.
        5    1    3    3  502    0 -0.16602353727E+03  0.13881905080E+03  0.50775355197E+03  0.55196947681E+03  0.46999998093E+01 0.  1.
       -5    1    3    3    0  502  0.16602353727E+03 -0.13881905080E+03 -0.30537144319E+02  0.21860729853E+03  0.46999998093E+01 0. -1.
</event>
<event>
 5   0  0.1488510E-01  0.6060558E+03  0.7818609E-02  0.9892921E-01
        2   -1    0    0  501    0  0.00000000000E+00  0.00000000000E+00  0.65286182261E+03  0.65286182261E+03  0.25500000920E-02 0. -1.
       -2   -1    0    0    0  501  0.00000000000E+00  0.00000000000E+00 -0.14065137916E+03  0.14065137918E+03  0.25500000920E-02 0.  1.
    10030    2    1    2    0    0  0.00000000000E+00  0.00000000000E+00  0.51221044345E+03  0.79351320180E+03  0.60605582502E+03 0.  0.
        5    1    3    3  502    0 -0.13509419641E+03  0.19633076353E+03  0.50108079905E+03  0.55488761726E+03  0.46999998093E+01 0. -1.
       -5    1    3    3    0  502  0.13509419641E+03 -0.19633076353E+03  0.11129644396E+02  0.23862558453E+03  0.46999998093E+01 0.  1.
</event>
<event>
 5   0  0.9497860E-02  0.6156805E+03  0.7818609E-02  0.9873398E-01
       -1   -1    0    0    0  501  0.00000000000E+00  0.00000000000E+00  0.59882668782E+02  0.59882668995E+02  0.50400001928E-02 0. -1.
        1   -1    0    0  501    0  0.00000000000E+00  0.00000000000E+00 -0.15825214577E+04  0.15825214577E+04  0.50400001928E-02 0.  1.
    10030    2    1    2    0    0  0.00000000000E+00  0.00000000000E+00 -0.15226387889E+04  0.16424041267E+04  0.61568046412E+03 0.  0.
        5    1    3    3  502    0 -0.19222946635E+03  0.35224205717E+02 -0.12694844576E+03  0.23308991887E+03  0.46999998093E+01 0. -1.
       -5    1    3    3    0  502  0.19222946635E+03 -0.35224205717E+02 -0.13956903432E+04  0.14093142078E+04  0.46999998093E+01 0.  1.
</event>
<event>
 5   0  0.1532571E-01  0.6056951E+03  0.7818609E-02  0.9893661E-01
       -2   -1    0    0    0  501  0.00000000000E+00  0.00000000000E+00  0.23029984635E+03  0.23029984637E+03  0.25500000920E-02 0. -1.
        2   -1    0    0  501    0  0.00000000000E+00  0.00000000000E+00 -0.39824876421E+03  0.39824876422E+03  0.25500000920E-02 0.  1.
    10030    2    1    2    0    0  0.00000000000E+00  0.00000000000E+00 -0.16794891786E+03  0.62854861059E+03  0.60569506921E+03 0.  0.
        1    1    3    3  502    0 -0.23080936010E+02 -0.29935472143E+03 -0.12510122767E+03  0.32526342561E+03  0.50400001928E-02 0. -1.
       -1    1    3    3    0  502  0.23080936010E+02  0.29935472143E+03 -0.42847690188E+02  0.30328518498E+03  0.50400001928E-02 0.  1.
</event>
<event>
 5   0  0.6170500E-02  0.5906827E+03  0.7818609E-02  0.9924927E-01
        4   -1    0    0  501    0  0.00000000000E+00  0.00000000000E+00  0.82515500579E+02  0.82525273315E+02  0.12699999809E+01 0. -1.
       -4   -1    0    0    0  501  0.00000000000E+00  0.00000000000E+00 -0.10570198758E+04  0.10570206387E+04  0.12699999809E+01 0.  1.
    10030    2    1    2    0    0  0.00000000000E+00  0.00000000000E+00 -0.97450437518E+03  0.11395459120E+04  0.59068274764E+03 0.  0.
        1    1    3    3  502    0 -0.25934316872E+02 -0.27617679744E+03 -0.68285754636E+03  0.73704860144E+03  0.50400001928E-02 0. -1.
       -1    1    3    3    0  502  0.25934316872E+02  0.27617679744E+03 -0.29164682882E+03  0.40249731058E+03  0.50400001928E-02 0.  1.
</event>
<event>
 5   0  0.9420349E-02  0.5996981E+03  0.7818609E-02  0.9906033E-01
       -1   -1    0    0    0  501  0.00000000000E+00  0.00000000000E+00  0.15322777297E+03  0.15322777306E+03  0.50400001928E-02 0.  1.
        1   -1    0    0  501    0  0.00000000000E+00  0.00000000000E+00 -0.58676994620E+03  0.58676994622E+03  0.50400001928E-02 0. -1.
    10030    2    1    2    0    0  0.00000000000E+00  0.00000000000E+00 -0.43354217323E+03  0.73999771928E+03  0.59969809786E+03 0.  0.
        2    1    3    3  502    0 -0.11811193506E+03  0.65170901365E+01  0.12321875641E+03  0.17080914380E+03  0.25500000920E-02 0.  1.
       -2    1    3    3    0  502  0.11811193506E+03 -0.65170901365E+01 -0.55676092964E+03  0.56918857548E+03  0.25500000920E-02 0. -1.
</event>
<event>
 5   0  0.9177281E-02  0.5862335E+03  0.7818609E-02  0.9934386E-01
        1   -1    0    0  501    0  0.00000000000E+00  0.00000000000E+00  0.89032421898E+03  0.89032421899E+03  0.50400001928E-02 0. -1.
       -1   -1    0    0    0  501  0.00000000000E+00  0.00000000000E+00 -0.96501272986E+02  0.96501273117E+02  0.50400001928E-02 0.  1.
    10030    2    1    2    0    0  0.00000000000E+00  0.00000000000E+00  0.79382294599E+03  0.98682549211E+03  0.58623347081E+03 0.  0.
        1    1    3    3  502    0  0.22907956541E+03 -0.17723621292E+03  0.47270437826E+03  0.55438213509E+03  0.50400001928E-02 0. -1.
       -1    1    3    3    0  502 -0.22907956541E+03  0.17723621292E+03  0.32111856774E+03  0.43244335702E+03  0.50400001928E-02 0.  1.
</event>
<event>
 5   0  0.1532571E-01  0.5918113E+03  0.7818609E-02  0.9922542E-01
        2   -1    0    0  501    0  0.00000000000E+00  0.00000000000E+00  0.45036267218E+03  0.45036267219E+03  0.25500000920E-02 0. -1.
       -2   -1    0    0    0  501  0.00000000000E+00  0.00000000000E+00 -0.19442145239E+03  0.19442145241E+03  0.25500000920E-02 0.  1.
    10030    2    1    2    0    0  0.00000000000E+00  0.00000000000E+00  0.25594121979E+03  0.64478412459E+03  0.59181133762E+03 0.  0.
        1    1    3    3  502    0 -0.21869065920E+03  0.38824105858E+02 -0.85048016028E+02  0.23783624760E+03  0.50400001928E-02 0.  1.
       -1    1    3    3    0  502  0.21869065920E+03 -0.38824105858E+02  0.34098923582E+03  0.40694787699E+03  0.50400001928E-02 0. -1.
</event>
<event>
 5   0  0.9411028E-02  0.6178226E+03  0.7818609E-02  0.9869104E-01
       -1   -1    0    0    0  501  0.00000000000E+00  0.00000000000E+00  0.68700872839E+02  0.68700873024E+02  0.50400001928E-02 0.  1.
        1   -1    0    0  501    0  0.00000000000E+00  0.00000000000E+00 -0.13890099778E+04  0.13890099779E+04  0.50400001928E-02 0. -1.
    10030    2    1    2    0    0  0.00000000000E+00  0.00000000000E+00 -0.13203091050E+04  0.14577108509E+04  0.61782262180E+03 0.  0.
        4    1    3    3  502    0 -0.10776975321E+02  0.19389468859E+03 -0.12269749925E+04  0.12422481791E+04  0.12699999809E+01 0. -1.
       -4    1    3    3    0  502  0.10776975321E+02 -0.19389468859E+03 -0.93334112525E+02  0.21546267176E+03  0.12699999809E+01 0.  1.
</event>
<event>
 5   0  0.9411028E-02  0.5497508E+03  0.7818609E-02  0.1001552E+00
       -1   -1    0    0    0  501  0.00000000000E+00  0.00000000000E+00  0.13846960794E+03  0.13846960803E+03  0.50400001928E-02 0.  1.
        1   -1    0    0  501    0  0.00000000000E+00  0.00000000000E+00 -0.54565392466E+03  0.54565392469E+03  0.50400001928E-02 0. -1.
    10030    2    1    2    0    0  0.00000000000E+00  0.00000000000E+00 -0.40718431672E+03  0.68412353272E+03  0.54975079831E+03 0.  0.
        4    1    3    3  502    0  0.17018650535E+03  0.67268772466E+02  0.51640364635E+02  0.19014961086E+03  0.12699999809E+01 0.  1.
       -4    1    3    3    0  502 -0.17018650535E+03 -0.67268772466E+02 -0.45882468136E+03  0.49397392186E+03  0.12699999809E+01 0. -1.
</event>
<event>
 5   0  0.8860626E-02  0.5858137E+03  0.7818609E-02  0.9935283E-01
       -1   -1    0    0    0  501  0.00000000000E+00  0.00000000000E+00  0.18225690840E+03  0.18225690847E+03  0.50400001928E-02 0. -1.
        1   -1    0    0  501    0  0.00000000000E+00  0.00000000000E+00 -0.47073343923E+03  0.47073343925E+03  0.50400001928E-02 0.  1.
    10030    2    1    2    0    0  0.00000000000E+00  0.00000000000E+00 -0.28847653083E+03  0.65299034772E+03  0.58581369511E+03 0.  0.
        3    1    3    3  502    0  0.11733488835E+03  0.60334508221E+01 -0.44331658692E+03  0.45862128711E+03  0.10100000352E+00 0.  1.
       -3    1    3    3    0  502 -0.11733488835E+03 -0.60334508221E+01  0.15484005609E+03  0.19436906061E+03  0.10100000352E+00 0. -1.
</event>
<event>
 5   0  0.1502642E-01  0.6044393E+03  0.7818609E-02  0.9896238E-01
        2   -1    0    0  501    0  0.00000000000E+00  0.00000000000E+00  0.65191980612E+03  0.65191980612E+03  0.25500000920E-02 0.  1.
       -2   -1    0    0    0  501  0.00000000000E+00  0.00000000000E+00 -0.14010424156E+03  0.14010424158E+03  0.25500000920E-02 0. -1.
    10030    2    1    2    0    0  0.00000000000E+00  0.00000000000E+00  0.51181556456E+03  0.79202404771E+03  0.60443934354E+03 0.  0.
        2    1    3    3  502    0  0.12133460301E+03 -0.27089631939E+03  0.18143881054E+03  0.34788926934E+03  0.25500000920E-02 0. -1.
       -2    1    3    3    0  502 -0.12133460301E+03  0.27089631939E+03  0.33037675402E+03  0.44413477836E+03  0.25500000920E-02 0.  1.
</event>
<event>
 5   0  0.1483942E-01  0.6074726E+03  0.7818609E-02  0.9890023E-01
        2   -1    0    0  501    0  0.00000000000E+00  0.00000000000E+00  0.59152982091E+03  0.59152982092E+03  0.25500000920E-02 0. -1.
       -2   -1    0    0    0  501  0.00000000000E+00  0.00000000000E+00 -0.15596128362E+03  0.15596128364E+03  0.25500000920E-02 0.  1.
    10030    2    1    2    0    0  0.00000000000E+00  0.00000000000E+00  0.43556853730E+03  0.74749110456E+03  0.60747263371E+03 0.  0.
        4    1    3    3  502    0 -0.51140695414E+02 -0.20844605582E+03 -0.46668811652E+02  0.21964680693E+03  0.12699999809E+01 0.  1.
       -4    1    3    3    0  502  0.51140695414E+02  0.20844605582E+03  0.48223734895E+03  0.52784429763E+03  0.12699999809E+01 0. -1.
</event>
<event>
 5   0  0.1488510E-01  0.6127519E+03  0.7818609E-02  0.9879297E-01
        2   -1    0    0  501    0  0.00000000000E+00  0.00000000000E+00  0.12368391291E+04  0.12368391291E+04  0.25500000920E-02 0. -1.
       -2   -1    0    0    0  501  0.00000000000E+00  0.00000000000E+00 -0.75892027053E+02  0.75892027096E+02  0.25500000920E-02 0.  1.
    10030    2    1    2    0    0  0.00000000000E+00  0.00000000000E+00  0.11609471020E+04  0.13127311562E+04  0.61275191937E+03 0.  0.
        5    1    3    3  502    0 -0.62278457395E+02 -0.23898146251E+03  0.19216117977E+03  0.31295168107E+03  0.46999998093E+01 0.  1.
       -5    1    3    3    0  502  0.62278457395E+02  0.23898146251E+03  0.96878592223E+03  0.99977947508E+03  0.46999998093E+01 0. -1.
</event>
<event>
 5   0  0.1513339E-01  0.6107944E+03  0.7818609E-02  0.9883261E-01
       -2   -1    0    0    0  501  0.00000000000E+00  0.00000000000E+00  0.15730509464E+03  0.15730509467E+03  0.25500000920E-02 0.  1.
        2   -1    0    0  501    0  0.00000000000E+00  0.00000000000E+00 -0.59290809128E+03  0.59290809129E+03  0.25500000920E-02 0. -1.
    10030    2    1    2    0    0  0.00000000000E+00  0.00000000000E+00 -0.43560299664E+03  0.75021318595E+03  0.61079444472E+03 0.  0.
        3    1    3    3  502    0  0.21300597056E+03 -0.59325000584E+02 -0.47654289190E+03  0.52534192409E+03  0.10100000352E+00 0. -1.
       -3    1    3    3    0  502 -0.21300597056E+03  0.59325000584E+02  0.40939895261E+02  0.22487126186E+03  0.10100000352E+00 0.  1.
</event>
<event>
 5   0  0.1488510E-01  0.5643762E+03  0.7818609E-02  0.9982201E-01
        2   -1    0    0  501    0  0.00000000000E+00  0.00000000000E+00  0.60153844163E+03  0.60153844163E+03  0.25500000920E-02 0. -1.
       -2   -1    0    0    0  501  0.00000000000E+00  0.00000000000E+00 -0.13237744673E+03  0.13237744676E+03  0.25500000920E-02 0.  1.
    10030    2    1    2    0    0  0.00000000000E+00  0.00000000000E+00  0.46916099489E+03  0.73391588839E+03  0.56437619732E+03 0.  0.
        5    1    3    3  502    0  0.54471821848E+02  0.26680706743E+03  0.13853683661E+03  0.30556134523E+03  0.46999998093E+01 0.  1.
       -5    1    3    3    0  502 -0.54471821848E+02 -0.26680706743E+03  0.33062415829E+03  0.42835454316E+03  0.46999998093E+01 0. -1.
</event>
<event>
 5   0  0.1502642E-01  0.6117401E+03  0.7818609E-02  0.9881344E-01
        2   -1    0    0  501    0  0.00000000000E+00  0.00000000000E+00  0.12218951316E+04  0.12218951316E+04  0.25500000920E-02 0.  1.
       -2   -1    0    0    0  501  0.00000000000E+00  0.00000000000E+00 -0.76566702821E+02  0.76566702863E+02  0.25500000920E-02 0. -1.
    10030    2    1    2    0    0  0.00000000000E+00  0.00000000000E+00  0.11453284288E+04  0.12984618344E+04  0.61174008025E+03 0.  0.
        2    1    3    3  502    0 -0.73116558083E+02 -0.21370422067E+03  0.13487417304E+03  0.26307141152E+03  0.25500000920E-02 0. -1.
       -2    1    3    3    0  502  0.73116558083E+02  0.21370422067E+03  0.10104542557E+04  0.10353904229E+04  0.25500000920E-02 0.  1.
</event>
<event>
 5   0  0.9177281E-02  0.5973348E+03  0.7818609E-02  0.9910951E-01
       -1   -1    0    0    0  501  0.00000000000E+00  0.00000000000E+00  0.20816658419E+03  0.20816658425E+03  0.50400001928E-02 0.  1.
        1   -1    0    0  501    0  0.00000000000E+00  0.00000000000E+00 -0.42851355600E+03  0.42851355603E+03  0.50400001928E-02 0. -1.
    10030    2    1    2    0    0  0.00000000000E+00  0.00000000000E+00 -0.22034697182E+03  0.63668014028E+03  0.59733475794E+03 0.  0.
        1    1    3    3  502    0  0.20454432089E+03 -0.21520690185E+03 -0.14470849526E+03  0.33029220160E+03  0.50400001928E-02 0.  1.
       -1    1    3    3    0  502 -0.20454432089E+03  0.21520690185E+03 -0.75638476561E+02  0.30638793869E+03  0.50400001928E-02 0. -1.
</event>
<event>
 5   0  0.9411028E-02  0.6037172E+03  0.7818609E-02  0.9897724E-01
        1   -1    0    0  501    0  0.00000000000E+00  0.00000000000E+00  0.35307606559E+03  0.35307606562E+03  0.50400001928E-02 0. -1.
       -1   -1    0    0    0  501  0.00000000000E+00  0.00000000000E+00 -0.25807074626E+03  0.25807074631E+03  0.50400001928E-02 0.  1.
    10030    2    1    2    0    0  0.00000000000E+00  0.00000000000E+00  0.95005319323E+02  0.61114681193E+03  0.60371716477E+03 0.  0.
        4    1    3    3  502    0 -0.14233899346E+03 -0.10694057636E+03  0.29426535278E+03  0.34393369518E+03  0.12699999809E+01 0. -1.
       -4    1    3    3    0  502  0.14233899346E+03  0.10694057636E+03 -0.19926003346E+03  0.26721311675E+03  0.12699999809E+01 0.  1.
</event>
<event>
 5   0  0.1483942E-01  0.6402902E+03  0.7818609E-02  0.9825172E-01
       -2   -1    0    0    0  501  0.00000000000E+00  0.00000000000E+00  0.10936996038E+03  0.10936996041E+03  0.25500000920E-02 0.  1.
        2   -1    0    0  501    0  0.00000000000E+00  0.00000000000E+00 -0.93712087834E+03  0.93712087835E+03  0.25500000920E-02 0. -1.
    10030    2    1    2    0    0  0.00000000000E+00  0.00000000000E+00 -0.82775091796E+03  0.10464908388E+04  0.64029016345E+03 0.  0.
        4    1    3    3  502    0 -0.68699109401E+02  0.28736915194E+03 -0.21243487577E+03  0.36391040994E+03  0.12699999809E+01 0.  1.
       -4    1    3    3    0  502  0.68699109401E+02 -0.28736915194E+03 -0.61531604220E+03  0.68258042882E+03  0.12699999809E+01 0. -1.
</event>
<event>
 5   0  0.1483942E-01  0.6138976E+03  0.7818609E-02  0.9876985E-01
       -2   -1    0    0    0  501  0.00000000000E+00  0.00000000000E+00  0.92321857266E+02  0.92321857301E+02  0.25500000920E-02 0.  1.
        2   -1    0    0  501    0  0.00000000000E+00  0.00000000000E+00 -0.10205335537E+04  0.10205335537E+04  0.25500000920E-02 0. -1.
    10030    2    1    2    0    0  0.00000000000E+00  0.00000000000E+00 -0.92821169647E+03  0.11128554110E+04  0.61389755857E+03 0.  0.
        4    1    3    3  502    0  0.27420574083E+02 -0.54485600805E+02 -0.10094316160E+04  0.10112736370E+04  0.12699999809E+01 0. -1.
       -4    1    3    3    0  502 -0.27420574083E+02  0.54485600805E+02  0.81219919568E+02  0.10158177402E+03  0.12699999809E+01 0.  1.
</event>
<event>
 5   0  0.9420349E-02  0.6085949E+03  0.7818609E-02  0.9887733E-01
        1   -1    0    0  501    0  0.00000000000E+00  0.00000000000E+00  0.10460942952E+04  0.10460942952E+04  0.50400001928E-02 0.  1.
       -1   -1    0    0    0  501  0.00000000000E+00  0.00000000000E+00 -0.88516824510E+02  0.88516824653E+02  0.50400001928E-02 0. -1.
    10030    2    1    2    0    0  0.00000000000E+00  0.00000000000E+00  0.95757747069E+03  0.11346111199E+04  0.60859492353E+03 0.  0.
        2    1    3    3  502    0 -0.22493161861E+03  0.20457947685E+03  0.50161798831E+03  0.58657275900E+03  0.25500000920E-02 0. -1.
       -2    1    3    3    0  502  0.22493161861E+03 -0.20457947685E+03  0.45595948238E+03  0.54803836086E+03  0.25500000920E-02 0.  1.
</event>
<event>
 5   0  0.6170500E-02  0.6011798E+03  0.7818609E-02  0.9902961E-01
        4   -1    0    0  501    0  0.00000000000E+00  0.00000000000E+00  0.20865002985E+03  0.20865389490E+03  0.12699999809E+01 0.  1.
       -4   -1    0    0    0  501  0.00000000000E+00  0.00000000000E+00 -0.43303353095E+03  0.43303539327E+03  0.12699999809E+01 0. -1.
    10030    2    1    2    0    0  0.00000000000E+00  0.00000000000E+00 -0.22438350110E+03  0.64168928817E+03  0.60117982916E+03 0.  0.
        4    1    3    3  502    0 -0.65201523408E+02 -0.14716411308E+03  0.15877262888E+03  0.22609483721E+03  0.12699999809E+01 0. -1.
       -4    1    3    3    0  502  0.65201523408E+02  0.14716411308E+03 -0.38315612998E+03  0.41559445096E+03  0.12699999809E+01 0.  1.
</event>
<event>
 5   0  0.1502642E-01  0.6000290E+03  0.7818609E-02  0.9905346E-01
       -2   -1    0    0    0  501  0.00000000000E+00  0.00000000000E+00  0.44377627650E+02  0.44377627723E+02  0.25500000920E-02 0. -1.
        2   -1    0    0  501    0  0.00000000000E+00  0.00000000000E+00 -0.20282449937E+04  0.20282449937E+04  0.25500000920E-02 0.  1.
    10030    2    1    2    0    0  0.00000000000E+00  0.00000000000E+00 -0.19838673660E+04  0.20726226214E+04  0.60002900327E+03 0.  0.
        2    1    3    3  502    0 -0.13147581427E+03 -0.55342806671E+02 -0.80259451421E+02  0.16367741304E+03  0.25500000920E-02 0. -1.
       -2    1    3    3    0  502  0.13147581427E+03  0.55342806671E+02 -0.19036079146E+04  0.19089452084E+04  0.25500000920E-02 0.  1.
</event>
<event>
 5   0  0.1513339E-01  0.5091968E+03  0.7818609E-02  0.1011406E+00
        2   -1    0    0  501    0  0.00000000000E+00  0.00000000000E+00  0.28644767329E+03  0.28644767330E+03  0.25500000920E-02 0.  1.
       -2   -1    0    0    0  501  0.00000000000E+00  0.00000000000E+00 -0.22629035275E+03  0.22629035276E+03  0.25500000920E-02 0. -1.
    10030    2    1    2    0    0  0.00000000000E+00  0.00000000000E+00  0.60157320544E+02  0.51273802607E+03  0.50919679905E+03 0.  0.
        3    1    3    3  502    0 -0.16305770613E+03  0.17883670673E+03  0.10968509805E+03  0.26570888983E+03  0.10100000352E+00 0. -1.
       -3    1    3    3    0  502  0.16305770613E+03 -0.17883670673E+03 -0.49527777506E+02  0.24702913623E+03  0.10100000352E+00 0.  1.
</event>
<event>
 5   0  0.6170500E-02  0.5998488E+03  0.7818609E-02  0.9905720E-01
        3   -1    0    0  501    0  0.00000000000E+00  0.00000000000E+00  0.15432432169E+03  0.15432435474E+03  0.10100000352E+00 0.  1.
       -3   -1    0    0    0  501  0.00000000000E+00  0.00000000000E+00 -0.58289349784E+03  0.58289350659E+03  0.10100000352E+00 0. -1.
    10030    2    1    2    0    0  0.00000000000E+00  0.00000000000E+00 -0.42856917615E+03  0.73721786133E+03  0.59984884456E+03 0.  0.
        1    1    3    3  502    0  0.77407646516E+02 -0.13291966220E+03 -0.53072698644E+03  0.55256738458E+03  0.50400001928E-02 0. -1.
       -1    1    3    3    0  502 -0.77407646516E+02  0.13291966220E+03  0.10215781029E+03  0.18465047675E+03  0.50400001928E-02 0.  1.
</event>
<event>
 5   0  0.6170500E-02  0.6077806E+03  0.7818609E-02  0.9889394E-01
       -3   -1    0    0    0  501  0.00000000000E+00  0.00000000000E+00  0.31152512080E+03  0.31152513717E+03  0.10100000352E+00 0. -1.
        3   -1    0    0  501    0  0.00000000000E+00  0.00000000000E+00 -0.29644253106E+03  0.29644254827E+03  0.10100000352E+00 0.  1.
    10030    2    1    2    0    0  0.00000000000E+00  0.00000000000E+00  0.15082589732E+02  0.60796768544E+03  0.60778057062E+03 0.  0.
        2    1    3    3  502    0 -0.10748422406E+03 -0.17335255944E+03 -0.21779531451E+03  0.29839364490E+03  0.25500000920E-02 0.  1.
       -2    1    3    3    0  502  0.10748422406E+03  0.17335255944E+03  0.23287790424E+03  0.30957404054E+03  0.25500000920E-02 0. -1.
</event>
<event>
 5   0  0.1502642E-01  0.5995358E+03  0.7818609E-02  0.9906369E-01
        2   -1    0    0  501    0  0.00000000000E+00  0.00000000000E+00  0.74738370179E+03  0.74738370179E+03  0.25500000920E-02 0.  1.
       -2   -1    0    0    0  501  0.00000000000E+00  0.00000000000E+00 -0.12023383315E+03  0.12023383318E+03  0.25500000920E-02 0. -1.
    10030    2    1    2    0    0  0.00000000000E+00  0.00000000000E+00  0.62714986864E+03  0.86761753497E+03  0.59953584485E+03 0.  0.
        2    1    3    3  502    0  0.27402624076E+03 -0.93599091284E+02  0.20138929181E+03  0.35271634124E+03  0.25500000920E-02 0. -1.
       -2    1    3    3    0  502 -0.27402624076E+03  0.93599091284E+02  0.42576057683E+03  0.51490119373E+03  0.25500000920E-02 0.  1.
</event>
<event>
 5   0  0.1532571E-01  0.6191806E+03  0.7818609E-02  0.9866393E-01
       -2   -1    0    0    0  501  0.00000000000E+00  0.00000000000E+00  0.72857122820E+02  0.72857122865E+02  0.25500000920E-02 0. -1.
        2   -1    0    0  501    0  0.00000000000E+00  0.00000000000E+00 -0.13155357558E+04  0.13155357558E+04  0.25500000920E-02 0.  1.
    10030    2    1    2    0    0  0.00000000000E+00  0.00000000000E+00 -0.12426786330E+04  0.13883928787E+04  0.61918058810E+03 0.  0.
        1    1    3    3  502    0  0.15547971234E+03  0.76559943521E+02 -0.11965720323E+04  0.12090574819E+04  0.50400001928E-02 0.  1.
       -1    1    3    3    0  502 -0.15547971234E+03 -0.76559943521E+02 -0.46106600678E+02  0.17933539682E+03  0.50400001928E-02 0. -1.
</event>
<event>
 5   0  0.8860626E-02  0.6080734E+03  0.7818609E-02  0.9888797E-01
        1   -1    0    0  501    0  0.00000000000E+00  0.00000000000E+00  0.32631141755E+03  0.32631141759E+03  0.50400001928E-02 0. -1.
       -1   -1    0    0    0  501  0.00000000000E+00  0.00000000000E+00 -0.28328245916E+03  0.28328245921E+03  0.50400001928E-02 0.  1.
    10030    2    1    2    0    0  0.00000000000E+00  0.00000000000E+00  0.43028958385E+02  0.60959387680E+03  0.60807335361E+03 0.  0.
        3    1    3    3  502    0 -0.84546256423E+01 -0.41339436553E+02 -0.28033286372E+03  0.28349066015E+03  0.10100000352E+00 0.  1.
       -3    1    3    3    0  502  0.84546256423E+01  0.41339436553E+02  0.32336182211E+03  0.32610321665E+03  0.10100000352E+00 0. -1.
</event>
<event>
 5   0  0.1488510E-01  0.5907580E+03  0.7818609E-02  0.9924768E-01
        2   -1    0    0  501    0  0.00000000000E+00  0.00000000000E+00  0.13812837642E+04  0.13812837642E+04  0.25500000920E-02 0.  1.
       -2   -1    0    0    0  501  0.00000000000E+00  0.00000000000E+00 -0.63164975660E+02  0.63164975711E+02  0.25500000920E-02 0. -1.
    10030    2    1    2    0    0  0.00000000000E+00  0.00000000000E+00  0.13181187886E+04  0.14444487399E+04  0.59075800590E+03 0.  0.
        5    1    3    3  502    0 -0.16847524695E+03  0.52316685230E+02  0.12382161043E+04  0.12507286498E+04  0.46999998093E+01 0.  1.
       -5    1    3    3    0  502  0.16847524695E+03 -0.52316685230E+02  0.79902684263E+02  0.19372009018E+03  0.46999998093E+01 0. -1.
</event>
<event>
 5   0  0.1483942E-01  0.6048927E+03  0.7818609E-02  0.9895307E-01
        2   -1    0    0  501    0  0.00000000000E+00  0.00000000000E+00  0.87289297706E+03  0.87289297707E+03  0.25500000920E-02 0. -1.
       -2   -1    0    0    0  501  0.00000000000E+00  0.00000000000E+00 -0.10479383671E+03  0.10479383674E+03  0.25500000920E-02 0.  1.
    10030    2    1    2    0    0  0.00000000000E+00  0.00000000000E+00  0.76809914036E+03  0.97768681380E+03  0.60489273137E+03 0.  0.
        4    1    3    3  502    0  0.26222070015E+02 -0.28986924680E+03  0.25115475459E+03  0.38443738222E+03  0.12699999809E+01 0.  1.
       -4    1    3    3    0  502 -0.26222070015E+02  0.28986924680E+03  0.51694438577E+03  0.59324943158E+03  0.12699999809E+01 0. -1.
</event>
<event>
 5   0  0.1502642E-01  0.6074337E+03  0.7818609E-02  0.9890102E-01
       -2   -1    0    0    0  501  0.00000000000E+00  0.00000000000E+00  0.71474722886E+02  0.71474722931E+02  0.25500000920E-02 0. -1.
        2   -1    0    0  501    0  0.00000000000E+00  0.00000000000E+00 -0.12905811629E+04  0.12905811629E+04  0.25500000920E-02 0.  1.
    10030    2    1    2    0    0  0.00000000000E+00  0.00000000000E+00 -0.12191064400E+04  0.13620558858E+04  0.60743371988E+03 0.  0.
        2    1    3    3  502    0  0.31065214325E+02  0.29412711658E+03 -0.45471800400E+03  0.54244287388E+03  0.25500000920E-02 0. -1.
       -2    1    3    3    0  502 -0.31065214325E+02 -0.29412711658E+03 -0.76438843600E+03  0.81961301194E+03  0.25500000920E-02 0.  1.
</event>
<event>
 5   0  0.8860626E-02  0.5006112E+03  0.7818609E-02  0.1013620E+00
        1   -1    0    0  501    0  0.00000000000E+00  0.00000000000E+00  0.72174827542E+02  0.72174827718E+02  0.50400001928E-02 0.  1.
       -1   -1    0    0    0  501  0.00000000000E+00  0.00000000000E+00 -0.86807125436E+03  0.86807125438E+03  0.50400001928E-02 0. -1.
    10030    2    1    2    0    0  0.00000000000E+00  0.00000000000E+00 -0.79589642682E+03  0.94024608210E+03  0.50061119910E+03 0.  0.
        3    1    3    3  502    0  0.81104263536E+01 -0.14365855249E+03 -0.13264804308E+02  0.14449748770E+03  0.10100000352E+00 0.  1.
       -3    1    3    3    0  502 -0.81104263536E+01  0.14365855249E+03 -0.78263162251E+03  0.79574859439E+03  0.10100000352E+00 0. -1.
</event>
<event>
 5   0  0.9497860E-02  0.5920599E+03  0.7818609E-02  0.9922018E-01
       -1   -1    0    0    0  501  0.00000000000E+00  0.00000000000E+00  0.49615698707E+02  0.49615698963E+02  0.50400001928E-02 0. -1.
        1   -1    0    0  501    0  0.00000000000E+00  0.00000000000E+00 -0.17662500330E+04  0.17662500330E+04  0.50400001928E-02 0.  1.
    10030    2    1    2    0    0  0.00000000000E+00  0.00000000000E+00 -0.17166343343E+04  0.18158657320E+04  0.59205989467E+03 0.  0.
        5    1    3    3  502    0  0.97844328450E+02 -0.89157683418E+02 -0.46341287442E+02  0.14032893516E+03  0.46999998093E+01 0. -1.
       -5    1    3    3    0  502 -0.97844328450E+02  0.89157683418E+02 -0.16702930469E+04  0.16755367968E+04  0.46999998093E+01 0.  1.
</event>
<event>
 5   0  0.1532571E-01  0.5823818E+03  0.7818609E-02  0.9942648E-01
       -2   -1    0    0    0  501  0.00000000000E+00  0.00000000000E+00  0.12731541683E+03  0.12731541685E+03  0.25500000920E-02 0. -1.
        2   -1    0    0  501    0  0.00000000000E+00  0.00000000000E+00 -0.66600053014E+03  0.66600053015E+03  0.25500000920E-02 0.  1.
    10030    2    1    2    0    0  0.00000000000E+00  0.00000000000E+00 -0.53868511331E+03  0.79331594700E+03  0.58238178239E+03 0.  0.
        1    1    3    3  502    0 -0.28461610411E+03 -0.61352049176E+02 -0.26299198911E+03  0.39234574934E+03  0.50400001928E-02 0.  1.
       -1    1    3    3    0  502  0.28461610411E+03  0.61352049176E+02 -0.27569312420E+03  0.40097019766E+03  0.50400001928E-02 0. -1.
</event>
<event>
 5   0  0.1488510E-01  0.5315130E+03  0.7818609E-02  0.1005866E+00
       -2   -1    0    0    0  501  0.00000000000E+00  0.00000000000E+00  0.80091723858E+02  0.80091723898E+02  0.25500000920E-02 0. -1.
        2   -1    0    0  501    0  0.00000000000E+00  0.00000000000E+00 -0.88182025452E+03  0.88182025452E+03  0.25500000920E-02 0.  1.
    10030    2    1    2    0    0  0.00000000000E+00  0.00000000000E+00 -0.80172853066E+03  0.96191197842E+03  0.53151295126E+03 0.  0.
        5    1    3    3  502    0 -0.81372257417E+01 -0.35555665611E+02  0.75464267367E+02  0.83948588119E+02  0.46999998093E+01 0. -1.
       -5    1    3    3    0  502  0.81372257417E+01  0.35555665611E+02 -0.87719279803E+03  0.87796339030E+03  0.46999998093E+01 0.  1.
</event>
<event>
 5   0  0.1488510E-01  0.6263384E+03  0.7818609E-02  0.9852220E-01
        2   -1    0    0  501    0  0.00000000000E+00  0.00000000000E+00  0.10465127465E+04  0.10465127465E+04  0.25500000920E-02 0.  1.
       -2   -1    0    0    0  501  0.00000000000E+00  0.00000000000E+00 -0.93715952235E+02  0.93715952270E+02  0.25500000920E-02 0. -1.
    10030    2    1    2    0    0  0.00000000000E+00  0.00000000000E+00  0.95279679430E+03  0.11402286988E+04  0.62633837050E+03 0.  0.
        5    1    3    3  502    0 -0.18079724475E+03 -0.24578747049E+03  0.60452781790E+03  0.67718173113E+03  0.46999998093E+01 0.  1.
       -5    1    3    3    0  502  0.18079724475E+03  0.24578747049E+03  0.34826897641E+03  0.46304696769E+03  0.46999998093E+01 0. -1.
</event>
<event>
 5   0  0.9420349E-02  0.6045294E+03  0.7818609E-02  0.9896053E-01
        1   -1    0    0  501    0  0.00000000000E+00  0.00000000000E+00  0.24451893013E+03  0.24451893018E+03  0.50400001928E-02 0. -1.
       -1   -1    0    0    0  501  0.00000000000E+00  0.00000000000E+00 -0.37364772128E+03  0.37364772131E+03  0.50400001928E-02 0.  1.
    10030    2    1    2    0    0  0.00000000000E+00  0.00000000000E+00 -0.12912879115E+03  0.61816665150E+03  0.60452937424E+03 0.  0.
        2    1    3    3  502    0  0.23116129008E+03 -0.19452103765E+03 -0.54865442995E+02  0.30705731218E+03  0.25500000920E-02 0. -1.
       -2    1    3    3    0  502 -0.23116129008E+03  0.19452103765E+03 -0.74263348156E+02  0.31110933931E+03  0.25500000920E-02 0.  1.
</event>
<event>
 5   0  0.9411028E-02  0.5953516E+03  0.7818609E-02  0.9915097E-01
        1   -1    0    0  501    0  0.00000000000E+00  0.00000000000E+00  0.90005703911E+03  0.90005703912E+03  0.50400001928E-02 0.  1.
       -1   -1    0    0    0  501  0.00000000000E+00  0.00000000000E+00 -0.98450289289E+02  0.98450289418E+02  0.50400001928E-02 0. -1.
    10030    2    1    2    0    0  0.00000000000E+00  0.00000000000E+00  0.80160674982E+03  0.99850732854E+03  0.59535157999E+03 0.  0.
        4    1    3    3  502    0 -0.24171093143E+03 -0.15463256981E+03  0.26795842326E+03  0.39260506302E+03  0.12699999809E+01 0. -1.
       -4    1    3    3    0  502  0.24171093143E+03  0.15463256981E+03  0.53364832656E+03  0.60590226552E+03  0.12699999809E+01 0.  1.
</event>
<event>
 5   0  0.9420349E-02  0.5971394E+03  0.7818609E-02  0.9911359E-01
       -1   -1    0    0    0  501  0.00000000000E+00  0.00000000000E+00  0.97831571808E+03  0.97831571810E+03  0.50400001928E-02 0.  1.
        1   -1    0    0  501    0  0.00000000000E+00  0.00000000000E+00 -0.91119721088E+02  0.91119721228E+02  0.50400001928E-02 0. -1.
    10030    2    1    2    0    0  0.00000000000E+00  0.00000000000E+00  0.88719599700E+03  0.10694354393E+04  0.59713936547E+03 0.  0.
        2    1    3    3  502    0 -0.12780065902E+03 -0.26755646280E+03  0.50626488018E+03  0.58670571682E+03  0.25500000920E-02 0.  1.
       -2    1    3    3    0  502  0.12780065902E+03  0.26755646280E+03  0.38093111681E+03  0.48272972251E+03  0.25500000920E-02 0. -1.
</event>
<event>
 5   0  0.1532571E-01  0.6140617E+03  0.7818609E-02  0.9876654E-01
       -2   -1    0    0    0  501  0.00000000000E+00  0.00000000000E+00  0.83480559244E+02  0.83480559283E+02  0.25500000920E-02 0. -1.
        2   -1    0    0  501    0  0.00000000000E+00  0.00000000000E+00 -0.11292202566E+04  0.11292202566E+04  0.25500000920E-02 0.  1.
    10030    2    1    2    0    0  0.00000000000E+00  0.00000000000E+00 -0.10457396974E+04  0.12127008159E+04  0.61406168602E+03 0.  0.
        1    1    3    3  502    0 -0.11760996740E+03  0.10000519660E+03 -0.10469953560E+04  0.10583158410E+04  0.50400001928E-02 0.  1.
       -1    1    3    3    0  502  0.11760996740E+03 -0.10000519660E+03  0.12556586150E+01  0.15438497493E+03  0.50400001928E-02 0. -1.
</event>
<event>
 5   0  0.1488510E-01  0.6004434E+03  0.7818609E-02  0.9904487E-01
       -2   -1    0    0    0  501  0.00000000000E+00  0.00000000000E+00  0.21185578522E+03  0.21185578523E+03  0.25500000920E-02 0. -1.
        2   -1    0    0  501    0  0.00000000000E+00  0.00000000000E+00 -0.42544544345E+03  0.42544544346E+03  0.25500000920E-02 0.  1.
    10030    2    1    2    0    0  0.00000000000E+00  0.00000000000E+00 -0.21358965823E+03  0.63730122869E+03  0.60044343113E+03 0.  0.
        5    1    3    3  502    0  0.72720272922E+01 -0.29264931125E+03 -0.36274754017E+02  0.29501601573E+03  0.46999998093E+01 0. -1.
       -5    1    3    3    0  502 -0.72720272922E+01  0.29264931125E+03 -0.17731490422E+03  0.34228521296E+03  0.46999998093E+01 0.  1.
</event>
<event>
 5   0  0.1513339E-01  0.5940128E+03  0.7818609E-02  0.9917906E-01
       -2   -1    0    0    0  501  0.00000000000E+00  0.00000000000E+00  0.24233131840E+03  0.24233131842E+03  0.25500000920E-02 0. -1.
        2   -1    0    0  501    0  0.00000000000E+00  0.00000000000E+00 -0.36401735200E+03  0.36401735201E+03  0.25500000920E-02 0.  1.
    10030    2    1    2    0    0  0.00000000000E+00  0.00000000000E+00 -0.12168603359E+03  0.60634867042E+03  0.59401281076E+03 0.  0.
        3    1    3    3  502    0 -0.25639504433E+03 -0.14838588200E+03 -0.39045257629E+02  0.29879981774E+03  0.10100000352E+00 0. -1.
       -3    1    3    3    0  502  0.25639504433E+03  0.14838588200E+03 -0.82640775965E+02  0.30754885269E+03  0.10100000352E+00 0.  1.
</event>
<event>
 5   0  0.9411028E-02  0.6027085E+03  0.7818609E-02  0.9899803E-01
        1   -1    0    0  501    0  0.00000000000E+00  0.00000000000E+00  0.57611509535E+03  0.57611509537E+03  0.50400001928E-02 0.  1.
       -1   -1    0    0    0  501  0.00000000000E+00  0.00000000000E+00 -0.15763237277E+03  0.15763237285E+03  0.50400001928E-02 0. -1.
    10030    2    1    2    0    0  0.00000000000E+00  0.00000000000E+00  0.41848272258E+03  0.73374746822E+03  0.60270851829E+03 0.  0.
        4    1    3    3  502    0  0.24249987642E+03  0.14939920680E+03  0.32905931834E+03  0.43521024912E+03  0.12699999809E+01 0.  1.
       -4    1    3    3    0  502 -0.24249987642E+03 -0.14939920680E+03  0.89423404242E+02  0.29853721909E+03  0.12699999809E+01 0. -1.
</event>
<event>
 5   0  0.1532571E-01  0.5939730E+03  0.7818609E-02  0.9917990E-01
       -2   -1    0    0    0  501  0.00000000000E+00  0.00000000000E+00  0.79634195740E+02  0.79634195781E+02  0.25500000920E-02 0. -1.
        2   -1    0    0  501    0  0.00000000000E+00  0.00000000000E+00 -0.11075765600E+04  0.11075765600E+04  0.25500000920E-02 0.  1.
    10030    2    1    2    0    0  0.00000000000E+00  0.00000000000E+00 -0.10279423642E+04  0.11872107558E+04  0.59397295763E+03 0.  0.
        1    1    3    3  502    0  0.43699401524E+02 -0.22530438137E+03 -0.13722030581E+03  0.26739692277E+03  0.50400001928E-02 0. -1.
       -1    1    3    3    0  502 -0.43699401524E+02  0.22530438137E+03 -0.89072205843E+03  0.91981383298E+03  0.50400001928E-02 0.  1.
</event>
<event>
 5   0  0.9411028E-02  0.6073641E+03  0.7818609E-02  0.9890245E-01
       -1   -1    0    0    0  501  0.00000000000E+00  0.00000000000E+00  0.30814140983E+03  0.30814140987E+03  0.50400001928E-02 0. -1.
        1   -1    0    0  501    0  0.00000000000E+00  0.00000000000E+00 -0.29928725983E+03  0.29928725987E+03  0.50400001928E-02 0.  1.
    10030    2    1    2    0    0  0.00000000000E+00  0.00000000000E+00  0.88541500011E+01  0.60742866974E+03  0.60736413531E+03 0.  0.
        4    1    3    3  502    0  0.30234136791E+03  0.28129776943E+02 -0.38263446170E-03  0.30364979828E+03  0.12699999809E+01 0.  1.
       -4    1    3    3    0  502 -0.30234136791E+03 -0.28129776943E+02  0.88545326356E+01  0.30377887146E+03  0.12699999809E+01 0. -1.
</event>
<event>
 5   0  0.1513339E-01  0.6019530E+03  0.7818609E-02  0.9901363E-01
       -2   -1    0    0    0  501  0.00000000000E+00  0.00000000000E+00  0.56825250843E+03  0.56825250843E+03  0.25500000920E-02 0.  1.
        2   -1    0    0  501    0  0.00000000000E+00  0.00000000000E+00 -0.15941301907E+03  0.15941301909E+03  0.25500000920E-02 0. -1.
    10030    2    1    2    0    0  0.00000000000E+00  0.00000000000E+00  0.40883948936E+03  0.72766552752E+03  0.60195298146E+03 0.  0.
        3    1    3    3  502    0  0.19593646717E+03 -0.16135825682E+03  0.89039315788E+01  0.25398203954E+03  0.10100000352E+00 0. -1.
       -3    1    3    3    0  502 -0.19593646717E+03  0.16135825682E+03  0.39993555778E+03  0.47368348798E+03  0.10100000352E+00 0.  1.
</event>
<event>
 5   0  0.1483942E-01  0.6172076E+03  0.7818609E-02  0.9870335E-01
        2   -1    0    0  501    0  0.00000000000E+00  0.00000000000E+00  0.12151700581E+04  0.12151700581E+04  0.25500000920E-02 0. -1.
       -2   -1    0    0    0  501  0.00000000000E+00  0.00000000000E+00 -0.78372826082E+02  0.78372826123E+02  0.25500000920E-02 0.  1.
    10030    2    1    2    0    0  0.00000000000E+00  0.00000000000E+00  0.11367972321E+04  0.12935428843E+04  0.61720762035E+03 0.  0.
        4    1    3    3  502    0 -0.26012604383E+03 -0.17260970468E+02  0.22229856138E+03  0.34261022032E+03  0.12699999809E+01 0.  1.
       -4    1    3    3    0  502  0.26012604383E+03  0.17260970468E+02  0.91449867068E+03  0.95093266395E+03  0.12699999809E+01 0. -1.
</event>
<event>
 5   0  0.9177281E-02  0.7863528E+03  0.7818609E-02  0.9579984E-01
        1   -1    0    0  501    0  0.00000000000E+00  0.00000000000E+00  0.54542011430E+03  0.54542011433E+03  0.50400001928E-02 0. -1.
       -1   -1    0    0    0  501  0.00000000000E+00  0.00000000000E+00 -0.28342867465E+03  0.28342867469E+03  0.50400001928E-02 0.  1.
    10030    2    1    2    0    0  0.00000000000E+00  0.00000000000E+00  0.26199143966E+03  0.82884878902E+03  0.78635284739E+03 0.  0.
        1    1    3    3  502    0 -0.86819765949E+01  0.24592855718E+03  0.45421291120E+03  0.51659036062E+03  0.50400001928E-02 0. -1.
       -1    1    3    3    0  502  0.86819765949E+01 -0.24592855718E+03 -0.19222147155E+03  0.31225842840E+03  0.50400001928E-02 0.  1.
</event>
<event>
 5   0  0.1532571E-01  0.6543812E+03  0.7818609E-02  0.9798593E-01
       -2   -1    0    0    0  501  0.00000000000E+00  0.00000000000E+00  0.31410061808E+03  0.31410061809E+03  0.25500000920E-02 0.  1.
        2   -1    0    0  501    0  0.00000000000E+00  0.00000000000E+00 -0.34082613066E+03  0.34082613067E+03  0.25500000920E-02 0. -1.
    10030    2    1    2    0    0  0.00000000000E+00  0.00000000000E+00 -0.26725512577E+02  0.65492674876E+03  0.65438122927E+03 0.  0.
        1    1    3    3  502    0 -0.93281870244E+02  0.25544051565E+03  0.16872938495E+03  0.32003276352E+03  0.50400001928E-02 0.  1.
       -1    1    3    3    0  502  0.93281870244E+02 -0.25544051565E+03 -0.19545489753E+03  0.33489398524E+03  0.50400001928E-02 0. -1.
</event>
<event>
 5   0  0.8860626E-02  0.6001414E+03  0.7818609E-02  0.9905113E-01
       -1   -1    0    0    0  501  0.00000000000E+00  0.00000000000E+00  0.23447349985E+03  0.23447349990E+03  0.50400001928E-02 0.  1.
        1   -1    0    0  501    0  0.00000000000E+00  0.00000000000E+00 -0.38401960584E+03  0.38401960588E+03  0.50400001928E-02 0. -1.
    10030    2    1    2    0    0  0.00000000000E+00  0.00000000000E+00 -0.14954610600E+03  0.61849310578E+03  0.60014138674E+03 0.  0.
        3    1    3    3  502    0  0.29073264079E+03  0.18124278220E+02 -0.53950358897E+00  0.29129754401E+03  0.10100000352E+00 0.  1.
       -3    1    3    3    0  502 -0.29073264079E+03 -0.18124278220E+02 -0.14900660241E+03  0.32719556177E+03  0.10100000352E+00 0. -1.
</event>
<event>
 5   0  0.9497860E-02  0.6059937E+03  0.7818609E-02  0.9893048E-01
        1   -1    0    0  501    0  0.00000000000E+00  0.00000000000E+00  0.59944621922E+02  0.59944622134E+02  0.50400001928E-02 0. -1.
       -1   -1    0    0    0  501  0.00000000000E+00  0.00000000000E+00 -0.15315318307E+04  0.15315318308E+04  0.50400001928E-02 0.  1.
    10030    2    1    2    0    0  0.00000000000E+00  0.00000000000E+00 -0.14715872088E+04  0.15914764529E+04  0.60599371855E+03 0.  0.
        5    1    3    3  502    0  0.93919879599E+01 -0.16970330610E+03 -0.13944350882E+04  0.14047628721E+04  0.46999998093E+01 0.  1.
       -5    1    3    3    0  502 -0.93919879599E+01  0.16970330610E+03 -0.77152120577E+02  0.18671358077E+03  0.46999998093E+01 0. -1.
</event>
<event>
 5   0  0.9411028E-02  0.5910333E+03  0.7818609E-02  0.9924186E-01
       -1   -1    0    0    0  501  0.00000000000E+00  0.00000000000E+00  0.22181349693E+03  0.22181349698E+03  0.50400001928E-02 0.  1.
        1   -1    0    0  501    0  0.00000000000E+00  0.00000000000E+00 -0.39370948322E+03  0.39370948325E+03  0.50400001928E-02 0. -1.
    10030    2    1    2    0    0  0.00000000000E+00  0.00000000000E+00 -0.17189598629E+03  0.61552298023E+03  0.59103325549E+03 0.  0.
        4    1    3    3  502    0  0.29028774325E+02 -0.27293380250E+03 -0.19999793737E+03  0.33961201118E+03  0.12699999809E+01 0. -1.
       -4    1    3    3    0  502 -0.29028774325E+02  0.27293380250E+03  0.28101951075E+02  0.27591096905E+03  0.12699999809E+01 0.  1.
</event>
<event>
 5   0  0.8860626E-02  0.6133128E+03  0.7818609E-02  0.9878165E-01
        1   -1    0    0  501    0  0.00000000000E+00  0.00000000000E+00  0.72435523195E+03  0.72435523197E+03  0.50400001928E-02 0.  1.
       -1   -1    0    0    0  501  0.00000000000E+00  0.00000000000E+00 -0.12982325584E+03  0.12982325594E+03  0.50400001928E-02 0. -1.
    10030    2    1    2    0    0  0.00000000000E+00  0.00000000000E+00  0.59453197611E+03  0.85417848791E+03  0.61331282279E+03 0.  0.
        3    1    3    3  502    0  0.19089004399E+03 -0.17331799846E+03  0.66056183577E+02  0.26616079177E+03  0.10100000352E+00 0. -1.
       -3    1    3    3    0  502 -0.19089004399E+03  0.17331799846E+03  0.52847579253E+03  0.58801769614E+03  0.10100000352E+00 0.  1.
</event>
<event>
 5   0  0.8860626E-02  0.6180060E+03  0.7818609E-02  0.9868738E-01
       -1   -1    0    0    0  501  0.00000000000E+00  0.00000000000E+00  0.28959757806E+03  0.28959757810E+03  0.50400001928E-02 0. -1.
        1   -1    0    0  501    0  0.00000000000E+00  0.00000000000E+00 -0.32970876814E+03  0.32970876818E+03  0.50400001928E-02 0.  1.
    10030    2    1    2    0    0  0.00000000000E+00  0.00000000000E+00 -0.40111190083E+02  0.61930634628E+03  0.61800602180E+03 0.  0.
        3    1    3    3  502    0 -0.13574681690E+03 -0.11624967466E+03  0.23254950824E+03  0.29329246349E+03  0.10100000352E+00 0. -1.
       -3    1    3    3    0  502  0.13574681690E+03  0.11624967466E+03 -0.27266069833E+03  0.32601388279E+03  0.10100000352E+00 0.  1.
</event>
<event>
 5   0  0.9411028E-02  0.5947203E+03  0.7818609E-02  0.9916421E-01
       -1   -1    0    0    0  501  0.00000000000E+00  0.00000000000E+00  0.10403246488E+03  0.10403246500E+03  0.50400001928E-02 0. -1.
        1   -1    0    0  501    0  0.00000000000E+00  0.00000000000E+00 -0.84995646477E+03  0.84995646478E+03  0.50400001928E-02 0.  1.
    10030    2    1    2    0    0  0.00000000000E+00  0.00000000000E+00 -0.74592399988E+03  0.95398892978E+03  0.59472032465E+03 0.  0.
        4    1    3    3  502    0  0.21655882957E+03 -0.37685473421E+02 -0.51727734650E+02  0.22582137411E+03  0.12699999809E+01 0. -1.
       -4    1    3    3    0  502 -0.21655882957E+03  0.37685473421E+02 -0.69419626523E+03  0.72816755568E+03  0.12699999809E+01 0.  1.
</event>
<event>
 5   0  0.9177281E-02  0.5946063E+03  0.7818609E-02  0.9916660E-01
       -1   -1    0    0    0  501  0.00000000000E+00  0.00000000000E+00  0.12250250416E+03  0.12250250427E+03  0.50400001928E-02 0.  1.
        1   -1    0    0  501    0  0.00000000000E+00  0.00000000000E+00 -0.72152954412E+03  0.72152954413E+03  0.50400001928E-02 0. -1.
    10030    2    1    2    0    0  0.00000000000E+00  0.00000000000E+00 -0.59902703995E+03  0.84403204840E+03  0.59460634384E+03 0.  0.
        1    1    3    3  502    0 -0.68472333275E+02  0.16866868597E+03 -0.63317170959E+03  0.65882015748E+03  0.50400001928E-02 0. -1.
       -1    1    3    3    0  502  0.68472333275E+02 -0.16866868597E+03  0.34144669633E+02  0.18521189093E+03  0.50400001928E-02 0.  1.
</event>
<event>
 5   0  0.9177281E-02  0.6043948E+03  0.7818609E-02  0.9896330E-01
       -1   -1    0    0    0  501  0.00000000000E+00  0.00000000000E+00  0.61367356561E+03  0.61367356563E+03  0.50400001928E-02 0.  1.
        1   -1    0    0  501    0  0.00000000000E+00  0.00000000000E+00 -0.14881409861E+03  0.14881409870E+03  0.50400001928E-02 0. -1.
    10030    2    1    2    0    0  0.00000000000E+00  0.00000000000E+00  0.46485946700E+03  0.76248766432E+03  0.60439483303E+03 0.  0.
        1    1    3    3  502    0 -0.23206217477E+03 -0.11869018375E+03  0.39516151348E+02  0.26363182456E+03  0.50400001928E-02 0. -1.
       -1    1    3    3    0  502  0.23206217477E+03  0.11869018375E+03  0.42534331565E+03  0.49885583977E+03  0.50400001928E-02 0.  1.
</event>
<event>
 5   0  0.8860626E-02  0.5974150E+03  0.7818609E-02  0.9910784E-01
       -1   -1    0    0    0  501  0.00000000000E+00  0.00000000000E+00  0.58193648947E+02  0.58193649166E+02  0.50400001928E-02 0.  1.
        1   -1    0    0  501    0  0.00000000000E+00  0.00000000000E+00 -0.15332632088E+04  0.15332632088E+04  0.50400001928E-02 0. -1.
    10030    2    1    2    0    0  0.00000000000E+00  0.00000000000E+00 -0.14750695599E+04  0.15914568580E+04  0.59741503529E+03 0.  0.
        3    1    3    3  502    0 -0.29260561150E+03  0.57937783219E+02 -0.69530198910E+03  0.75658422984E+03  0.10100000352E+00 0.  1.
       -3    1    3    3    0  502  0.29260561150E+03 -0.57937783219E+02 -0.77976757079E+03  0.83487262816E+03  0.10100000352E+00 0. -1.
</event>
<event>
 5   0  0.1513339E-01  0.6188749E+03  0.7818609E-02  0.9867002E-01
       -2   -1    0    0    0  501  0.00000000000E+00  0.00000000000E+00  0.45662449230E+03  0.45662449231E+03  0.25500000920E-02 0. -1.
        2   -1    0    0  501    0  0.00000000000E+00  0.00000000000E+00 -0.20969426656E+03  0.20969426658E+03  0.25500000920E-02 0.  1.
    10030    2    1    2    0    0  0.00000000000E+00  0.00000000000E+00  0.24693022574E+03  0.66631875888E+03  0.61887490825E+03 0.  0.
        3    1    3    3  502    0  0.28725481354E+03 -0.66736598786E+02  0.22436401063E+03  0.37055137429E+03  0.10100000352E+00 0. -1.
       -3    1    3    3    0  502 -0.28725481354E+03  0.66736598786E+02  0.22566215101E+02  0.29576738459E+03  0.10100000352E+00 0.  1.
</event>
<event>
 5   0  0.1502642E-01  0.5809437E+03  0.7818609E-02  0.9945750E-01
        2   -1    0    0  501    0  0.00000000000E+00  0.00000000000E+00  0.12434950839E+04  0.12434950839E+04  0.25500000920E-02 0. -1.
       -2   -1    0    0    0  501  0.00000000000E+00  0.00000000000E+00 -0.67852219269E+02  0.67852219316E+02  0.25500000920E-02 0.  1.
    10030    2    1    2    0    0  0.00000000000E+00  0.00000000000E+00  0.11756428647E+04  0.13113473033E+04  0.58094371888E+03 0.  0.
        2    1    3    3  502    0 -0.10296508212E+03  0.18922506043E+03  0.14799541676E+03  0.26136291821E+03  0.25500000920E-02 0.  1.
       -2    1    3    3    0  502  0.10296508212E+03 -0.18922506043E+03  0.10276474479E+04  0.10499843850E+04  0.25500000920E-02 0. -1.
</event>
<event>
 5   0  0.9497860E-02  0.6107680E+03  0.7818609E-02  0.9883314E-01
        1   -1    0    0  501    0  0.00000000000E+00  0.00000000000E+00  0.37526302443E+03  0.37526302446E+03  0.50400001928E-02 0. -1.
       -1   -1    0    0    0  501  0.00000000000E+00  0.00000000000E+00 -0.24851738757E+03  0.24851738762E+03  0.50400001928E-02 0.  1.
    10030    2    1    2    0    0  0.00000000000E+00  0.00000000000E+00  0.12674563686E+03  0.62378041208E+03  0.61076799690E+03 0.  0.
        5    1    3    3  502    0 -0.10408961472E+03 -0.93442680043E+02  0.34057974587E+03  0.36821574605E+03  0.46999998093E+01 0. -1.
       -5    1    3    3    0  502  0.10408961472E+03  0.93442680043E+02 -0.21383410901E+03  0.25556466603E+03  0.46999998093E+01 0.  1.
</event>
<event>
 5   0  0.1532571E-01  0.5814306E+03  0.7818609E-02  0.9944699E-01
       -2   -1    0    0    0  501  0.00000000000E+00  0.00000000000E+00  0.99579097364E+02  0.99579097397E+02  0.25500000920E-02 0.  1.
        2   -1    0    0  501    0  0.00000000000E+00  0.00000000000E+00 -0.84872607979E+03  0.84872607979E+03  0.25500000920E-02 0. -1.
    10030    2    1    2    0    0  0.00000000000E+00  0.00000000000E+00 -0.74914698242E+03  0.94830517719E+03  0.58143057007E+03 0.  0.
        1    1    3    3  502    0 -0.24933131167E+03  0.13992364721E+03 -0.46042360006E+03  0.54197289743E+03  0.50400001928E-02 0. -1.
       -1    1    3    3    0  502  0.24933131167E+03 -0.13992364721E+03 -0.28872338237E+03  0.40633227976E+03  0.50400001928E-02 0.  1.
</event>
<event>
 5   0  0.1532571E-01  0.5993193E+03  0.7818609E-02  0.9906819E-01
        2   -1    0    0  501    0  0.00000000000E+00  0.00000000000E+00  0.54964092922E+03  0.54964092923E+03  0.25500000920E-02 0.  1.
       -2   -1    0    0    0  501  0.00000000000E+00  0.00000000000E+00 -0.16337194693E+03  0.16337194695E+03  0.25500000920E-02 0. -1.
    10030    2    1    2    0    0  0.00000000000E+00  0.00000000000E+00  0.38626898230E+03  0.71301287618E+03  0.59931930964E+03 0.  0.
        1    1    3    3  502    0  0.75960020476E+02  0.25843398314E+03  0.34933440182E+03  0.44112648149E+03  0.50400001928E-02 0.  1.
       -1    1    3    3    0  502 -0.75960020476E+02 -0.25843398314E+03  0.36934580478E+02  0.27188639468E+03  0.50400001928E-02 0. -1.
</event>
<event>
 5   0  0.1483942E-01  0.6084202E+03  0.7818609E-02  0.9888089E-01
        2   -1    0    0  501    0  0.00000000000E+00  0.00000000000E+00  0.63269368413E+03  0.63269368413E+03  0.25500000920E-02 0.  1.
       -2   -1    0    0    0  501  0.00000000000E+00  0.00000000000E+00 -0.14626950984E+03  0.14626950986E+03  0.25500000920E-02 0. -1.
    10030    2    1    2    0    0  0.00000000000E+00  0.00000000000E+00  0.48642417428E+03  0.77896319400E+03  0.60842023329E+03 0.  0.
        4    1    3    3  502    0 -0.29605851667E+03 -0.24749247022E+02  0.32696212725E+03  0.44177937489E+03  0.12699999809E+01 0. -1.
       -4    1    3    3    0  502  0.29605851667E+03  0.24749247022E+02  0.15946204703E+03  0.33718381911E+03  0.12699999809E+01 0.  1.
</event>
<event>
 5   0  0.1502642E-01  0.6096903E+03  0.7818609E-02  0.9885503E-01
        2   -1    0    0  501    0  0.00000000000E+00  0.00000000000E+00  0.17924088412E+03  0.17924088414E+03  0.25500000920E-02 0.  1.
       -2   -1    0    0    0  501  0.00000000000E+00  0.00000000000E+00 -0.51846745789E+03  0.51846745789E+03  0.25500000920E-02 0. -1.
    10030    2    1    2    0    0  0.00000000000E+00  0.00000000000E+00 -0.33922657376E+03  0.69770834203E+03  0.60969030023E+03 0.  0.
        2    1    3    3  502    0 -0.61612013882E+01 -0.78420692343E+02  0.16742663745E+03  0.18498498405E+03  0.25500000920E-02 0.  1.
       -2    1    3    3    0  502  0.61612013882E+01  0.78420692343E+02 -0.50665321121E+03  0.51272335799E+03  0.25500000920E-02 0. -1.
</event>
<event>
 5   0  0.8860626E-02  0.6105206E+03  0.7818609E-02  0.9883816E-01
        1   -1    0    0  501    0  0.00000000000E+00  0.00000000000E+00  0.26739782024E+03  0.26739782028E+03  0.50400001928E-02 0. -1.
       -1   -1    0    0    0  501  0.00000000000E+00  0.00000000000E+00 -0.34848395708E+03  0.34848395712E+03  0.50400001928E-02 0.  1.
    10030    2    1    2    0    0  0.00000000000E+00  0.00000000000E+00 -0.81086136845E+02  0.61588177740E+03  0.61052059928E+03 0.  0.
        3    1    3    3  502    0 -0.16086640358E+02 -0.18983456933E+03 -0.28114935522E+03  0.33961877724E+03  0.10100000352E+00 0.  1.
       -3    1    3    3    0  502  0.16086640358E+02  0.18983456933E+03  0.20006321838E+03  0.27626300016E+03  0.10100000352E+00 0. -1.
</event>
<event>
 5   0  0.1502642E-01  0.6014726E+03  0.7818609E-02  0.9902356E-01
        2   -1    0    0  501    0  0.00000000000E+00  0.00000000000E+00  0.95143420736E+03  0.95143420737E+03  0.25500000920E-02 0. -1.
       -2   -1    0    0    0  501  0.00000000000E+00  0.00000000000E+00 -0.95058922973E+02  0.95058923008E+02  0.25500000920E-02 0.  1.
    10030    2    1    2    0    0  0.00000000000E+00  0.00000000000E+00  0.85637528439E+03  0.10464931304E+04  0.60147256314E+03 0.  0.
        2    1    3    3  502    0 -0.27507126046E+02 -0.74895237073E+02 -0.76308144304E+02  0.11040322193E+03  0.25500000920E-02 0.  1.
       -2    1    3    3    0  502  0.27507126046E+02  0.74895237073E+02  0.93268342869E+03  0.93608990844E+03  0.25500000920E-02 0. -1.
</event>
<event>
 5   0  0.9497860E-02  0.5870927E+03  0.7818609E-02  0.9932552E-01
        1   -1    0    0  501    0  0.00000000000E+00  0.00000000000E+00  0.11130831678E+03  0.11130831689E+03  0.50400001928E-02 0.  1.
       -1   -1    0    0    0  501  0.00000000000E+00  0.00000000000E+00 -0.77415116649E+03  0.77415116651E+03  0.50400001928E-02 0. -1.
    10030    2    1    2    0    0  0.00000000000E+00  0.00000000000E+00 -0.66284284972E+03  0.88545948340E+03  0.58709271271E+03 0.  0.
        5    1    3    3  502    0  0.20900480958E+03 -0.19714447233E+03 -0.42189420289E+03  0.51045642500E+03  0.46999998093E+01 0. -1.
       -5    1    3    3    0  502 -0.20900480958E+03  0.19714447233E+03 -0.24094864683E+03  0.37500305840E+03  0.46999998093E+01 0.  1.
</event>
<event>
 5   0  0.9420349E-02  0.5701670E+03  0.7818609E-02  0.9969309E-01
       -1   -1    0    0    0  501  0.00000000000E+00  0.00000000000E+00  0.74208225510E+03  0.74208225511E+03  0.50400001928E-02 0.  1.
        1   -1    0    0  501    0  0.00000000000E+00  0.00000000000E+00 -0.10951966289E+03  0.10951966300E+03  0.50400001928E-02 0. -1.
    10030    2    1    2    0    0  0.00000000000E+00  0.00000000000E+00  0.63256259221E+03  0.85160191812E+03  0.57016698771E+03 0.  0.
        2    1    3    3  502    0 -0.16287729928E+03 -0.22347359382E+03  0.21276778579E+03  0.34891201245E+03  0.25500000920E-02 0. -1.
       -2    1    3    3    0  502  0.16287729928E+03  0.22347359382E+03  0.41979480642E+03  0.50268990567E+03  0.25500000920E-02 0.  1.
</event>
<event>
 5   0  0.6170500E-02  0.5942334E+03  0.7818609E-02  0.9917443E-01
       -4   -1    0    0    0  501  0.00000000000E+00  0.00000000000E+00  0.77165354782E+03  0.77165459292E+03  0.12699999809E+01 0. -1.
        4   -1    0    0  501    0  0.00000000000E+00  0.00000000000E+00 -0.11439686744E+03  0.11440391681E+03  0.12699999809E+01 0.  1.
    10030    2    1    2    0    0  0.00000000000E+00  0.00000000000E+00  0.65725668038E+03  0.88605850972E+03  0.59423340427E+03 0.  0.
        5    1    3    3  502    0 -0.86110126533E+02  0.27653124790E+03  0.23003820049E+03  0.36989748396E+03  0.46999998093E+01 0.  1.
       -5    1    3    3    0  502  0.86110126533E+02 -0.27653124790E+03  0.42721847989E+03  0.51616102576E+03  0.46999998093E+01 0. -1.
</event>
<event>
 5   0  0.9420349E-02  0.5922693E+03  0.7818609E-02  0.9921576E-01
        1   -1    0    0  501    0  0.00000000000E+00  0.00000000000E+00  0.27092875879E+03  0.27092875884E+03  0.50400001928E-02 0.  1.
       -1   -1    0    0    0  501  0.00000000000E+00  0.00000000000E+00 -0.32368555363E+03  0.32368555367E+03  0.50400001928E-02 0. -1.
    10030    2    1    2    0    0  0.00000000000E+00  0.00000000000E+00 -0.52756794837E+02  0.59461431251E+03  0.59226928102E+03 0.  0.
        2    1    3    3  502    0 -0.16480014023E+03  0.21491820105E+03  0.93874005317E+02  0.28663783463E+03  0.25500000920E-02 0. -1.
       -2    1    3    3    0  502  0.16480014023E+03 -0.21491820105E+03 -0.14663080015E+03  0.30797647787E+03  0.25500000920E-02 0.  1.
</event>
<event>
 5   0  0.1532571E-01  0.5953622E+03  0.7818609E-02  0.9915075E-01
        2   -1    0    0  501    0  0.00000000000E+00  0.00000000000E+00  0.99833729847E+03  0.99833729847E+03  0.25500000920E-02 0.  1.
       -2   -1    0    0    0  501  0.00000000000E+00  0.00000000000E+00 -0.88761630987E+02  0.88761631024E+02  0.25500000920E-02 0. -1.
    10030    2    1    2    0    0  0.00000000000E+00  0.00000000000E+00  0.90957566748E+03  0.10870989295E+04  0.59536223229E+03 0.  0.
        1    1    3    3  502    0  0.27236302044E+03  0.11980043504E+03  0.43842673677E+03  0.52986013502E+03  0.50400001928E-02 0.  1.
       -1    1    3    3    0  502 -0.27236302044E+03 -0.11980043504E+03  0.47114893071E+03  0.55723879448E+03  0.50400001928E-02 0. -1.
</event>
<event>
 5   0  0.1483942E-01  0.5795616E+03  0.7818609E-02  0.9948741E-01
        2   -1    0    0  501    0  0.00000000000E+00  0.00000000000E+00  0.57497367048E+03  0.57497367049E+03  0.25500000920E-02 0. -1.
       -2   -1    0    0    0  501  0.00000000000E+00  0.00000000000E+00 -0.14604652313E+03  0.14604652315E+03  0.25500000920E-02 0.  1.
    10030    2    1    2    0    0  0.00000000000E+00  0.00000000000E+00  0.42892714735E+03  0.72102019364E+03  0.57956157732E+03 0.  0.
        4    1    3    3  502    0 -0.91010020984E+02  0.15133654324E+03 -0.71365278058E+02  0.19047359148E+03  0.12699999809E+01 0.  1.
       -4    1    3    3    0  502  0.91010020984E+02 -0.15133654324E+03  0.50029242541E+03  0.53054660216E+03  0.12699999809E+01 0. -1.
</event>
<event>
 5   0  0.6170500E-02  0.6010335E+03  0.7818609E-02  0.9903264E-01
       -3   -1    0    0    0  501  0.00000000000E+00  0.00000000000E+00  0.23617594025E+03  0.23617596185E+03  0.10100000352E+00 0.  1.
        3   -1    0    0  501    0  0.00000000000E+00  0.00000000000E+00 -0.38238568439E+03  0.38238569773E+03  0.10100000352E+00 0. -1.
    10030    2    1    2    0    0  0.00000000000E+00  0.00000000000E+00 -0.14620974414E+03  0.61856165957E+03  0.60103347445E+03 0.  0.
        1    1    3    3  502    0 -0.94437972728E+02 -0.40423086173E+02 -0.36375518260E+03  0.37798199624E+03  0.50400001928E-02 0. -1.
       -1    1    3    3    0  502  0.94437972728E+02  0.40423086173E+02  0.21754543846E+03  0.24057966333E+03  0.50400001928E-02 0.  1.
</event>
<event>
 5   0  0.8860626E-02  0.6063330E+03  0.7818609E-02  0.9892354E-01
        1   -1    0    0  501    0  0.00000000000E+00  0.00000000000E+00  0.30750071651E+03  0.30750071655E+03  0.50400001928E-02 0.  1.
       -1   -1    0    0    0  501  0.00000000000E+00  0.00000000000E+00 -0.29889336082E+03  0.29889336087E+03  0.50400001928E-02 0. -1.
    10030    2    1    2    0    0  0.00000000000E+00  0.00000000000E+00  0.86073556850E+01  0.60639407742E+03  0.60633298653E+03 0.  0.
        3    1    3    3  502    0 -0.95267900076E+02 -0.19745017261E+03  0.21372240931E+03  0.30616959661E+03  0.10100000352E+00 0.  1.
       -3    1    3    3    0  502  0.95267900076E+02  0.19745017261E+03 -0.20511505363E+03  0.30022448080E+03  0.10100000352E+00 0. -1.
</event>
<event>
 5   0  0.1513339E-01  0.6110392E+03  0.7818609E-02  0.9882764E-01
        2   -1    0    0  501    0  0.00000000000E+00  0.00000000000E+00  0.91871412325E+03  0.91871412326E+03  0.25500000920E-02 0.  1.
       -2   -1    0    0    0  501  0.00000000000E+00  0.00000000000E+00 -0.10160095114E+03  0.10160095117E+03  0.25500000920E-02 0. -1.
    10030    2    1    2    0    0  0.00000000000E+00  0.00000000000E+00  0.81711317211E+03  0.10203150744E+04  0.61103920911E+03 0.  0.
        3    1    3    3  502    0  0.95018534565E+02 -0.23010385492E+03  0.70428577227E+03  0.74699047195E+03  0.10100000352E+00 0.  1.
       -3    1    3    3    0  502 -0.95018534565E+02  0.23010385492E+03  0.11282739984E+03  0.27332460247E+03  0.10100000352E+00 0. -1.
</event>
<event>
 5   0  0.8860626E-02  0.6102535E+03  0.7818609E-02  0.9884359E-01
        1   -1    0    0  501    0  0.00000000000E+00  0.00000000000E+00  0.27569782450E+03  0.27569782454E+03  0.50400001928E-02 0.  1.
       -1   -1    0    0    0  501  0.00000000000E+00  0.00000000000E+00 -0.33769696672E+03  0.33769696676E+03  0.50400001928E-02 0. -1.
    10030    2    1    2    0    0  0.00000000000E+00  0.00000000000E+00 -0.61999142224E+02  0.61339479130E+03  0.61025345256E+03 0.  0.
        3    1    3    3  502    0  0.13154154113E+03  0.10952840751E+03 -0.28489169616E+03  0.33235965133E+03  0.10100000352E+00 0. -1.
       -3    1    3    3    0  502 -0.13154154113E+03 -0.10952840751E+03  0.22289255393E+03  0.28103513996E+03  0.10100000352E+00 0.  1.
</event>
<event>
 5   0  0.9420349E-02  0.6084511E+03  0.7818609E-02  0.9888026E-01
       -1   -1    0    0    0  501  0.00000000000E+00  0.00000000000E+00  0.68132723097E+03  0.68132723099E+03  0.50400001928E-02 0.  1.
        1   -1    0    0  501    0  0.00000000000E+00  0.00000000000E+00 -0.13584246650E+03  0.13584246659E+03  0.50400001928E-02 0. -1.
    10030    2    1    2    0    0  0.00000000000E+00  0.00000000000E+00  0.54548476447E+03  0.81716969758E+03  0.60845105504E+03 0.  0.
        2    1    3    3  502    0  0.38141212813E+01  0.13408540929E+03  0.63946589841E+03  0.65338356249E+03  0.25500000920E-02 0.  1.
       -2    1    3    3    0  502 -0.38141212813E+01 -0.13408540929E+03 -0.93981133934E+02  0.16378613509E+03  0.25500000920E-02 0. -1.
</event>
<event>
 5   0  0.1502642E-01  0.6032349E+03  0.7818609E-02  0.9898717E-01
        2   -1    0    0  501    0  0.00000000000E+00  0.00000000000E+00  0.69941621315E+03  0.69941621315E+03  0.25500000920E-02 0. -1.
       -2   -1    0    0    0  501  0.00000000000E+00  0.00000000000E+00 -0.13007000686E+03  0.13007000688E+03  0.25500000920E-02 0.  1.
    10030    2    1    2    0    0  0.00000000000E+00  0.00000000000E+00  0.56934620629E+03  0.82948622003E+03  0.60323485195E+03 0.  0.
        2    1    3    3  502    0  0.13070132164E+03 -0.12056961553E+03 -0.50326918082E+02  0.18480440027E+03  0.25500000920E-02 0.  1.
       -2    1    3    3    0  502 -0.13070132164E+03  0.12056961553E+03  0.61967312437E+03  0.64468181977E+03  0.25500000920E-02 0. -1.
</event>
<event>
 5   0  0.9497860E-02  0.5966263E+03  0.7818609E-02  0.9912430E-01
        1   -1    0    0  501    0  0.00000000000E+00  0.00000000000E+00  0.46363054224E+03  0.46363054227E+03  0.50400001928E-02 0. -1.
       -1   -1    0    0    0  501  0.00000000000E+00  0.00000000000E+00 -0.19194320843E+03  0.19194320849E+03  0.50400001928E-02 0.  1.
    10030    2    1    2    0    0  0.00000000000E+00  0.00000000000E+00  0.27168733382E+03  0.65557375076E+03  0.59662629453E+03 0.  0.
        5    1    3    3  502    0  0.26235452402E+03 -0.48719610351E+02  0.28229845362E+03  0.38848166446E+03  0.46999998093E+01 0.  1.
       -5    1    3    3    0  502 -0.26235452402E+03  0.48719610351E+02 -0.10611119803E+02  0.26709208630E+03  0.46999998093E+01 0. -1.
</event>
<event>
 5   0  0.9411028E-02  0.6063083E+03  0.7818609E-02  0.9892404E-01
        1   -1    0    0  501    0  0.00000000000E+00  0.00000000000E+00  0.71462409016E+03  0.71462409017E+03  0.50400001928E-02 0.  1.
       -1   -1    0    0    0  501  0.00000000000E+00  0.00000000000E+00 -0.12860249167E+03  0.12860249176E+03  0.50400001928E-02 0. -1.
    10030    2    1    2    0    0  0.00000000000E+00  0.00000000000E+00  0.58602159849E+03  0.84322658194E+03  0.60630829995E+03 0.  0.
        4    1    3    3  502    0  0.15296379694E+03 -0.12125864218E+02  0.65662318666E+03  0.67431489818E+03  0.12699999809E+01 0.  1.
       -4    1    3    3    0  502 -0.15296379694E+03  0.12125864218E+02 -0.70601588167E+02  0.16891168375E+03  0.12699999809E+01 0. -1.
</event>
<event>
 5   0  0.1483942E-01  0.4908929E+03  0.7818609E-02  0.1016184E+00
       -2   -1    0    0    0  501  0.00000000000E+00  0.00000000000E+00  0.26622348482E+03  0.26622348483E+03  0.25500000920E-02 0.  1.
        2   -1    0    0  501    0  0.00000000000E+00  0.00000000000E+00 -0.22629090843E+03  0.22629090845E+03  0.25500000920E-02 0. -1.
    10030    2    1    2    0    0  0.00000000000E+00  0.00000000000E+00  0.39932576385E+02  0.49251439327E+03  0.49089287724E+03 0.  0.
        4    1    3    3  502    0 -0.71275451048E+02  0.21809828538E+02 -0.21465758094E+03  0.22723412705E+03  0.12699999809E+01 0. -1.
       -4    1    3    3    0  502  0.71275451048E+02 -0.21809828538E+02  0.25459015732E+03  0.26528026622E+03  0.12699999809E+01 0.  1.
</event>
<event>
 5   0  0.9411028E-02  0.6044282E+03  0.7818609E-02  0.9896261E-01
       -1   -1    0    0    0  501  0.00000000000E+00  0.00000000000E+00  0.18974478339E+03  0.18974478346E+03  0.50400001928E-02 0. -1.
        1   -1    0    0  501    0  0.00000000000E+00  0.00000000000E+00 -0.48134847017E+03  0.48134847019E+03  0.50400001928E-02 0.  1.
    10030    2    1    2    0    0  0.00000000000E+00  0.00000000000E+00 -0.29160368678E+03  0.67109325365E+03  0.60442819669E+03 0.  0.
        4    1    3    3  502    0 -0.27356522091E+03 -0.11015159540E+03 -0.21911864777E+03  0.36740427156E+03  0.12699999809E+01 0. -1.
       -4    1    3    3    0  502  0.27356522091E+03  0.11015159540E+03 -0.72485039002E+02  0.30368898209E+03  0.12699999809E+01 0.  1.
</event>
<event>
 5   0  0.1483942E-01  0.5881991E+03  0.7818609E-02  0.9930196E-01
        2   -1    0    0  501    0  0.00000000000E+00  0.00000000000E+00  0.92052902012E+03  0.92052902012E+03  0.25500000920E-02 0.  1.
       -2   -1    0    0    0  501  0.00000000000E+00  0.00000000000E+00 -0.93961791274E+02  0.93961791308E+02  0.25500000920E-02 0. -1.
    10030    2    1    2    0    0  0.00000000000E+00  0.00000000000E+00  0.82656722885E+03  0.10144908114E+04  0.58819913522E+03 0.  0.
        4    1    3    3  502    0  0.12450718222E+03  0.18469728639E+03  0.82071405482E+02  0.23738671935E+03  0.12699999809E+01 0. -1.
       -4    1    3    3    0  502 -0.12450718222E+03 -0.18469728639E+03  0.74449582336E+03  0.77710409208E+03  0.12699999809E+01 0.  1.
</event>
<event>
 5   0  0.1488510E-01  0.6732225E+03  0.7818609E-02  0.9764154E-01
       -2   -1    0    0    0  501  0.00000000000E+00  0.00000000000E+00  0.27589995926E+03  0.27589995927E+03  0.25500000920E-02 0.  1.
        2   -1    0    0  501    0  0.00000000000E+00  0.00000000000E+00 -0.41068190327E+03  0.41068190328E+03  0.25500000920E-02 0. -1.
    10030    2    1    2    0    0  0.00000000000E+00  0.00000000000E+00 -0.13478194401E+03  0.68658186254E+03  0.67322246066E+03 0.  0.
        5    1    3    3  502    0  0.26780210670E+03  0.20298790741E+03 -0.47961098278E+02  0.33947667940E+03  0.46999998093E+01 0. -1.
       -5    1    3    3    0  502 -0.26780210670E+03 -0.20298790741E+03 -0.86820845736E+02  0.34710518314E+03  0.46999998093E+01 0.  1.
</event>
<event>
 5   0  0.9411028E-02  0.6063930E+03  0.7818609E-02  0.9892231E-01
        1   -1    0    0  501    0  0.00000000000E+00  0.00000000000E+00  0.17749361628E+04  0.17749361628E+04  0.50400001928E-02 0. -1.
       -1   -1    0    0    0  501  0.00000000000E+00  0.00000000000E+00 -0.51792343300E+02  0.51792343545E+02  0.50400001928E-02 0.  1.
    10030    2    1    2    0    0  0.00000000000E+00  0.00000000000E+00  0.17231438195E+04  0.18267285064E+04  0.60639295283E+03 0.  0.
        4    1    3    3  502    0 -0.26093252667E+03  0.51903763521E+02  0.12996396041E+04  0.13265913077E+04  0.12699999809E+01 0. -1.
       -4    1    3    3    0  502  0.26093252667E+03 -0.51903763521E+02  0.42350421541E+03  0.50013719869E+03  0.12699999809E+01 0.  1.
</event>
<event>
 5   0  0.1488510E-01  0.5408217E+03  0.7818609E-02  0.1003641E+00
       -2   -1    0    0    0  501  0.00000000000E+00  0.00000000000E+00  0.12051941790E+03  0.12051941793E+03  0.25500000920E-02 0. -1.
        2   -1    0    0  501    0  0.00000000000E+00  0.00000000000E+00 -0.60672401572E+03  0.60672401573E+03  0.25500000920E-02 0.  1.
    10030    2    1    2    0    0  0.00000000000E+00  0.00000000000E+00 -0.48620459782E+03  0.72724343365E+03  0.54082169044E+03 0.  0.
        5    1    3    3  502    0 -0.17223447574E+03 -0.16700712674E+03 -0.41075280499E+03  0.47570584590E+03  0.46999998093E+01 0.  1.
       -5    1    3    3    0  502  0.17223447574E+03  0.16700712674E+03 -0.75451792826E+02  0.25153758776E+03  0.46999998093E+01 0. -1.
</event>
<event>
 5   0  0.6170500E-02  0.3301987E+03  0.7818609E-02  0.1071049E+00
        4   -1    0    0  501    0  0.00000000000E+00  0.00000000000E+00  0.33245178746E+03  0.33245421322E+03  0.12699999809E+01 0. -1.
       -4   -1    0    0    0  501  0.00000000000E+00  0.00000000000E+00 -0.81982596798E+02  0.81992433052E+02  0.12699999809E+01 0.  1.
    10030    2    1    2    0    0  0.00000000000E+00  0.00000000000E+00  0.25046919066E+03  0.41444664627E+03  0.33019873884E+03 0.  0.
        2    1    3    3  502    0 -0.62168495024E+02 -0.55935874366E+02  0.30390656660E+03  0.31520302195E+03  0.25500000920E-02 0. -1.
       -2    1    3    3    0  502  0.62168495024E+02  0.55935874366E+02 -0.53437375939E+02  0.99243624321E+02  0.25500000920E-02 0.  1.
</event>
<event>
 5   0  0.6170500E-02  0.5992984E+03  0.7818609E-02  0.9906863E-01
        3   -1    0    0  501    0  0.00000000000E+00  0.00000000000E+00  0.23716106005E+03  0.23716108156E+03  0.10100000352E+00 0. -1.
       -3   -1    0    0    0  501  0.00000000000E+00  0.00000000000E+00 -0.37860191312E+03  0.37860192660E+03  0.10100000352E+00 0.  1.
    10030    2    1    2    0    0  0.00000000000E+00  0.00000000000E+00 -0.14144085307E+03  0.61576300815E+03  0.59929839587E+03 0.  0.
        1    1    3    3  502    0 -0.11985287570E+03  0.95813049720E+02  0.19373126064E+03  0.24713691284E+03  0.50400001928E-02 0. -1.
       -1    1    3    3    0  502  0.11985287570E+03 -0.95813049720E+02 -0.33517211372E+03  0.36862609532E+03  0.50400001928E-02 0.  1.
</event>
<event>
 5   0  0.1502642E-01  0.5886537E+03  0.7818609E-02  0.9929230E-01
        2   -1    0    0  501    0  0.00000000000E+00  0.00000000000E+00  0.27121317895E+03  0.27121317896E+03  0.25500000920E-02 0.  1.
       -2   -1    0    0    0  501  0.00000000000E+00  0.00000000000E+00 -0.31941033471E+03  0.31941033472E+03  0.25500000920E-02 0. -1.
    10030    2    1    2    0    0  0.00000000000E+00  0.00000000000E+00 -0.48197155763E+02  0.59062351368E+03  0.58865369198E+03 0.  0.
        2    1    3    3  502    0 -0.13316739199E+03  0.24474850001E+03 -0.11924686566E+03  0.30307622395E+03  0.25500000920E-02 0.  1.
       -2    1    3    3    0  502  0.13316739199E+03 -0.24474850001E+03  0.71049709902E+02  0.28754728973E+03  0.25500000920E-02 0. -1.
</event>
<event>
 5   0  0.8860626E-02  0.5977263E+03  0.7818609E-02  0.9910134E-01
        1   -1    0    0  501    0  0.00000000000E+00  0.00000000000E+00  0.30731199951E+03  0.30731199955E+03  0.50400001928E-02 0.  1.
       -1   -1    0    0    0  501  0.00000000000E+00  0.00000000000E+00 -0.29064660755E+03  0.29064660760E+03  0.50400001928E-02 0. -1.
    10030    2    1    2    0    0  0.00000000000E+00  0.00000000000E+00  0.16665391961E+02  0.59795860715E+03  0.59772632582E+03 0.  0.
        3    1    3    3  502    0  0.11109055120E+03  0.26262262029E+03 -0.81186315429E+02  0.29648436597E+03  0.10100000352E+00 0.  1.
       -3    1    3    3    0  502 -0.11109055120E+03 -0.26262262029E+03  0.97851707390E+02  0.30147424118E+03  0.10100000352E+00 0. -1.
</event>
</LesHouchesEvents>
