<LesHouchesEvents version="3.0">
<header>
<!--
#*********************************************************************
#                                                                    *
#                        MadGraph5_aMC@NLO                           *
#                                                                    *
#                           Going Beyond                             *
#                                                                    *
#                   http://madgraph.hep.uiuc.edu                     *
#                   http://madgraph.phys.ucl.ac.be                   *
#                   http://amcatnlo.cern.ch                          *
#                                                                    *
#                     The MadGraph5_aMC@NLO team                     *
#                                                                    *
#....................................................................*
#                                                                    *
# This file contains all the information necessary to reproduce      *
# the events generated:                                              *
#                                                                    *
# 1. software version                                                *
# 2. proc_card          : code generation info including model       *
# 3. param_card         : model primary parameters in the LH format  *
# 4. run_card           : running parameters (collider and cuts)     *
# 5. pythia_card        : present only if pythia has been run        *
# 6. pgs_card           : present only if pgs has been run           *
# 7. delphes_cards      : present only if delphes has been run       *
#                                                                    *
#                                                                    *
#*********************************************************************
-->
<MGVersion>
#5.2.2.3
</MGVersion>
<MG5ProcCard>
#************************************************************
#*                     MadGraph5_aMC@NLO                    *
#*                                                          *
#*                *                       *                 *
#*                  *        * *        *                   *
#*                    * * * * 5 * * * *                     *
#*                  *        * *        *                   *
#*                *                       *                 *
#*                                                          *
#*                                                          *
#*         VERSION 2.2.3                 2015-02-10         *
#*                                                          *
#*    The MadGraph5_aMC@NLO Development Team - Find us at   *
#*    https://server06.fynu.ucl.ac.be/projects/madgraph     *
#*                                                          *
#************************************************************
#*                                                          *
#*               Command File for MadGraph5_aMC@NLO         *
#*                                                          *
#*     run as ./bin/mg5_aMC  filename                       *
#*                                                          *
#************************************************************
set group_subprocesses Auto
set ignore_six_quark_processes False
set loop_optimized_output True
set gauge unitary
set complex_mass_scheme False
import model sm
define p = g u c d s u~ c~ d~ s~
define j = g u c d s u~ c~ d~ s~
define l+ = e+ mu+
define l- = e- mu-
define vl = ve vm vt
define vl~ = ve~ vm~ vt~
import model Zprime_UFO
generate p p > zph, zph > j j
add process p p > zph, zph > b b~
output Dijet_signal
</MG5ProcCard>
<MGProcCard>
#*********************************************************************
#                        MadGraph/MadEvent                           *
#                   http://madgraph.hep.uiuc.edu                     *
#                                                                    *
#                          proc_card.dat                             *
#*********************************************************************
#                                                                    *
#            This Files is generated by MADGRAPH 5                   *
#                                                                    *
# WARNING: This Files is generated for MADEVENT (compatibility issue)*
#          This files is NOT a valid MG4 proc_card.dat               *
#          Running this in MG4 will NEVER reproduce the result of MG5*
#                                                                    *
#*********************************************************************
#*********************************************************************
# Process(es) requested : mg2 input                                  *
#*********************************************************************
# Begin PROCESS # This is TAG. Do not modify this line
p p > zph , zph > j j           #Process
# Be carefull the coupling are here in MG5 convention
          
end_coup           # End the couplings input

done               # this tells MG there are no more procs
# End PROCESS  # This is TAG. Do not modify this line
#*********************************************************************
# Model information                                                  *
#*********************************************************************
# Begin MODEL  # This is TAG. Do not modify this line
Zprime_UFO
# End   MODEL  # This is TAG. Do not modify this line
#*********************************************************************
# Start multiparticle definitions                                    *
#*********************************************************************
# Begin MULTIPARTICLES # This is TAG. Do not modify this line

# End  MULTIPARTICLES # This is TAG. Do not modify this line
</MGProcCard>
<MGRunCard>
#*********************************************************************
#                       MadGraph5_aMC@NLO                            *
#                                                                    *
#                     run_card.dat MadEvent                          *
#                                                                    *
#  This file is used to set the parameters of the run.               *
#                                                                    *
#  Some notation/conventions:                                        *
#                                                                    *
#   Lines starting with a '# ' are info or comments                  *
#                                                                    *
#   mind the format:   value    = variable     ! comment             *
#*********************************************************************
#
#*******************                                                 
# Running parameters
#*******************                                                 
#                                                                    
#*********************************************************************
# Tag name for the run (one word)                                    *
#*********************************************************************
  tag_1     = run_tag ! name of the run 
#*********************************************************************
# Run to generate the grid pack                                      *
#*********************************************************************
  .false.     = gridpack  !True = setting up the grid pack
#*********************************************************************
# Number of events and rnd seed                                      *
# Warning: Do not generate more than 1M events in a single run       *
# If you want to run Pythia, avoid more than 50k events in a run.    *
#*********************************************************************
  2000 = nevents ! Number of unweighted events requested 
 921 = iseed   ! rnd seed (0=assigned automatically=default))
#*********************************************************************
# Collider type and energy                                           *
# lpp: 0=No PDF, 1=proton, -1=antiproton, 2=photon from proton,      *
#                                         3=photon from electron     *
#*********************************************************************
        1     = lpp1    ! beam 1 type 
        1     = lpp2    ! beam 2 type
     4000     = ebeam1  ! beam 1 total energy in GeV
     4000     = ebeam2  ! beam 2 total energy in GeV
#*********************************************************************
# Beam polarization from -100 (left-handed) to 100 (right-handed)    *
#*********************************************************************
        0     = polbeam1 ! beam polarization for beam 1
        0     = polbeam2 ! beam polarization for beam 2
#*********************************************************************
# PDF CHOICE: this automatically fixes also alpha_s and its evol.    *
#*********************************************************************
 'nn23lo1'    = pdlabel     ! PDF set                                     
 230000    = lhaid     ! if pdlabel=lhapdf, this is the lhapdf number
#*********************************************************************
# Renormalization and factorization scales                           *
#*********************************************************************
 F        = fixed_ren_scale  ! if .true. use fixed ren scale
 F        = fixed_fac_scale  ! if .true. use fixed fac scale
 91.1880  = scale            ! fixed ren scale
 91.1880  = dsqrt_q2fact1    ! fixed fact scale for pdf1
 91.1880  = dsqrt_q2fact2    ! fixed fact scale for pdf2
 1        = scalefact        ! scale factor for event-by-event scales
#*********************************************************************
# Matching - Warning! ickkw > 1 is still beta
#*********************************************************************
 0        = ickkw            ! 0 no matching, 1 MLM, 2 CKKW matching
 1        = highestmult      ! for ickkw=2, highest mult group
 1        = ktscheme         ! for ickkw=1, 1 Durham kT, 2 Pythia pTE
 1        = alpsfact         ! scale factor for QCD emission vx
 F        = chcluster        ! cluster only according to channel diag
 T        = pdfwgt           ! for ickkw=1, perform pdf reweighting
 5        = asrwgtflavor     ! highest quark flavor for a_s reweight
 T        = clusinfo         ! include clustering tag in output
 3.0      = lhe_version       ! Change the way clustering information pass to shower.        
#*********************************************************************
#**********************************************************
#
#**********************************************************
# Automatic ptj and mjj cuts if xqcut > 0
# (turn off for VBF and single top processes)
#**********************************************************
   T  = auto_ptj_mjj  ! Automatic setting of ptj and mjj
#**********************************************************
#                                                                    
#**********************************
# BW cutoff (M+/-bwcutoff*Gamma)
#**********************************
  15  = bwcutoff      ! (M+/-bwcutoff*Gamma)
#**********************************************************
# Apply pt/E/eta/dr/mij cuts on decay products or not
# (note that etmiss/ptll/ptheavy/ht/sorted cuts always apply)
#**********************************************************
   T  = cut_decays    ! Cut decay products 
#*************************************************************
# Number of helicities to sum per event (0 = all helicities)
# 0 gives more stable result, but longer run time (needed for
# long decay chains e.g.).
# Use >=2 if most helicities contribute, e.g. pure QCD.
#*************************************************************
   0  = nhel          ! Number of helicities used per event
#*******************                                                 
# Standard Cuts
#*******************                                                 
#                                                                    
#*********************************************************************
# Minimum and maximum pt's (for max, -1 means no cut)                *
#*********************************************************************
 20  = ptj       ! minimum pt for the jets 
  0  = ptb       ! minimum pt for the b 
 10  = pta       ! minimum pt for the photons 
 10  = ptl       ! minimum pt for the charged leptons 
  0  = misset    ! minimum missing Et (sum of neutrino's momenta)
  0  = ptheavy   ! minimum pt for one heavy final state
 1.0 = ptonium   ! minimum pt for the quarkonium states
 -1  = ptjmax    ! maximum pt for the jets
 -1  = ptbmax    ! maximum pt for the b
 -1  = ptamax    ! maximum pt for the photons
 -1  = ptlmax    ! maximum pt for the charged leptons
 -1  = missetmax ! maximum missing Et (sum of neutrino's momenta)
#*********************************************************************
# Minimum and maximum E's (in the center of mass frame)              *
#*********************************************************************
  0  = ej     ! minimum E for the jets 
  0  = eb     ! minimum E for the b 
  0  = ea     ! minimum E for the photons 
  0  = el     ! minimum E for the charged leptons 
 -1   = ejmax ! maximum E for the jets
 -1   = ebmax ! maximum E for the b
 -1   = eamax ! maximum E for the photons
 -1   = elmax ! maximum E for the charged leptons
#*********************************************************************
# Maximum and minimum absolute rapidity (for max, -1 means no cut)   *
#*********************************************************************
   5  = etaj    ! max rap for the jets 
  -1  = etab    ! max rap for the b
 2.5  = etaa    ! max rap for the photons 
 2.5  = etal    ! max rap for the charged leptons 
 0.6  = etaonium ! max rap for the quarkonium states
   0  = etajmin ! min rap for the jets
   0  = etabmin ! min rap for the b
   0  = etaamin ! min rap for the photons
   0  = etalmin ! main rap for the charged leptons
#*********************************************************************
# Minimum and maximum DeltaR distance                                *
#*********************************************************************
 0.4 = drjj    ! min distance between jets 
 0   = drbb    ! min distance between b's 
 0.4 = drll    ! min distance between leptons 
 0.4 = draa    ! min distance between gammas 
 0   = drbj    ! min distance between b and jet 
 0.4 = draj    ! min distance between gamma and jet 
 0.4 = drjl    ! min distance between jet and lepton 
 0   = drab    ! min distance between gamma and b 
 0   = drbl    ! min distance between b and lepton 
 0.4 = dral    ! min distance between gamma and lepton 
 -1  = drjjmax ! max distance between jets
 -1  = drbbmax ! max distance between b's
 -1  = drllmax ! max distance between leptons
 -1  = draamax ! max distance between gammas
 -1  = drbjmax ! max distance between b and jet
 -1  = drajmax ! max distance between gamma and jet
 -1  = drjlmax ! max distance between jet and lepton
 -1  = drabmax ! max distance between gamma and b
 -1  = drblmax ! max distance between b and lepton
 -1  = dralmax ! maxdistance between gamma and lepton
#*********************************************************************
# Minimum and maximum invariant mass for pairs                       *
# WARNING: for four lepton final state mmll cut require to have      *
#          different lepton masses for each flavor!                  *           
#*********************************************************************
 0   = mmjj    ! min invariant mass of a jet pair 
 0   = mmbb    ! min invariant mass of a b pair 
 0   = mmaa    ! min invariant mass of gamma gamma pair
 0   = mmll    ! min invariant mass of l+l- (same flavour) lepton pair
 -1  = mmjjmax ! max invariant mass of a jet pair
 -1  = mmbbmax ! max invariant mass of a b pair
 -1  = mmaamax ! max invariant mass of gamma gamma pair
 -1  = mmllmax ! max invariant mass of l+l- (same flavour) lepton pair
#*********************************************************************
# Minimum and maximum invariant mass for all letpons                 *
#*********************************************************************
 0   = mmnl    ! min invariant mass for all letpons (l+- and vl) 
 -1  = mmnlmax ! max invariant mass for all letpons (l+- and vl) 
#*********************************************************************
# Minimum and maximum pt for 4-momenta sum of leptons                *
#*********************************************************************
 0   = ptllmin  ! Minimum pt for 4-momenta sum of leptons(l and vl)
 -1  = ptllmax  ! Maximum pt for 4-momenta sum of leptons(l and vl)
#*********************************************************************
# Inclusive cuts                                                     *
#*********************************************************************
 0  = xptj ! minimum pt for at least one jet  
 0  = xptb ! minimum pt for at least one b 
 0  = xpta ! minimum pt for at least one photon 
 0  = xptl ! minimum pt for at least one charged lepton 
#*********************************************************************
# Control the pt's of the jets sorted by pt                          *
#*********************************************************************
 0   = ptj1min ! minimum pt for the leading jet in pt
 0   = ptj2min ! minimum pt for the second jet in pt
 0   = ptj3min ! minimum pt for the third jet in pt
 0   = ptj4min ! minimum pt for the fourth jet in pt
 -1  = ptj1max ! maximum pt for the leading jet in pt 
 -1  = ptj2max ! maximum pt for the second jet in pt
 -1  = ptj3max ! maximum pt for the third jet in pt
 -1  = ptj4max ! maximum pt for the fourth jet in pt
 0   = cutuse  ! reject event if fails any (0) / all (1) jet pt cuts
#*********************************************************************
# Control the pt's of leptons sorted by pt                           *
#*********************************************************************
 0   = ptl1min ! minimum pt for the leading lepton in pt
 0   = ptl2min ! minimum pt for the second lepton in pt
 0   = ptl3min ! minimum pt for the third lepton in pt
 0   = ptl4min ! minimum pt for the fourth lepton in pt
 -1  = ptl1max ! maximum pt for the leading lepton in pt 
 -1  = ptl2max ! maximum pt for the second lepton in pt
 -1  = ptl3max ! maximum pt for the third lepton in pt
 -1  = ptl4max ! maximum pt for the fourth lepton in pt
#*********************************************************************
# Control the Ht(k)=Sum of k leading jets                            *
#*********************************************************************
 0   = htjmin ! minimum jet HT=Sum(jet pt)
 -1  = htjmax ! maximum jet HT=Sum(jet pt)
 0   = ihtmin  !inclusive Ht for all partons (including b)
 -1  = ihtmax  !inclusive Ht for all partons (including b)
 0   = ht2min ! minimum Ht for the two leading jets
 0   = ht3min ! minimum Ht for the three leading jets
 0   = ht4min ! minimum Ht for the four leading jets
 -1  = ht2max ! maximum Ht for the two leading jets
 -1  = ht3max ! maximum Ht for the three leading jets
 -1  = ht4max ! maximum Ht for the four leading jets
#***********************************************************************
# Photon-isolation cuts, according to hep-ph/9801442                   *
# When ptgmin=0, all the other parameters are ignored                  *
# When ptgmin>0, pta and draj are not going to be used                 *
#***********************************************************************
   0 = ptgmin ! Min photon transverse momentum
 0.4 = R0gamma ! Radius of isolation code
 1.0 = xn ! n parameter of eq.(3.4) in hep-ph/9801442
 1.0 = epsgamma ! epsilon_gamma parameter of eq.(3.4) in hep-ph/9801442
 .true. = isoEM ! isolate photons from EM energy (photons and leptons)
#*********************************************************************
# WBF cuts                                                           *
#*********************************************************************
 0   = xetamin ! minimum rapidity for two jets in the WBF case  
 0   = deltaeta ! minimum rapidity for two jets in the WBF case 
#*********************************************************************
# KT DURHAM CUT                                                      *
#*********************************************************************
 -1    =  ktdurham        
 0.4  =  dparameter 
#*********************************************************************
# maximal pdg code for quark to be considered as a light jet         *
# (otherwise b cuts are applied)                                     *
#*********************************************************************
 4 = maxjetflavor    ! Maximum jet pdg code
#*********************************************************************
# Jet measure cuts                                                   *
#*********************************************************************
 0   = xqcut   ! minimum kt jet measure between partons
#*********************************************************************
#
#*********************************************************************
# Store info for systematics studies                                 *
# WARNING: If use_syst is T, matched Pythia output is                *
#          meaningful ONLY if plotted taking matchscale              *
#          reweighting into account!                                 *
#*********************************************************************
   F  = use_syst      ! Enable systematics studies
#
#**************************************
# Parameter of the systematics study
#  will be used by SysCalc (if installed)
#**************************************                                  
#
0.5 1 2 = sys_scalefact  # factorization/renormalization scale factor
0.5 1 2 = sys_alpsfact  # \alpha_s emission scale factors
30 50 = sys_matchscale # variation of merging scale
# PDF sets and number of members (0 or none for all members).
CT10nlo.LHgrid = sys_pdf # matching scales
# MSTW2008nlo68cl.LHgrid 1  = sys_pdf
</MGRunCard>
<slha>
######################################################################
## PARAM_CARD AUTOMATICALY GENERATED BY MG5 FOLLOWING UFO MODEL   ####
######################################################################
##                                                                  ##
##  Width set on Auto will be computed following the information    ##
##        present in the decay.py files of the model.               ##
##        See  arXiv:1402.1178 for more details.                    ##
##                                                                  ##
######################################################################

###################################
## INFORMATION FOR CKMBLOCK
###################################
Block ckmblock 
    1 2.277360e-01 # cabi 

###################################
## INFORMATION FOR FRBLOCK
###################################
Block frblock 
    1 4.000000e-01 # gz 

###################################
## INFORMATION FOR MASS
###################################
Block mass 
    1 5.040000e-03 # MD 
    2 2.550000e-03 # MU 
    3 1.010000e-01 # MS 
    4 1.270000e+00 # MC 
    5 4.700000e+00 # MB 
    6 1.720000e+02 # MT 
   11 5.110000e-04 # Me 
   13 1.056600e-01 # MM 
   15 1.777000e+00 # MTA 
   23 9.118760e+01 # MZ 
   25 1.200000e+02 # MH 
  10030 1.600000e+03 # MZph 
  10031 3.000000e+02 # MZpl 
## Dependent parameters, given by model restrictions.
## Those values should be edited following the 
## analytical expression. MG5 ignores those values 
## but they are important for interfacing the output of MG5
## to external program such as Pythia.
  12 0.000000 # ve : 0.0 
  14 0.000000 # vm : 0.0 
  16 0.000000 # vt : 0.0 
  21 0.000000 # g : 0.0 
  22 0.000000 # a : 0.0 
  24 79.824360 # w+ : cmath.sqrt(MZ__exp__2/2. + cmath.sqrt(MZ__exp__4/4. - (aEW*cmath.pi*MZ__exp__2)/(Gf*sqrt__2))) 

###################################
## INFORMATION FOR SMINPUTS
###################################
Block sminputs 
    1 1.279000e+02 # aEWM1 
    2 1.166370e-05 # Gf 
    3 1.184000e-01 # aS 

###################################
## INFORMATION FOR YUKAWA
###################################
Block yukawa 
    1 5.040000e-03 # ymdo 
    2 2.550000e-03 # ymup 
    3 1.010000e-01 # yms 
    4 1.270000e+00 # ymc 
    5 4.700000e+00 # ymb 
    6 1.720000e+02 # ymt 
   11 5.110000e-04 # yme 
   13 1.056600e-01 # ymm 
   15 1.777000e+00 # ymtau 

###################################
## INFORMATION FOR DECAY
###################################
DECAY   6 1.508336e+00 # WT 
DECAY  23 2.495200e+00 # WZ 
DECAY  24 2.085000e+00 # WW 
DECAY  25 5.753088e-03 # WH 
## Dependent parameters, given by model restrictions.
## Those values should be edited following the 
## analytical expression. MG5 ignores those values 
## but they are important for interfacing the output of MG5
## to external program such as Pythia.
DECAY  1 0.000000 # d : 0.0 
DECAY  2 0.000000 # u : 0.0 
DECAY  3 0.000000 # s : 0.0 
DECAY  4 0.000000 # c : 0.0 
DECAY  5 0.000000 # b : 0.0 
DECAY  11 0.000000 # e- : 0.0 
DECAY  12 0.000000 # ve : 0.0 
DECAY  13 0.000000 # mu- : 0.0 
DECAY  14 0.000000 # vm : 0.0 
DECAY  15 0.000000 # ta- : 0.0 
DECAY  16 0.000000 # vt : 0.0 
DECAY  21 0.000000 # g : 0.0 
DECAY  22 0.000000 # a : 0.0 
DECAY  10030 0.308725 # zph : (gz__exp__2*MZph*(5 + cmath.sqrt(1 - (4*MT__exp__2)/MZph__exp__2)))/(144.*cmath.pi) 
DECAY  10031 0.132629 # zpl : (5*gz__exp__2*MZpl)/(144.*cmath.pi) 
#===========================================================
# QUANTUM NUMBERS OF NEW STATE(S) (NON SM PDG CODE)
#===========================================================

Block QNUMBERS 10030  # zph 
        1 0  # 3 times electric charge
        2 3  # number of spin states (2S+1)
        3 1  # colour rep (1: singlet, 3: triplet, 8: octet)
        4 0  # Particle/Antiparticle distinction (0=own anti)
Block QNUMBERS 10031  # zpl 
        1 0  # 3 times electric charge
        2 3  # number of spin states (2S+1)
        3 1  # colour rep (1: singlet, 3: triplet, 8: octet)
        4 0  # Particle/Antiparticle distinction (0=own anti)
</slha>
## END BANNER##
<MGGenerationInfo>
#  Number of Events        :         3972
#  Integrated weight (pb)  :  0.24337E-01
#  Max wgt                 :  0.86940E-05
#  Average wgt             :  0.61271E-05
</MGGenerationInfo>
</header>
<init>
     2212     2212  0.40000000000E+04  0.40000000000E+04 0 0  247000  247000 2   1
  0.24351758322E-01  0.58751606263E-04  0.86940330000E-05   0
</init>
<event>
 5   0  0.8694033E-05  0.1599976E+04  0.7818609E-02  0.8820563E-01
       -2   -1    0    0    0  501  0.00000000000E+00  0.00000000000E+00  0.13035691907E+04  0.13035691907E+04  0.25500000920E-02 0.  1.
        2   -1    0    0  501    0  0.00000000000E+00  0.00000000000E+00 -0.49094477968E+03  0.49094477969E+03  0.25500000920E-02 0. -1.
    10030    2    1    2    0    0  0.00000000000E+00  0.00000000000E+00  0.81262441102E+03  0.17945139704E+04  0.15999756112E+04 0.  0.
        1    1    3    3  502    0 -0.99356200174E+02 -0.48820023702E+03 -0.29570655197E+03  0.57935610020E+03  0.50400001928E-02 0. -1.
       -1    1    3    3    0  502  0.99356200174E+02  0.48820023702E+03  0.11083309630E+04  0.12151578702E+04  0.50400001928E-02 0.  1.
</event>
<event>
 5   0  0.8694033E-05  0.1601133E+04  0.7818609E-02  0.8819852E-01
        2   -1    0    0  501    0  0.00000000000E+00  0.00000000000E+00  0.60199692861E+03  0.60199692862E+03  0.25500000920E-02 0. -1.
       -2   -1    0    0    0  501  0.00000000000E+00  0.00000000000E+00 -0.10646351710E+04  0.10646351710E+04  0.25500000920E-02 0.  1.
    10030    2    1    2    0    0  0.00000000000E+00  0.00000000000E+00 -0.46263824237E+03  0.16666320996E+04  0.16011334773E+04 0.  0.
        1    1    3    3  502    0 -0.55344044831E+03 -0.24937994007E+02 -0.83287808289E+03  0.10003020216E+04  0.50400001928E-02 0.  1.
       -1    1    3    3    0  502  0.55344044831E+03  0.24937994007E+02  0.37023984052E+03  0.66633007804E+03  0.50400001928E-02 0. -1.
</event>
<event>
 5   0  0.7849690E-05  0.1598796E+04  0.7818609E-02  0.8821288E-01
       -2   -1    0    0    0  501  0.00000000000E+00  0.00000000000E+00  0.89598649410E+03  0.89598649411E+03  0.25500000920E-02 0.  1.
        2   -1    0    0  501    0  0.00000000000E+00  0.00000000000E+00 -0.71322143351E+03  0.71322143351E+03  0.25500000920E-02 0. -1.
    10030    2    1    2    0    0  0.00000000000E+00  0.00000000000E+00  0.18276506060E+03  0.16092079276E+04  0.15987955113E+04 0.  0.
        3    1    3    3  502    0 -0.40929639961E+03 -0.51697571252E+03 -0.36350032140E+03  0.75294085022E+03  0.10100000352E+00 0. -1.
       -3    1    3    3    0  502  0.40929639961E+03  0.51697571252E+03  0.54626538200E+03  0.85626707740E+03  0.10100000352E+00 0.  1.
</event>
<event>
 5   0  0.8694033E-05  0.1600838E+04  0.7818609E-02  0.8820034E-01
       -2   -1    0    0    0  501  0.00000000000E+00  0.00000000000E+00  0.10484023936E+04  0.10484023936E+04  0.25500000920E-02 0. -1.
        2   -1    0    0  501    0  0.00000000000E+00  0.00000000000E+00 -0.61109197792E+03  0.61109197792E+03  0.25500000920E-02 0.  1.
    10030    2    1    2    0    0  0.00000000000E+00  0.00000000000E+00  0.43731041569E+03  0.16594943715E+04  0.16008376462E+04 0.  0.
        1    1    3    3  502    0 -0.62238734333E+03 -0.64266560382E+02  0.73611896912E+03  0.96610937924E+03  0.50400001928E-02 0. -1.
       -1    1    3    3    0  502  0.62238734333E+03  0.64266560382E+02 -0.29880855343E+03  0.69338499230E+03  0.50400001928E-02 0.  1.
</event>
<event>
 5   0  0.7849690E-05  0.1614081E+04  0.7818609E-02  0.8811944E-01
        2   -1    0    0  501    0  0.00000000000E+00  0.00000000000E+00  0.20911392020E+04  0.20911392020E+04  0.25500000920E-02 0.  1.
       -2   -1    0    0    0  501  0.00000000000E+00  0.00000000000E+00 -0.31146391840E+03  0.31146391842E+03  0.25500000920E-02 0. -1.
    10030    2    1    2    0    0  0.00000000000E+00  0.00000000000E+00  0.17796752836E+04  0.24026031204E+04  0.16140810510E+04 0.  0.
        3    1    3    3  502    0 -0.69755261609E+03  0.40329795545E+03  0.95781471689E+03  0.12516540797E+04  0.10100000352E+00 0. -1.
       -3    1    3    3    0  502  0.69755261609E+03 -0.40329795545E+03  0.82186056674E+03  0.11509490408E+04  0.10100000352E+00 0.  1.
</event>
<event>
 5   0  0.4504463E-05  0.1598772E+04  0.7818609E-02  0.8821303E-01
       -1   -1    0    0    0  501  0.00000000000E+00  0.00000000000E+00  0.50387578707E+03  0.50387578710E+03  0.50400001928E-02 0. -1.
        1   -1    0    0  501    0  0.00000000000E+00  0.00000000000E+00 -0.12682059403E+04  0.12682059403E+04  0.50400001928E-02 0.  1.
    10030    2    1    2    0    0  0.00000000000E+00  0.00000000000E+00 -0.76433015325E+03  0.17720817274E+04  0.15987723620E+04 0.  0.
        1    1    3    3  502    0  0.20562429240E+03  0.11952650916E+03 -0.12280797598E+04  0.12508988098E+04  0.50400001928E-02 0.  1.
       -1    1    3    3    0  502 -0.20562429240E+03 -0.11952650916E+03  0.46374960653E+03  0.52118291760E+03  0.50400001928E-02 0. -1.
</event>
<event>
 5   0  0.4256406E-05  0.1600699E+04  0.7818609E-02  0.8820119E-01
       -1   -1    0    0    0  501  0.00000000000E+00  0.00000000000E+00  0.72451126336E+03  0.72451126338E+03  0.50400001928E-02 0. -1.
        1   -1    0    0  501    0  0.00000000000E+00  0.00000000000E+00 -0.88412616705E+03  0.88412616707E+03  0.50400001928E-02 0.  1.
    10030    2    1    2    0    0  0.00000000000E+00  0.00000000000E+00 -0.15961490369E+03  0.16086374304E+04  0.16006990551E+04 0.  0.
        3    1    3    3  502    0  0.50285600705E+03  0.26102736938E+03 -0.64790723397E+03  0.86068765846E+03  0.10100000352E+00 0.  1.
       -3    1    3    3    0  502 -0.50285600705E+03 -0.26102736938E+03  0.48829233029E+03  0.74794977198E+03  0.10100000352E+00 0. -1.
</event>
<event>
 5   0  0.8694033E-05  0.1601019E+04  0.7818609E-02  0.8819922E-01
        2   -1    0    0  501    0  0.00000000000E+00  0.00000000000E+00  0.34976301023E+03  0.34976301024E+03  0.25500000920E-02 0. -1.
       -2   -1    0    0    0  501  0.00000000000E+00  0.00000000000E+00 -0.18321426869E+04  0.18321426869E+04  0.25500000920E-02 0.  1.
    10030    2    1    2    0    0  0.00000000000E+00  0.00000000000E+00 -0.14823796766E+04  0.21819056971E+04  0.16010193519E+04 0.  0.
        1    1    3    3  502    0 -0.55848050923E+03 -0.26375037744E+03 -0.14352280127E+04  0.15624801404E+04  0.50400001928E-02 0.  1.
       -1    1    3    3    0  502  0.55848050923E+03  0.26375037744E+03 -0.47151663915E+02  0.61942555664E+03  0.50400001928E-02 0. -1.
</event>
<event>
 5   0  0.4211419E-05  0.1599008E+04  0.7818609E-02  0.8821158E-01
       -1   -1    0    0    0  501  0.00000000000E+00  0.00000000000E+00  0.62514040932E+03  0.62514040934E+03  0.50400001928E-02 0. -1.
        1   -1    0    0  501    0  0.00000000000E+00  0.00000000000E+00 -0.10225009291E+04  0.10225009291E+04  0.50400001928E-02 0.  1.
    10030    2    1    2    0    0  0.00000000000E+00  0.00000000000E+00 -0.39736051980E+03  0.16476413385E+04  0.15990080042E+04 0.  0.
        2    1    3    3  502    0 -0.12127735553E+03 -0.71534018048E+03  0.14737171395E+03  0.74036355451E+03  0.25500000920E-02 0.  1.
       -2    1    3    3    0  502  0.12127735553E+03  0.71534018048E+03 -0.54473223375E+03  0.90727778396E+03  0.25500000920E-02 0. -1.
</event>
<event>
 5   0  0.8694033E-05  0.1600620E+04  0.7818609E-02  0.8820167E-01
       -2   -1    0    0    0  501  0.00000000000E+00  0.00000000000E+00  0.38969197046E+03  0.38969197047E+03  0.25500000920E-02 0.  1.
        2   -1    0    0  501    0  0.00000000000E+00  0.00000000000E+00 -0.16435963203E+04  0.16435963203E+04  0.25500000920E-02 0. -1.
    10030    2    1    2    0    0  0.00000000000E+00  0.00000000000E+00 -0.12539043498E+04  0.20332882908E+04  0.16006202407E+04 0.  0.
        1    1    3    3  502    0  0.65986680543E+03  0.14072509258E+03 -0.11737307516E+04  0.13538358947E+04  0.50400001928E-02 0. -1.
       -1    1    3    3    0  502 -0.65986680543E+03 -0.14072509258E+03 -0.80173598227E+02  0.67945239603E+03  0.50400001928E-02 0.  1.
</event>
<event>
 5   0  0.3042125E-05  0.1599677E+04  0.7818609E-02  0.8820746E-01
        4   -1    0    0  501    0  0.00000000000E+00  0.00000000000E+00  0.95459187561E+03  0.95459272042E+03  0.12699999809E+01 0.  1.
       -4   -1    0    0    0  501  0.00000000000E+00  0.00000000000E+00 -0.67017123442E+03  0.67017243777E+03  0.12699999809E+01 0. -1.
    10030    2    1    2    0    0  0.00000000000E+00  0.00000000000E+00  0.28442064119E+03  0.16247651582E+04  0.15996770668E+04 0.  0.
        1    1    3    3  502    0  0.46688256210E+03  0.19765344250E+03 -0.48611554619E+03  0.70239200907E+03  0.50400001928E-02 0. -1.
       -1    1    3    3    0  502 -0.46688256210E+03 -0.19765344250E+03  0.77053618738E+03  0.92237314912E+03  0.50400001928E-02 0.  1.
</event>
<event>
 5   0  0.8037548E-05  0.1598558E+04  0.7818609E-02  0.8821434E-01
        2   -1    0    0  501    0  0.00000000000E+00  0.00000000000E+00  0.33767620286E+03  0.33767620287E+03  0.25500000920E-02 0.  1.
       -2   -1    0    0    0  501  0.00000000000E+00  0.00000000000E+00 -0.18918923643E+04  0.18918923643E+04  0.25500000920E-02 0. -1.
    10030    2    1    2    0    0  0.00000000000E+00  0.00000000000E+00 -0.15542161614E+04  0.22295685672E+04  0.15985581376E+04 0.  0.
        5    1    3    3  502    0 -0.10055930411E+03 -0.14479199890E+03 -0.18644200828E+04  0.18727416351E+04  0.46999998093E+01 0. -1.
       -5    1    3    3    0  502  0.10055930411E+03  0.14479199890E+03  0.31020392140E+03  0.35682693205E+03  0.46999998093E+01 0.  1.
</event>
<event>
 5   0  0.4314657E-05  0.1573804E+04  0.7818609E-02  0.8836805E-01
        1   -1    0    0  501    0  0.00000000000E+00  0.00000000000E+00  0.18075424075E+04  0.18075424075E+04  0.50400001928E-02 0.  1.
       -1   -1    0    0    0  501  0.00000000000E+00  0.00000000000E+00 -0.34257252918E+03  0.34257252921E+03  0.50400001928E-02 0. -1.
    10030    2    1    2    0    0  0.00000000000E+00  0.00000000000E+00  0.14649698783E+04  0.21501149367E+04  0.15738035128E+04 0.  0.
        5    1    3    3  502    0  0.10212240357E+02 -0.24647485753E+03  0.17533299562E+04  0.17706050295E+04  0.46999998093E+01 0.  1.
       -5    1    3    3    0  502 -0.10212240357E+02  0.24647485753E+03 -0.28836007781E+03  0.37950990727E+03  0.46999998093E+01 0. -1.
</event>
<event>
 5   0  0.3042125E-05  0.1600705E+04  0.7818609E-02  0.8820115E-01
       -3   -1    0    0    0  501  0.00000000000E+00  0.00000000000E+00  0.26610213168E+03  0.26610215085E+03  0.10100000352E+00 0.  1.
        3   -1    0    0  501    0  0.00000000000E+00  0.00000000000E+00 -0.24072128875E+04  0.24072128897E+04  0.10100000352E+00 0. -1.
    10030    2    1    2    0    0  0.00000000000E+00  0.00000000000E+00 -0.21411107559E+04  0.26733150405E+04  0.16007054810E+04 0.  0.
        5    1    3    3  502    0 -0.15455875029E+03  0.75240418348E+03 -0.69509446210E+03  0.10359434656E+04  0.46999998093E+01 0.  1.
       -5    1    3    3    0  502  0.15455875029E+03 -0.75240418348E+03 -0.14460162938E+04  0.16373715749E+04  0.46999998093E+01 0. -1.
</event>
<event>
 5   0  0.4504463E-05  0.1598214E+04  0.7818609E-02  0.8821646E-01
       -1   -1    0    0    0  501  0.00000000000E+00  0.00000000000E+00  0.10601611687E+04  0.10601611687E+04  0.50400001928E-02 0.  1.
        1   -1    0    0  501    0  0.00000000000E+00  0.00000000000E+00 -0.60233468996E+03  0.60233468998E+03  0.50400001928E-02 0. -1.
    10030    2    1    2    0    0  0.00000000000E+00  0.00000000000E+00  0.45782647872E+03  0.16624958587E+04  0.15982138141E+04 0.  0.
        1    1    3    3  502    0 -0.25240361023E+02 -0.67333965381E+03  0.67578296428E+03  0.95430916377E+03  0.50400001928E-02 0.  1.
       -1    1    3    3    0  502  0.25240361023E+02  0.67333965381E+03 -0.21795648556E+03  0.70818669490E+03  0.50400001928E-02 0. -1.
</event>
<event>
 5   0  0.4256406E-05  0.1607606E+04  0.7818609E-02  0.8815889E-01
       -1   -1    0    0    0  501  0.00000000000E+00  0.00000000000E+00  0.34135413119E+03  0.34135413123E+03  0.50400001928E-02 0.  1.
        1   -1    0    0  501    0  0.00000000000E+00  0.00000000000E+00 -0.18927544792E+04  0.18927544792E+04  0.50400001928E-02 0. -1.
    10030    2    1    2    0    0  0.00000000000E+00  0.00000000000E+00 -0.15514003480E+04  0.22341086104E+04  0.16076063708E+04 0.  0.
        3    1    3    3  502    0 -0.73033427000E+03  0.66790062895E+02 -0.31846513536E+03  0.79954306393E+03  0.10100000352E+00 0.  1.
       -3    1    3    3    0  502  0.73033427000E+03 -0.66790062895E+02 -0.12329352126E+04  0.14345655465E+04  0.10100000352E+00 0. -1.
</event>
<event>
 5   0  0.4256406E-05  0.1601706E+04  0.7818609E-02  0.8819501E-01
       -1   -1    0    0    0  501  0.00000000000E+00  0.00000000000E+00  0.79293442079E+03  0.79293442080E+03  0.50400001928E-02 0.  1.
        1   -1    0    0  501    0  0.00000000000E+00  0.00000000000E+00 -0.80885083509E+03  0.80885083510E+03  0.50400001928E-02 0. -1.
    10030    2    1    2    0    0  0.00000000000E+00  0.00000000000E+00 -0.15916414298E+02  0.16017852559E+04  0.16017061759E+04 0.  0.
        3    1    3    3  502    0 -0.14170664931E+02  0.30427454053E+03  0.73274147923E+03  0.79353253831E+03  0.10100000352E+00 0.  1.
       -3    1    3    3    0  502  0.14170664931E+02 -0.30427454053E+03 -0.74865789353E+03  0.80825271760E+03  0.10100000352E+00 0. -1.
</event>
<event>
 5   0  0.8694033E-05  0.1638903E+04  0.7818609E-02  0.8796998E-01
       -2   -1    0    0    0  501  0.00000000000E+00  0.00000000000E+00  0.58188797349E+03  0.58188797349E+03  0.25500000920E-02 0. -1.
        2   -1    0    0  501    0  0.00000000000E+00  0.00000000000E+00 -0.11540040695E+04  0.11540040695E+04  0.25500000920E-02 0.  1.
    10030    2    1    2    0    0  0.00000000000E+00  0.00000000000E+00 -0.57211609599E+03  0.17358920430E+04  0.16389034009E+04 0.  0.
        1    1    3    3  502    0 -0.37771556237E+03  0.22774282547E+03  0.44543924775E+03  0.62685880713E+03  0.50400001928E-02 0. -1.
       -1    1    3    3    0  502  0.37771556237E+03 -0.22774282547E+03 -0.10175553437E+04  0.11090332358E+04  0.50400001928E-02 0.  1.
</event>
<event>
 5   0  0.4373026E-05  0.1598077E+04  0.7818609E-02  0.8821730E-01
       -1   -1    0    0    0  501  0.00000000000E+00  0.00000000000E+00  0.56598079381E+03  0.56598079383E+03  0.50400001928E-02 0.  1.
        1   -1    0    0  501    0  0.00000000000E+00  0.00000000000E+00 -0.11280645832E+04  0.11280645832E+04  0.50400001928E-02 0. -1.
    10030    2    1    2    0    0  0.00000000000E+00  0.00000000000E+00 -0.56208378939E+03  0.16940453770E+04  0.15980774553E+04 0.  0.
        4    1    3    3  502    0 -0.54820045558E+03 -0.48573044788E+02  0.33303687291E+03  0.64327152261E+03  0.12699999809E+01 0.  1.
       -4    1    3    3    0  502  0.54820045558E+03  0.48573044788E+02 -0.89512066230E+03  0.10507738544E+04  0.12699999809E+01 0. -1.
</event>
<event>
 5   0  0.4504463E-05  0.1601339E+04  0.7818609E-02  0.8819726E-01
        1   -1    0    0  501    0  0.00000000000E+00  0.00000000000E+00  0.80185364638E+03  0.80185364639E+03  0.50400001928E-02 0. -1.
       -1   -1    0    0    0  501  0.00000000000E+00  0.00000000000E+00 -0.79948685771E+03  0.79948685773E+03  0.50400001928E-02 0.  1.
    10030    2    1    2    0    0  0.00000000000E+00  0.00000000000E+00  0.23667886622E+01  0.16013405041E+04  0.16013387551E+04 0.  0.
        1    1    3    3  502    0 -0.71362117003E+03 -0.25837955461E+03 -0.25387821715E+03  0.80029326982E+03  0.50400001928E-02 0.  1.
       -1    1    3    3    0  502  0.71362117003E+03  0.25837955461E+03  0.25624500581E+03  0.80104723430E+03  0.50400001928E-02 0. -1.
</event>
<event>
 5   0  0.7901257E-05  0.1599432E+04  0.7818609E-02  0.8820897E-01
       -2   -1    0    0    0  501  0.00000000000E+00  0.00000000000E+00  0.44627404683E+03  0.44627404684E+03  0.25500000920E-02 0.  1.
        2   -1    0    0  501    0  0.00000000000E+00  0.00000000000E+00 -0.14330783954E+04  0.14330783954E+04  0.25500000920E-02 0. -1.
    10030    2    1    2    0    0  0.00000000000E+00  0.00000000000E+00 -0.98680434857E+03  0.18793524422E+04  0.15994320179E+04 0.  0.
        2    1    3    3  502    0 -0.47017533646E+03  0.26640341015E+03  0.19926745278E+03  0.57597147647E+03  0.25500000920E-02 0.  1.
       -2    1    3    3    0  502  0.47017533646E+03 -0.26640341015E+03 -0.11860718014E+04  0.13033809658E+04  0.25500000920E-02 0. -1.
</event>
<event>
 5   0  0.4256406E-05  0.1599746E+04  0.7818609E-02  0.8820704E-01
        1   -1    0    0  501    0  0.00000000000E+00  0.00000000000E+00  0.14508339931E+04  0.14508339931E+04  0.50400001928E-02 0. -1.
       -1   -1    0    0    0  501  0.00000000000E+00  0.00000000000E+00 -0.44098563906E+03  0.44098563909E+03  0.50400001928E-02 0.  1.
    10030    2    1    2    0    0  0.00000000000E+00  0.00000000000E+00  0.10098483541E+04  0.18918196322E+04  0.15997461745E+04 0.  0.
        3    1    3    3  502    0  0.71261231233E+03 -0.12704754026E+03  0.90741603360E+03  0.11607589127E+04  0.10100000352E+00 0. -1.
       -3    1    3    3    0  502 -0.71261231233E+03  0.12704754026E+03  0.10243232049E+03  0.73106071954E+03  0.10100000352E+00 0.  1.
</event>
<event>
 5   0  0.7849690E-05  0.1600906E+04  0.7818609E-02  0.8819991E-01
        2   -1    0    0  501    0  0.00000000000E+00  0.00000000000E+00  0.14323486941E+04  0.14323486941E+04  0.25500000920E-02 0. -1.
       -2   -1    0    0    0  501  0.00000000000E+00  0.00000000000E+00 -0.44732500804E+03  0.44732500804E+03  0.25500000920E-02 0.  1.
    10030    2    1    2    0    0  0.00000000000E+00  0.00000000000E+00  0.98502368609E+03  0.18796737022E+04  0.16009064821E+04 0.  0.
        3    1    3    3  502    0 -0.44699989182E+03  0.52214324985E+03  0.97416731839E+03  0.11922434529E+04  0.10100000352E+00 0.  1.
       -3    1    3    3    0  502  0.44699989182E+03 -0.52214324985E+03  0.10856367703E+02  0.68743024924E+03  0.10100000352E+00 0. -1.
</event>
<event>
 5   0  0.4504463E-05  0.1603072E+04  0.7818609E-02  0.8818663E-01
       -1   -1    0    0    0  501  0.00000000000E+00  0.00000000000E+00  0.99083101301E+03  0.99083101302E+03  0.50400001928E-02 0. -1.
        1   -1    0    0  501    0  0.00000000000E+00  0.00000000000E+00 -0.64840540673E+03  0.64840540674E+03  0.50400001928E-02 0.  1.
    10030    2    1    2    0    0  0.00000000000E+00  0.00000000000E+00  0.34242560628E+03  0.16392364198E+04  0.16030722829E+04 0.  0.
        1    1    3    3  502    0  0.13753921521E+02 -0.43297963867E+03  0.86081486167E+03  0.96367150210E+03  0.50400001928E-02 0. -1.
       -1    1    3    3    0  502 -0.13753921521E+02  0.43297963867E+03 -0.51838925538E+03  0.67556491767E+03  0.50400001928E-02 0.  1.
</event>
<event>
 5   0  0.7901257E-05  0.1597960E+04  0.7818609E-02  0.8821802E-01
       -2   -1    0    0    0  501  0.00000000000E+00  0.00000000000E+00  0.45385065157E+03  0.45385065158E+03  0.25500000920E-02 0. -1.
        2   -1    0    0  501    0  0.00000000000E+00  0.00000000000E+00 -0.14065615112E+04  0.14065615112E+04  0.25500000920E-02 0.  1.
    10030    2    1    2    0    0  0.00000000000E+00  0.00000000000E+00 -0.95271085965E+03  0.18604121628E+04  0.15979597721E+04 0.  0.
        2    1    3    3  502    0 -0.68669383108E+03 -0.74177766490E+02 -0.94396659990E+03  0.11696682010E+04  0.25500000920E-02 0.  1.
       -2    1    3    3    0  502  0.68669383108E+03  0.74177766490E+02 -0.87442597433E+01  0.69074396180E+03  0.25500000920E-02 0. -1.
</event>
<event>
 5   0  0.4211419E-05  0.1599641E+04  0.7818609E-02  0.8820769E-01
        1   -1    0    0  501    0  0.00000000000E+00  0.00000000000E+00  0.64263993775E+03  0.64263993777E+03  0.50400001928E-02 0. -1.
       -1   -1    0    0    0  501  0.00000000000E+00  0.00000000000E+00 -0.99544492953E+03  0.99544492955E+03  0.50400001928E-02 0.  1.
    10030    2    1    2    0    0  0.00000000000E+00  0.00000000000E+00 -0.35280499178E+03  0.16380848673E+04  0.15996407942E+04 0.  0.
        2    1    3    3  502    0 -0.74752275185E+03  0.24926156832E+03 -0.36027510483E+02  0.78880896007E+03  0.25500000920E-02 0. -1.
       -2    1    3    3    0  502  0.74752275185E+03 -0.24926156832E+03 -0.31677748130E+03  0.84927590725E+03  0.25500000920E-02 0.  1.
</event>
<event>
 5   0  0.7849690E-05  0.1597527E+04  0.7818609E-02  0.8822069E-01
       -2   -1    0    0    0  501  0.00000000000E+00  0.00000000000E+00  0.99287671083E+03  0.99287671083E+03  0.25500000920E-02 0. -1.
        2   -1    0    0  501    0  0.00000000000E+00  0.00000000000E+00 -0.64260059434E+03  0.64260059434E+03  0.25500000920E-02 0.  1.
    10030    2    1    2    0    0  0.00000000000E+00  0.00000000000E+00  0.35027611649E+03  0.16354773052E+04  0.15975270445E+04 0.  0.
        3    1    3    3  502    0 -0.42900305758E+03 -0.23445487183E+02  0.86450642614E+03  0.96538318057E+03  0.10100000352E+00 0. -1.
       -3    1    3    3    0  502  0.42900305758E+03  0.23445487183E+02 -0.51423030965E+03  0.67009412461E+03  0.10100000352E+00 0.  1.
</event>
<event>
 5   0  0.8037548E-05  0.1599145E+04  0.7818609E-02  0.8821073E-01
        2   -1    0    0  501    0  0.00000000000E+00  0.00000000000E+00  0.12665246432E+04  0.12665246432E+04  0.25500000920E-02 0.  1.
       -2   -1    0    0    0  501  0.00000000000E+00  0.00000000000E+00 -0.50478013148E+03  0.50478013148E+03  0.25500000920E-02 0. -1.
    10030    2    1    2    0    0  0.00000000000E+00  0.00000000000E+00  0.76174451174E+03  0.17713047747E+04  0.15991453667E+04 0.  0.
        5    1    3    3  502    0  0.58091560311E+03 -0.34313778286E+03  0.85611772240E+03  0.10900303301E+04  0.46999998093E+01 0.  1.
       -5    1    3    3    0  502 -0.58091560311E+03  0.34313778286E+03 -0.94373210657E+02  0.68127444459E+03  0.46999998093E+01 0. -1.
</event>
<event>
 5   0  0.4211419E-05  0.1597711E+04  0.7818609E-02  0.8821956E-01
       -1   -1    0    0    0  501  0.00000000000E+00  0.00000000000E+00  0.63346893834E+03  0.63346893836E+03  0.50400001928E-02 0. -1.
        1   -1    0    0  501    0  0.00000000000E+00  0.00000000000E+00 -0.10074211076E+04  0.10074211076E+04  0.50400001928E-02 0.  1.
    10030    2    1    2    0    0  0.00000000000E+00  0.00000000000E+00 -0.37395216923E+03  0.16408900459E+04  0.15977108368E+04 0.  0.
        2    1    3    3  502    0  0.23706493366E+03  0.68095292915E+03  0.16622714498E+03  0.73995144315E+03  0.25500000920E-02 0. -1.
       -2    1    3    3    0  502 -0.23706493366E+03 -0.68095292915E+03 -0.54017931421E+03  0.90093860279E+03  0.25500000920E-02 0.  1.
</event>
<event>
 5   0  0.7849690E-05  0.1602182E+04  0.7818609E-02  0.8819208E-01
        2   -1    0    0  501    0  0.00000000000E+00  0.00000000000E+00  0.17488824015E+04  0.17488824015E+04  0.25500000920E-02 0.  1.
       -2   -1    0    0    0  501  0.00000000000E+00  0.00000000000E+00 -0.36694696355E+03  0.36694696356E+03  0.25500000920E-02 0. -1.
    10030    2    1    2    0    0  0.00000000000E+00  0.00000000000E+00  0.13819354380E+04  0.21158293651E+04  0.16021823702E+04 0.  0.
        3    1    3    3  502    0  0.20870721330E+03  0.46992081201E+03 -0.12027019213E+03  0.52806173858E+03  0.10100000352E+00 0. -1.
       -3    1    3    3    0  502 -0.20870721330E+03 -0.46992081201E+03  0.15022056301E+04  0.15877676265E+04  0.10100000352E+00 0.  1.
</event>
<event>
 5   0  0.8694033E-05  0.1598858E+04  0.7818609E-02  0.8821250E-01
       -2   -1    0    0    0  501  0.00000000000E+00  0.00000000000E+00  0.45075316374E+03  0.45075316375E+03  0.25500000920E-02 0.  1.
        2   -1    0    0  501    0  0.00000000000E+00  0.00000000000E+00 -0.14178204785E+04  0.14178204785E+04  0.25500000920E-02 0. -1.
    10030    2    1    2    0    0  0.00000000000E+00  0.00000000000E+00 -0.96706731475E+03  0.18685736422E+04  0.15988584256E+04 0.  0.
        1    1    3    3  502    0 -0.47951136872E+02  0.15361730159E+03  0.43162745193E+03  0.46065154310E+03  0.50400001928E-02 0.  1.
       -1    1    3    3    0  502  0.47951136872E+02 -0.15361730159E+03 -0.13986947667E+04  0.14079220991E+04  0.50400001928E-02 0. -1.
</event>
<event>
 5   0  0.4314657E-05  0.1605733E+04  0.7818609E-02  0.8817034E-01
        1   -1    0    0  501    0  0.00000000000E+00  0.00000000000E+00  0.12695410590E+04  0.12695410590E+04  0.50400001928E-02 0.  1.
       -1   -1    0    0    0  501  0.00000000000E+00  0.00000000000E+00 -0.50773814105E+03  0.50773814108E+03  0.50400001928E-02 0. -1.
    10030    2    1    2    0    0  0.00000000000E+00  0.00000000000E+00  0.76180291798E+03  0.17772792001E+04  0.16057327515E+04 0.  0.
        5    1    3    3  502    0  0.68209196093E+03  0.37834055334E+03  0.17036634711E+03  0.79839701884E+03  0.46999998093E+01 0.  1.
       -5    1    3    3    0  502 -0.68209196093E+03 -0.37834055334E+03  0.59143657087E+03  0.97888218128E+03  0.46999998093E+01 0. -1.
</event>
<event>
 5   0  0.7849690E-05  0.1602376E+04  0.7818609E-02  0.8819090E-01
       -2   -1    0    0    0  501  0.00000000000E+00  0.00000000000E+00  0.49350852773E+03  0.49350852774E+03  0.25500000920E-02 0. -1.
        2   -1    0    0  501    0  0.00000000000E+00  0.00000000000E+00 -0.13006905605E+04  0.13006905605E+04  0.25500000920E-02 0.  1.
    10030    2    1    2    0    0  0.00000000000E+00  0.00000000000E+00 -0.80718203277E+03  0.17941990882E+04  0.16023755909E+04 0.  0.
        3    1    3    3  502    0  0.63487317037E+03  0.43964152906E+03 -0.16460855651E+03  0.78958508320E+03  0.10100000352E+00 0. -1.
       -3    1    3    3    0  502 -0.63487317037E+03 -0.43964152906E+03 -0.64257347626E+03  0.10046140050E+04  0.10100000352E+00 0.  1.
</event>
<event>
 5   0  0.4373026E-05  0.1602119E+04  0.7818609E-02  0.8819248E-01
       -1   -1    0    0    0  501  0.00000000000E+00  0.00000000000E+00  0.11037158887E+04  0.11037158887E+04  0.50400001928E-02 0.  1.
        1   -1    0    0  501    0  0.00000000000E+00  0.00000000000E+00 -0.58139596640E+03  0.58139596642E+03  0.50400001928E-02 0. -1.
    10030    2    1    2    0    0  0.00000000000E+00  0.00000000000E+00  0.52231992230E+03  0.16851118551E+04  0.16021185546E+04 0.  0.
        4    1    3    3  502    0  0.60865933807E+03  0.28700187859E+03  0.71825012351E+03  0.98423631357E+03  0.12699999809E+01 0.  1.
       -4    1    3    3    0  502 -0.60865933807E+03 -0.28700187859E+03 -0.19593020120E+03  0.70087554157E+03  0.12699999809E+01 0. -1.
</event>
<event>
 5   0  0.4504463E-05  0.1599474E+04  0.7818609E-02  0.8820871E-01
       -1   -1    0    0    0  501  0.00000000000E+00  0.00000000000E+00  0.83226262338E+03  0.83226262340E+03  0.50400001928E-02 0. -1.
        1   -1    0    0  501    0  0.00000000000E+00  0.00000000000E+00 -0.76848236467E+03  0.76848236469E+03  0.50400001928E-02 0.  1.
    10030    2    1    2    0    0  0.00000000000E+00  0.00000000000E+00  0.63780258712E+02  0.16007449881E+04  0.15994738496E+04 0.  0.
        1    1    3    3  502    0  0.75802936548E+03  0.19350704805E+03 -0.13415028796E+03  0.79375676146E+03  0.50400001928E-02 0. -1.
       -1    1    3    3    0  502 -0.75802936548E+03 -0.19350704805E+03  0.19793054667E+03  0.80698822662E+03  0.50400001928E-02 0.  1.
</event>
<event>
 5   0  0.4256406E-05  0.1600528E+04  0.7818609E-02  0.8820224E-01
       -1   -1    0    0    0  501  0.00000000000E+00  0.00000000000E+00  0.33013904934E+03  0.33013904938E+03  0.50400001928E-02 0. -1.
        1   -1    0    0  501    0  0.00000000000E+00  0.00000000000E+00 -0.19398575147E+04  0.19398575147E+04  0.50400001928E-02 0.  1.
    10030    2    1    2    0    0  0.00000000000E+00  0.00000000000E+00 -0.16097184654E+04  0.22699965641E+04  0.16005283075E+04 0.  0.
        3    1    3    3  502    0  0.65187858651E+03 -0.46304136980E+03 -0.75847251593E+03  0.11021041554E+04  0.10100000352E+00 0. -1.
       -3    1    3    3    0  502 -0.65187858651E+03  0.46304136980E+03 -0.85124594945E+03  0.11678924087E+04  0.10100000352E+00 0.  1.
</event>
<event>
 5   0  0.8620155E-05  0.1599663E+04  0.7818609E-02  0.8820755E-01
        2   -1    0    0  501    0  0.00000000000E+00  0.00000000000E+00  0.17457241951E+04  0.17457241951E+04  0.25500000920E-02 0. -1.
       -2   -1    0    0    0  501  0.00000000000E+00  0.00000000000E+00 -0.36645582568E+03  0.36645582569E+03  0.25500000920E-02 0.  1.
    10030    2    1    2    0    0  0.00000000000E+00  0.00000000000E+00  0.13792683695E+04  0.21121800208E+04  0.15996634663E+04 0.  0.
        4    1    3    3  502    0 -0.47485937647E+03 -0.34848380623E+03  0.14041065989E+04  0.15226455085E+04  0.12699999809E+01 0. -1.
       -4    1    3    3    0  502  0.47485937647E+03  0.34848380623E+03 -0.24838229476E+02  0.58953451228E+03  0.12699999809E+01 0.  1.
</event>
<event>
 5   0  0.8620155E-05  0.1601807E+04  0.7818609E-02  0.8819439E-01
        2   -1    0    0  501    0  0.00000000000E+00  0.00000000000E+00  0.65857064719E+03  0.65857064720E+03  0.25500000920E-02 0.  1.
       -2   -1    0    0    0  501  0.00000000000E+00  0.00000000000E+00 -0.97399785855E+03  0.97399785855E+03  0.25500000920E-02 0. -1.
    10030    2    1    2    0    0  0.00000000000E+00  0.00000000000E+00 -0.31542721136E+03  0.16325685057E+04  0.16018069797E+04 0.  0.
        4    1    3    3  502    0  0.18503991643E+03 -0.73527688297E+03 -0.42068592799E+03  0.86709291787E+03  0.12699999809E+01 0. -1.
       -4    1    3    3    0  502 -0.18503991643E+03  0.73527688297E+03  0.10525871664E+03  0.76547558788E+03  0.12699999809E+01 0.  1.
</event>
<event>
 5   0  0.3042125E-05  0.1596990E+04  0.7818609E-02  0.8822399E-01
       -4   -1    0    0    0  501  0.00000000000E+00  0.00000000000E+00  0.55741242181E+03  0.55741386858E+03  0.12699999809E+01 0. -1.
        4   -1    0    0  501    0  0.00000000000E+00  0.00000000000E+00 -0.11438433370E+04  0.11438440420E+04  0.12699999809E+01 0.  1.
    10030    2    1    2    0    0  0.00000000000E+00  0.00000000000E+00 -0.58643091516E+03  0.17012579106E+04  0.15969900626E+04 0.  0.
        5    1    3    3  502    0 -0.58758573065E+03  0.53300246347E+03 -0.19661055956E+03  0.81732883166E+03  0.46999998093E+01 0.  1.
       -5    1    3    3    0  502  0.58758573065E+03 -0.53300246347E+03 -0.38982035559E+03  0.88392907892E+03  0.46999998093E+01 0. -1.
</event>
<event>
 5   0  0.4256406E-05  0.1599610E+04  0.7818609E-02  0.8820788E-01
       -1   -1    0    0    0  501  0.00000000000E+00  0.00000000000E+00  0.50154405102E+03  0.50154405105E+03  0.50400001928E-02 0. -1.
        1   -1    0    0  501    0  0.00000000000E+00  0.00000000000E+00 -0.12754369395E+04  0.12754369395E+04  0.50400001928E-02 0.  1.
    10030    2    1    2    0    0  0.00000000000E+00  0.00000000000E+00 -0.77389288847E+03  0.17769809905E+04  0.15996097143E+04 0.  0.
        3    1    3    3  502    0 -0.25413039635E+03 -0.46304606283E+03  0.28022605833E+03  0.59793023725E+03  0.10100000352E+00 0. -1.
       -3    1    3    3    0  502  0.25413039635E+03  0.46304606283E+03 -0.10541189468E+04  0.11790507533E+04  0.10100000352E+00 0.  1.
</event>
<event>
 5   0  0.4314657E-05  0.1598861E+04  0.7818609E-02  0.8821248E-01
       -1   -1    0    0    0  501  0.00000000000E+00  0.00000000000E+00  0.13042395139E+04  0.13042395139E+04  0.50400001928E-02 0.  1.
        1   -1    0    0  501    0  0.00000000000E+00  0.00000000000E+00 -0.49000886673E+03  0.49000886675E+03  0.50400001928E-02 0. -1.
    10030    2    1    2    0    0  0.00000000000E+00  0.00000000000E+00  0.81423064715E+03  0.17942483806E+04  0.15988607521E+04 0.  0.
        5    1    3    3  502    0 -0.45658810299E+03 -0.65276287886E+03  0.48235126947E+03  0.93126629326E+03  0.46999998093E+01 0. -1.
       -5    1    3    3    0  502  0.45658810299E+03  0.65276287886E+03  0.33187937767E+03  0.86298208737E+03  0.46999998093E+01 0.  1.
</event>
<event>
 5   0  0.7901257E-05  0.1598257E+04  0.7818609E-02  0.8821620E-01
        2   -1    0    0  501    0  0.00000000000E+00  0.00000000000E+00  0.18162311757E+04  0.18162311757E+04  0.25500000920E-02 0. -1.
       -2   -1    0    0    0  501  0.00000000000E+00  0.00000000000E+00 -0.35161051230E+03  0.35161051231E+03  0.25500000920E-02 0.  1.
    10030    2    1    2    0    0  0.00000000000E+00  0.00000000000E+00  0.14646206634E+04  0.21678416880E+04  0.15982565178E+04 0.  0.
        2    1    3    3  502    0  0.23184176603E+03 -0.72499999110E+03  0.10624162786E+04  0.13069445056E+04  0.25500000920E-02 0. -1.
       -2    1    3    3    0  502 -0.23184176603E+03  0.72499999110E+03  0.40220438477E+03  0.86089718242E+03  0.25500000920E-02 0.  1.
</event>
<event>
 5   0  0.7849690E-05  0.1600940E+04  0.7818609E-02  0.8819971E-01
        2   -1    0    0  501    0  0.00000000000E+00  0.00000000000E+00  0.32049420237E+03  0.32049420238E+03  0.25500000920E-02 0. -1.
       -2   -1    0    0    0  501  0.00000000000E+00  0.00000000000E+00 -0.19992618905E+04  0.19992618905E+04  0.25500000920E-02 0.  1.
    10030    2    1    2    0    0  0.00000000000E+00  0.00000000000E+00 -0.16787676881E+04  0.23197560929E+04  0.16009395303E+04 0.  0.
        3    1    3    3  502    0  0.13076345718E+03  0.37624666309E+03 -0.18454626458E+04  0.18879600156E+04  0.10100000352E+00 0.  1.
       -3    1    3    3    0  502 -0.13076345718E+03 -0.37624666309E+03  0.16669495769E+03  0.43179607726E+03  0.10100000352E+00 0. -1.
</event>
<event>
 5   0  0.8694033E-05  0.1598099E+04  0.7818609E-02  0.8821717E-01
       -2   -1    0    0    0  501  0.00000000000E+00  0.00000000000E+00  0.53088735746E+03  0.53088735747E+03  0.25500000920E-02 0.  1.
        2   -1    0    0  501    0  0.00000000000E+00  0.00000000000E+00 -0.12026654031E+04  0.12026654031E+04  0.25500000920E-02 0. -1.
    10030    2    1    2    0    0  0.00000000000E+00  0.00000000000E+00 -0.67177804562E+03  0.17335527606E+04  0.15980986925E+04 0.  0.
        1    1    3    3  502    0 -0.11344159524E+03 -0.25099425451E+03  0.47776214354E+03  0.55147418539E+03  0.50400001928E-02 0.  1.
       -1    1    3    3    0  502  0.11344159524E+03  0.25099425451E+03 -0.11495401892E+04  0.11820785752E+04  0.50400001928E-02 0. -1.
</event>
<event>
 5   0  0.7901257E-05  0.1602550E+04  0.7818609E-02  0.8818983E-01
        2   -1    0    0  501    0  0.00000000000E+00  0.00000000000E+00  0.90365773845E+03  0.90365773845E+03  0.25500000920E-02 0. -1.
       -2   -1    0    0    0  501  0.00000000000E+00  0.00000000000E+00 -0.71049232989E+03  0.71049232990E+03  0.25500000920E-02 0.  1.
    10030    2    1    2    0    0  0.00000000000E+00  0.00000000000E+00  0.19316540855E+03  0.16141500683E+04  0.16025503325E+04 0.  0.
        2    1    3    3  502    0 -0.49204213774E+03  0.47983467541E+03 -0.31833970914E+03  0.75742125100E+03  0.25500000920E-02 0.  1.
       -2    1    3    3    0  502  0.49204213774E+03 -0.47983467541E+03  0.51150511769E+03  0.85672881735E+03  0.25500000920E-02 0. -1.
</event>
<event>
 5   0  0.7849690E-05  0.1570580E+04  0.7818609E-02  0.8838828E-01
       -2   -1    0    0    0  501  0.00000000000E+00  0.00000000000E+00  0.83221261300E+03  0.83221261300E+03  0.25500000920E-02 0. -1.
        2   -1    0    0  501    0  0.00000000000E+00  0.00000000000E+00 -0.74101303836E+03  0.74101303836E+03  0.25500000920E-02 0.  1.
    10030    2    1    2    0    0  0.00000000000E+00  0.00000000000E+00  0.91199574641E+02  0.15732256514E+04  0.15705800163E+04 0.  0.
        3    1    3    3  502    0  0.67256892658E+03 -0.36250297768E+03 -0.13615286789E+03  0.77607666081E+03  0.10100000352E+00 0.  1.
       -3    1    3    3    0  502 -0.67256892658E+03  0.36250297768E+03  0.22735244253E+03  0.79714899056E+03  0.10100000352E+00 0. -1.
</event>
<event>
 5   0  0.4256406E-05  0.1600155E+04  0.7818609E-02  0.8820453E-01
       -1   -1    0    0    0  501  0.00000000000E+00  0.00000000000E+00  0.83471843276E+03  0.83471843277E+03  0.50400001928E-02 0.  1.
        1   -1    0    0  501    0  0.00000000000E+00  0.00000000000E+00 -0.76687441881E+03  0.76687441883E+03  0.50400001928E-02 0. -1.
    10030    2    1    2    0    0  0.00000000000E+00  0.00000000000E+00  0.67844013946E+02  0.16015928516E+04  0.16001552587E+04 0.  0.
        3    1    3    3  502    0  0.13837249749E+03 -0.58813754186E+03 -0.49102176304E+03  0.77855963046E+03  0.10100000352E+00 0. -1.
       -3    1    3    3    0  502 -0.13837249749E+03  0.58813754186E+03  0.55886577698E+03  0.82303322114E+03  0.10100000352E+00 0.  1.
</event>
<event>
 5   0  0.8037548E-05  0.1598104E+04  0.7818609E-02  0.8821714E-01
       -2   -1    0    0    0  501  0.00000000000E+00  0.00000000000E+00  0.18672173029E+04  0.18672173029E+04  0.25500000920E-02 0.  1.
        2   -1    0    0  501    0  0.00000000000E+00  0.00000000000E+00 -0.34194401329E+03  0.34194401330E+03  0.25500000920E-02 0. -1.
    10030    2    1    2    0    0  0.00000000000E+00  0.00000000000E+00  0.15252732896E+04  0.22091613162E+04  0.15981035989E+04 0.  0.
        5    1    3    3  502    0 -0.69931422503E+03 -0.28233605832E+03  0.39766196948E+03  0.85259085564E+03  0.46999998093E+01 0. -1.
       -5    1    3    3    0  502  0.69931422503E+03  0.28233605832E+03  0.11276113201E+04  0.13565704605E+04  0.46999998093E+01 0.  1.
</event>
<event>
 5   0  0.4314657E-05  0.1602562E+04  0.7818609E-02  0.8818975E-01
       -1   -1    0    0    0  501  0.00000000000E+00  0.00000000000E+00  0.69967321583E+03  0.69967321585E+03  0.50400001928E-02 0.  1.
        1   -1    0    0  501    0  0.00000000000E+00  0.00000000000E+00 -0.91764476493E+03  0.91764476494E+03  0.50400001928E-02 0. -1.
    10030    2    1    2    0    0  0.00000000000E+00  0.00000000000E+00 -0.21797154909E+03  0.16173179808E+04  0.16025622780E+04 0.  0.
        5    1    3    3  502    0 -0.69685383807E+03  0.57125881610E+02 -0.50394678108E+03  0.86188925399E+03  0.46999998093E+01 0. -1.
       -5    1    3    3    0  502  0.69685383807E+03 -0.57125881610E+02  0.28597523198E+03  0.75542872681E+03  0.46999998093E+01 0.  1.
</event>
<event>
 5   0  0.4256406E-05  0.1600984E+04  0.7818609E-02  0.8819943E-01
       -1   -1    0    0    0  501  0.00000000000E+00  0.00000000000E+00  0.89598371163E+03  0.89598371164E+03  0.50400001928E-02 0. -1.
        1   -1    0    0  501    0  0.00000000000E+00  0.00000000000E+00 -0.71517795679E+03  0.71517795681E+03  0.50400001928E-02 0.  1.
    10030    2    1    2    0    0  0.00000000000E+00  0.00000000000E+00  0.18080575484E+03  0.16111616685E+04  0.16009844474E+04 0.  0.
        3    1    3    3  502    0  0.15123697400E+03 -0.16837969847E+03  0.86311421024E+03  0.89229507187E+03  0.10100000352E+00 0. -1.
       -3    1    3    3    0  502 -0.15123697400E+03  0.16837969847E+03 -0.68230845541E+03  0.71886659658E+03  0.10100000352E+00 0.  1.
</event>
<event>
 5   0  0.7849690E-05  0.1599163E+04  0.7818609E-02  0.8821063E-01
       -2   -1    0    0    0  501  0.00000000000E+00  0.00000000000E+00  0.76640048732E+03  0.76640048732E+03  0.25500000920E-02 0.  1.
        2   -1    0    0  501    0  0.00000000000E+00  0.00000000000E+00 -0.83419864545E+03  0.83419864546E+03  0.25500000920E-02 0. -1.
    10030    2    1    2    0    0  0.00000000000E+00  0.00000000000E+00 -0.67798158136E+02  0.16005991328E+04  0.15991625914E+04 0.  0.
        3    1    3    3  502    0  0.22155760560E+03  0.66134594102E+03 -0.42522857367E+03  0.81687549625E+03  0.10100000352E+00 0.  1.
       -3    1    3    3    0  502 -0.22155760560E+03 -0.66134594102E+03  0.35743041553E+03  0.78372363653E+03  0.10100000352E+00 0. -1.
</event>
<event>
 5   0  0.4504463E-05  0.1601255E+04  0.7818609E-02  0.8819778E-01
       -1   -1    0    0    0  501  0.00000000000E+00  0.00000000000E+00  0.34102253942E+03  0.34102253945E+03  0.50400001928E-02 0. -1.
        1   -1    0    0  501    0  0.00000000000E+00  0.00000000000E+00 -0.18796535491E+04  0.18796535491E+04  0.50400001928E-02 0.  1.
    10030    2    1    2    0    0  0.00000000000E+00  0.00000000000E+00 -0.15386310097E+04  0.22206760886E+04  0.16012547912E+04 0.  0.
        1    1    3    3  502    0 -0.28346969267E+03  0.67152972558E+03 -0.30998834618E+03  0.79208586264E+03  0.50400001928E-02 0. -1.
       -1    1    3    3    0  502  0.28346969267E+03 -0.67152972558E+03 -0.12286426635E+04  0.14285902260E+04  0.50400001928E-02 0.  1.
</event>
<event>
 5   0  0.4256406E-05  0.1601649E+04  0.7818609E-02  0.8819535E-01
       -1   -1    0    0    0  501  0.00000000000E+00  0.00000000000E+00  0.73053831196E+03  0.73053831198E+03  0.50400001928E-02 0.  1.
        1   -1    0    0  501    0  0.00000000000E+00  0.00000000000E+00 -0.87787356824E+03  0.87787356825E+03  0.50400001928E-02 0. -1.
    10030    2    1    2    0    0  0.00000000000E+00  0.00000000000E+00 -0.14733525628E+03  0.16084118802E+04  0.16016494931E+04 0.  0.
        3    1    3    3  502    0  0.42912326527E+03  0.39009281677E+03  0.48093315904E+03  0.75340287772E+03  0.10100000352E+00 0.  1.
       -3    1    3    3    0  502 -0.42912326527E+03 -0.39009281677E+03 -0.62826841532E+03  0.85500900251E+03  0.10100000352E+00 0. -1.
</event>
<event>
 5   0  0.4211419E-05  0.1602450E+04  0.7818609E-02  0.8819044E-01
       -1   -1    0    0    0  501  0.00000000000E+00  0.00000000000E+00  0.69378651718E+03  0.69378651720E+03  0.50400001928E-02 0.  1.
        1   -1    0    0  501    0  0.00000000000E+00  0.00000000000E+00 -0.92530160475E+03  0.92530160477E+03  0.50400001928E-02 0. -1.
    10030    2    1    2    0    0  0.00000000000E+00  0.00000000000E+00 -0.23151508758E+03  0.16190881220E+04  0.16024503458E+04 0.  0.
        2    1    3    3  502    0 -0.27515821878E+03  0.11482253622E+03 -0.86716274429E+03  0.91698826889E+03  0.25500000920E-02 0. -1.
       -2    1    3    3    0  502  0.27515821878E+03 -0.11482253622E+03  0.63564765672E+03  0.70209985307E+03  0.25500000920E-02 0.  1.
</event>
<event>
 5   0  0.4314657E-05  0.1600921E+04  0.7818609E-02  0.8819982E-01
        1   -1    0    0  501    0  0.00000000000E+00  0.00000000000E+00  0.57563146813E+03  0.57563146815E+03  0.50400001928E-02 0.  1.
       -1   -1    0    0    0  501  0.00000000000E+00  0.00000000000E+00 -0.11131033490E+04  0.11131033490E+04  0.50400001928E-02 0. -1.
    10030    2    1    2    0    0  0.00000000000E+00  0.00000000000E+00 -0.53747188086E+03  0.16887348172E+04  0.16009213784E+04 0.  0.
        5    1    3    3  502    0 -0.56514485930E+03 -0.21774187514E+03  0.28334067535E+03  0.66865855598E+03  0.46999998093E+01 0.  1.
       -5    1    3    3    0  502  0.56514485930E+03  0.21774187514E+03 -0.82081255620E+03  0.10200762612E+04  0.46999998093E+01 0. -1.
</event>
<event>
 5   0  0.8620155E-05  0.1612087E+04  0.7818609E-02  0.8813157E-01
       -2   -1    0    0    0  501  0.00000000000E+00  0.00000000000E+00  0.13811808678E+04  0.13811808678E+04  0.25500000920E-02 0.  1.
        2   -1    0    0  501    0  0.00000000000E+00  0.00000000000E+00 -0.47039876370E+03  0.47039876370E+03  0.25500000920E-02 0. -1.
    10030    2    1    2    0    0  0.00000000000E+00  0.00000000000E+00  0.91078210414E+03  0.18515796315E+04  0.16120865643E+04 0.  0.
        4    1    3    3  502    0  0.57995633555E+03  0.17955799042E+03 -0.15357778685E+03  0.62624130540E+03  0.12699999809E+01 0. -1.
       -4    1    3    3    0  502 -0.57995633555E+03 -0.17955799042E+03  0.10643598910E+04  0.12253383261E+04  0.12699999809E+01 0.  1.
</event>
<event>
 5   0  0.8694033E-05  0.1611002E+04  0.7818609E-02  0.8813818E-01
       -2   -1    0    0    0  501  0.00000000000E+00  0.00000000000E+00  0.41874887905E+03  0.41874887906E+03  0.25500000920E-02 0.  1.
        2   -1    0    0  501    0  0.00000000000E+00  0.00000000000E+00 -0.15494530160E+04  0.15494530160E+04  0.25500000920E-02 0. -1.
    10030    2    1    2    0    0  0.00000000000E+00  0.00000000000E+00 -0.11307041370E+04  0.19682018951E+04  0.16110018170E+04 0.  0.
        1    1    3    3  502    0  0.13428178700E+03  0.55922167456E+03 -0.12543783893E+04  0.13799368185E+04  0.50400001928E-02 0. -1.
       -1    1    3    3    0  502 -0.13428178700E+03 -0.55922167456E+03  0.12367425229E+03  0.58826507658E+03  0.50400001928E-02 0.  1.
</event>
<event>
 5   0  0.4373026E-05  0.1604347E+04  0.7818609E-02  0.8817882E-01
        1   -1    0    0  501    0  0.00000000000E+00  0.00000000000E+00  0.17176095222E+04  0.17176095222E+04  0.50400001928E-02 0.  1.
       -1   -1    0    0    0  501  0.00000000000E+00  0.00000000000E+00 -0.37463815815E+03  0.37463815818E+03  0.50400001928E-02 0. -1.
    10030    2    1    2    0    0  0.00000000000E+00  0.00000000000E+00  0.13429713641E+04  0.20922476804E+04  0.16043466806E+04 0.  0.
        4    1    3    3  502    0 -0.31791691674E+03  0.69838996552E+03  0.97638232917E+03  0.12418308160E+04  0.12699999809E+01 0.  1.
       -4    1    3    3    0  502  0.31791691674E+03 -0.69838996552E+03  0.36658903488E+03  0.85041686441E+03  0.12699999809E+01 0. -1.
</event>
<event>
 5   0  0.7901257E-05  0.1607696E+04  0.7818609E-02  0.8815834E-01
       -2   -1    0    0    0  501  0.00000000000E+00  0.00000000000E+00  0.39081951727E+03  0.39081951728E+03  0.25500000920E-02 0.  1.
        2   -1    0    0  501    0  0.00000000000E+00  0.00000000000E+00 -0.16533753167E+04  0.16533753167E+04  0.25500000920E-02 0. -1.
    10030    2    1    2    0    0  0.00000000000E+00  0.00000000000E+00 -0.12625557995E+04  0.20441948340E+04  0.16076956716E+04 0.  0.
        2    1    3    3  502    0  0.10836402430E+03 -0.59223975888E+03  0.45947596532E+02  0.60382271851E+03  0.25500000920E-02 0.  1.
       -2    1    3    3    0  502 -0.10836402430E+03  0.59223975888E+03 -0.13085033960E+04  0.14403721155E+04  0.25500000920E-02 0. -1.
</event>
<event>
 5   0  0.4314657E-05  0.1598401E+04  0.7818609E-02  0.8821531E-01
       -1   -1    0    0    0  501  0.00000000000E+00  0.00000000000E+00  0.45906758824E+03  0.45906758827E+03  0.50400001928E-02 0. -1.
        1   -1    0    0  501    0  0.00000000000E+00  0.00000000000E+00 -0.13913453116E+04  0.13913453116E+04  0.50400001928E-02 0.  1.
    10030    2    1    2    0    0  0.00000000000E+00  0.00000000000E+00 -0.93227772339E+03  0.18504128999E+04  0.15984011219E+04 0.  0.
        5    1    3    3  502    0  0.30542623707E+03  0.28218738825E+03 -0.12562267525E+04  0.13232696823E+04  0.46999998093E+01 0.  1.
       -5    1    3    3    0  502 -0.30542623707E+03 -0.28218738825E+03  0.32394902913E+03  0.52714321759E+03  0.46999998093E+01 0. -1.
</event>
<event>
 5   0  0.7901257E-05  0.1606230E+04  0.7818609E-02  0.8816730E-01
       -2   -1    0    0    0  501  0.00000000000E+00  0.00000000000E+00  0.67662756609E+03  0.67662756610E+03  0.25500000920E-02 0. -1.
        2   -1    0    0  501    0  0.00000000000E+00  0.00000000000E+00 -0.95324804368E+03  0.95324804368E+03  0.25500000920E-02 0.  1.
    10030    2    1    2    0    0  0.00000000000E+00  0.00000000000E+00 -0.27662047758E+03  0.16298756098E+04  0.16062302496E+04 0.  0.
        2    1    3    3  502    0  0.27051499232E+03  0.62444444307E+03 -0.57106785569E+03  0.88838489370E+03  0.25500000920E-02 0.  1.
       -2    1    3    3    0  502 -0.27051499232E+03 -0.62444444307E+03  0.29444737810E+03  0.74149071608E+03  0.25500000920E-02 0. -1.
</event>
<event>
 5   0  0.4373026E-05  0.1604192E+04  0.7818609E-02  0.8817977E-01
        1   -1    0    0  501    0  0.00000000000E+00  0.00000000000E+00  0.11330113423E+04  0.11330113423E+04  0.50400001928E-02 0. -1.
       -1   -1    0    0    0  501  0.00000000000E+00  0.00000000000E+00 -0.56783012553E+03  0.56783012555E+03  0.50400001928E-02 0.  1.
    10030    2    1    2    0    0  0.00000000000E+00  0.00000000000E+00  0.56518121675E+03  0.17008414678E+04  0.16041919745E+04 0.  0.
        4    1    3    3  502    0  0.65203631276E+03  0.30374111150E+03  0.65886120222E+03  0.97545359329E+03  0.12699999809E+01 0.  1.
       -4    1    3    3    0  502 -0.65203631276E+03 -0.30374111150E+03 -0.93679985469E+02  0.72538787456E+03  0.12699999809E+01 0. -1.
</event>
<event>
 5   0  0.4211419E-05  0.1602032E+04  0.7818609E-02  0.8819301E-01
       -1   -1    0    0    0  501  0.00000000000E+00  0.00000000000E+00  0.31950968452E+03  0.31950968456E+03  0.50400001928E-02 0.  1.
        1   -1    0    0  501    0  0.00000000000E+00  0.00000000000E+00 -0.20081593980E+04  0.20081593980E+04  0.50400001928E-02 0. -1.
    10030    2    1    2    0    0  0.00000000000E+00  0.00000000000E+00 -0.16886497135E+04  0.23276690826E+04  0.16020316798E+04 0.  0.
        2    1    3    3  502    0  0.61508598207E+03  0.27969285081E+03 -0.21927416469E+03  0.71038019077E+03  0.25500000920E-02 0.  1.
       -2    1    3    3    0  502 -0.61508598207E+03 -0.27969285081E+03 -0.14693755488E+04  0.16172888918E+04  0.25500000920E-02 0. -1.
</event>
<event>
 5   0  0.4211419E-05  0.1600340E+04  0.7818609E-02  0.8820339E-01
        1   -1    0    0  501    0  0.00000000000E+00  0.00000000000E+00  0.45272516469E+03  0.45272516472E+03  0.50400001928E-02 0. -1.
       -1   -1    0    0    0  501  0.00000000000E+00  0.00000000000E+00 -0.14142618575E+04  0.14142618575E+04  0.50400001928E-02 0.  1.
    10030    2    1    2    0    0  0.00000000000E+00  0.00000000000E+00 -0.96153669282E+03  0.18669870222E+04  0.16003398794E+04 0.  0.
        2    1    3    3  502    0  0.40168195781E+03 -0.47480663286E+02  0.32467979205E+03  0.51867116363E+03  0.25500000920E-02 0. -1.
       -2    1    3    3    0  502 -0.40168195781E+03  0.47480663286E+02 -0.12862164849E+04  0.13483158586E+04  0.25500000920E-02 0.  1.
</event>
<event>
 5   0  0.7901257E-05  0.1599910E+04  0.7818609E-02  0.8820604E-01
       -2   -1    0    0    0  501  0.00000000000E+00  0.00000000000E+00  0.38772732633E+03  0.38772732634E+03  0.25500000920E-02 0.  1.
        2   -1    0    0  501    0  0.00000000000E+00  0.00000000000E+00 -0.16504580303E+04  0.16504580303E+04  0.25500000920E-02 0. -1.
    10030    2    1    2    0    0  0.00000000000E+00  0.00000000000E+00 -0.12627307040E+04  0.20381853566E+04  0.15999095966E+04 0.  0.
        2    1    3    3  502    0 -0.59669669991E+03 -0.38054243814E+03 -0.11064402894E+04  0.13134190546E+04  0.25500000920E-02 0. -1.
       -2    1    3    3    0  502  0.59669669991E+03  0.38054243814E+03 -0.15629041456E+03  0.72476630206E+03  0.25500000920E-02 0.  1.
</event>
<event>
 5   0  0.4314657E-05  0.1600008E+04  0.7818609E-02  0.8820543E-01
       -1   -1    0    0    0  501  0.00000000000E+00  0.00000000000E+00  0.11808124843E+04  0.11808124843E+04  0.50400001928E-02 0.  1.
        1   -1    0    0  501    0  0.00000000000E+00  0.00000000000E+00 -0.54200512707E+03  0.54200512710E+03  0.50400001928E-02 0. -1.
    10030    2    1    2    0    0  0.00000000000E+00  0.00000000000E+00  0.63880735726E+03  0.17228176114E+04  0.16000080258E+04 0.  0.
        5    1    3    3  502    0 -0.56320039358E+03 -0.38955193374E+03  0.76471592380E+03  0.10265271192E+04  0.46999998093E+01 0.  1.
       -5    1    3    3    0  502  0.56320039358E+03  0.38955193374E+03 -0.12590856654E+03  0.69629049221E+03  0.46999998093E+01 0. -1.
</event>
<event>
 5   0  0.8037548E-05  0.1597925E+04  0.7818609E-02  0.8821824E-01
       -2   -1    0    0    0  501  0.00000000000E+00  0.00000000000E+00  0.89144658597E+03  0.89144658597E+03  0.25500000920E-02 0. -1.
        2   -1    0    0  501    0  0.00000000000E+00  0.00000000000E+00 -0.71607316021E+03  0.71607316021E+03  0.25500000920E-02 0.  1.
    10030    2    1    2    0    0  0.00000000000E+00  0.00000000000E+00  0.17537342576E+03  0.16075197462E+04  0.15979248718E+04 0.  0.
        5    1    3    3  502    0  0.33177087710E+03 -0.20473845108E+02  0.81856672655E+03  0.88349570969E+03  0.46999998093E+01 0. -1.
       -5    1    3    3    0  502 -0.33177087710E+03  0.20473845108E+02 -0.64319330080E+03  0.72402403649E+03  0.46999998093E+01 0.  1.
</event>
<event>
 5   0  0.8037548E-05  0.1604207E+04  0.7818609E-02  0.8817968E-01
       -2   -1    0    0    0  501  0.00000000000E+00  0.00000000000E+00  0.49491858531E+03  0.49491858532E+03  0.25500000920E-02 0.  1.
        2   -1    0    0  501    0  0.00000000000E+00  0.00000000000E+00 -0.12999515891E+04  0.12999515891E+04  0.25500000920E-02 0. -1.
    10030    2    1    2    0    0  0.00000000000E+00  0.00000000000E+00 -0.80503300383E+03  0.17948701745E+04  0.16042072204E+04 0.  0.
        5    1    3    3  502    0 -0.70510230001E+03  0.36446082362E+03 -0.27325562263E+03  0.83945915370E+03  0.46999998093E+01 0.  1.
       -5    1    3    3    0  502  0.70510230001E+03 -0.36446082362E+03 -0.53177738120E+03  0.95541102076E+03  0.46999998093E+01 0. -1.
</event>
<event>
 5   0  0.8620155E-05  0.1599896E+04  0.7818609E-02  0.8820612E-01
       -2   -1    0    0    0  501  0.00000000000E+00  0.00000000000E+00  0.40301321631E+03  0.40301321632E+03  0.25500000920E-02 0. -1.
        2   -1    0    0  501    0  0.00000000000E+00  0.00000000000E+00 -0.15878311195E+04  0.15878311195E+04  0.25500000920E-02 0.  1.
    10030    2    1    2    0    0  0.00000000000E+00  0.00000000000E+00 -0.11848179032E+04  0.19908443359E+04  0.15998961547E+04 0.  0.
        4    1    3    3  502    0  0.16358953922E+01 -0.59497705665E+03 -0.12577800514E+04  0.13914067144E+04  0.12699999809E+01 0.  1.
       -4    1    3    3    0  502 -0.16358953922E+01  0.59497705665E+03  0.72962148204E+02  0.59943762150E+03  0.12699999809E+01 0. -1.
</event>
<event>
 5   0  0.4373026E-05  0.1611617E+04  0.7818609E-02  0.8813443E-01
        1   -1    0    0  501    0  0.00000000000E+00  0.00000000000E+00  0.10416942887E+04  0.10416942887E+04  0.50400001928E-02 0. -1.
       -1   -1    0    0    0  501  0.00000000000E+00  0.00000000000E+00 -0.62333766886E+03  0.62333766888E+03  0.50400001928E-02 0.  1.
    10030    2    1    2    0    0  0.00000000000E+00  0.00000000000E+00  0.41835661981E+03  0.16650319576E+04  0.16116169391E+04 0.  0.
        4    1    3    3  502    0 -0.45988603288E+03 -0.42637510042E+03  0.73194780598E+03  0.96386725905E+03  0.12699999809E+01 0. -1.
       -4    1    3    3    0  502  0.45988603288E+03  0.42637510042E+03 -0.31359118617E+03  0.70116469851E+03  0.12699999809E+01 0.  1.
</event>
<event>
 5   0  0.4211419E-05  0.1593272E+04  0.7818609E-02  0.8824692E-01
       -1   -1    0    0    0  501  0.00000000000E+00  0.00000000000E+00  0.49592420328E+03  0.49592420331E+03  0.50400001928E-02 0.  1.
        1   -1    0    0  501    0  0.00000000000E+00  0.00000000000E+00 -0.12796887896E+04  0.12796887896E+04  0.50400001928E-02 0. -1.
    10030    2    1    2    0    0  0.00000000000E+00  0.00000000000E+00 -0.78376458634E+03  0.17756129929E+04  0.15932716573E+04 0.  0.
        2    1    3    3  502    0 -0.47952263602E+03 -0.12895854042E+03  0.30235173613E+03  0.58136807269E+03  0.25500000920E-02 0.  1.
       -2    1    3    3    0  502  0.47952263602E+03  0.12895854042E+03 -0.10861163225E+04  0.11942449203E+04  0.25500000920E-02 0. -1.
</event>
<event>
 5   0  0.7901257E-05  0.1598549E+04  0.7818609E-02  0.8821440E-01
       -2   -1    0    0    0  501  0.00000000000E+00  0.00000000000E+00  0.68618700117E+03  0.68618700117E+03  0.25500000920E-02 0.  1.
        2   -1    0    0  501    0  0.00000000000E+00  0.00000000000E+00 -0.93099934168E+03  0.93099934169E+03  0.25500000920E-02 0. -1.
    10030    2    1    2    0    0  0.00000000000E+00  0.00000000000E+00 -0.24481234051E+03  0.16171863429E+04  0.15985488999E+04 0.  0.
        2    1    3    3  502    0 -0.72215820165E+03  0.31622170559E+03  0.10776000357E+02  0.78843183440E+03  0.25500000920E-02 0.  1.
       -2    1    3    3    0  502  0.72215820165E+03 -0.31622170559E+03 -0.25558834087E+03  0.82875450846E+03  0.25500000920E-02 0. -1.
</event>
<event>
 5   0  0.4211419E-05  0.1595604E+04  0.7818609E-02  0.8823253E-01
       -1   -1    0    0    0  501  0.00000000000E+00  0.00000000000E+00  0.59444739720E+03  0.59444739722E+03  0.50400001928E-02 0. -1.
        1   -1    0    0  501    0  0.00000000000E+00  0.00000000000E+00 -0.10707216409E+04  0.10707216409E+04  0.50400001928E-02 0.  1.
    10030    2    1    2    0    0  0.00000000000E+00  0.00000000000E+00 -0.47627424367E+03  0.16651690381E+04  0.15956035755E+04 0.  0.
        2    1    3    3  502    0  0.20047292159E+03 -0.11258113948E+03 -0.10353968340E+04  0.10606179846E+04  0.25500000920E-02 0.  1.
       -2    1    3    3    0  502 -0.20047292159E+03  0.11258113948E+03  0.55912259036E+03  0.60455105353E+03  0.25500000920E-02 0. -1.
</event>
<event>
 5   0  0.7849690E-05  0.1600997E+04  0.7818609E-02  0.8819936E-01
        2   -1    0    0  501    0  0.00000000000E+00  0.00000000000E+00  0.77119368198E+03  0.77119368199E+03  0.25500000920E-02 0. -1.
       -2   -1    0    0    0  501  0.00000000000E+00  0.00000000000E+00 -0.83091706318E+03  0.83091706319E+03  0.25500000920E-02 0.  1.
    10030    2    1    2    0    0  0.00000000000E+00  0.00000000000E+00 -0.59723381201E+02  0.16021107452E+04  0.16009971760E+04 0.  0.
        3    1    3    3  502    0  0.11760308759E+03 -0.22222437440E+03 -0.79037965456E+03  0.82940591228E+03  0.10100000352E+00 0.  1.
       -3    1    3    3    0  502 -0.11760308759E+03  0.22222437440E+03  0.73065627335E+03  0.77270483290E+03  0.10100000352E+00 0. -1.
</event>
<event>
 5   0  0.8037548E-05  0.1598709E+04  0.7818609E-02  0.8821341E-01
       -2   -1    0    0    0  501  0.00000000000E+00  0.00000000000E+00  0.48433354244E+03  0.48433354245E+03  0.25500000920E-02 0. -1.
        2   -1    0    0  501    0  0.00000000000E+00  0.00000000000E+00 -0.13192725159E+04  0.13192725159E+04  0.25500000920E-02 0.  1.
    10030    2    1    2    0    0  0.00000000000E+00  0.00000000000E+00 -0.83493897348E+03  0.18036060584E+04  0.15987093933E+04 0.  0.
        5    1    3    3  502    0 -0.57693821447E+03  0.38335348458E+02  0.20518959099E+03  0.61355697413E+03  0.46999998093E+01 0. -1.
       -5    1    3    3    0  502  0.57693821447E+03 -0.38335348458E+02 -0.10401285645E+04  0.11900490842E+04  0.46999998093E+01 0.  1.
</event>
<event>
 5   0  0.4314657E-05  0.1599100E+04  0.7818609E-02  0.8821101E-01
        1   -1    0    0  501    0  0.00000000000E+00  0.00000000000E+00  0.20923924945E+04  0.20923924945E+04  0.50400001928E-02 0. -1.
       -1   -1    0    0    0  501  0.00000000000E+00  0.00000000000E+00 -0.30552611492E+03  0.30552611496E+03  0.50400001928E-02 0.  1.
    10030    2    1    2    0    0  0.00000000000E+00  0.00000000000E+00  0.17868663795E+04  0.23979186094E+04  0.15991004343E+04 0.  0.
        5    1    3    3  502    0  0.57301154266E+03  0.46962811034E+03  0.13442088236E+04  0.15348655451E+04  0.46999998093E+01 0. -1.
       -5    1    3    3    0  502 -0.57301154266E+03 -0.46962811034E+03  0.44265755595E+03  0.86305306435E+03  0.46999998093E+01 0.  1.
</event>
<event>
 5   0  0.4256406E-05  0.1598272E+04  0.7818609E-02  0.8821611E-01
        1   -1    0    0  501    0  0.00000000000E+00  0.00000000000E+00  0.86848623138E+03  0.86848623139E+03  0.50400001928E-02 0. -1.
       -1   -1    0    0    0  501  0.00000000000E+00  0.00000000000E+00 -0.73532312204E+03  0.73532312205E+03  0.50400001928E-02 0.  1.
    10030    2    1    2    0    0  0.00000000000E+00  0.00000000000E+00  0.13316310934E+03  0.16038093534E+04  0.15982715753E+04 0.  0.
        3    1    3    3  502    0  0.67081992798E+03  0.10488840839E+03  0.48948817510E+03  0.83701830193E+03  0.10100000352E+00 0. -1.
       -3    1    3    3    0  502 -0.67081992798E+03 -0.10488840839E+03 -0.35632506576E+03  0.76679105152E+03  0.10100000352E+00 0.  1.
</event>
<event>
 5   0  0.7849690E-05  0.1602395E+04  0.7818609E-02  0.8819078E-01
       -2   -1    0    0    0  501  0.00000000000E+00  0.00000000000E+00  0.35599179520E+03  0.35599179521E+03  0.25500000920E-02 0. -1.
        2   -1    0    0  501    0  0.00000000000E+00  0.00000000000E+00 -0.18031802848E+04  0.18031802848E+04  0.25500000920E-02 0.  1.
    10030    2    1    2    0    0  0.00000000000E+00  0.00000000000E+00 -0.14471884896E+04  0.21591720800E+04  0.16023949409E+04 0.  0.
        3    1    3    3  502    0 -0.58968286717E+03 -0.21110477597E+03 -0.50365220515E+02  0.62835322543E+03  0.10100000352E+00 0. -1.
       -3    1    3    3    0  502  0.58968286717E+03  0.21110477597E+03 -0.13968232690E+04  0.15308188545E+04  0.10100000352E+00 0.  1.
</event>
<event>
 5   0  0.8694033E-05  0.1599036E+04  0.7818609E-02  0.8821140E-01
        2   -1    0    0  501    0  0.00000000000E+00  0.00000000000E+00  0.14897289628E+04  0.14897289628E+04  0.25500000920E-02 0. -1.
       -2   -1    0    0    0  501  0.00000000000E+00  0.00000000000E+00 -0.42909085805E+03  0.42909085806E+03  0.25500000920E-02 0.  1.
    10030    2    1    2    0    0  0.00000000000E+00  0.00000000000E+00  0.10606381047E+04  0.19188198208E+04  0.15990360583E+04 0.  0.
        1    1    3    3  502    0 -0.38498912051E+03 -0.70070473163E+03  0.52427905424E+03  0.95607126857E+03  0.50400001928E-02 0.  1.
       -1    1    3    3    0  502  0.38498912051E+03  0.70070473163E+03  0.53635905048E+03  0.96274855227E+03  0.50400001928E-02 0. -1.
</event>
<event>
 5   0  0.8694033E-05  0.1594466E+04  0.7818609E-02  0.8823955E-01
       -2   -1    0    0    0  501  0.00000000000E+00  0.00000000000E+00  0.35489819666E+03  0.35489819667E+03  0.25500000920E-02 0.  1.
        2   -1    0    0  501    0  0.00000000000E+00  0.00000000000E+00 -0.17908816761E+04  0.17908816761E+04  0.25500000920E-02 0. -1.
    10030    2    1    2    0    0  0.00000000000E+00  0.00000000000E+00 -0.14359834795E+04  0.21457798728E+04  0.15944662772E+04 0.  0.
        1    1    3    3  502    0 -0.52013942100E+03  0.38807840624E+03 -0.94811860656E+02  0.65584994901E+03  0.50400001928E-02 0.  1.
       -1    1    3    3    0  502  0.52013942100E+03 -0.38807840624E+03 -0.13411716188E+04  0.14899299238E+04  0.50400001928E-02 0. -1.
</event>
<event>
 5   0  0.7901257E-05  0.1594664E+04  0.7818609E-02  0.8823833E-01
       -2   -1    0    0    0  501  0.00000000000E+00  0.00000000000E+00  0.16863824773E+04  0.16863824773E+04  0.25500000920E-02 0. -1.
        2   -1    0    0  501    0  0.00000000000E+00  0.00000000000E+00 -0.37698326663E+03  0.37698326664E+03  0.25500000920E-02 0.  1.
    10030    2    1    2    0    0  0.00000000000E+00  0.00000000000E+00  0.13093992107E+04  0.20633657439E+04  0.15946635696E+04 0.  0.
        2    1    3    3  502    0 -0.25266990579E+03  0.27831364190E+03  0.15645349519E+04  0.16090587871E+04  0.25500000920E-02 0. -1.
       -2    1    3    3    0  502  0.25266990579E+03 -0.27831364190E+03 -0.25513574125E+03  0.45430695683E+03  0.25500000920E-02 0.  1.
</event>
<event>
 5   0  0.4504463E-05  0.1601560E+04  0.7818609E-02  0.8819590E-01
       -1   -1    0    0    0  501  0.00000000000E+00  0.00000000000E+00  0.26590538733E+03  0.26590538738E+03  0.50400001928E-02 0. -1.
        1   -1    0    0  501    0  0.00000000000E+00  0.00000000000E+00 -0.24115663647E+04  0.24115663647E+04  0.50400001928E-02 0.  1.
    10030    2    1    2    0    0  0.00000000000E+00  0.00000000000E+00 -0.21456609774E+04  0.26774717521E+04  0.16015598501E+04 0.  0.
        1    1    3    3  502    0 -0.25144915336E+03 -0.75010531530E+03 -0.86561059963E+03  0.11726748786E+04  0.50400001928E-02 0. -1.
       -1    1    3    3    0  502  0.25144915336E+03  0.75010531530E+03 -0.12800503777E+04  0.15047968734E+04  0.50400001928E-02 0.  1.
</event>
<event>
 5   0  0.8694033E-05  0.1603689E+04  0.7818609E-02  0.8818285E-01
       -2   -1    0    0    0  501  0.00000000000E+00  0.00000000000E+00  0.72463568257E+03  0.72463568257E+03  0.25500000920E-02 0.  1.
        2   -1    0    0  501    0  0.00000000000E+00  0.00000000000E+00 -0.88727943543E+03  0.88727943543E+03  0.25500000920E-02 0. -1.
    10030    2    1    2    0    0  0.00000000000E+00  0.00000000000E+00 -0.16264375286E+03  0.16119151180E+04  0.16036886722E+04 0.  0.
        1    1    3    3  502    0  0.16395669727E+03 -0.77658965128E+03  0.33197002910E+02  0.79440249627E+03  0.50400001928E-02 0. -1.
       -1    1    3    3    0  502 -0.16395669727E+03  0.77658965128E+03 -0.19584075577E+03  0.81751262173E+03  0.50400001928E-02 0.  1.
</event>
<event>
 5   0  0.8620155E-05  0.1619084E+04  0.7818609E-02  0.8808909E-01
        2   -1    0    0  501    0  0.00000000000E+00  0.00000000000E+00  0.13585199685E+04  0.13585199685E+04  0.25500000920E-02 0.  1.
       -2   -1    0    0    0  501  0.00000000000E+00  0.00000000000E+00 -0.48240631549E+03  0.48240631549E+03  0.25500000920E-02 0. -1.
    10030    2    1    2    0    0  0.00000000000E+00  0.00000000000E+00  0.87611365297E+03  0.18409262840E+04  0.16190844481E+04 0.  0.
        4    1    3    3  502    0  0.58414140582E+02  0.60862959760E+03  0.10413348621E+04  0.12075686758E+04  0.12699999809E+01 0.  1.
       -4    1    3    3    0  502 -0.58414140582E+02 -0.60862959760E+03 -0.16522120916E+03  0.63335760811E+03  0.12699999809E+01 0. -1.
</event>
<event>
 5   0  0.7849690E-05  0.1595329E+04  0.7818609E-02  0.8823423E-01
       -2   -1    0    0    0  501  0.00000000000E+00  0.00000000000E+00  0.45458293976E+03  0.45458293977E+03  0.25500000920E-02 0.  1.
        2   -1    0    0  501    0  0.00000000000E+00  0.00000000000E+00 -0.13996750476E+04  0.13996750476E+04  0.25500000920E-02 0. -1.
    10030    2    1    2    0    0  0.00000000000E+00  0.00000000000E+00 -0.94509210786E+03  0.18542579874E+04  0.15953286782E+04 0.  0.
        3    1    3    3  502    0  0.51599819384E+03 -0.19292477325E+03 -0.11430601541E+04  0.12688816455E+04  0.10100000352E+00 0. -1.
       -3    1    3    3    0  502 -0.51599819384E+03  0.19292477325E+03  0.19796804620E+03  0.58537634193E+03  0.10100000352E+00 0.  1.
</event>
<event>
 5   0  0.4314657E-05  0.1598739E+04  0.7818609E-02  0.8821323E-01
        1   -1    0    0  501    0  0.00000000000E+00  0.00000000000E+00  0.15604161300E+04  0.15604161300E+04  0.50400001928E-02 0. -1.
       -1   -1    0    0    0  501  0.00000000000E+00  0.00000000000E+00 -0.40950073794E+03  0.40950073797E+03  0.50400001928E-02 0.  1.
    10030    2    1    2    0    0  0.00000000000E+00  0.00000000000E+00  0.11509153921E+04  0.19699168680E+04  0.15987389490E+04 0.  0.
        5    1    3    3  502    0  0.75996009347E+03 -0.24660486259E+03  0.54487196879E+03  0.96708885543E+03  0.46999998093E+01 0.  1.
       -5    1    3    3    0  502 -0.75996009347E+03  0.24660486259E+03  0.60604342330E+03  0.10028280126E+04  0.46999998093E+01 0. -1.
</event>
<event>
 5   0  0.4211419E-05  0.1595531E+04  0.7818609E-02  0.8823298E-01
       -1   -1    0    0    0  501  0.00000000000E+00  0.00000000000E+00  0.13443569795E+04  0.13443569795E+04  0.50400001928E-02 0.  1.
        1   -1    0    0  501    0  0.00000000000E+00  0.00000000000E+00 -0.47340857828E+03  0.47340857831E+03  0.50400001928E-02 0. -1.
    10030    2    1    2    0    0  0.00000000000E+00  0.00000000000E+00  0.87094840118E+03  0.18177655578E+04  0.15955314179E+04 0.  0.
        2    1    3    3  502    0 -0.68653784217E+03  0.27622070913E+02 -0.26369283703E+02  0.68759910316E+03  0.25500000920E-02 0. -1.
       -2    1    3    3    0  502  0.68653784217E+03 -0.27622070913E+02  0.89731768488E+03  0.11301664546E+04  0.25500000920E-02 0.  1.
</event>
<event>
 5   0  0.8694033E-05  0.1598397E+04  0.7818609E-02  0.8821533E-01
       -2   -1    0    0    0  501  0.00000000000E+00  0.00000000000E+00  0.72224761984E+03  0.72224761984E+03  0.25500000920E-02 0.  1.
        2   -1    0    0  501    0  0.00000000000E+00  0.00000000000E+00 -0.88434831468E+03  0.88434831468E+03  0.25500000920E-02 0. -1.
    10030    2    1    2    0    0  0.00000000000E+00  0.00000000000E+00 -0.16210069484E+03  0.16065959345E+04  0.15983972790E+04 0.  0.
        1    1    3    3  502    0 -0.45638628351E+03 -0.58282470219E+03 -0.38383525434E+03  0.83384805316E+03  0.50400001928E-02 0. -1.
       -1    1    3    3    0  502  0.45638628351E+03  0.58282470219E+03  0.22173455951E+03  0.77274788137E+03  0.50400001928E-02 0.  1.
</event>
<event>
 5   0  0.8620155E-05  0.1600259E+04  0.7818609E-02  0.8820389E-01
        2   -1    0    0  501    0  0.00000000000E+00  0.00000000000E+00  0.11038628466E+04  0.11038628466E+04  0.25500000920E-02 0.  1.
       -2   -1    0    0    0  501  0.00000000000E+00  0.00000000000E+00 -0.57996972181E+03  0.57996972182E+03  0.25500000920E-02 0. -1.
    10030    2    1    2    0    0  0.00000000000E+00  0.00000000000E+00  0.52389312474E+03  0.16838325684E+04  0.16002587641E+04 0.  0.
        4    1    3    3  502    0 -0.65401711000E+03  0.24427834574E+03 -0.14935791736E+03  0.71394656015E+03  0.12699999809E+01 0. -1.
       -4    1    3    3    0  502  0.65401711000E+03 -0.24427834574E+03  0.67325104210E+03  0.96988600823E+03  0.12699999809E+01 0.  1.
</event>
<event>
 5   0  0.7849690E-05  0.1598089E+04  0.7818609E-02  0.8821723E-01
        2   -1    0    0  501    0  0.00000000000E+00  0.00000000000E+00  0.13608136974E+04  0.13608136974E+04  0.25500000920E-02 0. -1.
       -2   -1    0    0    0  501  0.00000000000E+00  0.00000000000E+00 -0.46918411319E+03  0.46918411320E+03  0.25500000920E-02 0.  1.
    10030    2    1    2    0    0  0.00000000000E+00  0.00000000000E+00  0.89162958419E+03  0.18299978106E+04  0.15980890686E+04 0.  0.
        3    1    3    3  502    0 -0.52722259834E+03  0.59705129036E+03  0.51858372076E+03  0.95045410050E+03  0.10100000352E+00 0.  1.
       -3    1    3    3    0  502  0.52722259834E+03 -0.59705129036E+03  0.37304586343E+03  0.87954371008E+03  0.10100000352E+00 0. -1.
</event>
<event>
 5   0  0.4504463E-05  0.1602532E+04  0.7818609E-02  0.8818994E-01
        1   -1    0    0  501    0  0.00000000000E+00  0.00000000000E+00  0.69790382635E+03  0.69790382637E+03  0.50400001928E-02 0.  1.
       -1   -1    0    0    0  501  0.00000000000E+00  0.00000000000E+00 -0.91993597325E+03  0.91993597327E+03  0.50400001928E-02 0. -1.
    10030    2    1    2    0    0  0.00000000000E+00  0.00000000000E+00 -0.22203214690E+03  0.16178397996E+04  0.16025315420E+04 0.  0.
        1    1    3    3  502    0 -0.57022219431E+03  0.46103575535E+03 -0.43708672618E+03  0.85366979847E+03  0.50400001928E-02 0. -1.
       -1    1    3    3    0  502  0.57022219431E+03 -0.46103575535E+03  0.21505457928E+03  0.76417000117E+03  0.50400001928E-02 0.  1.
</event>
<event>
 5   0  0.7901257E-05  0.1598812E+04  0.7818609E-02  0.8821278E-01
       -2   -1    0    0    0  501  0.00000000000E+00  0.00000000000E+00  0.40963089677E+03  0.40963089678E+03  0.25500000920E-02 0. -1.
        2   -1    0    0  501    0  0.00000000000E+00  0.00000000000E+00 -0.15600636995E+04  0.15600636995E+04  0.25500000920E-02 0.  1.
    10030    2    1    2    0    0  0.00000000000E+00  0.00000000000E+00 -0.11504328027E+04  0.19696945963E+04  0.15988124246E+04 0.  0.
        2    1    3    3  502    0 -0.72315696054E+03 -0.28175942049E+03 -0.81124765033E+03  0.11227052644E+04  0.25500000920E-02 0. -1.
       -2    1    3    3    0  502  0.72315696054E+03  0.28175942049E+03 -0.33918515237E+03  0.84698933182E+03  0.25500000920E-02 0.  1.
</event>
<event>
 5   0  0.4504463E-05  0.1598051E+04  0.7818609E-02  0.8821746E-01
        1   -1    0    0  501    0  0.00000000000E+00  0.00000000000E+00  0.17243517463E+04  0.17243517463E+04  0.50400001928E-02 0. -1.
       -1   -1    0    0    0  501  0.00000000000E+00  0.00000000000E+00 -0.37025021586E+03  0.37025021589E+03  0.50400001928E-02 0.  1.
    10030    2    1    2    0    0  0.00000000000E+00  0.00000000000E+00  0.13541015304E+04  0.20946019622E+04  0.15980508206E+04 0.  0.
        1    1    3    3  502    0 -0.24674606917E+03 -0.65877230865E+03  0.18039737914E+03  0.72622847075E+03  0.50400001928E-02 0.  1.
       -1    1    3    3    0  502  0.24674606917E+03  0.65877230865E+03  0.11737041513E+04  0.13683734914E+04  0.50400001928E-02 0. -1.
</event>
<event>
 5   0  0.4211419E-05  0.1595932E+04  0.7818609E-02  0.8823051E-01
       -1   -1    0    0    0  501  0.00000000000E+00  0.00000000000E+00  0.43003426473E+03  0.43003426475E+03  0.50400001928E-02 0.  1.
        1   -1    0    0  501    0  0.00000000000E+00  0.00000000000E+00 -0.14806958395E+04  0.14806958395E+04  0.50400001928E-02 0. -1.
    10030    2    1    2    0    0  0.00000000000E+00  0.00000000000E+00 -0.10506615748E+04  0.19107301043E+04  0.15959322626E+04 0.  0.
        2    1    3    3  502    0 -0.76402845154E+02 -0.31180189443E+03  0.34931113846E+03  0.47442184559E+03  0.25500000920E-02 0.  1.
       -2    1    3    3    0  502  0.76402845154E+02  0.31180189443E+03 -0.13999727133E+04  0.14363082587E+04  0.25500000920E-02 0. -1.
</event>
<event>
 5   0  0.8037548E-05  0.1599090E+04  0.7818609E-02  0.8821107E-01
       -2   -1    0    0    0  501  0.00000000000E+00  0.00000000000E+00  0.70644397479E+03  0.70644397480E+03  0.25500000920E-02 0. -1.
        2   -1    0    0  501    0  0.00000000000E+00  0.00000000000E+00 -0.90491604009E+03  0.90491604010E+03  0.25500000920E-02 0.  1.
    10030    2    1    2    0    0  0.00000000000E+00  0.00000000000E+00 -0.19847206530E+03  0.16113600149E+04  0.15990903467E+04 0.  0.
        5    1    3    3  502    0 -0.17482367658E+03 -0.44583149098E+03 -0.74439962949E+03  0.88514514890E+03  0.46999998093E+01 0.  1.
       -5    1    3    3    0  502  0.17482367658E+03  0.44583149098E+03  0.54592756419E+03  0.72621486599E+03  0.46999998093E+01 0. -1.
</event>
<event>
 5   0  0.4504463E-05  0.1599891E+04  0.7818609E-02  0.8820615E-01
       -1   -1    0    0    0  501  0.00000000000E+00  0.00000000000E+00  0.36207829382E+03  0.36207829386E+03  0.50400001928E-02 0. -1.
        1   -1    0    0  501    0  0.00000000000E+00  0.00000000000E+00 -0.17673327336E+04  0.17673327336E+04  0.50400001928E-02 0.  1.
    10030    2    1    2    0    0  0.00000000000E+00  0.00000000000E+00 -0.14052544398E+04  0.21294110274E+04  0.15998910223E+04 0.  0.
        1    1    3    3  502    0 -0.50765462921E+02  0.73493706109E+03 -0.11175902338E+04  0.13385505395E+04  0.50400001928E-02 0.  1.
       -1    1    3    3    0  502  0.50765462921E+02 -0.73493706109E+03 -0.28766420592E+03  0.79086048794E+03  0.50400001928E-02 0. -1.
</event>
<event>
 5   0  0.8620155E-05  0.1591069E+04  0.7818609E-02  0.8826054E-01
        2   -1    0    0  501    0  0.00000000000E+00  0.00000000000E+00  0.82068067827E+03  0.82068067827E+03  0.25500000920E-02 0. -1.
       -2   -1    0    0    0  501  0.00000000000E+00  0.00000000000E+00 -0.77115847194E+03  0.77115847194E+03  0.25500000920E-02 0.  1.
    10030    2    1    2    0    0  0.00000000000E+00  0.00000000000E+00  0.49522206332E+02  0.15918391502E+04  0.15910686444E+04 0.  0.
        4    1    3    3  502    0 -0.46553735914E+03 -0.63731614506E+03 -0.75168913363E+02  0.79281074662E+03  0.12699999809E+01 0. -1.
       -4    1    3    3    0  502  0.46553735914E+03  0.63731614506E+03  0.12469111969E+03  0.79902840359E+03  0.12699999809E+01 0.  1.
</event>
<event>
 5   0  0.3042125E-05  0.1596414E+04  0.7818609E-02  0.8822754E-01
       -3   -1    0    0    0  501  0.00000000000E+00  0.00000000000E+00  0.61592029397E+03  0.61592030225E+03  0.10100000352E+00 0.  1.
        3   -1    0    0  501    0  0.00000000000E+00  0.00000000000E+00 -0.10344428039E+04  0.10344428088E+04  0.10100000352E+00 0. -1.
    10030    2    1    2    0    0  0.00000000000E+00  0.00000000000E+00 -0.41852250992E+03  0.16503631111E+04  0.15964138897E+04 0.  0.
        2    1    3    3  502    0 -0.10133123705E+03  0.56992811875E+03 -0.77742323634E+03  0.96926413766E+03  0.25500000920E-02 0. -1.
       -2    1    3    3    0  502  0.10133123705E+03 -0.56992811875E+03  0.35890072642E+03  0.68109897341E+03  0.25500000920E-02 0.  1.
</event>
<event>
 5   0  0.7849690E-05  0.1601995E+04  0.7818609E-02  0.8819323E-01
        2   -1    0    0  501    0  0.00000000000E+00  0.00000000000E+00  0.85626446395E+03  0.85626446395E+03  0.25500000920E-02 0. -1.
       -2   -1    0    0    0  501  0.00000000000E+00  0.00000000000E+00 -0.74929803645E+03  0.74929803645E+03  0.25500000920E-02 0.  1.
    10030    2    1    2    0    0  0.00000000000E+00  0.00000000000E+00  0.10696642750E+03  0.16055625004E+04  0.16019953577E+04 0.  0.
        3    1    3    3  502    0  0.88878081620E+02 -0.48076840033E+03 -0.58240549370E+03  0.76041681823E+03  0.10100000352E+00 0.  1.
       -3    1    3    3    0  502 -0.88878081620E+02  0.48076840033E+03  0.68937192121E+03  0.84514568217E+03  0.10100000352E+00 0. -1.
</event>
<event>
 5   0  0.7849690E-05  0.1600581E+04  0.7818609E-02  0.8820191E-01
       -2   -1    0    0    0  501  0.00000000000E+00  0.00000000000E+00  0.10871066893E+04  0.10871066893E+04  0.25500000920E-02 0. -1.
        2   -1    0    0  501    0  0.00000000000E+00  0.00000000000E+00 -0.58914629757E+03  0.58914629757E+03  0.25500000920E-02 0.  1.
    10030    2    1    2    0    0  0.00000000000E+00  0.00000000000E+00  0.49796039171E+03  0.16762529869E+04  0.16005809958E+04 0.  0.
        3    1    3    3  502    0 -0.79320939550E+03 -0.10593245448E+03  0.24073120747E+03  0.83567598654E+03  0.10100000352E+00 0. -1.
       -3    1    3    3    0  502  0.79320939550E+03  0.10593245448E+03  0.25722918424E+03  0.84057700031E+03  0.10100000352E+00 0.  1.
</event>
<event>
 5   0  0.4256406E-05  0.1599551E+04  0.7818609E-02  0.8820824E-01
        1   -1    0    0  501    0  0.00000000000E+00  0.00000000000E+00  0.96099146882E+03  0.96099146883E+03  0.50400001928E-02 0.  1.
       -1   -1    0    0    0  501  0.00000000000E+00  0.00000000000E+00 -0.66560539468E+03  0.66560539470E+03  0.50400001928E-02 0. -1.
    10030    2    1    2    0    0  0.00000000000E+00  0.00000000000E+00  0.29538607414E+03  0.16265968635E+04  0.15995513195E+04 0.  0.
        3    1    3    3  502    0  0.59076241936E+03  0.20338291465E+03  0.65541061917E+03  0.90549872227E+03  0.10100000352E+00 0.  1.
       -3    1    3    3    0  502 -0.59076241936E+03 -0.20338291465E+03 -0.36002454504E+03  0.72109814126E+03  0.10100000352E+00 0. -1.
</event>
<event>
 5   0  0.7901257E-05  0.1599041E+04  0.7818609E-02  0.8821137E-01
        2   -1    0    0  501    0  0.00000000000E+00  0.00000000000E+00  0.10586440017E+04  0.10586440017E+04  0.25500000920E-02 0. -1.
       -2   -1    0    0    0  501  0.00000000000E+00  0.00000000000E+00 -0.60382235626E+03  0.60382235626E+03  0.25500000920E-02 0.  1.
    10030    2    1    2    0    0  0.00000000000E+00  0.00000000000E+00  0.45482164545E+03  0.16624663580E+04  0.15990408570E+04 0.  0.
        2    1    3    3  502    0  0.16792471389E+03  0.31280854250E+03  0.97219474202E+03  0.10349930001E+04  0.25500000920E-02 0. -1.
       -2    1    3    3    0  502 -0.16792471389E+03 -0.31280854250E+03 -0.51737309657E+03  0.62747335789E+03  0.25500000920E-02 0.  1.
</event>
<event>
 5   0  0.8620155E-05  0.1603903E+04  0.7818609E-02  0.8818154E-01
       -2   -1    0    0    0  501  0.00000000000E+00  0.00000000000E+00  0.35295621751E+03  0.35295621751E+03  0.25500000920E-02 0.  1.
        2   -1    0    0  501    0  0.00000000000E+00  0.00000000000E+00 -0.18221124067E+04  0.18221124067E+04  0.25500000920E-02 0. -1.
    10030    2    1    2    0    0  0.00000000000E+00  0.00000000000E+00 -0.14691561892E+04  0.21750686242E+04  0.16039026192E+04 0.  0.
        4    1    3    3  502    0 -0.75458956607E+02  0.61827639424E+03 -0.49555140625E+02  0.62483364080E+03  0.12699999809E+01 0.  1.
       -4    1    3    3    0  502  0.75458956607E+02 -0.61827639424E+03 -0.14196010485E+04  0.15502349834E+04  0.12699999809E+01 0. -1.
</event>
<event>
 5   0  0.8620155E-05  0.1587561E+04  0.7818609E-02  0.8828226E-01
        2   -1    0    0  501    0  0.00000000000E+00  0.00000000000E+00  0.66522528649E+03  0.66522528649E+03  0.25500000920E-02 0. -1.
       -2   -1    0    0    0  501  0.00000000000E+00  0.00000000000E+00 -0.94717933007E+03  0.94717933007E+03  0.25500000920E-02 0.  1.
    10030    2    1    2    0    0  0.00000000000E+00  0.00000000000E+00 -0.28195404358E+03  0.16124046166E+04  0.15875612003E+04 0.  0.
        4    1    3    3  502    0 -0.12981964020E+03 -0.54542823002E+03  0.42972446259E+03  0.70640627102E+03  0.12699999809E+01 0. -1.
       -4    1    3    3    0  502  0.12981964020E+03  0.54542823002E+03 -0.71167850618E+03  0.90599834555E+03  0.12699999809E+01 0.  1.
</event>
<event>
 5   0  0.4373026E-05  0.1599409E+04  0.7818609E-02  0.8820911E-01
        1   -1    0    0  501    0  0.00000000000E+00  0.00000000000E+00  0.76909055287E+03  0.76909055289E+03  0.50400001928E-02 0.  1.
       -1   -1    0    0    0  501  0.00000000000E+00  0.00000000000E+00 -0.83153700946E+03  0.83153700948E+03  0.50400001928E-02 0. -1.
    10030    2    1    2    0    0  0.00000000000E+00  0.00000000000E+00 -0.62446456591E+02  0.16006275624E+04  0.15994089638E+04 0.  0.
        4    1    3    3  502    0 -0.70329371000E+03 -0.37589878697E+03 -0.91299832319E+02  0.80265759378E+03  0.12699999809E+01 0. -1.
       -4    1    3    3    0  502  0.70329371000E+03  0.37589878697E+03  0.28853375728E+02  0.79796996859E+03  0.12699999809E+01 0.  1.
</event>
<event>
 5   0  0.4256406E-05  0.1602502E+04  0.7818609E-02  0.8819013E-01
        1   -1    0    0  501    0  0.00000000000E+00  0.00000000000E+00  0.69686405058E+03  0.69686405060E+03  0.50400001928E-02 0. -1.
       -1   -1    0    0    0  501  0.00000000000E+00  0.00000000000E+00 -0.92127413623E+03  0.92127413624E+03  0.50400001928E-02 0.  1.
    10030    2    1    2    0    0  0.00000000000E+00  0.00000000000E+00 -0.22441008565E+03  0.16181381868E+04  0.16025015773E+04 0.  0.
        3    1    3    3  502    0 -0.56758059347E+03 -0.45644759612E+03 -0.44939557330E+03  0.85583206857E+03  0.10100000352E+00 0. -1.
       -3    1    3    3    0  502  0.56758059347E+03  0.45644759612E+03  0.22498548765E+03  0.76230611827E+03  0.10100000352E+00 0.  1.
</event>
<event>
 5   0  0.4504463E-05  0.1601865E+04  0.7818609E-02  0.8819403E-01
       -1   -1    0    0    0  501  0.00000000000E+00  0.00000000000E+00  0.28693306031E+03  0.28693306036E+03  0.50400001928E-02 0. -1.
        1   -1    0    0  501    0  0.00000000000E+00  0.00000000000E+00 -0.22356884530E+04  0.22356884530E+04  0.50400001928E-02 0.  1.
    10030    2    1    2    0    0  0.00000000000E+00  0.00000000000E+00 -0.19487553927E+04  0.25226215134E+04  0.16018650752E+04 0.  0.
        1    1    3    3  502    0 -0.17590059775E+03 -0.33531423786E+03 -0.20858317821E+04  0.21199223763E+04  0.50400001928E-02 0.  1.
       -1    1    3    3    0  502  0.17590059775E+03  0.33531423786E+03  0.13707638943E+03  0.40269913703E+03  0.50400001928E-02 0. -1.
</event>
<event>
 5   0  0.4373026E-05  0.1615690E+04  0.7818609E-02  0.8810966E-01
       -1   -1    0    0    0  501  0.00000000000E+00  0.00000000000E+00  0.36453253356E+03  0.36453253359E+03  0.50400001928E-02 0. -1.
        1   -1    0    0  501    0  0.00000000000E+00  0.00000000000E+00 -0.17902758116E+04  0.17902758116E+04  0.50400001928E-02 0.  1.
    10030    2    1    2    0    0  0.00000000000E+00  0.00000000000E+00 -0.14257432780E+04  0.21548083452E+04  0.16156902889E+04 0.  0.
        4    1    3    3  502    0  0.15415461101E+03 -0.72654336062E+03 -0.11366855811E+04  0.13578234871E+04  0.12699999809E+01 0.  1.
       -4    1    3    3    0  502 -0.15415461101E+03  0.72654336062E+03 -0.28905769695E+03  0.79698485809E+03  0.12699999809E+01 0. -1.
</event>
<event>
 5   0  0.4504463E-05  0.1595773E+04  0.7818609E-02  0.8823149E-01
       -1   -1    0    0    0  501  0.00000000000E+00  0.00000000000E+00  0.55888397448E+03  0.55888397450E+03  0.50400001928E-02 0.  1.
        1   -1    0    0  501    0  0.00000000000E+00  0.00000000000E+00 -0.11390970571E+04  0.11390970571E+04  0.50400001928E-02 0. -1.
    10030    2    1    2    0    0  0.00000000000E+00  0.00000000000E+00 -0.58021308258E+03  0.16979810316E+04  0.15957732804E+04 0.  0.
        1    1    3    3  502    0 -0.14915330025E+03  0.35697374257E+03 -0.10326161959E+04  0.11027117338E+04  0.50400001928E-02 0. -1.
       -1    1    3    3    0  502  0.14915330025E+03 -0.35697374257E+03  0.45240311333E+03  0.59526929774E+03  0.50400001928E-02 0.  1.
</event>
<event>
 5   0  0.7901257E-05  0.1599657E+04  0.7818609E-02  0.8820759E-01
       -2   -1    0    0    0  501  0.00000000000E+00  0.00000000000E+00  0.68311285617E+03  0.68311285617E+03  0.25500000920E-02 0. -1.
        2   -1    0    0  501    0  0.00000000000E+00  0.00000000000E+00 -0.93648544100E+03  0.93648544100E+03  0.25500000920E-02 0.  1.
    10030    2    1    2    0    0  0.00000000000E+00  0.00000000000E+00 -0.25337258483E+03  0.16195982972E+04  0.15996565186E+04 0.  0.
        2    1    3    3  502    0 -0.43623398707E+03 -0.28589437873E+03  0.48724704828E+03  0.71375442088E+03  0.25500000920E-02 0.  1.
       -2    1    3    3    0  502  0.43623398707E+03  0.28589437873E+03 -0.74061963311E+03  0.90584387629E+03  0.25500000920E-02 0. -1.
</event>
<event>
 5   0  0.4373026E-05  0.1597690E+04  0.7818609E-02  0.8821969E-01
       -1   -1    0    0    0  501  0.00000000000E+00  0.00000000000E+00  0.28756241457E+03  0.28756241461E+03  0.50400001928E-02 0. -1.
        1   -1    0    0  501    0  0.00000000000E+00  0.00000000000E+00 -0.22191808236E+04  0.22191808236E+04  0.50400001928E-02 0.  1.
    10030    2    1    2    0    0  0.00000000000E+00  0.00000000000E+00 -0.19316184090E+04  0.25067432382E+04  0.15976895769E+04 0.  0.
        4    1    3    3  502    0 -0.23197796640E+03  0.53983403875E+03 -0.18149693508E+04  0.19077080289E+04  0.12699999809E+01 0.  1.
       -4    1    3    3    0  502  0.23197796640E+03 -0.53983403875E+03 -0.11664905820E+03  0.59903520929E+03  0.12699999809E+01 0. -1.
</event>
<event>
 5   0  0.7901257E-05  0.1599872E+04  0.7818609E-02  0.8820627E-01
        2   -1    0    0  501    0  0.00000000000E+00  0.00000000000E+00  0.27274027062E+04  0.27274027062E+04  0.25500000920E-02 0. -1.
       -2   -1    0    0    0  501  0.00000000000E+00  0.00000000000E+00 -0.23461798771E+03  0.23461798772E+03  0.25500000920E-02 0.  1.
    10030    2    1    2    0    0  0.00000000000E+00  0.00000000000E+00  0.24927847185E+04  0.29620206940E+04  0.15998721632E+04 0.  0.
        2    1    3    3  502    0  0.19639442484E+03  0.77509122386E+03  0.12025581118E+04  0.14441202123E+04  0.25500000920E-02 0. -1.
       -2    1    3    3    0  502 -0.19639442484E+03 -0.77509122386E+03  0.12902266067E+04  0.15179004816E+04  0.25500000920E-02 0.  1.
</event>
<event>
 5   0  0.4504463E-05  0.1603037E+04  0.7818609E-02  0.8818684E-01
       -1   -1    0    0    0  501  0.00000000000E+00  0.00000000000E+00  0.57513636031E+03  0.57513636034E+03  0.50400001928E-02 0.  1.
        1   -1    0    0  501    0  0.00000000000E+00  0.00000000000E+00 -0.11170083793E+04  0.11170083793E+04  0.50400001928E-02 0. -1.
    10030    2    1    2    0    0  0.00000000000E+00  0.00000000000E+00 -0.54187201897E+03  0.16921447396E+04  0.16030372843E+04 0.  0.
        1    1    3    3  502    0 -0.10901513876E+03 -0.56566249960E+03 -0.85920542733E+03  0.10344526719E+04  0.50400001928E-02 0. -1.
       -1    1    3    3    0  502  0.10901513876E+03  0.56566249960E+03  0.31733340835E+03  0.65769206778E+03  0.50400001928E-02 0.  1.
</event>
<event>
 5   0  0.4256406E-05  0.1597279E+04  0.7818609E-02  0.8822221E-01
        1   -1    0    0  501    0  0.00000000000E+00  0.00000000000E+00  0.13591758039E+04  0.13591758039E+04  0.50400001928E-02 0. -1.
       -1   -1    0    0    0  501  0.00000000000E+00  0.00000000000E+00 -0.46927360131E+03  0.46927360134E+03  0.50400001928E-02 0.  1.
    10030    2    1    2    0    0  0.00000000000E+00  0.00000000000E+00  0.88990220257E+03  0.18284494052E+04  0.15972793423E+04 0.  0.
        3    1    3    3  502    0  0.27106088637E+03 -0.39666353659E+02 -0.41380648407E+03  0.49626932223E+03  0.10100000352E+00 0.  1.
       -3    1    3    3    0  502 -0.27106088637E+03  0.39666353659E+02  0.13037086866E+04  0.13321800830E+04  0.10100000352E+00 0. -1.
</event>
<event>
 5   0  0.7901257E-05  0.1600424E+04  0.7818609E-02  0.8820288E-01
        2   -1    0    0  501    0  0.00000000000E+00  0.00000000000E+00  0.12706375209E+04  0.12706375209E+04  0.25500000920E-02 0. -1.
       -2   -1    0    0    0  501  0.00000000000E+00  0.00000000000E+00 -0.50395107545E+03  0.50395107546E+03  0.25500000920E-02 0.  1.
    10030    2    1    2    0    0  0.00000000000E+00  0.00000000000E+00  0.76668644542E+03  0.17745885963E+04  0.16004238753E+04 0.  0.
        2    1    3    3  502    0 -0.66515946930E+00 -0.10829248803E+03 -0.49578820326E+03  0.50747773143E+03  0.25500000920E-02 0.  1.
       -2    1    3    3    0  502  0.66515946930E+00  0.10829248803E+03  0.12624746487E+04  0.12671108649E+04  0.25500000920E-02 0. -1.
</event>
<event>
 5   0  0.7849690E-05  0.1600814E+04  0.7818609E-02  0.8820048E-01
        2   -1    0    0  501    0  0.00000000000E+00  0.00000000000E+00  0.18087151835E+04  0.18087151835E+04  0.25500000920E-02 0.  1.
       -2   -1    0    0    0  501  0.00000000000E+00  0.00000000000E+00 -0.35420242373E+03  0.35420242374E+03  0.25500000920E-02 0. -1.
    10030    2    1    2    0    0  0.00000000000E+00  0.00000000000E+00  0.14545127597E+04  0.21629176072E+04  0.16008139203E+04 0.  0.
        3    1    3    3  502    0 -0.15276885556E+03 -0.49569974159E+03 -0.96376924912E+02  0.52758419129E+03  0.10100000352E+00 0. -1.
       -3    1    3    3    0  502  0.15276885556E+03  0.49569974159E+03  0.15508896846E+04  0.16353334159E+04  0.10100000352E+00 0.  1.
</event>
<event>
 5   0  0.8037548E-05  0.1600986E+04  0.7818609E-02  0.8819943E-01
       -2   -1    0    0    0  501  0.00000000000E+00  0.00000000000E+00  0.74954574590E+03  0.74954574590E+03  0.25500000920E-02 0.  1.
        2   -1    0    0  501    0  0.00000000000E+00  0.00000000000E+00 -0.85490312591E+03  0.85490312591E+03  0.25500000920E-02 0. -1.
    10030    2    1    2    0    0  0.00000000000E+00  0.00000000000E+00 -0.10535738001E+03  0.16044488718E+04  0.16009859477E+04 0.  0.
        5    1    3    3  502    0 -0.71207991405E+03  0.28990067059E+02 -0.41797869459E+03  0.82621214413E+03  0.46999998093E+01 0. -1.
       -5    1    3    3    0  502  0.71207991405E+03 -0.28990067059E+02  0.31262131458E+03  0.77823672768E+03  0.46999998093E+01 0.  1.
</event>
<event>
 5   0  0.4373026E-05  0.1600308E+04  0.7818609E-02  0.8820359E-01
       -1   -1    0    0    0  501  0.00000000000E+00  0.00000000000E+00  0.56054957604E+03  0.56054957607E+03  0.50400001928E-02 0. -1.
        1   -1    0    0  501    0  0.00000000000E+00  0.00000000000E+00 -0.11421760140E+04  0.11421760140E+04  0.50400001928E-02 0.  1.
    10030    2    1    2    0    0  0.00000000000E+00  0.00000000000E+00 -0.58162643798E+03  0.17027255901E+04  0.16003078210E+04 0.  0.
        4    1    3    3  502    0 -0.15030638265E+03 -0.21809781965E+03 -0.10941752893E+04  0.11257796606E+04  0.12699999809E+01 0. -1.
       -4    1    3    3    0  502  0.15030638265E+03  0.21809781965E+03  0.51254885136E+03  0.57694592947E+03  0.12699999809E+01 0.  1.
</event>
<event>
 5   0  0.4504463E-05  0.1602101E+04  0.7818609E-02  0.8819258E-01
        1   -1    0    0  501    0  0.00000000000E+00  0.00000000000E+00  0.14214511303E+04  0.14214511303E+04  0.50400001928E-02 0.  1.
       -1   -1    0    0    0  501  0.00000000000E+00  0.00000000000E+00 -0.45142747381E+03  0.45142747384E+03  0.50400001928E-02 0. -1.
    10030    2    1    2    0    0  0.00000000000E+00  0.00000000000E+00  0.97002365644E+03  0.18728786041E+04  0.16021012364E+04 0.  0.
        1    1    3    3  502    0  0.14680081140E+03  0.25923300693E+03  0.13542818364E+04  0.13866620073E+04  0.50400001928E-02 0.  1.
       -1    1    3    3    0  502 -0.14680081140E+03 -0.25923300693E+03 -0.38425817995E+03  0.48621659679E+03  0.50400001928E-02 0. -1.
</event>
<event>
 5   0  0.4256406E-05  0.1575769E+04  0.7818609E-02  0.8835574E-01
       -1   -1    0    0    0  501  0.00000000000E+00  0.00000000000E+00  0.11030795499E+04  0.11030795499E+04  0.50400001928E-02 0. -1.
        1   -1    0    0  501    0  0.00000000000E+00  0.00000000000E+00 -0.56275333213E+03  0.56275333215E+03  0.50400001928E-02 0.  1.
    10030    2    1    2    0    0  0.00000000000E+00  0.00000000000E+00  0.54032621779E+03  0.16658328821E+04  0.15757686281E+04 0.  0.
        3    1    3    3  502    0  0.39227516299E+02  0.48360718316E+03 -0.38608030591E+03  0.62005864114E+03  0.10100000352E+00 0.  1.
       -3    1    3    3    0  502 -0.39227516299E+02 -0.48360718316E+03  0.92640652370E+03  0.10457742409E+04  0.10100000352E+00 0. -1.
</event>
<event>
 5   0  0.7849690E-05  0.1599296E+04  0.7818609E-02  0.8820980E-01
       -2   -1    0    0    0  501  0.00000000000E+00  0.00000000000E+00  0.44063632050E+03  0.44063632050E+03  0.25500000920E-02 0.  1.
        2   -1    0    0  501    0  0.00000000000E+00  0.00000000000E+00 -0.14511677525E+04  0.14511677525E+04  0.25500000920E-02 0. -1.
    10030    2    1    2    0    0  0.00000000000E+00  0.00000000000E+00 -0.10105314320E+04  0.18918040730E+04  0.15992963689E+04 0.  0.
        3    1    3    3  502    0 -0.10510362943E+03  0.78921223610E+03 -0.41726510223E+03  0.89889537894E+03  0.10100000352E+00 0.  1.
       -3    1    3    3    0  502  0.10510362943E+03 -0.78921223610E+03 -0.59326632978E+03  0.99290869409E+03  0.10100000352E+00 0. -1.
</event>
<event>
 5   0  0.7901257E-05  0.1599935E+04  0.7818609E-02  0.8820588E-01
        2   -1    0    0  501    0  0.00000000000E+00  0.00000000000E+00  0.77400881282E+03  0.77400881283E+03  0.25500000920E-02 0.  1.
       -2   -1    0    0    0  501  0.00000000000E+00  0.00000000000E+00 -0.82679728304E+03  0.82679728305E+03  0.25500000920E-02 0. -1.
    10030    2    1    2    0    0  0.00000000000E+00  0.00000000000E+00 -0.52788470218E+02  0.16008060959E+04  0.15999354781E+04 0.  0.
        2    1    3    3  502    0 -0.27141228100E+03 -0.30826115132E+03 -0.71325072516E+03  0.82305295130E+03  0.25500000920E-02 0. -1.
       -2    1    3    3    0  502  0.27141228100E+03  0.30826115132E+03  0.66046225494E+03  0.77775314458E+03  0.25500000920E-02 0.  1.
</event>
<event>
 5   0  0.4211419E-05  0.1603110E+04  0.7818609E-02  0.8818639E-01
        1   -1    0    0  501    0  0.00000000000E+00  0.00000000000E+00  0.75462350362E+03  0.75462350364E+03  0.50400001928E-02 0.  1.
       -1   -1    0    0    0  501  0.00000000000E+00  0.00000000000E+00 -0.85140565874E+03  0.85140565875E+03  0.50400001928E-02 0. -1.
    10030    2    1    2    0    0  0.00000000000E+00  0.00000000000E+00 -0.96782155119E+02  0.16060291624E+04  0.16031103783E+04 0.  0.
        2    1    3    3  502    0 -0.33971120930E+03 -0.21345342508E+03 -0.74357427036E+03  0.84490754876E+03  0.25500000920E-02 0. -1.
       -2    1    3    3    0  502  0.33971120930E+03  0.21345342508E+03  0.64679211524E+03  0.76112161363E+03  0.25500000920E-02 0.  1.
</event>
<event>
 5   0  0.4211419E-05  0.1603840E+04  0.7818609E-02  0.8818192E-01
       -1   -1    0    0    0  501  0.00000000000E+00  0.00000000000E+00  0.31752257953E+03  0.31752257957E+03  0.50400001928E-02 0. -1.
        1   -1    0    0  501    0  0.00000000000E+00  0.00000000000E+00 -0.20252923328E+04  0.20252923328E+04  0.50400001928E-02 0.  1.
    10030    2    1    2    0    0  0.00000000000E+00  0.00000000000E+00 -0.17077697532E+04  0.23428149123E+04  0.16038404483E+04 0.  0.
        2    1    3    3  502    0  0.95358978732E+02  0.49893607641E+03 -0.17603119012E+04  0.18321376948E+04  0.25500000920E-02 0.  1.
       -2    1    3    3    0  502 -0.95358978732E+02 -0.49893607641E+03  0.52542148006E+02  0.51067721752E+03  0.25500000920E-02 0. -1.
</event>
<event>
 5   0  0.8620155E-05  0.1603039E+04  0.7818609E-02  0.8818683E-01
       -2   -1    0    0    0  501  0.00000000000E+00  0.00000000000E+00  0.14158414804E+04  0.14158414804E+04  0.25500000920E-02 0.  1.
        2   -1    0    0  501    0  0.00000000000E+00  0.00000000000E+00 -0.45374663767E+03  0.45374663768E+03  0.25500000920E-02 0. -1.
    10030    2    1    2    0    0  0.00000000000E+00  0.00000000000E+00  0.96209484269E+03  0.18695881180E+04  0.16030387534E+04 0.  0.
        4    1    3    3  502    0  0.53199025719E+02  0.53904012766E+03 -0.20798211605E+03  0.58021769110E+03  0.12699999809E+01 0. -1.
       -4    1    3    3    0  502 -0.53199025719E+02 -0.53904012766E+03  0.11700769587E+04  0.12893704269E+04  0.12699999809E+01 0.  1.
</event>
<event>
 5   0  0.4256406E-05  0.1600086E+04  0.7818609E-02  0.8820495E-01
        1   -1    0    0  501    0  0.00000000000E+00  0.00000000000E+00  0.44913877747E+03  0.44913877749E+03  0.50400001928E-02 0. -1.
       -1   -1    0    0    0  501  0.00000000000E+00  0.00000000000E+00 -0.14251023099E+04  0.14251023099E+04  0.50400001928E-02 0.  1.
    10030    2    1    2    0    0  0.00000000000E+00  0.00000000000E+00 -0.97596353245E+03  0.18742410874E+04  0.16000858843E+04 0.  0.
        3    1    3    3  502    0  0.39560057285E+03  0.23409957650E+03  0.27901312112E+03  0.53772740019E+03  0.10100000352E+00 0. -1.
       -3    1    3    3    0  502 -0.39560057285E+03 -0.23409957650E+03 -0.12549766536E+04  0.13365136872E+04  0.10100000352E+00 0.  1.
</event>
<event>
 5   0  0.8694033E-05  0.1599235E+04  0.7818609E-02  0.8821018E-01
        2   -1    0    0  501    0  0.00000000000E+00  0.00000000000E+00  0.71257300232E+03  0.71257300233E+03  0.25500000920E-02 0. -1.
       -2   -1    0    0    0  501  0.00000000000E+00  0.00000000000E+00 -0.89729462338E+03  0.89729462338E+03  0.25500000920E-02 0.  1.
    10030    2    1    2    0    0  0.00000000000E+00  0.00000000000E+00 -0.18472162106E+03  0.16098676257E+04  0.15992347217E+04 0.  0.
        1    1    3    3  502    0  0.59850107029E+03  0.45723284769E+03 -0.36270272785E+03  0.83595375289E+03  0.50400001928E-02 0.  1.
       -1    1    3    3    0  502 -0.59850107029E+03 -0.45723284769E+03  0.17798110679E+03  0.77391387282E+03  0.50400001928E-02 0. -1.
</event>
<event>
 5   0  0.4211419E-05  0.1597599E+04  0.7818609E-02  0.8822025E-01
       -1   -1    0    0    0  501  0.00000000000E+00  0.00000000000E+00  0.79714531455E+03  0.79714531456E+03  0.50400001928E-02 0. -1.
        1   -1    0    0  501    0  0.00000000000E+00  0.00000000000E+00 -0.80045667410E+03  0.80045667412E+03  0.50400001928E-02 0.  1.
    10030    2    1    2    0    0  0.00000000000E+00  0.00000000000E+00 -0.33113595539E+01  0.15976019887E+04  0.15975985569E+04 0.  0.
        2    1    3    3  502    0  0.57556134052E+02  0.66449173044E+03 -0.44122268147E+03  0.79971208759E+03  0.25500000920E-02 0.  1.
       -2    1    3    3    0  502 -0.57556134052E+02 -0.66449173044E+03  0.43791132192E+03  0.79788990109E+03  0.25500000920E-02 0. -1.
</event>
<event>
 5   0  0.4373026E-05  0.1588734E+04  0.7818609E-02  0.8827499E-01
        1   -1    0    0  501    0  0.00000000000E+00  0.00000000000E+00  0.80548617964E+03  0.80548617966E+03  0.50400001928E-02 0.  1.
       -1   -1    0    0    0  501  0.00000000000E+00  0.00000000000E+00 -0.78340099039E+03  0.78340099040E+03  0.50400001928E-02 0. -1.
    10030    2    1    2    0    0  0.00000000000E+00  0.00000000000E+00  0.22085189255E+02  0.15888871701E+04  0.15887336730E+04 0.  0.
        4    1    3    3  502    0  0.42151508022E+03 -0.67304704300E+03 -0.76614329020E+01  0.79418360308E+03  0.12699999809E+01 0.  1.
       -4    1    3    3    0  502 -0.42151508022E+03  0.67304704300E+03  0.29746622157E+02  0.79470356698E+03  0.12699999809E+01 0. -1.
</event>
<event>
 5   0  0.8620155E-05  0.1592542E+04  0.7818609E-02  0.8825143E-01
        2   -1    0    0  501    0  0.00000000000E+00  0.00000000000E+00  0.26596338309E+04  0.26596338309E+04  0.25500000920E-02 0.  1.
       -2   -1    0    0    0  501  0.00000000000E+00  0.00000000000E+00 -0.23839639145E+03  0.23839639147E+03  0.25500000920E-02 0. -1.
    10030    2    1    2    0    0  0.00000000000E+00  0.00000000000E+00  0.24212374394E+04  0.28980302224E+04  0.15925415007E+04 0.  0.
        4    1    3    3  502    0 -0.30750257030E+03  0.53108122660E+03  0.28730242905E+03  0.67760563651E+03  0.12699999809E+01 0. -1.
       -4    1    3    3    0  502  0.30750257030E+03 -0.53108122660E+03  0.21339350104E+04  0.22204245859E+04  0.12699999809E+01 0.  1.
</event>
<event>
 5   0  0.7901257E-05  0.1599506E+04  0.7818609E-02  0.8820852E-01
       -2   -1    0    0    0  501  0.00000000000E+00  0.00000000000E+00  0.40322529857E+03  0.40322529858E+03  0.25500000920E-02 0.  1.
        2   -1    0    0  501    0  0.00000000000E+00  0.00000000000E+00 -0.15862213866E+04  0.15862213866E+04  0.25500000920E-02 0. -1.
    10030    2    1    2    0    0  0.00000000000E+00  0.00000000000E+00 -0.11829960881E+04  0.19894466852E+04  0.15995056639E+04 0.  0.
        2    1    3    3  502    0 -0.75241338817E+03 -0.73879444112E+02 -0.91588731013E+03  0.11876167917E+04  0.25500000920E-02 0. -1.
       -2    1    3    3    0  502  0.75241338817E+03  0.73879444112E+02 -0.26710877794E+03  0.80182989356E+03  0.25500000920E-02 0.  1.
</event>
<event>
 5   0  0.4314657E-05  0.1601113E+04  0.7818609E-02  0.8819864E-01
        1   -1    0    0  501    0  0.00000000000E+00  0.00000000000E+00  0.10997876579E+04  0.10997876579E+04  0.50400001928E-02 0.  1.
       -1   -1    0    0    0  501  0.00000000000E+00  0.00000000000E+00 -0.58274059914E+03  0.58274059916E+03  0.50400001928E-02 0. -1.
    10030    2    1    2    0    0  0.00000000000E+00  0.00000000000E+00  0.51704705879E+03  0.16825282571E+04  0.16011132611E+04 0.  0.
        5    1    3    3  502    0  0.30304816161E+03  0.51103872081E+03 -0.30529398943E+03  0.66800095239E+03  0.46999998093E+01 0. -1.
       -5    1    3    3    0  502 -0.30304816161E+03 -0.51103872081E+03  0.82234104822E+03  0.10145273047E+04  0.46999998093E+01 0.  1.
</event>
<event>
 5   0  0.8037548E-05  0.1602474E+04  0.7818609E-02  0.8819030E-01
       -2   -1    0    0    0  501  0.00000000000E+00  0.00000000000E+00  0.37963516255E+03  0.37963516255E+03  0.25500000920E-02 0.  1.
        2   -1    0    0  501    0  0.00000000000E+00  0.00000000000E+00 -0.16910465556E+04  0.16910465556E+04  0.25500000920E-02 0. -1.
    10030    2    1    2    0    0  0.00000000000E+00  0.00000000000E+00 -0.13114113931E+04  0.20706817182E+04  0.16024740048E+04 0.  0.
        5    1    3    3  502    0 -0.25642426625E+03 -0.37343776758E+03 -0.15096677071E+04  0.15761750685E+04  0.46999998093E+01 0. -1.
       -5    1    3    3    0  502  0.25642426625E+03  0.37343776758E+03  0.19825631402E+03  0.49450664972E+03  0.46999998093E+01 0.  1.
</event>
<event>
 5   0  0.7901257E-05  0.1596377E+04  0.7818609E-02  0.8822777E-01
       -2   -1    0    0    0  501  0.00000000000E+00  0.00000000000E+00  0.31880716241E+03  0.31880716242E+03  0.25500000920E-02 0.  1.
        2   -1    0    0  501    0  0.00000000000E+00  0.00000000000E+00 -0.19984031202E+04  0.19984031202E+04  0.25500000920E-02 0. -1.
    10030    2    1    2    0    0  0.00000000000E+00  0.00000000000E+00 -0.16795959578E+04  0.23172102827E+04  0.15963774342E+04 0.  0.
        2    1    3    3  502    0 -0.40072802544E+03  0.73443827199E+02 -0.18361193702E+04  0.18807741192E+04  0.25500000920E-02 0. -1.
       -2    1    3    3    0  502  0.40072802544E+03 -0.73443827199E+02  0.15652341232E+03  0.43643616342E+03  0.25500000920E-02 0.  1.
</event>
<event>
 5   0  0.3042125E-05  0.1598712E+04  0.7818609E-02  0.8821340E-01
       -4   -1    0    0    0  501  0.00000000000E+00  0.00000000000E+00  0.57881528402E+03  0.57881667729E+03  0.12699999809E+01 0.  1.
        4   -1    0    0  501    0  0.00000000000E+00  0.00000000000E+00 -0.11039240178E+04  0.11039247483E+04  0.12699999809E+01 0. -1.
    10030    2    1    2    0    0  0.00000000000E+00  0.00000000000E+00 -0.52510873376E+03  0.16827414256E+04  0.15987118324E+04 0.  0.
        2    1    3    3  502    0  0.13046084538E+03 -0.64405637449E+03  0.21649522853E+03  0.69188064699E+03  0.25500000920E-02 0.  1.
       -2    1    3    3    0  502 -0.13046084538E+03  0.64405637449E+03 -0.74160396229E+03  0.99086077861E+03  0.25500000920E-02 0. -1.
</event>
<event>
 5   0  0.4256406E-05  0.1596306E+04  0.7818609E-02  0.8822821E-01
       -1   -1    0    0    0  501  0.00000000000E+00  0.00000000000E+00  0.34850185983E+03  0.34850185987E+03  0.50400001928E-02 0.  1.
        1   -1    0    0  501    0  0.00000000000E+00  0.00000000000E+00 -0.18279616559E+04  0.18279616559E+04  0.50400001928E-02 0. -1.
    10030    2    1    2    0    0  0.00000000000E+00  0.00000000000E+00 -0.14794597961E+04  0.21764635158E+04  0.15963057813E+04 0.  0.
        3    1    3    3  502    0  0.17004546275E+03 -0.24974075957E+03  0.26751946069E+03  0.40354997019E+03  0.10100000352E+00 0.  1.
       -3    1    3    3    0  502 -0.17004546275E+03  0.24974075957E+03 -0.17469792568E+04  0.17729135456E+04  0.10100000352E+00 0. -1.
</event>
<event>
 5   0  0.8694033E-05  0.1598910E+04  0.7818609E-02  0.8821218E-01
       -2   -1    0    0    0  501  0.00000000000E+00  0.00000000000E+00  0.25955573986E+03  0.25955573988E+03  0.25500000920E-02 0.  1.
        2   -1    0    0  501    0  0.00000000000E+00  0.00000000000E+00 -0.24623919444E+04  0.24623919444E+04  0.25500000920E-02 0. -1.
    10030    2    1    2    0    0  0.00000000000E+00  0.00000000000E+00 -0.22028362045E+04  0.27219476843E+04  0.15989095822E+04 0.  0.
        1    1    3    3  502    0 -0.75988126731E+03  0.24358386126E+03 -0.10184488082E+04  0.12938278915E+04  0.50400001928E-02 0.  1.
       -1    1    3    3    0  502  0.75988126731E+03 -0.24358386126E+03 -0.11843873963E+04  0.14281197927E+04  0.50400001928E-02 0. -1.
</event>
<event>
 5   0  0.4256406E-05  0.1601945E+04  0.7818609E-02  0.8819354E-01
        1   -1    0    0  501    0  0.00000000000E+00  0.00000000000E+00  0.88983265938E+03  0.88983265940E+03  0.50400001928E-02 0. -1.
       -1   -1    0    0    0  501  0.00000000000E+00  0.00000000000E+00 -0.72098616545E+03  0.72098616546E+03  0.50400001928E-02 0.  1.
    10030    2    1    2    0    0  0.00000000000E+00  0.00000000000E+00  0.16884649394E+03  0.16108188249E+04  0.16019451139E+04 0.  0.
        3    1    3    3  502    0  0.40513641611E+02 -0.22604411095E+02 -0.71963401837E+03  0.72112789791E+03  0.10100000352E+00 0.  1.
       -3    1    3    3    0  502 -0.40513641611E+02  0.22604411095E+02  0.88848051230E+03  0.88969092695E+03  0.10100000352E+00 0. -1.
</event>
<event>
 5   0  0.7901257E-05  0.1596236E+04  0.7818609E-02  0.8822864E-01
       -2   -1    0    0    0  501  0.00000000000E+00  0.00000000000E+00  0.28545151536E+03  0.28545151537E+03  0.25500000920E-02 0. -1.
        2   -1    0    0  501    0  0.00000000000E+00  0.00000000000E+00 -0.22315247500E+04  0.22315247500E+04  0.25500000920E-02 0.  1.
    10030    2    1    2    0    0  0.00000000000E+00  0.00000000000E+00 -0.19460732346E+04  0.25169762654E+04  0.15962357238E+04 0.  0.
        2    1    3    3  502    0  0.38822288586E+03 -0.69559014297E+03 -0.10507574507E+04  0.13185802503E+04  0.25500000920E-02 0.  1.
       -2    1    3    3    0  502 -0.38822288586E+03  0.69559014297E+03 -0.89531578390E+03  0.11983960151E+04  0.25500000920E-02 0. -1.
</event>
<event>
 5   0  0.7849690E-05  0.1599357E+04  0.7818609E-02  0.8820943E-01
        2   -1    0    0  501    0  0.00000000000E+00  0.00000000000E+00  0.10073199248E+04  0.10073199248E+04  0.25500000920E-02 0. -1.
       -2   -1    0    0    0  501  0.00000000000E+00  0.00000000000E+00 -0.63483862868E+03  0.63483862869E+03  0.25500000920E-02 0.  1.
    10030    2    1    2    0    0  0.00000000000E+00  0.00000000000E+00  0.37248129614E+03  0.16421585535E+04  0.15993568704E+04 0.  0.
        3    1    3    3  502    0  0.17802540177E+02  0.38266930305E+03  0.90697541322E+03  0.98455936150E+03  0.10100000352E+00 0. -1.
       -3    1    3    3    0  502 -0.17802540177E+02 -0.38266930305E+03 -0.53449411708E+03  0.65759919201E+03  0.10100000352E+00 0.  1.
</event>
<event>
 5   0  0.8694033E-05  0.1649555E+04  0.7818609E-02  0.8790670E-01
        2   -1    0    0  501    0  0.00000000000E+00  0.00000000000E+00  0.57907128926E+03  0.57907128927E+03  0.25500000920E-02 0.  1.
       -2   -1    0    0    0  501  0.00000000000E+00  0.00000000000E+00 -0.11747400223E+04  0.11747400223E+04  0.25500000920E-02 0. -1.
    10030    2    1    2    0    0  0.00000000000E+00  0.00000000000E+00 -0.59566873299E+03  0.17538113115E+04  0.16495553574E+04 0.  0.
        1    1    3    3  502    0  0.81479308358E+03  0.26390915229E+02 -0.43094276999E+03  0.92211491718E+03  0.50400001928E-02 0.  1.
       -1    1    3    3    0  502 -0.81479308358E+03 -0.26390915229E+02 -0.16472596300E+03  0.83169639435E+03  0.50400001928E-02 0. -1.
</event>
<event>
 5   0  0.8037548E-05  0.1601948E+04  0.7818609E-02  0.8819352E-01
       -2   -1    0    0    0  501  0.00000000000E+00  0.00000000000E+00  0.29549450074E+03  0.29549450075E+03  0.25500000920E-02 0.  1.
        2   -1    0    0  501    0  0.00000000000E+00  0.00000000000E+00 -0.21711381430E+04  0.21711381430E+04  0.25500000920E-02 0. -1.
    10030    2    1    2    0    0  0.00000000000E+00  0.00000000000E+00 -0.18756436423E+04  0.24666326437E+04  0.16019480411E+04 0.  0.
        5    1    3    3  502    0  0.71238485399E+03  0.16164086709E+03 -0.43199521630E+03  0.84868245358E+03  0.46999998093E+01 0.  1.
       -5    1    3    3    0  502 -0.71238485399E+03 -0.16164086709E+03 -0.14436484260E+04  0.16179501902E+04  0.46999998093E+01 0. -1.
</event>
<event>
 5   0  0.4373026E-05  0.1600616E+04  0.7818609E-02  0.8820170E-01
       -1   -1    0    0    0  501  0.00000000000E+00  0.00000000000E+00  0.58033103638E+03  0.58033103640E+03  0.50400001928E-02 0. -1.
        1   -1    0    0  501    0  0.00000000000E+00  0.00000000000E+00 -0.11036682714E+04  0.11036682714E+04  0.50400001928E-02 0.  1.
    10030    2    1    2    0    0  0.00000000000E+00  0.00000000000E+00 -0.52333723497E+03  0.16839993078E+04  0.16006160711E+04 0.  0.
        4    1    3    3  502    0 -0.37308632490E+03  0.68854210960E+03 -0.88128206552E+02  0.78806842102E+03  0.12699999809E+01 0. -1.
       -4    1    3    3    0  502  0.37308632490E+03 -0.68854210960E+03 -0.43520902842E+03  0.89593088675E+03  0.12699999809E+01 0.  1.
</event>
<event>
 5   0  0.4314657E-05  0.1599908E+04  0.7818609E-02  0.8820605E-01
       -1   -1    0    0    0  501  0.00000000000E+00  0.00000000000E+00  0.86216908621E+03  0.86216908622E+03  0.50400001928E-02 0.  1.
        1   -1    0    0  501    0  0.00000000000E+00  0.00000000000E+00 -0.74222832014E+03  0.74222832016E+03  0.50400001928E-02 0. -1.
    10030    2    1    2    0    0  0.00000000000E+00  0.00000000000E+00  0.11994076606E+03  0.16043974064E+04  0.15999078880E+04 0.  0.
        5    1    3    3  502    0  0.19178917282E+03 -0.74030703420E+03  0.29529167525E+03  0.81979073865E+03  0.46999998093E+01 0.  1.
       -5    1    3    3    0  502 -0.19178917282E+03  0.74030703420E+03 -0.17535090918E+03  0.78460666773E+03  0.46999998093E+01 0. -1.
</event>
<event>
 5   0  0.8620155E-05  0.1600488E+04  0.7818609E-02  0.8820248E-01
        2   -1    0    0  501    0  0.00000000000E+00  0.00000000000E+00  0.23370941004E+04  0.23370941004E+04  0.25500000920E-02 0.  1.
       -2   -1    0    0    0  501  0.00000000000E+00  0.00000000000E+00 -0.27401148052E+03  0.27401148053E+03  0.25500000920E-02 0. -1.
    10030    2    1    2    0    0  0.00000000000E+00  0.00000000000E+00  0.20630826199E+04  0.26111055810E+04  0.16004881938E+04 0.  0.
        4    1    3    3  502    0  0.14680493006E+03 -0.42016057500E+03  0.21165459833E+04  0.21628349703E+04  0.12699999809E+01 0.  1.
       -4    1    3    3    0  502 -0.14680493006E+03  0.42016057500E+03 -0.53463363396E+02  0.44827061069E+03  0.12699999809E+01 0. -1.
</event>
<event>
 5   0  0.4373026E-05  0.1602336E+04  0.7818609E-02  0.8819114E-01
       -1   -1    0    0    0  501  0.00000000000E+00  0.00000000000E+00  0.83722893054E+03  0.83722893056E+03  0.50400001928E-02 0.  1.
        1   -1    0    0  501    0  0.00000000000E+00  0.00000000000E+00 -0.76666026332E+03  0.76666026333E+03  0.50400001928E-02 0. -1.
    10030    2    1    2    0    0  0.00000000000E+00  0.00000000000E+00  0.70568667227E+02  0.16038891939E+04  0.16023359852E+04 0.  0.
        4    1    3    3  502    0 -0.31723446097E+03  0.40244506037E+01  0.77167036742E+03  0.83434445422E+03  0.12699999809E+01 0.  1.
       -4    1    3    3    0  502  0.31723446097E+03 -0.40244506037E+01 -0.70110170020E+03  0.76954473967E+03  0.12699999809E+01 0. -1.
</event>
<event>
 5   0  0.4504463E-05  0.1599306E+04  0.7818609E-02  0.8820974E-01
       -1   -1    0    0    0  501  0.00000000000E+00  0.00000000000E+00  0.57569474733E+03  0.57569474735E+03  0.50400001928E-02 0.  1.
        1   -1    0    0  501    0  0.00000000000E+00  0.00000000000E+00 -0.11107363086E+04  0.11107363086E+04  0.50400001928E-02 0. -1.
    10030    2    1    2    0    0  0.00000000000E+00  0.00000000000E+00 -0.53504156127E+03  0.16864310560E+04  0.15993061728E+04 0.  0.
        1    1    3    3  502    0 -0.70164295342E+02 -0.72373967974E+03  0.83356877612E+02  0.73189515741E+03  0.50400001928E-02 0.  1.
       -1    1    3    3    0  502  0.70164295342E+02  0.72373967974E+03 -0.61839843888E+03  0.95453589855E+03  0.50400001928E-02 0. -1.
</event>
<event>
 5   0  0.8694033E-05  0.1602924E+04  0.7818609E-02  0.8818754E-01
       -2   -1    0    0    0  501  0.00000000000E+00  0.00000000000E+00  0.10740243134E+04  0.10740243134E+04  0.25500000920E-02 0.  1.
        2   -1    0    0  501    0  0.00000000000E+00  0.00000000000E+00 -0.59806932809E+03  0.59806932809E+03  0.25500000920E-02 0. -1.
    10030    2    1    2    0    0  0.00000000000E+00  0.00000000000E+00  0.47595498529E+03  0.16720936415E+04  0.16029235783E+04 0.  0.
        1    1    3    3  502    0  0.32250552764E+03  0.58016419275E+03  0.70651518354E+03  0.96941426156E+03  0.50400001928E-02 0.  1.
       -1    1    3    3    0  502 -0.32250552764E+03 -0.58016419275E+03 -0.23056019825E+03  0.70267937991E+03  0.50400001928E-02 0. -1.
</event>
<event>
 5   0  0.4314657E-05  0.1600247E+04  0.7818609E-02  0.8820396E-01
        1   -1    0    0  501    0  0.00000000000E+00  0.00000000000E+00  0.11472688767E+04  0.11472688768E+04  0.50400001928E-02 0. -1.
       -1   -1    0    0    0  501  0.00000000000E+00  0.00000000000E+00 -0.55801915502E+03  0.55801915504E+03  0.50400001928E-02 0.  1.
    10030    2    1    2    0    0  0.00000000000E+00  0.00000000000E+00  0.58924972173E+03  0.17052880318E+04  0.16002474924E+04 0.  0.
        5    1    3    3  502    0  0.51102927753E+03  0.34843496935E+02 -0.36038501214E+03  0.62631017775E+03  0.46999998093E+01 0.  1.
       -5    1    3    3    0  502 -0.51102927753E+03 -0.34843496935E+02  0.94963473387E+03  0.10789778541E+04  0.46999998093E+01 0. -1.
</event>
<event>
 5   0  0.8620155E-05  0.1598953E+04  0.7818609E-02  0.8821191E-01
       -2   -1    0    0    0  501  0.00000000000E+00  0.00000000000E+00  0.30028267548E+03  0.30028267549E+03  0.25500000920E-02 0.  1.
        2   -1    0    0  501    0  0.00000000000E+00  0.00000000000E+00 -0.21285376600E+04  0.21285376600E+04  0.25500000920E-02 0. -1.
    10030    2    1    2    0    0  0.00000000000E+00  0.00000000000E+00 -0.18282549845E+04  0.24288203355E+04  0.15989533870E+04 0.  0.
        4    1    3    3  502    0 -0.34041134034E+03 -0.51861445509E+03 -0.14808951128E+03  0.63778754293E+03  0.12699999809E+01 0.  1.
       -4    1    3    3    0  502  0.34041134034E+03  0.51861445509E+03 -0.16801654733E+04  0.17910327926E+04  0.12699999809E+01 0. -1.
</event>
<event>
 5   0  0.8694033E-05  0.1608210E+04  0.7818609E-02  0.8815520E-01
       -2   -1    0    0    0  501  0.00000000000E+00  0.00000000000E+00  0.73159887415E+03  0.73159887416E+03  0.25500000920E-02 0. -1.
        2   -1    0    0  501    0  0.00000000000E+00  0.00000000000E+00 -0.88379668578E+03  0.88379668578E+03  0.25500000920E-02 0.  1.
    10030    2    1    2    0    0  0.00000000000E+00  0.00000000000E+00 -0.15219781163E+03  0.16153955599E+04  0.16082097628E+04 0.  0.
        1    1    3    3  502    0 -0.77273984686E+03  0.71355127719E+02  0.13547518280E+03  0.78776389252E+03  0.50400001928E-02 0. -1.
       -1    1    3    3    0  502  0.77273984686E+03 -0.71355127719E+02 -0.28767299443E+03  0.82763166742E+03  0.50400001928E-02 0.  1.
</event>
<event>
 5   0  0.7849690E-05  0.1597181E+04  0.7818609E-02  0.8822282E-01
       -2   -1    0    0    0  501  0.00000000000E+00  0.00000000000E+00  0.66078886702E+03  0.66078886702E+03  0.25500000920E-02 0.  1.
        2   -1    0    0  501    0  0.00000000000E+00  0.00000000000E+00 -0.96512890594E+03  0.96512890594E+03  0.25500000920E-02 0. -1.
    10030    2    1    2    0    0  0.00000000000E+00  0.00000000000E+00 -0.30434003892E+03  0.16259177730E+04  0.15971805612E+04 0.  0.
        3    1    3    3  502    0  0.59666442997E+03  0.52333194351E+03 -0.24243134745E+03  0.82985404350E+03  0.10100000352E+00 0.  1.
       -3    1    3    3    0  502 -0.59666442997E+03 -0.52333194351E+03 -0.61908691471E+02  0.79606372946E+03  0.10100000352E+00 0. -1.
</event>
<event>
 5   0  0.7901257E-05  0.1601255E+04  0.7818609E-02  0.8819777E-01
        2   -1    0    0  501    0  0.00000000000E+00  0.00000000000E+00  0.41483005568E+03  0.41483005569E+03  0.25500000920E-02 0.  1.
       -2   -1    0    0    0  501  0.00000000000E+00  0.00000000000E+00 -0.15452221332E+04  0.15452221332E+04  0.25500000920E-02 0. -1.
    10030    2    1    2    0    0  0.00000000000E+00  0.00000000000E+00 -0.11303920775E+04  0.19600521889E+04  0.16012552371E+04 0.  0.
        2    1    3    3  502    0  0.38689973870E+03  0.36037127007E+03  0.17072059164E+03  0.55561171740E+03  0.25500000920E-02 0.  1.
       -2    1    3    3    0  502 -0.38689973870E+03 -0.36037127007E+03 -0.13011126692E+04  0.14044404715E+04  0.25500000920E-02 0. -1.
</event>
<event>
 5   0  0.8694033E-05  0.1599981E+04  0.7818609E-02  0.8820560E-01
        2   -1    0    0  501    0  0.00000000000E+00  0.00000000000E+00  0.15946019755E+04  0.15946019755E+04  0.25500000920E-02 0. -1.
       -2   -1    0    0    0  501  0.00000000000E+00  0.00000000000E+00 -0.40134435004E+03  0.40134435004E+03  0.25500000920E-02 0.  1.
    10030    2    1    2    0    0  0.00000000000E+00  0.00000000000E+00  0.11932576255E+04  0.19959463256E+04  0.15999806167E+04 0.  0.
        1    1    3    3  502    0 -0.65274896168E+03  0.45428985634E+03  0.48842092945E+03  0.93328210360E+03  0.50400001928E-02 0.  1.
       -1    1    3    3    0  502  0.65274896168E+03 -0.45428985634E+03  0.70483669605E+03  0.10626642220E+04  0.50400001928E-02 0. -1.
</event>
<event>
 5   0  0.8037548E-05  0.1595150E+04  0.7818609E-02  0.8823533E-01
       -2   -1    0    0    0  501  0.00000000000E+00  0.00000000000E+00  0.61107938518E+03  0.61107938519E+03  0.25500000920E-02 0. -1.
        2   -1    0    0  501    0  0.00000000000E+00  0.00000000000E+00 -0.10409870848E+04  0.10409870848E+04  0.25500000920E-02 0.  1.
    10030    2    1    2    0    0  0.00000000000E+00  0.00000000000E+00 -0.42990769965E+03  0.16520664700E+04  0.15951498335E+04 0.  0.
        5    1    3    3  502    0  0.41884204486E+03  0.55397067463E+03  0.19120150894E+03  0.72034177577E+03  0.46999998093E+01 0. -1.
       -5    1    3    3    0  502 -0.41884204486E+03 -0.55397067463E+03 -0.62110920858E+03  0.93172469425E+03  0.46999998093E+01 0.  1.
</event>
<event>
 5   0  0.7901257E-05  0.1601213E+04  0.7818609E-02  0.8819803E-01
       -2   -1    0    0    0  501  0.00000000000E+00  0.00000000000E+00  0.77825737472E+03  0.77825737472E+03  0.25500000920E-02 0. -1.
        2   -1    0    0  501    0  0.00000000000E+00  0.00000000000E+00 -0.82359785388E+03  0.82359785388E+03  0.25500000920E-02 0.  1.
    10030    2    1    2    0    0  0.00000000000E+00  0.00000000000E+00 -0.45340479162E+02  0.16018552286E+04  0.16012134194E+04 0.  0.
        2    1    3    3  502    0 -0.57098836432E+03  0.50798401531E+03  0.21595342084E+03  0.79417337652E+03  0.25500000920E-02 0. -1.
       -2    1    3    3    0  502  0.57098836432E+03 -0.50798401531E+03 -0.26129390001E+03  0.80768185208E+03  0.25500000920E-02 0.  1.
</event>
<event>
 5   0  0.4256406E-05  0.1599134E+04  0.7818609E-02  0.8821080E-01
        1   -1    0    0  501    0  0.00000000000E+00  0.00000000000E+00  0.40608652570E+03  0.40608652573E+03  0.50400001928E-02 0.  1.
       -1   -1    0    0    0  501  0.00000000000E+00  0.00000000000E+00 -0.15743141075E+04  0.15743141075E+04  0.50400001928E-02 0. -1.
    10030    2    1    2    0    0  0.00000000000E+00  0.00000000000E+00 -0.11682275818E+04  0.19804006332E+04  0.15991344488E+04 0.  0.
        3    1    3    3  502    0 -0.77102551889E+03 -0.71593980729E+02 -0.33735504209E+03  0.84463867037E+03  0.10100000352E+00 0. -1.
       -3    1    3    3    0  502  0.77102551889E+03  0.71593980729E+02 -0.83087253971E+03  0.11357619629E+04  0.10100000352E+00 0.  1.
</event>
<event>
 5   0  0.4504463E-05  0.1599367E+04  0.7818609E-02  0.8820937E-01
       -1   -1    0    0    0  501  0.00000000000E+00  0.00000000000E+00  0.78628161045E+03  0.78628161047E+03  0.50400001928E-02 0.  1.
        1   -1    0    0  501    0  0.00000000000E+00  0.00000000000E+00 -0.81331380895E+03  0.81331380896E+03  0.50400001928E-02 0. -1.
    10030    2    1    2    0    0  0.00000000000E+00  0.00000000000E+00 -0.27032198491E+02  0.15995954194E+04  0.15993669892E+04 0.  0.
        1    1    3    3  502    0 -0.43320224301E+03 -0.45441274784E+03  0.48187127334E+03  0.79142596170E+03  0.50400001928E-02 0.  1.
       -1    1    3    3    0  502  0.43320224301E+03  0.45441274784E+03 -0.50890347183E+03  0.80816945774E+03  0.50400001928E-02 0. -1.
</event>
<event>
 5   0  0.7901257E-05  0.1601776E+04  0.7818609E-02  0.8819458E-01
        2   -1    0    0  501    0  0.00000000000E+00  0.00000000000E+00  0.94074144137E+03  0.94074144137E+03  0.25500000920E-02 0.  1.
       -2   -1    0    0    0  501  0.00000000000E+00  0.00000000000E+00 -0.68182539923E+03  0.68182539924E+03  0.25500000920E-02 0. -1.
    10030    2    1    2    0    0  0.00000000000E+00  0.00000000000E+00  0.25891604214E+03  0.16225668406E+04  0.16017757756E+04 0.  0.
        2    1    3    3  502    0 -0.63809031462E+03 -0.15041105634E+03 -0.33655536331E+03  0.73692078818E+03  0.25500000920E-02 0. -1.
       -2    1    3    3    0  502  0.63809031462E+03  0.15041105634E+03  0.59547140545E+03  0.88564605243E+03  0.25500000920E-02 0.  1.
</event>
<event>
 5   0  0.8037548E-05  0.1600169E+04  0.7818609E-02  0.8820444E-01
        2   -1    0    0  501    0  0.00000000000E+00  0.00000000000E+00  0.42891515410E+03  0.42891515411E+03  0.25500000920E-02 0. -1.
       -2   -1    0    0    0  501  0.00000000000E+00  0.00000000000E+00 -0.14924510948E+04  0.14924510948E+04  0.25500000920E-02 0.  1.
    10030    2    1    2    0    0  0.00000000000E+00  0.00000000000E+00 -0.10635359407E+04  0.19213662489E+04  0.16001686053E+04 0.  0.
        5    1    3    3  502    0 -0.52286106428E+03  0.50880546598E+03 -0.92608601137E+03  0.11789504168E+04  0.46999998093E+01 0.  1.
       -5    1    3    3    0  502  0.52286106428E+03 -0.50880546598E+03 -0.13744992935E+03  0.74241583215E+03  0.46999998093E+01 0. -1.
</event>
<event>
 5   0  0.8037548E-05  0.1599208E+04  0.7818609E-02  0.8821035E-01
       -2   -1    0    0    0  501  0.00000000000E+00  0.00000000000E+00  0.10529159340E+04  0.10529159340E+04  0.25500000920E-02 0. -1.
        2   -1    0    0  501    0  0.00000000000E+00  0.00000000000E+00 -0.60723397986E+03  0.60723397986E+03  0.25500000920E-02 0.  1.
    10030    2    1    2    0    0  0.00000000000E+00  0.00000000000E+00  0.44568195416E+03  0.16601499139E+04  0.15992077202E+04 0.  0.
        5    1    3    3  502    0 -0.51716468342E+03  0.50067062200E+03  0.58426629611E+03  0.92710278625E+03  0.46999998093E+01 0.  1.
       -5    1    3    3    0  502  0.51716468342E+03 -0.50067062200E+03 -0.13858434195E+03  0.73304712764E+03  0.46999998093E+01 0. -1.
</event>
<event>
 5   0  0.4373026E-05  0.1600261E+04  0.7818609E-02  0.8820388E-01
        1   -1    0    0  501    0  0.00000000000E+00  0.00000000000E+00  0.11009049695E+04  0.11009049695E+04  0.50400001928E-02 0. -1.
       -1   -1    0    0    0  501  0.00000000000E+00  0.00000000000E+00 -0.58152962854E+03  0.58152962856E+03  0.50400001928E-02 0.  1.
    10030    2    1    2    0    0  0.00000000000E+00  0.00000000000E+00  0.51937534096E+03  0.16824345981E+04  0.16002610512E+04 0.  0.
        4    1    3    3  502    0  0.33211902705E+03  0.22802510245E+03 -0.46712057648E+03  0.61684823202E+03  0.12699999809E+01 0.  1.
       -4    1    3    3    0  502 -0.33211902705E+03 -0.22802510245E+03  0.98649591744E+03  0.10655863660E+04  0.12699999809E+01 0. -1.
</event>
<event>
 5   0  0.4314657E-05  0.1612047E+04  0.7818609E-02  0.8813181E-01
        1   -1    0    0  501    0  0.00000000000E+00  0.00000000000E+00  0.11948577048E+04  0.11948577048E+04  0.50400001928E-02 0.  1.
       -1   -1    0    0    0  501  0.00000000000E+00  0.00000000000E+00 -0.54372502290E+03  0.54372502292E+03  0.50400001928E-02 0. -1.
    10030    2    1    2    0    0  0.00000000000E+00  0.00000000000E+00  0.65113268189E+03  0.17385827277E+04  0.16120471866E+04 0.  0.
        5    1    3    3  502    0  0.57074924171E+03  0.18348538291E+03  0.90658359728E+03  0.10868935051E+04  0.46999998093E+01 0.  1.
       -5    1    3    3    0  502 -0.57074924171E+03 -0.18348538291E+03 -0.25545091539E+03  0.65168922258E+03  0.46999998093E+01 0. -1.
</event>
<event>
 5   0  0.8694033E-05  0.1598423E+04  0.7818609E-02  0.8821517E-01
        2   -1    0    0  501    0  0.00000000000E+00  0.00000000000E+00  0.13670873531E+04  0.13670873531E+04  0.25500000920E-02 0. -1.
       -2   -1    0    0    0  501  0.00000000000E+00  0.00000000000E+00 -0.46722637644E+03  0.46722637645E+03  0.25500000920E-02 0.  1.
    10030    2    1    2    0    0  0.00000000000E+00  0.00000000000E+00  0.89986097665E+03  0.18343137295E+04  0.15984233110E+04 0.  0.
        1    1    3    3  502    0 -0.69837103075E+03  0.38494912321E+03  0.38886746539E+03  0.88720112134E+03  0.50400001928E-02 0. -1.
       -1    1    3    3    0  502  0.69837103075E+03 -0.38494912321E+03  0.51099351127E+03  0.94711260821E+03  0.50400001928E-02 0.  1.
</event>
<event>
 5   0  0.8620155E-05  0.1608552E+04  0.7818609E-02  0.8815312E-01
       -2   -1    0    0    0  501  0.00000000000E+00  0.00000000000E+00  0.52876591447E+03  0.52876591447E+03  0.25500000920E-02 0. -1.
        2   -1    0    0  501    0  0.00000000000E+00  0.00000000000E+00 -0.12233381068E+04  0.12233381068E+04  0.25500000920E-02 0.  1.
    10030    2    1    2    0    0  0.00000000000E+00  0.00000000000E+00 -0.69457219236E+03  0.17521040213E+04  0.16085515133E+04 0.  0.
        4    1    3    3  502    0  0.50188993818E+03  0.46599032440E+03  0.11203038103E+03  0.69396895583E+03  0.12699999809E+01 0. -1.
       -4    1    3    3    0  502 -0.50188993818E+03 -0.46599032440E+03 -0.80660257339E+03  0.10581350655E+04  0.12699999809E+01 0.  1.
</event>
<event>
 5   0  0.7901257E-05  0.1606818E+04  0.7818609E-02  0.8816370E-01
       -2   -1    0    0    0  501  0.00000000000E+00  0.00000000000E+00  0.52030115158E+03  0.52030115159E+03  0.25500000920E-02 0. -1.
        2   -1    0    0  501    0  0.00000000000E+00  0.00000000000E+00 -0.12405624442E+04  0.12405624442E+04  0.25500000920E-02 0.  1.
    10030    2    1    2    0    0  0.00000000000E+00  0.00000000000E+00 -0.72026129263E+03  0.17608635958E+04  0.16068180586E+04 0.  0.
        2    1    3    3  502    0  0.80153897910E+03  0.54322281830E+02 -0.35234896562E+03  0.87724878962E+03  0.25500000920E-02 0. -1.
       -2    1    3    3    0  502 -0.80153897910E+03 -0.54322281830E+02 -0.36791232701E+03  0.88361480617E+03  0.25500000920E-02 0.  1.
</event>
<event>
 5   0  0.7901257E-05  0.1600326E+04  0.7818609E-02  0.8820348E-01
       -2   -1    0    0    0  501  0.00000000000E+00  0.00000000000E+00  0.40248245144E+03  0.40248245145E+03  0.25500000920E-02 0. -1.
        2   -1    0    0  501    0  0.00000000000E+00  0.00000000000E+00 -0.15907797403E+04  0.15907797403E+04  0.25500000920E-02 0.  1.
    10030    2    1    2    0    0  0.00000000000E+00  0.00000000000E+00 -0.11882972888E+04  0.19932621917E+04  0.16003261287E+04 0.  0.
        2    1    3    3  502    0 -0.15033414493E+02 -0.62436513252E+03 -0.12171690663E+04  0.13680491066E+04  0.25500000920E-02 0.  1.
       -2    1    3    3    0  502  0.15033414493E+02  0.62436513252E+03  0.28871777416E+02  0.62521308511E+03  0.25500000920E-02 0. -1.
</event>
<event>
 5   0  0.3042125E-05  0.1600860E+04  0.7818609E-02  0.8820020E-01
       -4   -1    0    0    0  501  0.00000000000E+00  0.00000000000E+00  0.65312080480E+03  0.65312203956E+03  0.12699999809E+01 0. -1.
        4   -1    0    0  501    0  0.00000000000E+00  0.00000000000E+00 -0.98096111223E+03  0.98096193433E+03  0.12699999809E+01 0.  1.
    10030    2    1    2    0    0  0.00000000000E+00  0.00000000000E+00 -0.32784030743E+03  0.16340839739E+04  0.16008595087E+04 0.  0.
        5    1    3    3  502    0 -0.15951177710E+02 -0.79149363911E+03 -0.43362733468E+02  0.79285499145E+03  0.46999998093E+01 0.  1.
       -5    1    3    3    0  502  0.15951177710E+02  0.79149363911E+03 -0.28447757396E+03  0.84122898244E+03  0.46999998093E+01 0. -1.
</event>
<event>
 5   0  0.4256406E-05  0.1566381E+04  0.7818609E-02  0.8841472E-01
       -1   -1    0    0    0  501  0.00000000000E+00  0.00000000000E+00  0.47559139967E+03  0.47559139970E+03  0.50400001928E-02 0.  1.
        1   -1    0    0  501    0  0.00000000000E+00  0.00000000000E+00 -0.12897358568E+04  0.12897358568E+04  0.50400001928E-02 0. -1.
    10030    2    1    2    0    0  0.00000000000E+00  0.00000000000E+00 -0.81414445711E+03  0.17653272565E+04  0.15663809005E+04 0.  0.
        3    1    3    3  502    0 -0.62413096151E+03 -0.16753886526E+03 -0.90573895797E+03  0.11126418106E+04  0.10100000352E+00 0. -1.
       -3    1    3    3    0  502  0.62413096151E+03  0.16753886526E+03  0.91594500868E+02  0.65268544589E+03  0.10100000352E+00 0.  1.
</event>
<event>
 5   0  0.8037548E-05  0.1589943E+04  0.7818609E-02  0.8826750E-01
        2   -1    0    0  501    0  0.00000000000E+00  0.00000000000E+00  0.14856654583E+04  0.14856654583E+04  0.25500000920E-02 0. -1.
       -2   -1    0    0    0  501  0.00000000000E+00  0.00000000000E+00 -0.42538488828E+03  0.42538488828E+03  0.25500000920E-02 0.  1.
    10030    2    1    2    0    0  0.00000000000E+00  0.00000000000E+00  0.10602805700E+04  0.19110503466E+04  0.15899429361E+04 0.  0.
        5    1    3    3  502    0 -0.35224976030E+03 -0.89516745015E+01  0.13866570705E+04  0.14307340589E+04  0.46999998093E+01 0. -1.
       -5    1    3    3    0  502  0.35224976030E+03  0.89516745015E+01 -0.32637650051E+03  0.48031628766E+03  0.46999998093E+01 0.  1.
</event>
<event>
 5   0  0.8694033E-05  0.1600018E+04  0.7818609E-02  0.8820537E-01
        2   -1    0    0  501    0  0.00000000000E+00  0.00000000000E+00  0.19826877877E+04  0.19826877877E+04  0.25500000920E-02 0. -1.
       -2   -1    0    0    0  501  0.00000000000E+00  0.00000000000E+00 -0.32280151298E+03  0.32280151299E+03  0.25500000920E-02 0.  1.
    10030    2    1    2    0    0  0.00000000000E+00  0.00000000000E+00  0.16598862747E+04  0.23054893007E+04  0.16000182720E+04 0.  0.
        1    1    3    3  502    0  0.47224872332E+03 -0.65952072757E+02  0.17555509964E+04  0.18191558024E+04  0.50400001928E-02 0. -1.
       -1    1    3    3    0  502 -0.47224872332E+03  0.65952072757E+02 -0.95664721634E+02  0.48633349830E+03  0.50400001928E-02 0.  1.
</event>
<event>
 5   0  0.4373026E-05  0.1596830E+04  0.7818609E-02  0.8822498E-01
       -1   -1    0    0    0  501  0.00000000000E+00  0.00000000000E+00  0.40588569864E+03  0.40588569867E+03  0.50400001928E-02 0.  1.
        1   -1    0    0  501    0  0.00000000000E+00  0.00000000000E+00 -0.15705563226E+04  0.15705563226E+04  0.50400001928E-02 0. -1.
    10030    2    1    2    0    0  0.00000000000E+00  0.00000000000E+00 -0.11646706240E+04  0.19764420213E+04  0.15968297972E+04 0.  0.
        4    1    3    3  502    0  0.53651835282E+03  0.50878843692E+03 -0.20947867462E+03  0.76850539652E+03  0.12699999809E+01 0.  1.
       -4    1    3    3    0  502 -0.53651835282E+03 -0.50878843692E+03 -0.95519194936E+03  0.12079366248E+04  0.12699999809E+01 0. -1.
</event>
<event>
 5   0  0.4256406E-05  0.1598141E+04  0.7818609E-02  0.8821691E-01
        1   -1    0    0  501    0  0.00000000000E+00  0.00000000000E+00  0.94619973638E+03  0.94619973639E+03  0.50400001928E-02 0.  1.
       -1   -1    0    0    0  501  0.00000000000E+00  0.00000000000E+00 -0.67481906583E+03  0.67481906585E+03  0.50400001928E-02 0. -1.
    10030    2    1    2    0    0  0.00000000000E+00  0.00000000000E+00  0.27138067055E+03  0.16210188022E+04  0.15981409477E+04 0.  0.
        3    1    3    3  502    0  0.22640949042E+03 -0.27497204118E+03 -0.58984133960E+03  0.68904549696E+03  0.10100000352E+00 0. -1.
       -3    1    3    3    0  502 -0.22640949042E+03  0.27497204118E+03  0.86122201015E+03  0.93197330528E+03  0.10100000352E+00 0.  1.
</event>
<event>
 5   0  0.8037548E-05  0.1601179E+04  0.7818609E-02  0.8819824E-01
        2   -1    0    0  501    0  0.00000000000E+00  0.00000000000E+00  0.57403011153E+03  0.57403011153E+03  0.25500000920E-02 0. -1.
       -2   -1    0    0    0  501  0.00000000000E+00  0.00000000000E+00 -0.11165684007E+04  0.11165684007E+04  0.25500000920E-02 0.  1.
    10030    2    1    2    0    0  0.00000000000E+00  0.00000000000E+00 -0.54253828914E+03  0.16905985122E+04  0.16011794198E+04 0.  0.
        5    1    3    3  502    0  0.73960336345E+02 -0.72310359686E+03  0.82986936907E+02  0.73161319346E+03  0.46999998093E+01 0. -1.
       -5    1    3    3    0  502 -0.73960336345E+02  0.72310359686E+03 -0.62552522605E+03  0.95898531874E+03  0.46999998093E+01 0.  1.
</event>
<event>
 5   0  0.8037548E-05  0.1600429E+04  0.7818609E-02  0.8820284E-01
        2   -1    0    0  501    0  0.00000000000E+00  0.00000000000E+00  0.42668150519E+03  0.42668150519E+03  0.25500000920E-02 0.  1.
       -2   -1    0    0    0  501  0.00000000000E+00  0.00000000000E+00 -0.15007529212E+04  0.15007529212E+04  0.25500000920E-02 0. -1.
    10030    2    1    2    0    0  0.00000000000E+00  0.00000000000E+00 -0.10740714160E+04  0.19274344264E+04  0.16004293366E+04 0.  0.
        5    1    3    3  502    0 -0.65810180357E+03  0.45374469403E+03 -0.49296349350E+03  0.93915777543E+03  0.46999998093E+01 0. -1.
       -5    1    3    3    0  502  0.65810180357E+03 -0.45374469403E+03 -0.58110792247E+03  0.98827665093E+03  0.46999998093E+01 0.  1.
</event>
<event>
 5   0  0.7901257E-05  0.1591733E+04  0.7818609E-02  0.8825643E-01
        2   -1    0    0  501    0  0.00000000000E+00  0.00000000000E+00  0.59375887388E+03  0.59375887389E+03  0.25500000920E-02 0.  1.
       -2   -1    0    0    0  501  0.00000000000E+00  0.00000000000E+00 -0.10667682793E+04  0.10667682793E+04  0.25500000920E-02 0. -1.
    10030    2    1    2    0    0  0.00000000000E+00  0.00000000000E+00 -0.47300940537E+03  0.16605271531E+04  0.15917325557E+04 0.  0.
        2    1    3    3  502    0  0.32405812516E+03 -0.29535654807E+03 -0.92940537090E+03  0.10276397727E+04  0.25500000920E-02 0. -1.
       -2    1    3    3    0  502 -0.32405812516E+03  0.29535654807E+03  0.45639596553E+03  0.63288738045E+03  0.25500000920E-02 0.  1.
</event>
<event>
 5   0  0.8620155E-05  0.1612265E+04  0.7818609E-02  0.8813049E-01
       -2   -1    0    0    0  501  0.00000000000E+00  0.00000000000E+00  0.24434261954E+03  0.24434261955E+03  0.25500000920E-02 0.  1.
        2   -1    0    0  501    0  0.00000000000E+00  0.00000000000E+00 -0.26595828599E+04  0.26595828599E+04  0.25500000920E-02 0. -1.
    10030    2    1    2    0    0  0.00000000000E+00  0.00000000000E+00 -0.24152402404E+04  0.29039254795E+04  0.16122647957E+04 0.  0.
        4    1    3    3  502    0  0.93715220066E+02  0.16740700498E+03 -0.26178618677E+04  0.26248828581E+04  0.12699999809E+01 0. -1.
       -4    1    3    3    0  502 -0.93715220066E+02 -0.16740700498E+03  0.20262162728E+03  0.27904262135E+03  0.12699999809E+01 0.  1.
</event>
<event>
 5   0  0.4504463E-05  0.1606687E+04  0.7818609E-02  0.8816451E-01
        1   -1    0    0  501    0  0.00000000000E+00  0.00000000000E+00  0.70622746035E+03  0.70622746037E+03  0.50400001928E-02 0.  1.
       -1   -1    0    0    0  501  0.00000000000E+00  0.00000000000E+00 -0.91381411725E+03  0.91381411727E+03  0.50400001928E-02 0. -1.
    10030    2    1    2    0    0  0.00000000000E+00  0.00000000000E+00 -0.20758665690E+03  0.16200415776E+04  0.16066868062E+04 0.  0.
        1    1    3    3  502    0 -0.13090538978E+03  0.65611319580E+03  0.34458236627E+03  0.75256744146E+03  0.50400001928E-02 0.  1.
       -1    1    3    3    0  502  0.13090538978E+03 -0.65611319580E+03 -0.55216902317E+03  0.86747413618E+03  0.50400001928E-02 0. -1.
</event>
<event>
 5   0  0.4504463E-05  0.1593660E+04  0.7818609E-02  0.8824452E-01
       -1   -1    0    0    0  501  0.00000000000E+00  0.00000000000E+00  0.45214037645E+03  0.45214037648E+03  0.50400001928E-02 0.  1.
        1   -1    0    0  501    0  0.00000000000E+00  0.00000000000E+00 -0.14042940761E+04  0.14042940761E+04  0.50400001928E-02 0. -1.
    10030    2    1    2    0    0  0.00000000000E+00  0.00000000000E+00 -0.95215369965E+03  0.18564344526E+04  0.15936600042E+04 0.  0.
        1    1    3    3  502    0  0.56009426037E+03  0.56381558898E+03 -0.54344374271E+03  0.96276928721E+03  0.50400001928E-02 0. -1.
       -1    1    3    3    0  502 -0.56009426037E+03 -0.56381558898E+03 -0.40870995695E+03  0.89366516538E+03  0.50400001928E-02 0.  1.
</event>
<event>
 5   0  0.4256406E-05  0.1603274E+04  0.7818609E-02  0.8818539E-01
       -1   -1    0    0    0  501  0.00000000000E+00  0.00000000000E+00  0.11215474553E+04  0.11215474553E+04  0.50400001928E-02 0. -1.
        1   -1    0    0  501    0  0.00000000000E+00  0.00000000000E+00 -0.57297810850E+03  0.57297810852E+03  0.50400001928E-02 0.  1.
    10030    2    1    2    0    0  0.00000000000E+00  0.00000000000E+00  0.54856934678E+03  0.16945255638E+04  0.16032743241E+04 0.  0.
        3    1    3    3  502    0 -0.52218686657E+03 -0.40845485509E+03  0.75060971530E+03  0.10014636524E+04  0.10100000352E+00 0. -1.
       -3    1    3    3    0  502  0.52218686657E+03  0.40845485509E+03 -0.20204036852E+03  0.69306191136E+03  0.10100000352E+00 0.  1.
</event>
<event>
 5   0  0.8694033E-05  0.1600507E+04  0.7818609E-02  0.8820237E-01
       -2   -1    0    0    0  501  0.00000000000E+00  0.00000000000E+00  0.48842631625E+03  0.48842631626E+03  0.25500000920E-02 0. -1.
        2   -1    0    0  501    0  0.00000000000E+00  0.00000000000E+00 -0.13111608348E+04  0.13111608348E+04  0.25500000920E-02 0.  1.
    10030    2    1    2    0    0  0.00000000000E+00  0.00000000000E+00 -0.82273451858E+03  0.17995871511E+04  0.16005067405E+04 0.  0.
        1    1    3    3  502    0 -0.11301512492E+03 -0.15276114494E+02  0.47924264815E+03  0.49262490189E+03  0.50400001928E-02 0. -1.
       -1    1    3    3    0  502  0.11301512492E+03  0.15276114494E+02 -0.13019771667E+04  0.13069622492E+04  0.50400001928E-02 0.  1.
</event>
<event>
 5   0  0.3042125E-05  0.1599441E+04  0.7818609E-02  0.8820891E-01
       -3   -1    0    0    0  501  0.00000000000E+00  0.00000000000E+00  0.43589993000E+03  0.43589994171E+03  0.10100000352E+00 0.  1.
        3   -1    0    0  501    0  0.00000000000E+00  0.00000000000E+00 -0.14672013888E+04  0.14672013923E+04  0.10100000352E+00 0. -1.
    10030    2    1    2    0    0  0.00000000000E+00  0.00000000000E+00 -0.10313014588E+04  0.19031013340E+04  0.15994411488E+04 0.  0.
        3    1    3    3  502    0 -0.49652075953E+03  0.24663580395E+03 -0.12014349942E+04  0.13231810684E+04  0.10100000352E+00 0. -1.
       -3    1    3    3    0  502  0.49652075953E+03 -0.24663580395E+03  0.17013353531E+03  0.57992026561E+03  0.10100000352E+00 0.  1.
</event>
<event>
 5   0  0.7901257E-05  0.1599540E+04  0.7818609E-02  0.8820831E-01
        2   -1    0    0  501    0  0.00000000000E+00  0.00000000000E+00  0.13793545724E+04  0.13793545724E+04  0.25500000920E-02 0. -1.
       -2   -1    0    0    0  501  0.00000000000E+00  0.00000000000E+00 -0.46371827148E+03  0.46371827149E+03  0.25500000920E-02 0.  1.
    10030    2    1    2    0    0  0.00000000000E+00  0.00000000000E+00  0.91563630095E+03  0.18430728439E+04  0.15995398314E+04 0.  0.
        2    1    3    3  502    0  0.11738285839E+03  0.88609392436E+02  0.13636388191E+04  0.13715470057E+04  0.25500000920E-02 0. -1.
       -2    1    3    3    0  502 -0.11738285839E+03 -0.88609392436E+02 -0.44800251813E+03  0.47152583824E+03  0.25500000920E-02 0.  1.
</event>
<event>
 5   0  0.4373026E-05  0.1604102E+04  0.7818609E-02  0.8818032E-01
       -1   -1    0    0    0  501  0.00000000000E+00  0.00000000000E+00  0.59522281961E+03  0.59522281963E+03  0.50400001928E-02 0.  1.
        1   -1    0    0  501    0  0.00000000000E+00  0.00000000000E+00 -0.10807475688E+04  0.10807475688E+04  0.50400001928E-02 0. -1.
    10030    2    1    2    0    0  0.00000000000E+00  0.00000000000E+00 -0.48552474920E+03  0.16759703884E+04  0.16041017614E+04 0.  0.
        4    1    3    3  502    0 -0.53350985653E+03 -0.20250478690E+03 -0.83161159147E+03  0.10085734518E+04  0.12699999809E+01 0. -1.
       -4    1    3    3    0  502  0.53350985653E+03  0.20250478690E+03  0.34608684227E+03  0.66739693663E+03  0.12699999809E+01 0.  1.
</event>
<event>
 5   0  0.4314657E-05  0.1600209E+04  0.7818609E-02  0.8820419E-01
       -1   -1    0    0    0  501  0.00000000000E+00  0.00000000000E+00  0.96409192936E+03  0.96409192937E+03  0.50400001928E-02 0.  1.
        1   -1    0    0  501    0  0.00000000000E+00  0.00000000000E+00 -0.66401077850E+03  0.66401077852E+03  0.50400001928E-02 0. -1.
    10030    2    1    2    0    0  0.00000000000E+00  0.00000000000E+00  0.30008115086E+03  0.16281027079E+04  0.16002092770E+04 0.  0.
        5    1    3    3  502    0 -0.47281559107E+03  0.59409585992E+03 -0.10662821512E+03  0.76674385566E+03  0.46999998093E+01 0. -1.
       -5    1    3    3    0  502  0.47281559107E+03 -0.59409585992E+03  0.40670936598E+03  0.86135885223E+03  0.46999998093E+01 0.  1.
</event>
<event>
 5   0  0.8694033E-05  0.1592655E+04  0.7818609E-02  0.8825073E-01
       -2   -1    0    0    0  501  0.00000000000E+00  0.00000000000E+00  0.52750302046E+03  0.52750302046E+03  0.25500000920E-02 0.  1.
        2   -1    0    0  501    0  0.00000000000E+00  0.00000000000E+00 -0.12021487913E+04  0.12021487913E+04  0.25500000920E-02 0. -1.
    10030    2    1    2    0    0  0.00000000000E+00  0.00000000000E+00 -0.67464577083E+03  0.17296518118E+04  0.15926545369E+04 0.  0.
        1    1    3    3  502    0 -0.35191413297E+03 -0.65643129474E+03 -0.64332480615E+03  0.98418108493E+03  0.50400001928E-02 0. -1.
       -1    1    3    3    0  502  0.35191413297E+03  0.65643129474E+03 -0.31320964682E+02  0.74547072682E+03  0.50400001928E-02 0.  1.
</event>
<event>
 5   0  0.4256406E-05  0.1602921E+04  0.7818609E-02  0.8818755E-01
       -1   -1    0    0    0  501  0.00000000000E+00  0.00000000000E+00  0.43641915295E+03  0.43641915298E+03  0.50400001928E-02 0. -1.
        1   -1    0    0  501    0  0.00000000000E+00  0.00000000000E+00 -0.14718403716E+04  0.14718403716E+04  0.50400001928E-02 0.  1.
    10030    2    1    2    0    0  0.00000000000E+00  0.00000000000E+00 -0.10354212187E+04  0.19082595246E+04  0.16029214931E+04 0.  0.
        3    1    3    3  502    0 -0.60638544371E+03 -0.25095071559E+03  0.29991389602E+02  0.65694677231E+03  0.10100000352E+00 0. -1.
       -3    1    3    3    0  502  0.60638544371E+03  0.25095071559E+03 -0.10654126083E+04  0.12513127523E+04  0.10100000352E+00 0.  1.
</event>
<event>
 5   0  0.7901257E-05  0.1602454E+04  0.7818609E-02  0.8819042E-01
        2   -1    0    0  501    0  0.00000000000E+00  0.00000000000E+00  0.12148188795E+04  0.12148188795E+04  0.25500000920E-02 0. -1.
       -2   -1    0    0    0  501  0.00000000000E+00  0.00000000000E+00 -0.52844504965E+03  0.52844504966E+03  0.25500000920E-02 0.  1.
    10030    2    1    2    0    0  0.00000000000E+00  0.00000000000E+00  0.68637382989E+03  0.17432639292E+04  0.16024543964E+04 0.  0.
        2    1    3    3  502    0 -0.31577410337E+03 -0.69002125073E+03  0.62292513663E+03  0.98177305762E+03  0.25500000920E-02 0. -1.
       -2    1    3    3    0  502  0.31577410337E+03  0.69002125073E+03  0.63448693257E+02  0.76149087158E+03  0.25500000920E-02 0.  1.
</event>
<event>
 5   0  0.7901257E-05  0.1601642E+04  0.7818609E-02  0.8819540E-01
        2   -1    0    0  501    0  0.00000000000E+00  0.00000000000E+00  0.18733730759E+04  0.18733730759E+04  0.25500000920E-02 0. -1.
       -2   -1    0    0    0  501  0.00000000000E+00  0.00000000000E+00 -0.34233127038E+03  0.34233127038E+03  0.25500000920E-02 0.  1.
    10030    2    1    2    0    0  0.00000000000E+00  0.00000000000E+00  0.15310418055E+04  0.22157043463E+04  0.16016418888E+04 0.  0.
        2    1    3    3  502    0  0.79382551231E+02  0.52379516540E+03 -0.65266865740E+02  0.53378153631E+03  0.25500000920E-02 0.  1.
       -2    1    3    3    0  502 -0.79382551231E+02 -0.52379516540E+03  0.15963086712E+04  0.16819228099E+04  0.25500000920E-02 0. -1.
</event>
<event>
 5   0  0.7901257E-05  0.1602172E+04  0.7818609E-02  0.8819215E-01
        2   -1    0    0  501    0  0.00000000000E+00  0.00000000000E+00  0.13954790235E+04  0.13954790235E+04  0.25500000920E-02 0. -1.
       -2   -1    0    0    0  501  0.00000000000E+00  0.00000000000E+00 -0.45986970459E+03  0.45986970460E+03  0.25500000920E-02 0.  1.
    10030    2    1    2    0    0  0.00000000000E+00  0.00000000000E+00  0.93560931894E+03  0.18553487281E+04  0.16021716841E+04 0.  0.
        2    1    3    3  502    0 -0.22862999033E+03  0.27531171874E+03 -0.36215834014E+03  0.50914327875E+03  0.25500000920E-02 0.  1.
       -2    1    3    3    0  502  0.22862999033E+03 -0.27531171874E+03  0.12977676591E+04  0.13462054494E+04  0.25500000920E-02 0. -1.
</event>
<event>
 5   0  0.8037548E-05  0.1599165E+04  0.7818609E-02  0.8821061E-01
       -2   -1    0    0    0  501  0.00000000000E+00  0.00000000000E+00  0.73045150470E+03  0.73045150471E+03  0.25500000920E-02 0.  1.
        2   -1    0    0  501    0  0.00000000000E+00  0.00000000000E+00 -0.87525636258E+03  0.87525636259E+03  0.25500000920E-02 0. -1.
    10030    2    1    2    0    0  0.00000000000E+00  0.00000000000E+00 -0.14480485788E+03  0.16057078673E+04  0.15991651910E+04 0.  0.
        5    1    3    3  502    0  0.27867261427E+03  0.71260917432E+03 -0.30538618113E+03  0.82386471637E+03  0.46999998093E+01 0. -1.
       -5    1    3    3    0  502 -0.27867261427E+03 -0.71260917432E+03  0.16058132325E+03  0.78184315092E+03  0.46999998093E+01 0.  1.
</event>
<event>
 5   0  0.8694033E-05  0.1597482E+04  0.7818609E-02  0.8822097E-01
        2   -1    0    0  501    0  0.00000000000E+00  0.00000000000E+00  0.98013868191E+03  0.98013868191E+03  0.25500000920E-02 0.  1.
       -2   -1    0    0    0  501  0.00000000000E+00  0.00000000000E+00 -0.65091500560E+03  0.65091500560E+03  0.25500000920E-02 0. -1.
    10030    2    1    2    0    0  0.00000000000E+00  0.00000000000E+00  0.32922367631E+03  0.16310536875E+04  0.15974817378E+04 0.  0.
        1    1    3    3  502    0  0.34826957414E+03  0.66715025335E+03 -0.10860440289E+03  0.76037890105E+03  0.50400001928E-02 0.  1.
       -1    1    3    3    0  502 -0.34826957414E+03 -0.66715025335E+03  0.43782807921E+03  0.87067478646E+03  0.50400001928E-02 0. -1.
</event>
<event>
 5   0  0.8037548E-05  0.1599641E+04  0.7818609E-02  0.8820769E-01
        2   -1    0    0  501    0  0.00000000000E+00  0.00000000000E+00  0.99900885003E+03  0.99900885003E+03  0.25500000920E-02 0.  1.
       -2   -1    0    0    0  501  0.00000000000E+00  0.00000000000E+00 -0.64034713174E+03  0.64034713174E+03  0.25500000920E-02 0. -1.
    10030    2    1    2    0    0  0.00000000000E+00  0.00000000000E+00  0.35866171829E+03  0.16393559818E+04  0.15996405242E+04 0.  0.
        5    1    3    3  502    0  0.20327063957E+03  0.60885836971E+03  0.66831750467E+03  0.92665950830E+03  0.46999998093E+01 0.  1.
       -5    1    3    3    0  502 -0.20327063957E+03 -0.60885836971E+03 -0.30965578638E+03  0.71269647348E+03  0.46999998093E+01 0. -1.
</event>
<event>
 5   0  0.4373026E-05  0.1596472E+04  0.7818609E-02  0.8822718E-01
        1   -1    0    0  501    0  0.00000000000E+00  0.00000000000E+00  0.14755937997E+04  0.14755937997E+04  0.50400001928E-02 0.  1.
       -1   -1    0    0    0  501  0.00000000000E+00  0.00000000000E+00 -0.43181315924E+03  0.43181315927E+03  0.50400001928E-02 0. -1.
    10030    2    1    2    0    0  0.00000000000E+00  0.00000000000E+00  0.10437806404E+04  0.19074069589E+04  0.15964721362E+04 0.  0.
        4    1    3    3  502    0 -0.15136048308E+03 -0.78372625573E+03  0.52966710069E+03  0.95795912763E+03  0.12699999809E+01 0. -1.
       -4    1    3    3    0  502  0.15136048308E+03  0.78372625573E+03  0.51411353973E+03  0.94944783131E+03  0.12699999809E+01 0.  1.
</event>
<event>
 5   0  0.4314657E-05  0.1603370E+04  0.7818609E-02  0.8818480E-01
        1   -1    0    0  501    0  0.00000000000E+00  0.00000000000E+00  0.15757010362E+04  0.15757010362E+04  0.50400001928E-02 0.  1.
       -1   -1    0    0    0  501  0.00000000000E+00  0.00000000000E+00 -0.40788136876E+03  0.40788136879E+03  0.50400001928E-02 0. -1.
    10030    2    1    2    0    0  0.00000000000E+00  0.00000000000E+00  0.11678196675E+04  0.19835824050E+04  0.16033703196E+04 0.  0.
        5    1    3    3  502    0 -0.54124045388E+03  0.71565591489E+02 -0.14233483209E+03  0.56421995465E+03  0.46999998093E+01 0. -1.
       -5    1    3    3    0  502  0.54124045388E+03 -0.71565591489E+02  0.13101544996E+04  0.14193624504E+04  0.46999998093E+01 0.  1.
</event>
<event>
 5   0  0.8620155E-05  0.1605392E+04  0.7818609E-02  0.8817242E-01
        2   -1    0    0  501    0  0.00000000000E+00  0.00000000000E+00  0.86673018309E+03  0.86673018310E+03  0.25500000920E-02 0.  1.
       -2   -1    0    0    0  501  0.00000000000E+00  0.00000000000E+00 -0.74339275652E+03  0.74339275653E+03  0.25500000920E-02 0. -1.
    10030    2    1    2    0    0  0.00000000000E+00  0.00000000000E+00  0.12333742657E+03  0.16101229396E+04  0.16053920891E+04 0.  0.
        4    1    3    3  502    0  0.32052958976E+03 -0.33629248345E+03 -0.59484981101E+03  0.75477133153E+03  0.12699999809E+01 0. -1.
       -4    1    3    3    0  502 -0.32052958976E+03  0.33629248345E+03  0.71818723758E+03  0.85535160809E+03  0.12699999809E+01 0.  1.
</event>
<event>
 5   0  0.7901257E-05  0.1595943E+04  0.7818609E-02  0.8823044E-01
       -2   -1    0    0    0  501  0.00000000000E+00  0.00000000000E+00  0.32939634456E+03  0.32939634457E+03  0.25500000920E-02 0.  1.
        2   -1    0    0  501    0  0.00000000000E+00  0.00000000000E+00 -0.19331068091E+04  0.19331068091E+04  0.25500000920E-02 0. -1.
    10030    2    1    2    0    0  0.00000000000E+00  0.00000000000E+00 -0.16037104646E+04  0.22625031537E+04  0.15959427516E+04 0.  0.
        2    1    3    3  502    0  0.15591740352E+03 -0.49498095717E+03 -0.16611976364E+04  0.17403717913E+04  0.25500000920E-02 0. -1.
       -2    1    3    3    0  502 -0.15591740352E+03  0.49498095717E+03  0.57487171844E+02  0.52213136241E+03  0.25500000920E-02 0.  1.
</event>
<event>
 5   0  0.4314657E-05  0.1576989E+04  0.7818609E-02  0.8834811E-01
       -1   -1    0    0    0  501  0.00000000000E+00  0.00000000000E+00  0.45386562443E+03  0.45386562446E+03  0.50400001928E-02 0. -1.
        1   -1    0    0  501    0  0.00000000000E+00  0.00000000000E+00 -0.13698404718E+04  0.13698404718E+04  0.50400001928E-02 0.  1.
    10030    2    1    2    0    0  0.00000000000E+00  0.00000000000E+00 -0.91597484734E+03  0.18237060962E+04  0.15769889044E+04 0.  0.
        5    1    3    3  502    0 -0.35995399665E+03  0.16447945175E+03 -0.12466487237E+04  0.13079661693E+04  0.46999998093E+01 0.  1.
       -5    1    3    3    0  502  0.35995399665E+03 -0.16447945175E+03  0.33067387635E+03  0.51573992695E+03  0.46999998093E+01 0. -1.
</event>
<event>
 5   0  0.4211419E-05  0.1597246E+04  0.7818609E-02  0.8822242E-01
        1   -1    0    0  501    0  0.00000000000E+00  0.00000000000E+00  0.54528727671E+03  0.54528727673E+03  0.50400001928E-02 0.  1.
       -1   -1    0    0    0  501  0.00000000000E+00  0.00000000000E+00 -0.11696566429E+04  0.11696566430E+04  0.50400001928E-02 0. -1.
    10030    2    1    2    0    0  0.00000000000E+00  0.00000000000E+00 -0.62436936623E+03  0.17149439197E+04  0.15972462372E+04 0.  0.
        2    1    3    3  502    0 -0.51961947742E+03 -0.12659803956E+02  0.33882284399E+03  0.62045595457E+03  0.25500000920E-02 0.  1.
       -2    1    3    3    0  502  0.51961947742E+03  0.12659803956E+02 -0.96319221022E+03  0.10944879651E+04  0.25500000920E-02 0. -1.
</event>
<event>
 5   0  0.8037548E-05  0.1591603E+04  0.7818609E-02  0.8825723E-01
       -2   -1    0    0    0  501  0.00000000000E+00  0.00000000000E+00  0.81782097228E+03  0.81782097228E+03  0.25500000920E-02 0. -1.
        2   -1    0    0  501    0  0.00000000000E+00  0.00000000000E+00 -0.77437478232E+03  0.77437478233E+03  0.25500000920E-02 0.  1.
    10030    2    1    2    0    0  0.00000000000E+00  0.00000000000E+00  0.43446189952E+02  0.15921957546E+04  0.15916028869E+04 0.  0.
        5    1    3    3  502    0  0.22730416543E+03  0.65135694244E+02 -0.73840730253E+03  0.77535622569E+03  0.46999998093E+01 0.  1.
       -5    1    3    3    0  502 -0.22730416543E+03 -0.65135694244E+02  0.78185349249E+03  0.81683952891E+03  0.46999998093E+01 0. -1.
</event>
<event>
 5   0  0.4211419E-05  0.1600617E+04  0.7818609E-02  0.8820169E-01
        1   -1    0    0  501    0  0.00000000000E+00  0.00000000000E+00  0.97437015707E+03  0.97437015708E+03  0.50400001928E-02 0. -1.
       -1   -1    0    0    0  501  0.00000000000E+00  0.00000000000E+00 -0.65734110895E+03  0.65734110897E+03  0.50400001928E-02 0.  1.
    10030    2    1    2    0    0  0.00000000000E+00  0.00000000000E+00  0.31702904812E+03  0.16317112661E+04  0.16006168306E+04 0.  0.
        2    1    3    3  502    0 -0.18311821244E+03  0.40510788094E+03 -0.51988215069E+03  0.68404833567E+03  0.25500000920E-02 0.  1.
       -2    1    3    3    0  502  0.18311821244E+03 -0.40510788094E+03  0.83691119881E+03  0.94766293038E+03  0.25500000920E-02 0. -1.
</event>
<event>
 5   0  0.4256406E-05  0.1594957E+04  0.7818609E-02  0.8823652E-01
        1   -1    0    0  501    0  0.00000000000E+00  0.00000000000E+00  0.46857953126E+03  0.46857953129E+03  0.50400001928E-02 0. -1.
       -1   -1    0    0    0  501  0.00000000000E+00  0.00000000000E+00 -0.13572335336E+04  0.13572335336E+04  0.50400001928E-02 0.  1.
    10030    2    1    2    0    0  0.00000000000E+00  0.00000000000E+00 -0.88865400232E+03  0.18258130649E+04  0.15949568684E+04 0.  0.
        3    1    3    3  502    0 -0.35325158760E+03  0.72568655010E+02 -0.12585583895E+04  0.13092066773E+04  0.10100000352E+00 0.  1.
       -3    1    3    3    0  502  0.35325158760E+03 -0.72568655010E+02  0.36990438720E+03  0.51660638759E+03  0.10100000352E+00 0. -1.
</event>
<event>
 5   0  0.4504463E-05  0.1598832E+04  0.7818609E-02  0.8821266E-01
        1   -1    0    0  501    0  0.00000000000E+00  0.00000000000E+00  0.13994078398E+04  0.13994078398E+04  0.50400001928E-02 0.  1.
       -1   -1    0    0    0  501  0.00000000000E+00  0.00000000000E+00 -0.45666899386E+03  0.45666899389E+03  0.50400001928E-02 0. -1.
    10030    2    1    2    0    0  0.00000000000E+00  0.00000000000E+00  0.94273884595E+03  0.18560768337E+04  0.15988322867E+04 0.  0.
        1    1    3    3  502    0 -0.44468421130E+03  0.56596730175E+03  0.67546141999E+02  0.72292843059E+03  0.50400001928E-02 0.  1.
       -1    1    3    3    0  502  0.44468421130E+03 -0.56596730175E+03  0.87519270395E+03  0.11331484031E+04  0.50400001928E-02 0. -1.
</event>
<event>
 5   0  0.8694033E-05  0.1600670E+04  0.7818609E-02  0.8820137E-01
        2   -1    0    0  501    0  0.00000000000E+00  0.00000000000E+00  0.91498982840E+03  0.91498982840E+03  0.25500000920E-02 0.  1.
       -2   -1    0    0    0  501  0.00000000000E+00  0.00000000000E+00 -0.70004725630E+03  0.70004725631E+03  0.25500000920E-02 0. -1.
    10030    2    1    2    0    0  0.00000000000E+00  0.00000000000E+00  0.21494257210E+03  0.16150370847E+04  0.16006700084E+04 0.  0.
        1    1    3    3  502    0  0.52501979430E+03 -0.45476474143E+03 -0.29368932303E+03  0.75412875091E+03  0.50400001928E-02 0. -1.
       -1    1    3    3    0  502 -0.52501979430E+03  0.45476474143E+03  0.50863189512E+03  0.86090833381E+03  0.50400001928E-02 0.  1.
</event>
<event>
 5   0  0.3042125E-05  0.1603348E+04  0.7818609E-02  0.8818494E-01
        3   -1    0    0  501    0  0.00000000000E+00  0.00000000000E+00  0.66950804608E+03  0.66950805370E+03  0.10100000352E+00 0.  1.
       -3   -1    0    0    0  501  0.00000000000E+00  0.00000000000E+00 -0.95993012047E+03  0.95993012578E+03  0.10100000352E+00 0. -1.
    10030    2    1    2    0    0  0.00000000000E+00  0.00000000000E+00 -0.29042207439E+03  0.16294381795E+04  0.16033476851E+04 0.  0.
        5    1    3    3  502    0 -0.19756055234E+03 -0.75487152394E+03  0.41621951875E+02  0.78141900820E+03  0.46999998093E+01 0.  1.
       -5    1    3    3    0  502  0.19756055234E+03  0.75487152394E+03 -0.33204402626E+03  0.84801917129E+03  0.46999998093E+01 0. -1.
</event>
<event>
 5   0  0.7849690E-05  0.1603889E+04  0.7818609E-02  0.8818162E-01
       -2   -1    0    0    0  501  0.00000000000E+00  0.00000000000E+00  0.13749418471E+04  0.13749418471E+04  0.25500000920E-02 0. -1.
        2   -1    0    0  501    0  0.00000000000E+00  0.00000000000E+00 -0.46773980078E+03  0.46773980079E+03  0.25500000920E-02 0.  1.
    10030    2    1    2    0    0  0.00000000000E+00  0.00000000000E+00  0.90720204630E+03  0.18426816479E+04  0.16038890556E+04 0.  0.
        3    1    3    3  502    0 -0.27916916144E+03 -0.67315741060E+02  0.13138441218E+04  0.13448617834E+04  0.10100000352E+00 0. -1.
       -3    1    3    3    0  502  0.27916916144E+03  0.67315741060E+02 -0.40664207553E+03  0.49781986450E+03  0.10100000352E+00 0.  1.
</event>
<event>
 5   0  0.8037548E-05  0.1597831E+04  0.7818609E-02  0.8821882E-01
        2   -1    0    0  501    0  0.00000000000E+00  0.00000000000E+00  0.14014937698E+04  0.14014937698E+04  0.25500000920E-02 0.  1.
       -2   -1    0    0    0  501  0.00000000000E+00  0.00000000000E+00 -0.45541844823E+03  0.45541844823E+03  0.25500000920E-02 0. -1.
    10030    2    1    2    0    0  0.00000000000E+00  0.00000000000E+00  0.94607532153E+03  0.18569122180E+04  0.15978311774E+04 0.  0.
        5    1    3    3  502    0 -0.72593600151E+03  0.30449255560E+03  0.63129965409E+03  0.10090887661E+04  0.46999998093E+01 0. -1.
       -5    1    3    3    0  502  0.72593600151E+03 -0.30449255560E+03  0.31477566744E+03  0.84782345185E+03  0.46999998093E+01 0.  1.
</event>
<event>
 5   0  0.8620155E-05  0.1602291E+04  0.7818609E-02  0.8819142E-01
        2   -1    0    0  501    0  0.00000000000E+00  0.00000000000E+00  0.23619470942E+04  0.23619470942E+04  0.25500000920E-02 0. -1.
       -2   -1    0    0    0  501  0.00000000000E+00  0.00000000000E+00 -0.27173933910E+03  0.27173933911E+03  0.25500000920E-02 0.  1.
    10030    2    1    2    0    0  0.00000000000E+00  0.00000000000E+00  0.20902077551E+04  0.26336864333E+04  0.16022907881E+04 0.  0.
        4    1    3    3  502    0 -0.59685259923E+03  0.19535117773E+03  0.22747683697E+03  0.66793894340E+03  0.12699999809E+01 0.  1.
       -4    1    3    3    0  502  0.59685259923E+03 -0.19535117773E+03  0.18627309181E+04  0.19657474899E+04  0.12699999809E+01 0. -1.
</event>
<event>
 5   0  0.8694033E-05  0.1599118E+04  0.7818609E-02  0.8821090E-01
       -2   -1    0    0    0  501  0.00000000000E+00  0.00000000000E+00  0.39974628972E+03  0.39974628972E+03  0.25500000920E-02 0. -1.
        2   -1    0    0  501    0  0.00000000000E+00  0.00000000000E+00 -0.15992515556E+04  0.15992515556E+04  0.25500000920E-02 0.  1.
    10030    2    1    2    0    0  0.00000000000E+00  0.00000000000E+00 -0.11995052659E+04  0.19989978453E+04  0.15991183517E+04 0.  0.
        1    1    3    3  502    0 -0.17521790640E+03  0.83197898698E+02  0.36988954950E+03  0.41766192540E+03  0.50400001928E-02 0. -1.
       -1    1    3    3    0  502  0.17521790640E+03 -0.83197898698E+02 -0.15693948154E+04  0.15813359199E+04  0.50400001928E-02 0.  1.
</event>
<event>
 5   0  0.4211419E-05  0.1592974E+04  0.7818609E-02  0.8824876E-01
        1   -1    0    0  501    0  0.00000000000E+00  0.00000000000E+00  0.15649909555E+04  0.15649909555E+04  0.50400001928E-02 0.  1.
       -1   -1    0    0    0  501  0.00000000000E+00  0.00000000000E+00 -0.40536421911E+03  0.40536421914E+03  0.50400001928E-02 0. -1.
    10030    2    1    2    0    0  0.00000000000E+00  0.00000000000E+00  0.11596267364E+04  0.19703551746E+04  0.15929737432E+04 0.  0.
        2    1    3    3  502    0  0.26545320106E+03  0.37513563742E+03  0.13844657744E+04  0.14587452241E+04  0.25500000920E-02 0.  1.
       -2    1    3    3    0  502 -0.26545320106E+03 -0.37513563742E+03 -0.22483903805E+03  0.51160995050E+03  0.25500000920E-02 0. -1.
</event>
<event>
 5   0  0.4256406E-05  0.1602091E+04  0.7818609E-02  0.8819264E-01
       -1   -1    0    0    0  501  0.00000000000E+00  0.00000000000E+00  0.84726922356E+03  0.84726922358E+03  0.50400001928E-02 0.  1.
        1   -1    0    0  501    0  0.00000000000E+00  0.00000000000E+00 -0.75734373494E+03  0.75734373496E+03  0.50400001928E-02 0. -1.
    10030    2    1    2    0    0  0.00000000000E+00  0.00000000000E+00  0.89925488623E+02  0.16046129585E+04  0.16020911813E+04 0.  0.
        3    1    3    3  502    0 -0.58537970461E+03  0.22252538952E+03  0.54523578047E+03  0.83034270880E+03  0.10100000352E+00 0.  1.
       -3    1    3    3    0  502  0.58537970461E+03 -0.22252538952E+03 -0.45531029185E+03  0.77427024973E+03  0.10100000352E+00 0. -1.
</event>
<event>
 5   0  0.7849690E-05  0.1614172E+04  0.7818609E-02  0.8811889E-01
        2   -1    0    0  501    0  0.00000000000E+00  0.00000000000E+00  0.10257844320E+04  0.10257844320E+04  0.25500000920E-02 0.  1.
       -2   -1    0    0    0  501  0.00000000000E+00  0.00000000000E+00 -0.63501415968E+03  0.63501415969E+03  0.25500000920E-02 0. -1.
    10030    2    1    2    0    0  0.00000000000E+00  0.00000000000E+00  0.39077027228E+03  0.16607985917E+04  0.16141717865E+04 0.  0.
        3    1    3    3  502    0  0.64118844996E+03  0.30470895055E+03  0.59042568122E+03  0.92334861680E+03  0.10100000352E+00 0.  1.
       -3    1    3    3    0  502 -0.64118844996E+03 -0.30470895055E+03 -0.19965540894E+03  0.73744997486E+03  0.10100000352E+00 0. -1.
</event>
<event>
 5   0  0.7849690E-05  0.1642179E+04  0.7818609E-02  0.8795047E-01
        2   -1    0    0  501    0  0.00000000000E+00  0.00000000000E+00  0.10887982635E+04  0.10887982635E+04  0.25500000920E-02 0. -1.
       -2   -1    0    0    0  501  0.00000000000E+00  0.00000000000E+00 -0.61920352252E+03  0.61920352252E+03  0.25500000920E-02 0.  1.
    10030    2    1    2    0    0  0.00000000000E+00  0.00000000000E+00  0.46959474098E+03  0.17080017860E+04  0.16421786993E+04 0.  0.
        3    1    3    3  502    0 -0.19803519660E+03  0.51211780888E+03  0.86976353803E+03  0.10285772754E+04  0.10100000352E+00 0. -1.
       -3    1    3    3    0  502  0.19803519660E+03 -0.51211780888E+03 -0.40016879705E+03  0.67942451059E+03  0.10100000352E+00 0.  1.
</event>
<event>
 5   0  0.4211419E-05  0.1604796E+04  0.7818609E-02  0.8817607E-01
        1   -1    0    0  501    0  0.00000000000E+00  0.00000000000E+00  0.68968947271E+03  0.68968947273E+03  0.50400001928E-02 0. -1.
       -1   -1    0    0    0  501  0.00000000000E+00  0.00000000000E+00 -0.93352557326E+03  0.93352557328E+03  0.50400001928E-02 0.  1.
    10030    2    1    2    0    0  0.00000000000E+00  0.00000000000E+00 -0.24383610055E+03  0.16232150460E+04  0.16047962617E+04 0.  0.
        2    1    3    3  502    0 -0.53281447886E+03  0.41269649921E+03 -0.56238488932E+03  0.87777356595E+03  0.25500000920E-02 0.  1.
       -2    1    3    3    0  502  0.53281447886E+03 -0.41269649921E+03  0.31854878877E+03  0.74544148005E+03  0.25500000920E-02 0. -1.
</event>
<event>
 5   0  0.4504463E-05  0.1598021E+04  0.7818609E-02  0.8821765E-01
       -1   -1    0    0    0  501  0.00000000000E+00  0.00000000000E+00  0.55186359835E+03  0.55186359837E+03  0.50400001928E-02 0. -1.
        1   -1    0    0  501    0  0.00000000000E+00  0.00000000000E+00 -0.11568399818E+04  0.11568399819E+04  0.50400001928E-02 0.  1.
    10030    2    1    2    0    0  0.00000000000E+00  0.00000000000E+00 -0.60497638350E+03  0.17087035802E+04  0.15980211202E+04 0.  0.
        1    1    3    3  502    0  0.16922433846E+03 -0.75839110301E+03 -0.10352514834E+03  0.78390777405E+03  0.50400001928E-02 0.  1.
       -1    1    3    3    0  502 -0.16922433846E+03  0.75839110301E+03 -0.50145123516E+03  0.92479580618E+03  0.50400001928E-02 0. -1.
</event>
<event>
 5   0  0.8037548E-05  0.1599080E+04  0.7818609E-02  0.8821114E-01
        2   -1    0    0  501    0  0.00000000000E+00  0.00000000000E+00  0.16389720025E+04  0.16389720025E+04  0.25500000920E-02 0.  1.
       -2   -1    0    0    0  501  0.00000000000E+00  0.00000000000E+00 -0.39003960284E+03  0.39003960285E+03  0.25500000920E-02 0. -1.
    10030    2    1    2    0    0  0.00000000000E+00  0.00000000000E+00  0.12489323996E+04  0.20290116053E+04  0.15990797215E+04 0.  0.
        5    1    3    3  502    0 -0.72512143138E+03  0.72517283861E+02  0.10418081327E+04  0.12713953445E+04  0.46999998093E+01 0.  1.
       -5    1    3    3    0  502  0.72512143138E+03 -0.72517283861E+02  0.20712426695E+03  0.75761626082E+03  0.46999998093E+01 0. -1.
</event>
<event>
 5   0  0.4373026E-05  0.1601524E+04  0.7818609E-02  0.8819612E-01
       -1   -1    0    0    0  501  0.00000000000E+00  0.00000000000E+00  0.79600832128E+03  0.79600832129E+03  0.50400001928E-02 0.  1.
        1   -1    0    0  501    0  0.00000000000E+00  0.00000000000E+00 -0.80554433207E+03  0.80554433208E+03  0.50400001928E-02 0. -1.
    10030    2    1    2    0    0  0.00000000000E+00  0.00000000000E+00 -0.95360107872E+01  0.16015526534E+04  0.16015242633E+04 0.  0.
        4    1    3    3  502    0 -0.53141134155E+03  0.27873288618E+03 -0.53499277849E+03  0.80393340625E+03  0.12699999809E+01 0. -1.
       -4    1    3    3    0  502  0.53141134155E+03 -0.27873288618E+03  0.52545676770E+03  0.79761924712E+03  0.12699999809E+01 0.  1.
</event>
<event>
 5   0  0.4504463E-05  0.1620480E+04  0.7818609E-02  0.8808064E-01
       -1   -1    0    0    0  501  0.00000000000E+00  0.00000000000E+00  0.14064115106E+04  0.14064115106E+04  0.50400001928E-02 0.  1.
        1   -1    0    0  501    0  0.00000000000E+00  0.00000000000E+00 -0.46678303635E+03  0.46678303638E+03  0.50400001928E-02 0. -1.
    10030    2    1    2    0    0  0.00000000000E+00  0.00000000000E+00  0.93962847425E+03  0.18731945470E+04  0.16204802193E+04 0.  0.
        1    1    3    3  502    0  0.15438121686E+03  0.41126647700E+02  0.13880230711E+04  0.13971875347E+04  0.50400001928E-02 0.  1.
       -1    1    3    3    0  502 -0.15438121686E+03 -0.41126647700E+02 -0.44839459682E+03  0.47600701229E+03  0.50400001928E-02 0. -1.
</event>
<event>
 5   0  0.8620155E-05  0.1602189E+04  0.7818609E-02  0.8819204E-01
        2   -1    0    0  501    0  0.00000000000E+00  0.00000000000E+00  0.11018335420E+04  0.11018335420E+04  0.25500000920E-02 0. -1.
       -2   -1    0    0    0  501  0.00000000000E+00  0.00000000000E+00 -0.58244077723E+03  0.58244077724E+03  0.25500000920E-02 0.  1.
    10030    2    1    2    0    0  0.00000000000E+00  0.00000000000E+00  0.51939276480E+03  0.16842743193E+04  0.16021894827E+04 0.  0.
        4    1    3    3  502    0 -0.18874311538E+03  0.71039657274E+03 -0.75157056588E+02  0.73887580162E+03  0.12699999809E+01 0. -1.
       -4    1    3    3    0  502  0.18874311538E+03 -0.71039657274E+03  0.59454982138E+03  0.94539851765E+03  0.12699999809E+01 0.  1.
</event>
<event>
 5   0  0.4256406E-05  0.1611451E+04  0.7818609E-02  0.8813544E-01
        1   -1    0    0  501    0  0.00000000000E+00  0.00000000000E+00  0.10968609483E+04  0.10968609483E+04  0.50400001928E-02 0.  1.
       -1   -1    0    0    0  501  0.00000000000E+00  0.00000000000E+00 -0.59186528919E+03  0.59186528921E+03  0.50400001928E-02 0. -1.
    10030    2    1    2    0    0  0.00000000000E+00  0.00000000000E+00  0.50499565912E+03  0.16887262375E+04  0.16114514233E+04 0.  0.
        3    1    3    3  502    0  0.23792469567E+03  0.21717346606E+03  0.10264393285E+04  0.10758021103E+04  0.10100000352E+00 0.  1.
       -3    1    3    3    0  502 -0.23792469567E+03 -0.21717346606E+03 -0.52144366942E+03  0.61292412723E+03  0.10100000352E+00 0. -1.
</event>
<event>
 5   0  0.4504463E-05  0.1595052E+04  0.7818609E-02  0.8823594E-01
       -1   -1    0    0    0  501  0.00000000000E+00  0.00000000000E+00  0.55420342724E+03  0.55420342726E+03  0.50400001928E-02 0. -1.
        1   -1    0    0  501    0  0.00000000000E+00  0.00000000000E+00 -0.11476790801E+04  0.11476790801E+04  0.50400001928E-02 0.  1.
    10030    2    1    2    0    0  0.00000000000E+00  0.00000000000E+00 -0.59347565286E+03  0.17018825074E+04  0.15950519485E+04 0.  0.
        1    1    3    3  502    0  0.48577386812E+03 -0.62914362337E+03 -0.36629395498E+03  0.87519667004E+03  0.50400001928E-02 0.  1.
       -1    1    3    3    0  502 -0.48577386812E+03  0.62914362337E+03 -0.22718169788E+03  0.82668583733E+03  0.50400001928E-02 0. -1.
</event>
<event>
 5   0  0.4504463E-05  0.1598387E+04  0.7818609E-02  0.8821539E-01
       -1   -1    0    0    0  501  0.00000000000E+00  0.00000000000E+00  0.17219604408E+04  0.17219604408E+04  0.50400001928E-02 0. -1.
        1   -1    0    0  501    0  0.00000000000E+00  0.00000000000E+00 -0.37092061679E+03  0.37092061683E+03  0.50400001928E-02 0.  1.
    10030    2    1    2    0    0  0.00000000000E+00  0.00000000000E+00  0.13510398240E+04  0.20928810576E+04  0.15983874735E+04 0.  0.
        1    1    3    3  502    0 -0.74436458863E+03 -0.26901159358E+03  0.82052787073E+03  0.11400490625E+04  0.50400001928E-02 0. -1.
       -1    1    3    3    0  502  0.74436458863E+03  0.26901159358E+03  0.53051195324E+03  0.95283199508E+03  0.50400001928E-02 0.  1.
</event>
<event>
 5   0  0.4314657E-05  0.1602437E+04  0.7818609E-02  0.8819052E-01
        1   -1    0    0  501    0  0.00000000000E+00  0.00000000000E+00  0.14418624864E+04  0.14418624864E+04  0.50400001928E-02 0.  1.
       -1   -1    0    0    0  501  0.00000000000E+00  0.00000000000E+00 -0.44522340244E+03  0.44522340247E+03  0.50400001928E-02 0. -1.
    10030    2    1    2    0    0  0.00000000000E+00  0.00000000000E+00  0.99663908391E+03  0.18870858888E+04  0.16024367970E+04 0.  0.
        5    1    3    3  502    0 -0.54875109627E+03 -0.49498899538E+03  0.86279136157E+03  0.11360338440E+04  0.46999998093E+01 0.  1.
       -5    1    3    3    0  502  0.54875109627E+03  0.49498899538E+03  0.13384772234E+03  0.75105204479E+03  0.46999998093E+01 0. -1.
</event>
<event>
 5   0  0.4314657E-05  0.1598932E+04  0.7818609E-02  0.8821204E-01
       -1   -1    0    0    0  501  0.00000000000E+00  0.00000000000E+00  0.24453572277E+04  0.24453572277E+04  0.50400001928E-02 0.  1.
        1   -1    0    0  501    0  0.00000000000E+00  0.00000000000E+00 -0.26137127505E+03  0.26137127509E+03  0.50400001928E-02 0. -1.
    10030    2    1    2    0    0  0.00000000000E+00  0.00000000000E+00  0.21839859527E+04  0.27067285028E+04  0.15989323145E+04 0.  0.
        5    1    3    3  502    0  0.56149519321E+03 -0.16390719666E+03  0.20145206578E+04  0.20977268630E+04  0.46999998093E+01 0.  1.
       -5    1    3    3    0  502 -0.56149519321E+03  0.16390719666E+03  0.16946529486E+03  0.60900163980E+03  0.46999998093E+01 0. -1.
</event>
<event>
 5   0  0.4211419E-05  0.1600040E+04  0.7818609E-02  0.8820523E-01
       -1   -1    0    0    0  501  0.00000000000E+00  0.00000000000E+00  0.44903615123E+03  0.44903615126E+03  0.50400001928E-02 0.  1.
        1   -1    0    0  501    0  0.00000000000E+00  0.00000000000E+00 -0.14253467835E+04  0.14253467835E+04  0.50400001928E-02 0. -1.
    10030    2    1    2    0    0  0.00000000000E+00  0.00000000000E+00 -0.97631063230E+03  0.18743829348E+04  0.16000402918E+04 0.  0.
        2    1    3    3  502    0  0.39555757776E+03 -0.33144626806E+03 -0.12042899052E+04  0.13102047938E+04  0.25500000920E-02 0. -1.
       -2    1    3    3    0  502 -0.39555757776E+03  0.33144626806E+03  0.22797927288E+03  0.56417814102E+03  0.25500000920E-02 0.  1.
</event>
<event>
 5   0  0.4211419E-05  0.1600314E+04  0.7818609E-02  0.8820355E-01
       -1   -1    0    0    0  501  0.00000000000E+00  0.00000000000E+00  0.49701946672E+03  0.49701946675E+03  0.50400001928E-02 0. -1.
        1   -1    0    0  501    0  0.00000000000E+00  0.00000000000E+00 -0.12881809314E+04  0.12881809314E+04  0.50400001928E-02 0.  1.
    10030    2    1    2    0    0  0.00000000000E+00  0.00000000000E+00 -0.79116146467E+03  0.17852003982E+04  0.16003137187E+04 0.  0.
        2    1    3    3  502    0  0.45839256283E+03  0.48692907520E+03 -0.88568812416E+03  0.11098049915E+04  0.25500000920E-02 0.  1.
       -2    1    3    3    0  502 -0.45839256283E+03 -0.48692907520E+03  0.94526659493E+02  0.67539540663E+03  0.25500000920E-02 0. -1.
</event>
<event>
 5   0  0.4211419E-05  0.1614714E+04  0.7818609E-02  0.8811559E-01
        1   -1    0    0  501    0  0.00000000000E+00  0.00000000000E+00  0.88989892870E+03  0.88989892871E+03  0.50400001928E-02 0. -1.
       -1   -1    0    0    0  501  0.00000000000E+00  0.00000000000E+00 -0.73247089469E+03  0.73247089470E+03  0.50400001928E-02 0.  1.
    10030    2    1    2    0    0  0.00000000000E+00  0.00000000000E+00  0.15742803401E+03  0.16223698234E+04  0.16147136768E+04 0.  0.
        2    1    3    3  502    0  0.35210809847E+02  0.29158405464E+02  0.88859739175E+03  0.88977263297E+03  0.25500000920E-02 0. -1.
       -2    1    3    3    0  502 -0.35210809847E+02 -0.29158405464E+02 -0.73116935774E+03  0.73259719045E+03  0.25500000920E-02 0.  1.
</event>
<event>
 5   0  0.8037548E-05  0.1601355E+04  0.7818609E-02  0.8819716E-01
        2   -1    0    0  501    0  0.00000000000E+00  0.00000000000E+00  0.17174476272E+04  0.17174476272E+04  0.25500000920E-02 0.  1.
       -2   -1    0    0    0  501  0.00000000000E+00  0.00000000000E+00 -0.37327722275E+03  0.37327722276E+03  0.25500000920E-02 0. -1.
    10030    2    1    2    0    0  0.00000000000E+00  0.00000000000E+00  0.13441704044E+04  0.20907248499E+04  0.16013545273E+04 0.  0.
        5    1    3    3  502    0  0.36395018046E+03  0.62777565835E+03  0.11138713491E+04  0.13293959092E+04  0.46999998093E+01 0.  1.
       -5    1    3    3    0  502 -0.36395018046E+03 -0.62777565835E+03  0.23029905529E+03  0.76132894070E+03  0.46999998093E+01 0. -1.
</event>
<event>
 5   0  0.4504463E-05  0.1599351E+04  0.7818609E-02  0.8820947E-01
        1   -1    0    0  501    0  0.00000000000E+00  0.00000000000E+00  0.13340269366E+04  0.13340269366E+04  0.50400001928E-02 0. -1.
       -1   -1    0    0    0  501  0.00000000000E+00  0.00000000000E+00 -0.47936106214E+03  0.47936106216E+03  0.50400001928E-02 0.  1.
    10030    2    1    2    0    0  0.00000000000E+00  0.00000000000E+00  0.85466587444E+03  0.18133879987E+04  0.15993505798E+04 0.  0.
        1    1    3    3  502    0 -0.28643492836E+03 -0.22162601109E+03  0.12357111520E+04  0.12876898339E+04  0.50400001928E-02 0. -1.
       -1    1    3    3    0  502  0.28643492836E+03  0.22162601109E+03 -0.38104527758E+03  0.52569816489E+03  0.50400001928E-02 0.  1.
</event>
<event>
 5   0  0.3042125E-05  0.1600795E+04  0.7818609E-02  0.8820060E-01
       -3   -1    0    0    0  501  0.00000000000E+00  0.00000000000E+00  0.11460308691E+04  0.11460308735E+04  0.10100000352E+00 0.  1.
        3   -1    0    0  501    0  0.00000000000E+00  0.00000000000E+00 -0.55900432200E+03  0.55900433112E+03  0.10100000352E+00 0. -1.
    10030    2    1    2    0    0  0.00000000000E+00  0.00000000000E+00  0.58702654706E+03  0.17050352046E+04  0.16007950781E+04 0.  0.
        4    1    3    3  502    0 -0.60422254516E+03  0.50624184939E+03  0.44136493983E+03  0.90342145046E+03  0.12699999809E+01 0. -1.
       -4    1    3    3    0  502  0.60422254516E+03 -0.50624184939E+03  0.14566160723E+03  0.80161375417E+03  0.12699999809E+01 0.  1.
</event>
<event>
 5   0  0.7849690E-05  0.1610101E+04  0.7818609E-02  0.8814366E-01
       -2   -1    0    0    0  501  0.00000000000E+00  0.00000000000E+00  0.49181034639E+03  0.49181034639E+03  0.25500000920E-02 0. -1.
        2   -1    0    0  501    0  0.00000000000E+00  0.00000000000E+00 -0.13177977051E+04  0.13177977051E+04  0.25500000920E-02 0.  1.
    10030    2    1    2    0    0  0.00000000000E+00  0.00000000000E+00 -0.82598735872E+03  0.18096080515E+04  0.16101012960E+04 0.  0.
        3    1    3    3  502    0  0.23753763880E+03 -0.76213746866E+03 -0.52994986180E+03  0.95818814290E+03  0.10100000352E+00 0.  1.
       -3    1    3    3    0  502 -0.23753763880E+03  0.76213746866E+03 -0.29603749693E+03  0.85141990860E+03  0.10100000352E+00 0. -1.
</event>
<event>
 5   0  0.4373026E-05  0.1608148E+04  0.7818609E-02  0.8815558E-01
       -1   -1    0    0    0  501  0.00000000000E+00  0.00000000000E+00  0.43083779260E+03  0.43083779263E+03  0.50400001928E-02 0.  1.
        1   -1    0    0  501    0  0.00000000000E+00  0.00000000000E+00 -0.15006451076E+04  0.15006451076E+04  0.50400001928E-02 0. -1.
    10030    2    1    2    0    0  0.00000000000E+00  0.00000000000E+00 -0.10698073150E+04  0.19314829002E+04  0.16081475376E+04 0.  0.
        4    1    3    3  502    0 -0.69133815040E+03 -0.35682793858E+03 -0.29094223792E+03  0.83061640644E+03  0.12699999809E+01 0.  1.
       -4    1    3    3    0  502  0.69133815040E+03  0.35682793858E+03 -0.77886507704E+03  0.11008664938E+04  0.12699999809E+01 0. -1.
</event>
<event>
 5   0  0.8620155E-05  0.1601344E+04  0.7818609E-02  0.8819723E-01
       -2   -1    0    0    0  501  0.00000000000E+00  0.00000000000E+00  0.34827772953E+03  0.34827772954E+03  0.25500000920E-02 0. -1.
        2   -1    0    0  501    0  0.00000000000E+00  0.00000000000E+00 -0.18407015419E+04  0.18407015419E+04  0.25500000920E-02 0.  1.
    10030    2    1    2    0    0  0.00000000000E+00  0.00000000000E+00 -0.14924238123E+04  0.21889792714E+04  0.16013436280E+04 0.  0.
        4    1    3    3  502    0  0.74857871960E+03 -0.25827839020E+03 -0.90792968008E+03  0.12047471698E+04  0.12699999809E+01 0.  1.
       -4    1    3    3    0  502 -0.74857871960E+03  0.25827839020E+03 -0.58449413226E+03  0.98423210160E+03  0.12699999809E+01 0. -1.
</event>
<event>
 5   0  0.8694033E-05  0.1601293E+04  0.7818609E-02  0.8819754E-01
       -2   -1    0    0    0  501  0.00000000000E+00  0.00000000000E+00  0.42851159536E+03  0.42851159536E+03  0.25500000920E-02 0.  1.
        2   -1    0    0  501    0  0.00000000000E+00  0.00000000000E+00 -0.14959561589E+04  0.14959561589E+04  0.25500000920E-02 0. -1.
    10030    2    1    2    0    0  0.00000000000E+00  0.00000000000E+00 -0.10674445635E+04  0.19244677543E+04  0.16012926781E+04 0.  0.
        1    1    3    3  502    0  0.37920314872E+03 -0.42425885224E+03 -0.12106411207E+04  0.13377004616E+04  0.50400001928E-02 0.  1.
       -1    1    3    3    0  502 -0.37920314872E+03  0.42425885224E+03  0.14319655721E+03  0.58676729266E+03  0.50400001928E-02 0. -1.
</event>
<event>
 5   0  0.4256406E-05  0.1601931E+04  0.7818609E-02  0.8819363E-01
        1   -1    0    0  501    0  0.00000000000E+00  0.00000000000E+00  0.57705263557E+03  0.57705263559E+03  0.50400001928E-02 0.  1.
       -1   -1    0    0    0  501  0.00000000000E+00  0.00000000000E+00 -0.11117627231E+04  0.11117627231E+04  0.50400001928E-02 0. -1.
    10030    2    1    2    0    0  0.00000000000E+00  0.00000000000E+00 -0.53471008757E+03  0.16888153587E+04  0.16019308469E+04 0.  0.
        3    1    3    3  502    0 -0.47938496148E+03  0.53524507969E+03  0.10574425634E+03  0.72627756028E+03  0.10100000352E+00 0.  1.
       -3    1    3    3    0  502  0.47938496148E+03 -0.53524507969E+03 -0.64045434391E+03  0.96253779846E+03  0.10100000352E+00 0. -1.
</event>
<event>
 5   0  0.7849690E-05  0.1591490E+04  0.7818609E-02  0.8825793E-01
        2   -1    0    0  501    0  0.00000000000E+00  0.00000000000E+00  0.21086985434E+04  0.21086985434E+04  0.25500000920E-02 0. -1.
       -2   -1    0    0    0  501  0.00000000000E+00  0.00000000000E+00 -0.30028474594E+03  0.30028474595E+03  0.25500000920E-02 0.  1.
    10030    2    1    2    0    0  0.00000000000E+00  0.00000000000E+00  0.18084137974E+04  0.24089832893E+04  0.15914898760E+04 0.  0.
        3    1    3    3  502    0 -0.95674055107E+02  0.78809834672E+03  0.82188983312E+03  0.11426965638E+04  0.10100000352E+00 0.  1.
       -3    1    3    3    0  502  0.95674055107E+02 -0.78809834672E+03  0.98652396433E+03  0.12662867256E+04  0.10100000352E+00 0. -1.
</event>
<event>
 5   0  0.4373026E-05  0.1599790E+04  0.7818609E-02  0.8820677E-01
       -1   -1    0    0    0  501  0.00000000000E+00  0.00000000000E+00  0.34853147284E+03  0.34853147287E+03  0.50400001928E-02 0.  1.
        1   -1    0    0  501    0  0.00000000000E+00  0.00000000000E+00 -0.18357950175E+04  0.18357950175E+04  0.50400001928E-02 0. -1.
    10030    2    1    2    0    0  0.00000000000E+00  0.00000000000E+00 -0.14872635446E+04  0.21843264903E+04  0.15997904129E+04 0.  0.
        4    1    3    3  502    0 -0.15504435102E+03 -0.53047001956E+03 -0.15331886113E+04  0.16297564613E+04  0.12699999809E+01 0. -1.
       -4    1    3    3    0  502  0.15504435102E+03  0.53047001956E+03  0.45925066701E+02  0.55457002902E+03  0.12699999809E+01 0.  1.
</event>
<event>
 5   0  0.7901257E-05  0.1602129E+04  0.7818609E-02  0.8819241E-01
       -2   -1    0    0    0  501  0.00000000000E+00  0.00000000000E+00  0.57578075290E+03  0.57578075290E+03  0.25500000920E-02 0. -1.
        2   -1    0    0  501    0  0.00000000000E+00  0.00000000000E+00 -0.11144949306E+04  0.11144949306E+04  0.25500000920E-02 0.  1.
    10030    2    1    2    0    0  0.00000000000E+00  0.00000000000E+00 -0.53871417774E+03  0.16902756835E+04  0.16021294957E+04 0.  0.
        2    1    3    3  502    0  0.75453487150E+03 -0.87234388690E+00 -0.55319637644E+03  0.93560133829E+03  0.25500000920E-02 0.  1.
       -2    1    3    3    0  502 -0.75453487150E+03  0.87234388690E+00  0.14482198703E+02  0.75467434525E+03  0.25500000920E-02 0. -1.
</event>
<event>
 5   0  0.4373026E-05  0.1596338E+04  0.7818609E-02  0.8822801E-01
       -1   -1    0    0    0  501  0.00000000000E+00  0.00000000000E+00  0.86219960270E+03  0.86219960271E+03  0.50400001928E-02 0. -1.
        1   -1    0    0  501    0  0.00000000000E+00  0.00000000000E+00 -0.73889402850E+03  0.73889402852E+03  0.50400001928E-02 0.  1.
    10030    2    1    2    0    0  0.00000000000E+00  0.00000000000E+00  0.12330557419E+03  0.16010936312E+04  0.15963384827E+04 0.  0.
        4    1    3    3  502    0  0.14554263428E+03 -0.15569227328E+03 -0.70982619962E+03  0.74113263922E+03  0.12699999809E+01 0.  1.
       -4    1    3    3    0  502 -0.14554263428E+03  0.15569227328E+03  0.83313177381E+03  0.85996099201E+03  0.12699999809E+01 0. -1.
</event>
<event>
 5   0  0.4373026E-05  0.1600429E+04  0.7818609E-02  0.8820285E-01
       -1   -1    0    0    0  501  0.00000000000E+00  0.00000000000E+00  0.10729770476E+04  0.10729770476E+04  0.50400001928E-02 0. -1.
        1   -1    0    0  501    0  0.00000000000E+00  0.00000000000E+00 -0.59679085071E+03  0.59679085073E+03  0.50400001928E-02 0.  1.
    10030    2    1    2    0    0  0.00000000000E+00  0.00000000000E+00  0.47618619688E+03  0.16697678983E+04  0.16004285489E+04 0.  0.
        4    1    3    3  502    0  0.60405979835E+03 -0.64872143156E+02 -0.30528283317E+03  0.67992341926E+03  0.12699999809E+01 0.  1.
       -4    1    3    3    0  502 -0.60405979835E+03  0.64872143156E+02  0.78146903005E+03  0.98984447908E+03  0.12699999809E+01 0. -1.
</event>
<event>
 5   0  0.4211419E-05  0.1598972E+04  0.7818609E-02  0.8821180E-01
        1   -1    0    0  501    0  0.00000000000E+00  0.00000000000E+00  0.15118984166E+04  0.15118984166E+04  0.50400001928E-02 0.  1.
       -1   -1    0    0    0  501  0.00000000000E+00  0.00000000000E+00 -0.42276498807E+03  0.42276498810E+03  0.50400001928E-02 0. -1.
    10030    2    1    2    0    0  0.00000000000E+00  0.00000000000E+00  0.10891334285E+04  0.19346634047E+04  0.15989718148E+04 0.  0.
        2    1    3    3  502    0  0.61481594311E+03 -0.17086414175E+03 -0.38199155229E+02  0.63925923873E+03  0.25500000920E-02 0.  1.
       -2    1    3    3    0  502 -0.61481594311E+03  0.17086414175E+03  0.11273325838E+04  0.12954041660E+04  0.25500000920E-02 0. -1.
</event>
<event>
 5   0  0.7901257E-05  0.1601523E+04  0.7818609E-02  0.8819613E-01
        2   -1    0    0  501    0  0.00000000000E+00  0.00000000000E+00  0.85413280590E+03  0.85413280590E+03  0.25500000920E-02 0.  1.
       -2   -1    0    0    0  501  0.00000000000E+00  0.00000000000E+00 -0.75072546355E+03  0.75072546355E+03  0.25500000920E-02 0. -1.
    10030    2    1    2    0    0  0.00000000000E+00  0.00000000000E+00  0.10340734235E+03  0.16048582695E+04  0.16015233331E+04 0.  0.
        2    1    3    3  502    0 -0.34644620325E+02  0.15281339931E+03 -0.73521307948E+03  0.75172498759E+03  0.25500000920E-02 0. -1.
       -2    1    3    3    0  502  0.34644620325E+02 -0.15281339931E+03  0.83862042182E+03  0.85313328187E+03  0.25500000920E-02 0.  1.
</event>
<event>
 5   0  0.8694033E-05  0.1598682E+04  0.7818609E-02  0.8821358E-01
        2   -1    0    0  501    0  0.00000000000E+00  0.00000000000E+00  0.78509034826E+03  0.78509034827E+03  0.25500000920E-02 0. -1.
       -2   -1    0    0    0  501  0.00000000000E+00  0.00000000000E+00 -0.81385050510E+03  0.81385050511E+03  0.25500000920E-02 0.  1.
    10030    2    1    2    0    0  0.00000000000E+00  0.00000000000E+00 -0.28760156840E+02  0.15989408534E+04  0.15986821779E+04 0.  0.
        1    1    3    3  502    0 -0.14647937547E+03  0.29472554691E+03 -0.74293930836E+03  0.81257502507E+03  0.50400001928E-02 0.  1.
       -1    1    3    3    0  502  0.14647937547E+03 -0.29472554691E+03  0.71417915152E+03  0.78636582831E+03  0.50400001928E-02 0. -1.
</event>
<event>
 5   0  0.3042125E-05  0.1600883E+04  0.7818609E-02  0.8820006E-01
        4   -1    0    0  501    0  0.00000000000E+00  0.00000000000E+00  0.99313243274E+03  0.99313324477E+03  0.12699999809E+01 0.  1.
       -4   -1    0    0    0  501  0.00000000000E+00  0.00000000000E+00 -0.64513533748E+03  0.64513658753E+03  0.12699999809E+01 0. -1.
    10030    2    1    2    0    0  0.00000000000E+00  0.00000000000E+00  0.34799709526E+03  0.16382698323E+04  0.16008829018E+04 0.  0.
        2    1    3    3  502    0 -0.28372670935E+03  0.33392463788E+03  0.85949293934E+03  0.96474588477E+03  0.25500000920E-02 0.  1.
       -2    1    3    3    0  502  0.28372670935E+03 -0.33392463788E+03 -0.51149584408E+03  0.67352394754E+03  0.25500000920E-02 0. -1.
</event>
<event>
 5   0  0.8694033E-05  0.1599790E+04  0.7818609E-02  0.8820677E-01
        2   -1    0    0  501    0  0.00000000000E+00  0.00000000000E+00  0.12888471718E+04  0.12888471718E+04  0.25500000920E-02 0. -1.
       -2   -1    0    0    0  501  0.00000000000E+00  0.00000000000E+00 -0.49643725112E+03  0.49643725113E+03  0.25500000920E-02 0.  1.
    10030    2    1    2    0    0  0.00000000000E+00  0.00000000000E+00  0.79240992066E+03  0.17852844229E+04  0.15997896700E+04 0.  0.
        1    1    3    3  502    0  0.28652473486E+02  0.49849700267E+03 -0.30116213725E+03  0.58311136059E+03  0.50400001928E-02 0.  1.
       -1    1    3    3    0  502 -0.28652473486E+02 -0.49849700267E+03  0.10935720579E+04  0.12021730623E+04  0.50400001928E-02 0. -1.
</event>
<event>
 5   0  0.4504463E-05  0.1600005E+04  0.7818609E-02  0.8820545E-01
       -1   -1    0    0    0  501  0.00000000000E+00  0.00000000000E+00  0.44682700340E+03  0.44682700343E+03  0.50400001928E-02 0. -1.
        1   -1    0    0  501    0  0.00000000000E+00  0.00000000000E+00 -0.14323298933E+04  0.14323298934E+04  0.50400001928E-02 0.  1.
    10030    2    1    2    0    0  0.00000000000E+00  0.00000000000E+00 -0.98550288994E+03  0.18791568968E+04  0.16000045927E+04 0.  0.
        1    1    3    3  502    0 -0.55939422147E+03 -0.57175410324E+03 -0.47703703447E+03  0.93133720095E+03  0.50400001928E-02 0. -1.
       -1    1    3    3    0  502  0.55939422147E+03  0.57175410324E+03 -0.50846585547E+03  0.94781969583E+03  0.50400001928E-02 0.  1.
</event>
<event>
 5   0  0.8037548E-05  0.1600456E+04  0.7818609E-02  0.8820268E-01
        2   -1    0    0  501    0  0.00000000000E+00  0.00000000000E+00  0.21700695139E+04  0.21700695139E+04  0.25500000920E-02 0.  1.
       -2   -1    0    0    0  501  0.00000000000E+00  0.00000000000E+00 -0.29508972578E+03  0.29508972579E+03  0.25500000920E-02 0. -1.
    10030    2    1    2    0    0  0.00000000000E+00  0.00000000000E+00  0.18749797881E+04  0.24651592397E+04  0.16004564571E+04 0.  0.
        5    1    3    3  502    0  0.14412800694E+03 -0.41260382521E+03  0.19699731456E+04  0.20178778663E+04  0.46999998093E+01 0.  1.
       -5    1    3    3    0  502 -0.14412800694E+03  0.41260382521E+03 -0.94993357519E+02  0.44728137334E+03  0.46999998093E+01 0. -1.
</event>
<event>
 5   0  0.3042125E-05  0.1619074E+04  0.7818609E-02  0.8808915E-01
        3   -1    0    0  501    0  0.00000000000E+00  0.00000000000E+00  0.90401936436E+03  0.90401937000E+03  0.10100000352E+00 0. -1.
       -3   -1    0    0    0  501  0.00000000000E+00  0.00000000000E+00 -0.72492937681E+03  0.72492938384E+03  0.10100000352E+00 0.  1.
    10030    2    1    2    0    0  0.00000000000E+00  0.00000000000E+00  0.17908998756E+03  0.16289487538E+04  0.16190740622E+04 0.  0.
        3    1    3    3  502    0 -0.22295437834E+03  0.75359541831E+03 -0.10589600610E+03  0.79298719008E+03  0.10100000352E+00 0.  1.
       -3    1    3    3    0  502  0.22295437834E+03 -0.75359541831E+03  0.28498599365E+03  0.83596156377E+03  0.10100000352E+00 0. -1.
</event>
<event>
 5   0  0.8620155E-05  0.1570229E+04  0.7818609E-02  0.8839049E-01
        2   -1    0    0  501    0  0.00000000000E+00  0.00000000000E+00  0.72857059102E+03  0.72857059103E+03  0.25500000920E-02 0. -1.
       -2   -1    0    0    0  501  0.00000000000E+00  0.00000000000E+00 -0.84604703728E+03  0.84604703728E+03  0.25500000920E-02 0.  1.
    10030    2    1    2    0    0  0.00000000000E+00  0.00000000000E+00 -0.11747644625E+03  0.15746176283E+04  0.15702292699E+04 0.  0.
        4    1    3    3  502    0  0.38621168310E+02  0.57350948827E+02  0.72551050143E+03  0.72879889309E+03  0.12699999809E+01 0. -1.
       -4    1    3    3    0  502 -0.38621168310E+02 -0.57350948827E+02 -0.84298694769E+03  0.84581873522E+03  0.12699999809E+01 0.  1.
</event>
<event>
 5   0  0.8620155E-05  0.1608153E+04  0.7818609E-02  0.8815555E-01
        2   -1    0    0  501    0  0.00000000000E+00  0.00000000000E+00  0.12227846071E+04  0.12227846071E+04  0.25500000920E-02 0. -1.
       -2   -1    0    0    0  501  0.00000000000E+00  0.00000000000E+00 -0.52874338807E+03  0.52874338808E+03  0.25500000920E-02 0.  1.
    10030    2    1    2    0    0  0.00000000000E+00  0.00000000000E+00  0.69404121903E+03  0.17515279952E+04  0.16081533211E+04 0.  0.
        4    1    3    3  502    0  0.65273715144E+03 -0.37889373191E+03  0.44966304632E+02  0.75607528091E+03  0.12699999809E+01 0.  1.
       -4    1    3    3    0  502 -0.65273715144E+03  0.37889373191E+03  0.64907491439E+03  0.99545271427E+03  0.12699999809E+01 0. -1.
</event>
<event>
 5   0  0.4211419E-05  0.1598195E+04  0.7818609E-02  0.8821657E-01
        1   -1    0    0  501    0  0.00000000000E+00  0.00000000000E+00  0.49037601313E+03  0.49037601316E+03  0.50400001928E-02 0.  1.
       -1   -1    0    0    0  501  0.00000000000E+00  0.00000000000E+00 -0.13021783916E+04  0.13021783916E+04  0.50400001928E-02 0. -1.
    10030    2    1    2    0    0  0.00000000000E+00  0.00000000000E+00 -0.81180237848E+03  0.17925544048E+04  0.15981952923E+04 0.  0.
        2    1    3    3  502    0 -0.34804948334E+03  0.47278344129E+03 -0.10139496184E+04  0.11716468981E+04  0.25500000920E-02 0. -1.
       -2    1    3    3    0  502  0.34804948334E+03 -0.47278344129E+03  0.20214723992E+03  0.62090750666E+03  0.25500000920E-02 0.  1.
</event>
<event>
 5   0  0.4256406E-05  0.1601906E+04  0.7818609E-02  0.8819378E-01
       -1   -1    0    0    0  501  0.00000000000E+00  0.00000000000E+00  0.65799649809E+03  0.65799649811E+03  0.50400001928E-02 0.  1.
        1   -1    0    0  501    0  0.00000000000E+00  0.00000000000E+00 -0.97496813258E+03  0.97496813260E+03  0.50400001928E-02 0. -1.
    10030    2    1    2    0    0  0.00000000000E+00  0.00000000000E+00 -0.31697163449E+03  0.16329646307E+04  0.16019058861E+04 0.  0.
        3    1    3    3  502    0 -0.42594750193E+03  0.91214028564E+02  0.52668768309E+03  0.68348460051E+03  0.10100000352E+00 0.  1.
       -3    1    3    3    0  502  0.42594750193E+03 -0.91214028564E+02 -0.84365931758E+03  0.94948003020E+03  0.10100000352E+00 0. -1.
</event>
<event>
 5   0  0.4314657E-05  0.1596946E+04  0.7818609E-02  0.8822427E-01
       -1   -1    0    0    0  501  0.00000000000E+00  0.00000000000E+00  0.84145575829E+03  0.84145575830E+03  0.50400001928E-02 0.  1.
        1   -1    0    0  501    0  0.00000000000E+00  0.00000000000E+00 -0.75768542678E+03  0.75768542680E+03  0.50400001928E-02 0. -1.
    10030    2    1    2    0    0  0.00000000000E+00  0.00000000000E+00  0.83770331506E+02  0.15991411851E+04  0.15969455412E+04 0.  0.
        5    1    3    3  502    0  0.24575185954E+03 -0.45929992516E+02  0.80123715946E+03  0.83934892409E+03  0.46999998093E+01 0.  1.
       -5    1    3    3    0  502 -0.24575185954E+03  0.45929992516E+02 -0.71746682795E+03  0.75979226101E+03  0.46999998093E+01 0. -1.
</event>
<event>
 5   0  0.8620155E-05  0.1605274E+04  0.7818609E-02  0.8817314E-01
        2   -1    0    0  501    0  0.00000000000E+00  0.00000000000E+00  0.16495797603E+04  0.16495797603E+04  0.25500000920E-02 0.  1.
       -2   -1    0    0    0  501  0.00000000000E+00  0.00000000000E+00 -0.39053965567E+03  0.39053965568E+03  0.25500000920E-02 0. -1.
    10030    2    1    2    0    0  0.00000000000E+00  0.00000000000E+00  0.12590401047E+04  0.20401194160E+04  0.16052741967E+04 0.  0.
        4    1    3    3  502    0 -0.25213393951E+03  0.27898315023E+03 -0.27166362546E+03  0.46390285606E+03  0.12699999809E+01 0. -1.
       -4    1    3    3    0  502  0.25213393951E+03 -0.27898315023E+03  0.15307037301E+04  0.15762165600E+04  0.12699999809E+01 0.  1.
</event>
<event>
 5   0  0.8037548E-05  0.1599847E+04  0.7818609E-02  0.8820642E-01
        2   -1    0    0  501    0  0.00000000000E+00  0.00000000000E+00  0.87056326457E+03  0.87056326458E+03  0.25500000920E-02 0. -1.
       -2   -1    0    0    0  501  0.00000000000E+00  0.00000000000E+00 -0.73501558199E+03  0.73501558199E+03  0.25500000920E-02 0.  1.
    10030    2    1    2    0    0  0.00000000000E+00  0.00000000000E+00  0.13554768259E+03  0.16055788466E+04  0.15998469484E+04 0.  0.
        5    1    3    3  502    0 -0.33850291995E+03 -0.63743899845E+03  0.41389028001E+03  0.83200958975E+03  0.46999998093E+01 0. -1.
       -5    1    3    3    0  502  0.33850291995E+03  0.63743899845E+03 -0.27834259742E+03  0.77356925682E+03  0.46999998093E+01 0.  1.
</event>
<event>
 5   0  0.8694033E-05  0.1601943E+04  0.7818609E-02  0.8819355E-01
       -2   -1    0    0    0  501  0.00000000000E+00  0.00000000000E+00  0.59812944351E+03  0.59812944352E+03  0.25500000920E-02 0. -1.
        2   -1    0    0  501    0  0.00000000000E+00  0.00000000000E+00 -0.10726030923E+04  0.10726030923E+04  0.25500000920E-02 0.  1.
    10030    2    1    2    0    0  0.00000000000E+00  0.00000000000E+00 -0.47447364880E+03  0.16707325358E+04  0.16019431834E+04 0.  0.
        1    1    3    3  502    0 -0.32170640168E+03  0.61918307612E+02  0.52505730928E+03  0.61888130021E+03  0.50400001928E-02 0. -1.
       -1    1    3    3    0  502  0.32170640168E+03 -0.61918307612E+02 -0.99953095808E+03  0.10518512356E+04  0.50400001928E-02 0.  1.
</event>
<event>
 5   0  0.8694033E-05  0.1608265E+04  0.7818609E-02  0.8815487E-01
       -2   -1    0    0    0  501  0.00000000000E+00  0.00000000000E+00  0.22854795682E+03  0.22854795684E+03  0.25500000920E-02 0. -1.
        2   -1    0    0  501    0  0.00000000000E+00  0.00000000000E+00 -0.28292923141E+04  0.28292923141E+04  0.25500000920E-02 0.  1.
    10030    2    1    2    0    0  0.00000000000E+00  0.00000000000E+00 -0.26007443573E+04  0.30578402710E+04  0.16082648758E+04 0.  0.
        1    1    3    3  502    0 -0.72218450595E+03  0.74768758335E+02 -0.19576055956E+04  0.20879081627E+04  0.50400001928E-02 0.  1.
       -1    1    3    3    0  502  0.72218450595E+03 -0.74768758335E+02 -0.64313876172E+03  0.96993210830E+03  0.50400001928E-02 0. -1.
</event>
<event>
 5   0  0.4314657E-05  0.1599186E+04  0.7818609E-02  0.8821048E-01
       -1   -1    0    0    0  501  0.00000000000E+00  0.00000000000E+00  0.64372526407E+03  0.64372526409E+03  0.50400001928E-02 0. -1.
        1   -1    0    0  501    0  0.00000000000E+00  0.00000000000E+00 -0.99320134125E+03  0.99320134126E+03  0.50400001928E-02 0.  1.
    10030    2    1    2    0    0  0.00000000000E+00  0.00000000000E+00 -0.34947607717E+03  0.16369266054E+04  0.15991857875E+04 0.  0.
        5    1    3    3  502    0 -0.20846847178E+02  0.68980925567E+03 -0.58806882393E+03  0.90670746766E+03  0.46999998093E+01 0. -1.
       -5    1    3    3    0  502  0.20846847178E+02 -0.68980925567E+03  0.23859274675E+03  0.73021913769E+03  0.46999998093E+01 0.  1.
</event>
<event>
 5   0  0.4314657E-05  0.1595861E+04  0.7818609E-02  0.8823095E-01
       -1   -1    0    0    0  501  0.00000000000E+00  0.00000000000E+00  0.44297973650E+03  0.44297973653E+03  0.50400001928E-02 0.  1.
        1   -1    0    0  501    0  0.00000000000E+00  0.00000000000E+00 -0.14372953772E+04  0.14372953772E+04  0.50400001928E-02 0. -1.
    10030    2    1    2    0    0  0.00000000000E+00  0.00000000000E+00 -0.99431564067E+03  0.18802751137E+04  0.15958605547E+04 0.  0.
        5    1    3    3  502    0  0.16077626628E+02  0.69595057009E+03 -0.37704894551E+02  0.69717245726E+03  0.46999998093E+01 0.  1.
       -5    1    3    3    0  502 -0.16077626628E+02 -0.69595057009E+03 -0.95661074612E+03  0.11831026564E+04  0.46999998093E+01 0. -1.
</event>
<event>
 5   0  0.8620155E-05  0.1599616E+04  0.7818609E-02  0.8820784E-01
       -2   -1    0    0    0  501  0.00000000000E+00  0.00000000000E+00  0.39850410367E+03  0.39850410368E+03  0.25500000920E-02 0.  1.
        2   -1    0    0  501    0  0.00000000000E+00  0.00000000000E+00 -0.16052344354E+04  0.16052344354E+04  0.25500000920E-02 0. -1.
    10030    2    1    2    0    0  0.00000000000E+00  0.00000000000E+00 -0.12067303318E+04  0.20037385391E+04  0.15996155912E+04 0.  0.
        4    1    3    3  502    0  0.40472263255E+03 -0.53404173026E+03 -0.56362694030E+02  0.67244281923E+03  0.12699999809E+01 0.  1.
       -4    1    3    3    0  502 -0.40472263255E+03  0.53404173026E+03 -0.11503676377E+04  0.13312957199E+04  0.12699999809E+01 0. -1.
</event>
<event>
 5   0  0.4373026E-05  0.1603697E+04  0.7818609E-02  0.8818280E-01
       -1   -1    0    0    0  501  0.00000000000E+00  0.00000000000E+00  0.46894313594E+03  0.46894313597E+03  0.50400001928E-02 0.  1.
        1   -1    0    0  501    0  0.00000000000E+00  0.00000000000E+00 -0.13710845444E+04  0.13710845444E+04  0.50400001928E-02 0. -1.
    10030    2    1    2    0    0  0.00000000000E+00  0.00000000000E+00 -0.90214140842E+03  0.18400276803E+04  0.16036965871E+04 0.  0.
        4    1    3    3  502    0 -0.76421378826E+03 -0.16946604624E+03 -0.25162151979E+03  0.82222652422E+03  0.12699999809E+01 0.  1.
       -4    1    3    3    0  502  0.76421378826E+03  0.16946604624E+03 -0.65051988863E+03  0.10178011561E+04  0.12699999809E+01 0. -1.
</event>
<event>
 5   0  0.8620155E-05  0.1601921E+04  0.7818609E-02  0.8819369E-01
       -2   -1    0    0    0  501  0.00000000000E+00  0.00000000000E+00  0.83507191598E+03  0.83507191599E+03  0.25500000920E-02 0. -1.
        2   -1    0    0  501    0  0.00000000000E+00  0.00000000000E+00 -0.76824274231E+03  0.76824274231E+03  0.25500000920E-02 0.  1.
    10030    2    1    2    0    0  0.00000000000E+00  0.00000000000E+00  0.66829173676E+02  0.16033146583E+04  0.16019212699E+04 0.  0.
        4    1    3    3  502    0  0.14019233175E+03 -0.71309867636E+03 -0.30358693835E+03  0.78761047107E+03  0.12699999809E+01 0.  1.
       -4    1    3    3    0  502 -0.14019233175E+03  0.71309867636E+03  0.37041611203E+03  0.81570418722E+03  0.12699999809E+01 0. -1.
</event>
<event>
 5   0  0.4256406E-05  0.1601155E+04  0.7818609E-02  0.8819839E-01
        1   -1    0    0  501    0  0.00000000000E+00  0.00000000000E+00  0.16354550323E+04  0.16354550323E+04  0.50400001928E-02 0.  1.
       -1   -1    0    0    0  501  0.00000000000E+00  0.00000000000E+00 -0.39189354841E+03  0.39189354844E+03  0.50400001928E-02 0. -1.
    10030    2    1    2    0    0  0.00000000000E+00  0.00000000000E+00  0.12435614839E+04  0.20273485808E+04  0.16011549281E+04 0.  0.
        3    1    3    3  502    0 -0.37820683981E+03  0.59850870928E+03  0.14857667620E+03  0.72341421583E+03  0.10100000352E+00 0. -1.
       -3    1    3    3    0  502  0.37820683981E+03 -0.59850870928E+03  0.10949848077E+04  0.13039343649E+04  0.10100000352E+00 0.  1.
</event>
<event>
 5   0  0.4373026E-05  0.1597980E+04  0.7818609E-02  0.8821790E-01
       -1   -1    0    0    0  501  0.00000000000E+00  0.00000000000E+00  0.67106580743E+03  0.67106580745E+03  0.50400001928E-02 0.  1.
        1   -1    0    0  501    0  0.00000000000E+00  0.00000000000E+00 -0.95129991824E+03  0.95129991826E+03  0.50400001928E-02 0. -1.
    10030    2    1    2    0    0  0.00000000000E+00  0.00000000000E+00 -0.28023411081E+03  0.16223657257E+04  0.15979797843E+04 0.  0.
        4    1    3    3  502    0  0.49187571075E+03  0.58643437092E+03 -0.37282275009E+03  0.85137853045E+03  0.12699999809E+01 0.  1.
       -4    1    3    3    0  502 -0.49187571075E+03 -0.58643437092E+03  0.92588639282E+02  0.77098719526E+03  0.12699999809E+01 0. -1.
</event>
<event>
 5   0  0.4211419E-05  0.1603392E+04  0.7818609E-02  0.8818467E-01
        1   -1    0    0  501    0  0.00000000000E+00  0.00000000000E+00  0.85959998917E+03  0.85959998918E+03  0.50400001928E-02 0. -1.
       -1   -1    0    0    0  501  0.00000000000E+00  0.00000000000E+00 -0.74769268291E+03  0.74769268292E+03  0.50400001928E-02 0.  1.
    10030    2    1    2    0    0  0.00000000000E+00  0.00000000000E+00  0.11190730626E+03  0.16072926721E+04  0.16033921818E+04 0.  0.
        2    1    3    3  502    0 -0.79432317085E+03  0.46169934241E+02 -0.42446534587E+02  0.79679525029E+03  0.25500000920E-02 0.  1.
       -2    1    3    3    0  502  0.79432317085E+03 -0.46169934241E+02  0.15435384085E+03  0.81049742182E+03  0.25500000920E-02 0. -1.
</event>
<event>
 5   0  0.8694033E-05  0.1600581E+04  0.7818609E-02  0.8820191E-01
       -2   -1    0    0    0  501  0.00000000000E+00  0.00000000000E+00  0.24577876490E+03  0.24577876491E+03  0.25500000920E-02 0. -1.
        2   -1    0    0  501    0  0.00000000000E+00  0.00000000000E+00 -0.26058596432E+04  0.26058596432E+04  0.25500000920E-02 0.  1.
    10030    2    1    2    0    0  0.00000000000E+00  0.00000000000E+00 -0.23600808783E+04  0.28516384081E+04  0.16005811002E+04 0.  0.
        1    1    3    3  502    0 -0.33150414076E+03 -0.47485844522E+03 -0.19597669461E+03  0.61138564196E+03  0.50400001928E-02 0. -1.
       -1    1    3    3    0  502  0.33150414076E+03  0.47485844522E+03 -0.21641041837E+04  0.22402527661E+04  0.50400001928E-02 0.  1.
</event>
<event>
 5   0  0.4504463E-05  0.1611840E+04  0.7818609E-02  0.8813307E-01
        1   -1    0    0  501    0  0.00000000000E+00  0.00000000000E+00  0.76192495128E+03  0.76192495130E+03  0.50400001928E-02 0.  1.
       -1   -1    0    0    0  501  0.00000000000E+00  0.00000000000E+00 -0.85245551652E+03  0.85245551653E+03  0.50400001928E-02 0. -1.
    10030    2    1    2    0    0  0.00000000000E+00  0.00000000000E+00 -0.90530565236E+02  0.16143804678E+04  0.16118401011E+04 0.  0.
        1    1    3    3  502    0 -0.66850887414E+03 -0.39054406500E+01  0.40554160207E+03  0.78191007047E+03  0.50400001928E-02 0.  1.
       -1    1    3    3    0  502  0.66850887414E+03  0.39054406500E+01 -0.49607216730E+03  0.83247039735E+03  0.50400001928E-02 0. -1.
</event>
<event>
 5   0  0.7849690E-05  0.1600058E+04  0.7818609E-02  0.8820512E-01
       -2   -1    0    0    0  501  0.00000000000E+00  0.00000000000E+00  0.68256996490E+03  0.68256996490E+03  0.25500000920E-02 0. -1.
        2   -1    0    0  501    0  0.00000000000E+00  0.00000000000E+00 -0.93770129593E+03  0.93770129594E+03  0.25500000920E-02 0.  1.
    10030    2    1    2    0    0  0.00000000000E+00  0.00000000000E+00 -0.25513133104E+03  0.16202712608E+04  0.16000584248E+04 0.  0.
        3    1    3    3  502    0  0.44247409844E+03 -0.25637176897E+03 -0.75059143377E+03  0.90823858229E+03  0.10100000352E+00 0.  1.
       -3    1    3    3    0  502 -0.44247409844E+03  0.25637176897E+03  0.49546010273E+03  0.71203267854E+03  0.10100000352E+00 0. -1.
</event>
<event>
 5   0  0.7901257E-05  0.1588882E+04  0.7818609E-02  0.8827407E-01
        2   -1    0    0  501    0  0.00000000000E+00  0.00000000000E+00  0.78394137142E+03  0.78394137143E+03  0.25500000920E-02 0. -1.
       -2   -1    0    0    0  501  0.00000000000E+00  0.00000000000E+00 -0.80508157298E+03  0.80508157298E+03  0.25500000920E-02 0.  1.
    10030    2    1    2    0    0  0.00000000000E+00  0.00000000000E+00 -0.21140201552E+02  0.15890229444E+04  0.15888823146E+04 0.  0.
        2    1    3    3  502    0  0.50145266681E+03  0.49475141685E+03 -0.37789406149E+03  0.79939831326E+03  0.25500000920E-02 0.  1.
       -2    1    3    3    0  502 -0.50145266681E+03 -0.49475141685E+03  0.35675385994E+03  0.78962463115E+03  0.25500000920E-02 0. -1.
</event>
<event>
 5   0  0.8620155E-05  0.1616377E+04  0.7818609E-02  0.8810550E-01
        2   -1    0    0  501    0  0.00000000000E+00  0.00000000000E+00  0.27884695542E+04  0.27884695542E+04  0.25500000920E-02 0.  1.
       -2   -1    0    0    0  501  0.00000000000E+00  0.00000000000E+00 -0.23423902498E+03  0.23423902499E+03  0.25500000920E-02 0. -1.
    10030    2    1    2    0    0  0.00000000000E+00  0.00000000000E+00  0.25542305292E+04  0.30227085792E+04  0.16163766759E+04 0.  0.
        4    1    3    3  502    0 -0.31794012783E+03 -0.51416752872E+03  0.27404086237E+03  0.66374255523E+03  0.12699999809E+01 0. -1.
       -4    1    3    3    0  502  0.31794012783E+03  0.51416752872E+03  0.22801896669E+04  0.23589660240E+04  0.12699999809E+01 0.  1.
</event>
<event>
 5   0  0.4211419E-05  0.1599485E+04  0.7818609E-02  0.8820865E-01
       -1   -1    0    0    0  501  0.00000000000E+00  0.00000000000E+00  0.92148701536E+03  0.92148701537E+03  0.50400001928E-02 0. -1.
        1   -1    0    0  501    0  0.00000000000E+00  0.00000000000E+00 -0.69408224193E+03  0.69408224195E+03  0.50400001928E-02 0.  1.
    10030    2    1    2    0    0  0.00000000000E+00  0.00000000000E+00  0.22740477343E+03  0.16155692573E+04  0.15994846339E+04 0.  0.
        2    1    3    3  502    0  0.48728493120E+02 -0.42486918478E+03  0.79629371759E+03  0.90386502029E+03  0.25500000920E-02 0. -1.
       -2    1    3    3    0  502 -0.48728493120E+02  0.42486918478E+03 -0.56888894417E+03  0.71170423704E+03  0.25500000920E-02 0.  1.
</event>
<event>
 5   0  0.4504463E-05  0.1598619E+04  0.7818609E-02  0.8821397E-01
        1   -1    0    0  501    0  0.00000000000E+00  0.00000000000E+00  0.21891329293E+04  0.21891329293E+04  0.50400001928E-02 0. -1.
       -1   -1    0    0    0  501  0.00000000000E+00  0.00000000000E+00 -0.29184883673E+03  0.29184883678E+03  0.50400001928E-02 0.  1.
    10030    2    1    2    0    0  0.00000000000E+00  0.00000000000E+00  0.18972840925E+04  0.24809817660E+04  0.15986192779E+04 0.  0.
        1    1    3    3  502    0 -0.50784151740E+02  0.79762705614E+03  0.96476654014E+03  0.12528217861E+04  0.50400001928E-02 0. -1.
       -1    1    3    3    0  502  0.50784151740E+02 -0.79762705614E+03  0.93251755238E+03  0.12281599799E+04  0.50400001928E-02 0.  1.
</event>
<event>
 5   0  0.8620155E-05  0.1600715E+04  0.7818609E-02  0.8820109E-01
        2   -1    0    0  501    0  0.00000000000E+00  0.00000000000E+00  0.16949622024E+04  0.16949622024E+04  0.25500000920E-02 0. -1.
       -2   -1    0    0    0  501  0.00000000000E+00  0.00000000000E+00 -0.37792718257E+03  0.37792718258E+03  0.25500000920E-02 0.  1.
    10030    2    1    2    0    0  0.00000000000E+00  0.00000000000E+00  0.13170350198E+04  0.20728893850E+04  0.16007152023E+04 0.  0.
        4    1    3    3  502    0  0.53150842123E+03  0.59452758170E+03  0.57062653600E+03  0.98060211285E+03  0.12699999809E+01 0.  1.
       -4    1    3    3    0  502 -0.53150842123E+03 -0.59452758170E+03  0.74640848384E+03  0.10922872721E+04  0.12699999809E+01 0. -1.
</event>
<event>
 5   0  0.8037548E-05  0.1600034E+04  0.7818609E-02  0.8820527E-01
        2   -1    0    0  501    0  0.00000000000E+00  0.00000000000E+00  0.59659443592E+03  0.59659443592E+03  0.25500000920E-02 0. -1.
       -2   -1    0    0    0  501  0.00000000000E+00  0.00000000000E+00 -0.10728007762E+04  0.10728007762E+04  0.25500000920E-02 0.  1.
    10030    2    1    2    0    0  0.00000000000E+00  0.00000000000E+00 -0.47620634032E+03  0.16693952122E+04  0.16000337171E+04 0.  0.
        5    1    3    3  502    0 -0.16375731752E+03  0.62061610561E+03 -0.73632227812E+03  0.97681799576E+03  0.46999998093E+01 0.  1.
       -5    1    3    3    0  502  0.16375731752E+03 -0.62061610561E+03  0.26011593780E+03  0.69257721640E+03  0.46999998093E+01 0. -1.
</event>
<event>
 5   0  0.4211419E-05  0.1598513E+04  0.7818609E-02  0.8821462E-01
       -1   -1    0    0    0  501  0.00000000000E+00  0.00000000000E+00  0.62823967397E+03  0.62823967399E+03  0.50400001928E-02 0.  1.
        1   -1    0    0  501    0  0.00000000000E+00  0.00000000000E+00 -0.10168271725E+04  0.10168271725E+04  0.50400001928E-02 0. -1.
    10030    2    1    2    0    0  0.00000000000E+00  0.00000000000E+00 -0.38858749856E+03  0.16450668465E+04  0.15985132735E+04 0.  0.
        2    1    3    3  502    0  0.58067474864E+03 -0.46592048921E+03  0.10494243384E+03  0.75184970599E+03  0.25500000920E-02 0. -1.
       -2    1    3    3    0  502 -0.58067474864E+03  0.46592048921E+03 -0.49352993240E+03  0.89321714054E+03  0.25500000920E-02 0.  1.
</event>
<event>
 5   0  0.4256406E-05  0.1596989E+04  0.7818609E-02  0.8822400E-01
       -1   -1    0    0    0  501  0.00000000000E+00  0.00000000000E+00  0.48976659375E+03  0.48976659377E+03  0.50400001928E-02 0. -1.
        1   -1    0    0  501    0  0.00000000000E+00  0.00000000000E+00 -0.13018317276E+04  0.13018317276E+04  0.50400001928E-02 0.  1.
    10030    2    1    2    0    0  0.00000000000E+00  0.00000000000E+00 -0.81206513386E+03  0.17915983214E+04  0.15969892810E+04 0.  0.
        3    1    3    3  502    0 -0.76808588391E+03  0.18294159226E+03 -0.53957692799E+03  0.95632987126E+03  0.10100000352E+00 0. -1.
       -3    1    3    3    0  502  0.76808588391E+03 -0.18294159226E+03 -0.27248820587E+03  0.83526845013E+03  0.10100000352E+00 0.  1.
</event>
<event>
 5   0  0.7901257E-05  0.1595298E+04  0.7818609E-02  0.8823442E-01
       -2   -1    0    0    0  501  0.00000000000E+00  0.00000000000E+00  0.70279505274E+03  0.70279505274E+03  0.25500000920E-02 0. -1.
        2   -1    0    0  501    0  0.00000000000E+00  0.00000000000E+00 -0.90530452080E+03  0.90530452080E+03  0.25500000920E-02 0.  1.
    10030    2    1    2    0    0  0.00000000000E+00  0.00000000000E+00 -0.20250946806E+03  0.16080995735E+04  0.15952975126E+04 0.  0.
        2    1    3    3  502    0 -0.25764504274E+03  0.22996977013E+03 -0.82603546606E+03  0.89532209535E+03  0.25500000920E-02 0.  1.
       -2    1    3    3    0  502  0.25764504274E+03 -0.22996977013E+03  0.62352599800E+03  0.71277747819E+03  0.25500000920E-02 0. -1.
</event>
<event>
 5   0  0.8620155E-05  0.1600155E+04  0.7818609E-02  0.8820453E-01
        2   -1    0    0  501    0  0.00000000000E+00  0.00000000000E+00  0.41621223198E+03  0.41621223198E+03  0.25500000920E-02 0. -1.
       -2   -1    0    0    0  501  0.00000000000E+00  0.00000000000E+00 -0.15379753469E+04  0.15379753469E+04  0.25500000920E-02 0.  1.
    10030    2    1    2    0    0  0.00000000000E+00  0.00000000000E+00 -0.11217631149E+04  0.19541875789E+04  0.16001551823E+04 0.  0.
        4    1    3    3  502    0 -0.25385662123E+03  0.14251613678E+03  0.34923029442E+03  0.45466190167E+03  0.12699999809E+01 0. -1.
       -4    1    3    3    0  502  0.25385662123E+03 -0.14251613678E+03 -0.14709934093E+04  0.14995256772E+04  0.12699999809E+01 0.  1.
</event>
<event>
 5   0  0.4504463E-05  0.1603902E+04  0.7818609E-02  0.8818155E-01
        1   -1    0    0  501    0  0.00000000000E+00  0.00000000000E+00  0.76840937759E+03  0.76840937761E+03  0.50400001928E-02 0.  1.
       -1   -1    0    0    0  501  0.00000000000E+00  0.00000000000E+00 -0.83695658368E+03  0.83695658370E+03  0.50400001928E-02 0. -1.
    10030    2    1    2    0    0  0.00000000000E+00  0.00000000000E+00 -0.68547206092E+02  0.16053659613E+04  0.16039018518E+04 0.  0.
        1    1    3    3  502    0 -0.72098653437E+02 -0.26877597417E+03 -0.78708153608E+03  0.83482697883E+03  0.50400001928E-02 0. -1.
       -1    1    3    3    0  502  0.72098653437E+02  0.26877597417E+03  0.71853432999E+03  0.77053898248E+03  0.50400001928E-02 0.  1.
</event>
<event>
 5   0  0.4504463E-05  0.1598723E+04  0.7818609E-02  0.8821333E-01
        1   -1    0    0  501    0  0.00000000000E+00  0.00000000000E+00  0.69172790664E+03  0.69172790665E+03  0.50400001928E-02 0. -1.
       -1   -1    0    0    0  501  0.00000000000E+00  0.00000000000E+00 -0.92374305793E+03  0.92374305794E+03  0.50400001928E-02 0.  1.
    10030    2    1    2    0    0  0.00000000000E+00  0.00000000000E+00 -0.23201515129E+03  0.16154709646E+04  0.15987230551E+04 0.  0.
        1    1    3    3  502    0 -0.28411160693E+03  0.65788475157E+03  0.24188791965E+03  0.75633426290E+03  0.50400001928E-02 0. -1.
       -1    1    3    3    0  502  0.28411160693E+03 -0.65788475157E+03 -0.47390307094E+03  0.85913670170E+03  0.50400001928E-02 0.  1.
</event>
<event>
 5   0  0.7849690E-05  0.1599557E+04  0.7818609E-02  0.8820820E-01
        2   -1    0    0  501    0  0.00000000000E+00  0.00000000000E+00  0.95635135009E+03  0.95635135010E+03  0.25500000920E-02 0.  1.
       -2   -1    0    0    0  501  0.00000000000E+00  0.00000000000E+00 -0.66883982815E+03  0.66883982816E+03  0.25500000920E-02 0. -1.
    10030    2    1    2    0    0  0.00000000000E+00  0.00000000000E+00  0.28751152194E+03  0.16251911783E+04  0.15995572796E+04 0.  0.
        3    1    3    3  502    0  0.33384331088E+03 -0.27860466232E+03  0.82576098063E+03  0.93324869216E+03  0.10100000352E+00 0.  1.
       -3    1    3    3    0  502 -0.33384331088E+03  0.27860466232E+03 -0.53824945869E+03  0.69194248610E+03  0.10100000352E+00 0. -1.
</event>
<event>
 5   0  0.4373026E-05  0.1598757E+04  0.7818609E-02  0.8821312E-01
        1   -1    0    0  501    0  0.00000000000E+00  0.00000000000E+00  0.12063317321E+04  0.12063317321E+04  0.50400001928E-02 0. -1.
       -1   -1    0    0    0  501  0.00000000000E+00  0.00000000000E+00 -0.52970979300E+03  0.52970979303E+03  0.50400001928E-02 0.  1.
    10030    2    1    2    0    0  0.00000000000E+00  0.00000000000E+00  0.67662193905E+03  0.17360415251E+04  0.15987566821E+04 0.  0.
        4    1    3    3  502    0 -0.19620893890E+03 -0.30278909759E+03  0.11128832106E+04  0.11699101841E+04  0.12699999809E+01 0. -1.
       -4    1    3    3    0  502  0.19620893890E+03  0.30278909759E+03 -0.43626127159E+03  0.56613134104E+03  0.12699999809E+01 0.  1.
</event>
<event>
 5   0  0.4504463E-05  0.1642509E+04  0.7818609E-02  0.8794851E-01
        1   -1    0    0  501    0  0.00000000000E+00  0.00000000000E+00  0.64946263095E+03  0.64946263097E+03  0.50400001928E-02 0. -1.
       -1   -1    0    0    0  501  0.00000000000E+00  0.00000000000E+00 -0.10384872438E+04  0.10384872438E+04  0.50400001928E-02 0.  1.
    10030    2    1    2    0    0  0.00000000000E+00  0.00000000000E+00 -0.38902461282E+03  0.16879498748E+04  0.16425086393E+04 0.  0.
        1    1    3    3  502    0  0.46319959404E+03  0.53813363599E+03  0.22959998722E+03  0.74622907224E+03  0.50400001928E-02 0. -1.
       -1    1    3    3    0  502 -0.46319959404E+03 -0.53813363599E+03 -0.61862460004E+03  0.94172080252E+03  0.50400001928E-02 0.  1.
</event>
<event>
 5   0  0.4504463E-05  0.1580847E+04  0.7818609E-02  0.8832402E-01
        1   -1    0    0  501    0  0.00000000000E+00  0.00000000000E+00  0.82600084184E+03  0.82600084186E+03  0.50400001928E-02 0. -1.
       -1   -1    0    0    0  501  0.00000000000E+00  0.00000000000E+00 -0.75637811204E+03  0.75637811206E+03  0.50400001928E-02 0.  1.
    10030    2    1    2    0    0  0.00000000000E+00  0.00000000000E+00  0.69622729800E+02  0.15823789539E+04  0.15808465546E+04 0.  0.
        1    1    3    3  502    0 -0.51016036701E+03  0.53281982221E+03  0.31900275481E+03  0.80369354895E+03  0.50400001928E-02 0. -1.
       -1    1    3    3    0  502  0.51016036701E+03 -0.53281982221E+03 -0.24938002501E+03  0.77868540497E+03  0.50400001928E-02 0.  1.
</event>
<event>
 5   0  0.4256406E-05  0.1601460E+04  0.7818609E-02  0.8819651E-01
        1   -1    0    0  501    0  0.00000000000E+00  0.00000000000E+00  0.41914181542E+03  0.41914181545E+03  0.50400001928E-02 0.  1.
       -1   -1    0    0    0  501  0.00000000000E+00  0.00000000000E+00 -0.15297182671E+04  0.15297182671E+04  0.50400001928E-02 0. -1.
    10030    2    1    2    0    0  0.00000000000E+00  0.00000000000E+00 -0.11105764517E+04  0.19488600826E+04  0.16014604480E+04 0.  0.
        3    1    3    3  502    0  0.32974793645E+03  0.71726430963E+03 -0.71840676155E+03  0.10673846901E+04  0.10100000352E+00 0.  1.
       -3    1    3    3    0  502 -0.32974793645E+03 -0.71726430963E+03 -0.39216969016E+03  0.88147539248E+03  0.10100000352E+00 0. -1.
</event>
<event>
 5   0  0.8037548E-05  0.1594253E+04  0.7818609E-02  0.8824086E-01
       -2   -1    0    0    0  501  0.00000000000E+00  0.00000000000E+00  0.90738450769E+03  0.90738450769E+03  0.25500000920E-02 0. -1.
        2   -1    0    0  501    0  0.00000000000E+00  0.00000000000E+00 -0.70026612607E+03  0.70026612608E+03  0.25500000920E-02 0.  1.
    10030    2    1    2    0    0  0.00000000000E+00  0.00000000000E+00  0.20711838161E+03  0.16076506338E+04  0.15942529712E+04 0.  0.
        5    1    3    3  502    0  0.73137672982E+02 -0.31935513506E+03 -0.62921923218E+03  0.70941930735E+03  0.46999998093E+01 0.  1.
       -5    1    3    3    0  502 -0.73137672982E+02  0.31935513506E+03  0.83633761380E+03  0.89823132641E+03  0.46999998093E+01 0. -1.
</event>
<event>
 5   0  0.4373026E-05  0.1603584E+04  0.7818609E-02  0.8818349E-01
       -1   -1    0    0    0  501  0.00000000000E+00  0.00000000000E+00  0.39264723271E+03  0.39264723274E+03  0.50400001928E-02 0.  1.
        1   -1    0    0  501    0  0.00000000000E+00  0.00000000000E+00 -0.16372731743E+04  0.16372731743E+04  0.50400001928E-02 0. -1.
    10030    2    1    2    0    0  0.00000000000E+00  0.00000000000E+00 -0.12446259416E+04  0.20299204070E+04  0.16035844613E+04 0.  0.
        4    1    3    3  502    0 -0.39164416715E+03 -0.63355525505E+03 -0.24660120349E+03  0.78459618998E+03  0.12699999809E+01 0.  1.
       -4    1    3    3    0  502  0.39164416715E+03  0.63355525505E+03 -0.99802473810E+03  0.12453242171E+04  0.12699999809E+01 0. -1.
</event>
<event>
 5   0  0.4504463E-05  0.1600849E+04  0.7818609E-02  0.8820027E-01
       -1   -1    0    0    0  501  0.00000000000E+00  0.00000000000E+00  0.52749723621E+03  0.52749723623E+03  0.50400001928E-02 0. -1.
        1   -1    0    0  501    0  0.00000000000E+00  0.00000000000E+00 -0.12145638607E+04  0.12145638607E+04  0.50400001928E-02 0.  1.
    10030    2    1    2    0    0  0.00000000000E+00  0.00000000000E+00 -0.68706662447E+03  0.17420610969E+04  0.16008486246E+04 0.  0.
        1    1    3    3  502    0 -0.68744750949E+03 -0.37871785987E+03 -0.17261909756E+03  0.80362220512E+03  0.50400001928E-02 0. -1.
       -1    1    3    3    0  502  0.68744750949E+03  0.37871785987E+03 -0.51444752691E+03  0.93843889181E+03  0.50400001928E-02 0.  1.
</event>
<event>
 5   0  0.4504463E-05  0.1602253E+04  0.7818609E-02  0.8819165E-01
       -1   -1    0    0    0  501  0.00000000000E+00  0.00000000000E+00  0.61001897756E+03  0.61001897758E+03  0.50400001928E-02 0. -1.
        1   -1    0    0  501    0  0.00000000000E+00  0.00000000000E+00 -0.10521043120E+04  0.10521043120E+04  0.50400001928E-02 0.  1.
    10030    2    1    2    0    0  0.00000000000E+00  0.00000000000E+00 -0.44208533447E+03  0.16621232896E+04  0.16022529098E+04 0.  0.
        1    1    3    3  502    0  0.56519173896E+03  0.59579270214E+02  0.36469025590E+03  0.67527059318E+03  0.50400001928E-02 0. -1.
       -1    1    3    3    0  502 -0.56519173896E+03 -0.59579270214E+02 -0.80677559038E+03  0.98685269645E+03  0.50400001928E-02 0.  1.
</event>
<event>
 5   0  0.8037548E-05  0.1580125E+04  0.7818609E-02  0.8832852E-01
        2   -1    0    0  501    0  0.00000000000E+00  0.00000000000E+00  0.22314303050E+04  0.22314303050E+04  0.25500000920E-02 0. -1.
       -2   -1    0    0    0  501  0.00000000000E+00  0.00000000000E+00 -0.27973039366E+03  0.27973039367E+03  0.25500000920E-02 0.  1.
    10030    2    1    2    0    0  0.00000000000E+00  0.00000000000E+00  0.19516999113E+04  0.25111606987E+04  0.15801251566E+04 0.  0.
        5    1    3    3  502    0 -0.59746213399E+02 -0.69205342006E+03  0.37768522465E+03  0.79068057087E+03  0.46999998093E+01 0.  1.
       -5    1    3    3    0  502  0.59746213399E+02  0.69205342006E+03  0.15740146867E+04  0.17204801278E+04  0.46999998093E+01 0. -1.
</event>
<event>
 5   0  0.8620155E-05  0.1599516E+04  0.7818609E-02  0.8820845E-01
        2   -1    0    0  501    0  0.00000000000E+00  0.00000000000E+00  0.59319398912E+03  0.59319398912E+03  0.25500000920E-02 0. -1.
       -2   -1    0    0    0  501  0.00000000000E+00  0.00000000000E+00 -0.10782528492E+04  0.10782528492E+04  0.25500000920E-02 0.  1.
    10030    2    1    2    0    0  0.00000000000E+00  0.00000000000E+00 -0.48505886006E+03  0.16714468383E+04  0.15995163130E+04 0.  0.
        4    1    3    3  502    0  0.69461095937E+03  0.39621561913E+03 -0.25490667102E+03  0.83931533142E+03  0.12699999809E+01 0. -1.
       -4    1    3    3    0  502 -0.69461095937E+03 -0.39621561913E+03 -0.23015218904E+03  0.83213150688E+03  0.12699999809E+01 0.  1.
</event>
<event>
 5   0  0.4314657E-05  0.1600232E+04  0.7818609E-02  0.8820405E-01
        1   -1    0    0  501    0  0.00000000000E+00  0.00000000000E+00  0.11417429092E+04  0.11417429092E+04  0.50400001928E-02 0.  1.
       -1   -1    0    0    0  501  0.00000000000E+00  0.00000000000E+00 -0.56070940510E+03  0.56070940513E+03  0.50400001928E-02 0. -1.
    10030    2    1    2    0    0  0.00000000000E+00  0.00000000000E+00  0.58103350410E+03  0.17024523143E+04  0.16002324674E+04 0.  0.
        5    1    3    3  502    0 -0.22532062352E+02 -0.72844222885E+03  0.64180299790E+03  0.97111737330E+03  0.46999998093E+01 0.  1.
       -5    1    3    3    0  502  0.22532062352E+02  0.72844222885E+03 -0.60769493802E+02  0.73133494104E+03  0.46999998093E+01 0. -1.
</event>
<event>
 5   0  0.8620155E-05  0.1608077E+04  0.7818609E-02  0.8815601E-01
        2   -1    0    0  501    0  0.00000000000E+00  0.00000000000E+00  0.13638019699E+04  0.13638019699E+04  0.25500000920E-02 0. -1.
       -2   -1    0    0    0  501  0.00000000000E+00  0.00000000000E+00 -0.47402627714E+03  0.47402627715E+03  0.25500000920E-02 0.  1.
    10030    2    1    2    0    0  0.00000000000E+00  0.00000000000E+00  0.88977569276E+03  0.18378282470E+04  0.16080770760E+04 0.  0.
        4    1    3    3  502    0  0.77435774573E+03  0.13354424637E+03  0.63955366106E+03  0.10131606400E+04  0.12699999809E+01 0. -1.
       -4    1    3    3    0  502 -0.77435774573E+03 -0.13354424637E+03  0.25022203170E+03  0.82466760708E+03  0.12699999809E+01 0.  1.
</event>
<event>
 5   0  0.4256406E-05  0.1599586E+04  0.7818609E-02  0.8820802E-01
        1   -1    0    0  501    0  0.00000000000E+00  0.00000000000E+00  0.14763074241E+04  0.14763074241E+04  0.50400001928E-02 0.  1.
       -1   -1    0    0    0  501  0.00000000000E+00  0.00000000000E+00 -0.43328973642E+03  0.43328973645E+03  0.50400001928E-02 0. -1.
    10030    2    1    2    0    0  0.00000000000E+00  0.00000000000E+00  0.10430176877E+04  0.19095971606E+04  0.15995860148E+04 0.  0.
        3    1    3    3  502    0  0.66841165560E+03  0.14104792940E+03  0.10180525087E+04  0.12260096167E+04  0.10100000352E+00 0.  1.
       -3    1    3    3    0  502 -0.66841165560E+03 -0.14104792940E+03  0.24965179025E+02  0.68358754384E+03  0.10100000352E+00 0. -1.
</event>
<event>
 5   0  0.7901257E-05  0.1598554E+04  0.7818609E-02  0.8821437E-01
        2   -1    0    0  501    0  0.00000000000E+00  0.00000000000E+00  0.85951252855E+03  0.85951252856E+03  0.25500000920E-02 0. -1.
       -2   -1    0    0    0  501  0.00000000000E+00  0.00000000000E+00 -0.74326288269E+03  0.74326288269E+03  0.25500000920E-02 0.  1.
    10030    2    1    2    0    0  0.00000000000E+00  0.00000000000E+00  0.11624964586E+03  0.16027754112E+04  0.15985540462E+04 0.  0.
        2    1    3    3  502    0  0.31469282001E+03 -0.30078607539E+03  0.73022320750E+03  0.85013514625E+03  0.25500000920E-02 0. -1.
       -2    1    3    3    0  502 -0.31469282001E+03  0.30078607539E+03 -0.61397356163E+03  0.75264026500E+03  0.25500000920E-02 0.  1.
</event>
<event>
 5   0  0.8694033E-05  0.1600222E+04  0.7818609E-02  0.8820412E-01
       -2   -1    0    0    0  501  0.00000000000E+00  0.00000000000E+00  0.65055689077E+03  0.65055689077E+03  0.25500000920E-02 0.  1.
        2   -1    0    0  501    0  0.00000000000E+00  0.00000000000E+00 -0.98404562943E+03  0.98404562943E+03  0.25500000920E-02 0. -1.
    10030    2    1    2    0    0  0.00000000000E+00  0.00000000000E+00 -0.33348873866E+03  0.16346025202E+04  0.16002220659E+04 0.  0.
        1    1    3    3  502    0  0.31353798122E+03 -0.68169900809E+03 -0.45048567583E+03  0.87518966370E+03  0.50400001928E-02 0.  1.
       -1    1    3    3    0  502 -0.31353798122E+03  0.68169900809E+03  0.11699693717E+03  0.75941285651E+03  0.50400001928E-02 0. -1.
</event>
<event>
 5   0  0.4373026E-05  0.1594521E+04  0.7818609E-02  0.8823921E-01
        1   -1    0    0  501    0  0.00000000000E+00  0.00000000000E+00  0.13813454861E+04  0.13813454861E+04  0.50400001928E-02 0. -1.
       -1   -1    0    0    0  501  0.00000000000E+00  0.00000000000E+00 -0.46014882191E+03  0.46014882193E+03  0.50400001928E-02 0.  1.
    10030    2    1    2    0    0  0.00000000000E+00  0.00000000000E+00  0.92119666415E+03  0.18414943080E+04  0.15945212424E+04 0.  0.
        4    1    3    3  502    0 -0.27134613808E+03 -0.73279233935E+03  0.64323710257E+03  0.10121111215E+04  0.12699999809E+01 0. -1.
       -4    1    3    3    0  502  0.27134613808E+03  0.73279233935E+03  0.27795956159E+03  0.82938318649E+03  0.12699999809E+01 0.  1.
</event>
<event>
 5   0  0.8694033E-05  0.1601347E+04  0.7818609E-02  0.8819721E-01
       -2   -1    0    0    0  501  0.00000000000E+00  0.00000000000E+00  0.31409376226E+03  0.31409376227E+03  0.25500000920E-02 0. -1.
        2   -1    0    0  501    0  0.00000000000E+00  0.00000000000E+00 -0.20410415842E+04  0.20410415842E+04  0.25500000920E-02 0.  1.
    10030    2    1    2    0    0  0.00000000000E+00  0.00000000000E+00 -0.17269478219E+04  0.23551353464E+04  0.16013474702E+04 0.  0.
        1    1    3    3  502    0  0.25812075783E+03 -0.59590010746E+03 -0.17465632519E+03  0.67247906707E+03  0.50400001928E-02 0. -1.
       -1    1    3    3    0  502 -0.25812075783E+03  0.59590010746E+03 -0.15522914967E+04  0.16826562794E+04  0.50400001928E-02 0.  1.
</event>
<event>
 5   0  0.4211419E-05  0.1598923E+04  0.7818609E-02  0.8821210E-01
        1   -1    0    0  501    0  0.00000000000E+00  0.00000000000E+00  0.11567706417E+04  0.11567706417E+04  0.50400001928E-02 0.  1.
       -1   -1    0    0    0  501  0.00000000000E+00  0.00000000000E+00 -0.55251999362E+03  0.55251999365E+03  0.50400001928E-02 0. -1.
    10030    2    1    2    0    0  0.00000000000E+00  0.00000000000E+00  0.60425064804E+03  0.17092906353E+04  0.15989232722E+04 0.  0.
        2    1    3    3  502    0  0.22595741602E+03  0.18010797380E+03 -0.49474255177E+03  0.57294487398E+03  0.25500000920E-02 0. -1.
       -2    1    3    3    0  502 -0.22595741602E+03 -0.18010797380E+03  0.10989931998E+04  0.11363457613E+04  0.25500000920E-02 0.  1.
</event>
<event>
 5   0  0.8620155E-05  0.1601430E+04  0.7818609E-02  0.8819670E-01
       -2   -1    0    0    0  501  0.00000000000E+00  0.00000000000E+00  0.88985570449E+03  0.88985570450E+03  0.25500000920E-02 0.  1.
        2   -1    0    0  501    0  0.00000000000E+00  0.00000000000E+00 -0.72050363832E+03  0.72050363833E+03  0.25500000920E-02 0. -1.
    10030    2    1    2    0    0  0.00000000000E+00  0.00000000000E+00  0.16935206617E+03  0.16103593428E+04  0.16014297021E+04 0.  0.
        4    1    3    3  502    0 -0.39074021185E+03 -0.84269734095E+02 -0.61299618988E+03  0.73180956741E+03  0.12699999809E+01 0. -1.
       -4    1    3    3    0  502  0.39074021185E+03  0.84269734095E+02  0.78234825605E+03  0.87854977542E+03  0.12699999809E+01 0.  1.
</event>
<event>
 5   0  0.7849690E-05  0.1599236E+04  0.7818609E-02  0.8821017E-01
        2   -1    0    0  501    0  0.00000000000E+00  0.00000000000E+00  0.24683450709E+04  0.24683450709E+04  0.25500000920E-02 0.  1.
       -2   -1    0    0    0  501  0.00000000000E+00  0.00000000000E+00 -0.25903560323E+03  0.25903560324E+03  0.25500000920E-02 0. -1.
    10030    2    1    2    0    0  0.00000000000E+00  0.00000000000E+00  0.22093094677E+04  0.27273806742E+04  0.15992363858E+04 0.  0.
        3    1    3    3  502    0  0.13364371309E+03 -0.55032333133E+03  0.14192226870E+03  0.58383075596E+03  0.10100000352E+00 0. -1.
       -3    1    3    3    0  502 -0.13364371309E+03  0.55032333133E+03  0.20673871990E+04  0.21435499182E+04  0.10100000352E+00 0.  1.
</event>
<event>
 5   0  0.4211419E-05  0.1602637E+04  0.7818609E-02  0.8818930E-01
        1   -1    0    0  501    0  0.00000000000E+00  0.00000000000E+00  0.17166700594E+04  0.17166700594E+04  0.50400001928E-02 0.  1.
       -1   -1    0    0    0  501  0.00000000000E+00  0.00000000000E+00 -0.37404471988E+03  0.37404471992E+03  0.50400001928E-02 0. -1.
    10030    2    1    2    0    0  0.00000000000E+00  0.00000000000E+00  0.13426253395E+04  0.20907147793E+04  0.16026370413E+04 0.  0.
        2    1    3    3  502    0  0.77506547202E+03  0.19341628767E+03  0.75356146770E+03  0.10981763209E+04  0.25500000920E-02 0. -1.
       -2    1    3    3    0  502 -0.77506547202E+03 -0.19341628767E+03  0.58906387177E+03  0.99253845834E+03  0.25500000920E-02 0.  1.
</event>
<event>
 5   0  0.4373026E-05  0.1599473E+04  0.7818609E-02  0.8820872E-01
       -1   -1    0    0    0  501  0.00000000000E+00  0.00000000000E+00  0.20067773381E+04  0.20067773382E+04  0.50400001928E-02 0.  1.
        1   -1    0    0  501    0  0.00000000000E+00  0.00000000000E+00 -0.31870909013E+03  0.31870909017E+03  0.50400001928E-02 0. -1.
    10030    2    1    2    0    0  0.00000000000E+00  0.00000000000E+00  0.16880682480E+04  0.23254864283E+04  0.15994726376E+04 0.  0.
        4    1    3    3  502    0  0.34111073021E+02 -0.79860243453E+03  0.80704785992E+03  0.11358949224E+04  0.12699999809E+01 0.  1.
       -4    1    3    3    0  502 -0.34111073021E+02  0.79860243453E+03  0.88102038809E+03  0.11895915059E+04  0.12699999809E+01 0. -1.
</event>
<event>
 5   0  0.4256406E-05  0.1599428E+04  0.7818609E-02  0.8820900E-01
        1   -1    0    0  501    0  0.00000000000E+00  0.00000000000E+00  0.63074400590E+03  0.63074400592E+03  0.50400001928E-02 0. -1.
       -1   -1    0    0    0  501  0.00000000000E+00  0.00000000000E+00 -0.10139487354E+04  0.10139487354E+04  0.50400001928E-02 0.  1.
    10030    2    1    2    0    0  0.00000000000E+00  0.00000000000E+00 -0.38320472951E+03  0.16446927413E+04  0.15994275065E+04 0.  0.
        3    1    3    3  502    0 -0.43486323243E+03  0.44784931032E+03 -0.70561607404E+03  0.94210885243E+03  0.10100000352E+00 0. -1.
       -3    1    3    3    0  502  0.43486323243E+03 -0.44784931032E+03  0.32241134453E+03  0.70258388891E+03  0.10100000352E+00 0.  1.
</event>
<event>
 5   0  0.4256406E-05  0.1599328E+04  0.7818609E-02  0.8820961E-01
        1   -1    0    0  501    0  0.00000000000E+00  0.00000000000E+00  0.10880210907E+04  0.10880210907E+04  0.50400001928E-02 0.  1.
       -1   -1    0    0    0  501  0.00000000000E+00  0.00000000000E+00 -0.58772986350E+03  0.58772986352E+03  0.50400001928E-02 0. -1.
    10030    2    1    2    0    0  0.00000000000E+00  0.00000000000E+00  0.50029122722E+03  0.16757509542E+04  0.15993279678E+04 0.  0.
        3    1    3    3  502    0 -0.36341666446E+03  0.24718259794E+03 -0.44982737998E+03  0.62890030268E+03  0.10100000352E+00 0. -1.
       -3    1    3    3    0  502  0.36341666446E+03 -0.24718259794E+03  0.95011860720E+03  0.10468506516E+04  0.10100000352E+00 0.  1.
</event>
<event>
 5   0  0.7849690E-05  0.1615347E+04  0.7818609E-02  0.8811175E-01
        2   -1    0    0  501    0  0.00000000000E+00  0.00000000000E+00  0.10190245657E+04  0.10190245657E+04  0.25500000920E-02 0. -1.
       -2   -1    0    0    0  501  0.00000000000E+00  0.00000000000E+00 -0.64015789816E+03  0.64015789816E+03  0.25500000920E-02 0.  1.
    10030    2    1    2    0    0  0.00000000000E+00  0.00000000000E+00  0.37886666753E+03  0.16591824639E+04  0.16153471752E+04 0.  0.
        3    1    3    3  502    0 -0.30144620596E+03 -0.34162083768E+03  0.87443576145E+03  0.98600837873E+03  0.10100000352E+00 0. -1.
       -3    1    3    3    0  502  0.30144620596E+03  0.34162083768E+03 -0.49556909392E+03  0.67317408512E+03  0.10100000352E+00 0.  1.
</event>
<event>
 5   0  0.8037548E-05  0.1602217E+04  0.7818609E-02  0.8819187E-01
       -2   -1    0    0    0  501  0.00000000000E+00  0.00000000000E+00  0.10535364868E+04  0.10535364868E+04  0.25500000920E-02 0. -1.
        2   -1    0    0  501    0  0.00000000000E+00  0.00000000000E+00 -0.60916228487E+03  0.60916228488E+03  0.25500000920E-02 0.  1.
    10030    2    1    2    0    0  0.00000000000E+00  0.00000000000E+00  0.44437420190E+03  0.16626987717E+04  0.16022168311E+04 0.  0.
        5    1    3    3  502    0 -0.47055213671E+03  0.62754353980E+03  0.39119175410E+03  0.87651770443E+03  0.46999998093E+01 0. -1.
       -5    1    3    3    0  502  0.47055213671E+03 -0.62754353980E+03  0.53182447798E+02  0.78618106722E+03  0.46999998093E+01 0.  1.
</event>
<event>
 5   0  0.7901257E-05  0.1600539E+04  0.7818609E-02  0.8820217E-01
       -2   -1    0    0    0  501  0.00000000000E+00  0.00000000000E+00  0.54098387471E+03  0.54098387472E+03  0.25500000920E-02 0.  1.
        2   -1    0    0  501    0  0.00000000000E+00  0.00000000000E+00 -0.11838270502E+04  0.11838270502E+04  0.25500000920E-02 0. -1.
    10030    2    1    2    0    0  0.00000000000E+00  0.00000000000E+00 -0.64284317549E+03  0.17248109249E+04  0.16005390900E+04 0.  0.
        2    1    3    3  502    0 -0.51651981949E+03 -0.20859198212E+03  0.29775766127E+03  0.63163515084E+03  0.25500000920E-02 0.  1.
       -2    1    3    3    0  502  0.51651981949E+03  0.20859198212E+03 -0.94060083676E+03  0.10931757741E+04  0.25500000920E-02 0. -1.
</event>
<event>
 5   0  0.4504463E-05  0.1599921E+04  0.7818609E-02  0.8820596E-01
       -1   -1    0    0    0  501  0.00000000000E+00  0.00000000000E+00  0.46170213065E+03  0.46170213068E+03  0.50400001928E-02 0.  1.
        1   -1    0    0  501    0  0.00000000000E+00  0.00000000000E+00 -0.13860384657E+04  0.13860384657E+04  0.50400001928E-02 0. -1.
    10030    2    1    2    0    0  0.00000000000E+00  0.00000000000E+00 -0.92433633501E+03  0.18477405963E+04  0.15999211390E+04 0.  0.
        1    1    3    3  502    0  0.47129585585E+02 -0.24564675272E+02  0.45966093762E+03  0.46272324202E+03  0.50400001928E-02 0.  1.
       -1    1    3    3    0  502 -0.47129585585E+02  0.24564675272E+02 -0.13839972726E+04  0.13850173543E+04  0.50400001928E-02 0. -1.
</event>
<event>
 5   0  0.7901257E-05  0.1615741E+04  0.7818609E-02  0.8810936E-01
        2   -1    0    0  501    0  0.00000000000E+00  0.00000000000E+00  0.11793963493E+04  0.11793963493E+04  0.25500000920E-02 0. -1.
       -2   -1    0    0    0  501  0.00000000000E+00  0.00000000000E+00 -0.55338006036E+03  0.55338006036E+03  0.25500000920E-02 0.  1.
    10030    2    1    2    0    0  0.00000000000E+00  0.00000000000E+00  0.62601628898E+03  0.17327764097E+04  0.16157406017E+04 0.  0.
        2    1    3    3  502    0 -0.32543398661E+02  0.74910193351E+03 -0.95107117100E+01  0.74986881068E+03  0.25500000920E-02 0.  1.
       -2    1    3    3    0  502  0.32543398661E+02 -0.74910193351E+03  0.63552700069E+03  0.98290759902E+03  0.25500000920E-02 0. -1.
</event>
<event>
 5   0  0.4504463E-05  0.1622441E+04  0.7818609E-02  0.8806879E-01
        1   -1    0    0  501    0  0.00000000000E+00  0.00000000000E+00  0.70596292107E+03  0.70596292108E+03  0.50400001928E-02 0.  1.
       -1   -1    0    0    0  501  0.00000000000E+00  0.00000000000E+00 -0.93217193065E+03  0.93217193067E+03  0.50400001928E-02 0. -1.
    10030    2    1    2    0    0  0.00000000000E+00  0.00000000000E+00 -0.22620900959E+03  0.16381348518E+04  0.16224411473E+04 0.  0.
        1    1    3    3  502    0  0.15559549224E+03  0.42967278927E+03 -0.78984913178E+03  0.91251866504E+03  0.50400001928E-02 0. -1.
       -1    1    3    3    0  502 -0.15559549224E+03 -0.42967278927E+03  0.56364012219E+03  0.72561618671E+03  0.50400001928E-02 0.  1.
</event>
<event>
 5   0  0.4314657E-05  0.1600567E+04  0.7818609E-02  0.8820200E-01
        1   -1    0    0  501    0  0.00000000000E+00  0.00000000000E+00  0.10294287328E+04  0.10294287328E+04  0.50400001928E-02 0. -1.
       -1   -1    0    0    0  501  0.00000000000E+00  0.00000000000E+00 -0.62214457753E+03  0.62214457755E+03  0.50400001928E-02 0.  1.
    10030    2    1    2    0    0  0.00000000000E+00  0.00000000000E+00  0.40728415524E+03  0.16515733103E+04  0.16005667797E+04 0.  0.
        5    1    3    3  502    0 -0.12489220629E+03  0.14356959048E+03 -0.59844590467E+03  0.62798875891E+03  0.46999998093E+01 0.  1.
       -5    1    3    3    0  502  0.12489220629E+03 -0.14356959048E+03  0.10057300599E+04  0.10235845514E+04  0.46999998093E+01 0. -1.
</event>
<event>
 5   0  0.8620155E-05  0.1600660E+04  0.7818609E-02  0.8820142E-01
        2   -1    0    0  501    0  0.00000000000E+00  0.00000000000E+00  0.15337993136E+04  0.15337993136E+04  0.25500000920E-02 0.  1.
       -2   -1    0    0    0  501  0.00000000000E+00  0.00000000000E+00 -0.41760902802E+03  0.41760902803E+03  0.25500000920E-02 0. -1.
    10030    2    1    2    0    0  0.00000000000E+00  0.00000000000E+00  0.11161902856E+04  0.19514083417E+04  0.16006604144E+04 0.  0.
        4    1    3    3  502    0  0.67593801740E+02 -0.30896920396E+03 -0.33818787790E+03  0.46303730378E+03  0.12699999809E+01 0. -1.
       -4    1    3    3    0  502 -0.67593801740E+02  0.30896920396E+03  0.14543781635E+04  0.14883710379E+04  0.12699999809E+01 0.  1.
</event>
<event>
 5   0  0.4256406E-05  0.1598313E+04  0.7818609E-02  0.8821585E-01
        1   -1    0    0  501    0  0.00000000000E+00  0.00000000000E+00  0.70136673349E+03  0.70136673351E+03  0.50400001928E-02 0. -1.
       -1   -1    0    0    0  501  0.00000000000E+00  0.00000000000E+00 -0.91058105438E+03  0.91058105440E+03  0.50400001928E-02 0.  1.
    10030    2    1    2    0    0  0.00000000000E+00  0.00000000000E+00 -0.20921432089E+03  0.16119477879E+04  0.15983131855E+04 0.  0.
        3    1    3    3  502    0 -0.73066299429E+03 -0.16501943372E+03  0.17624901590E+03  0.76952163747E+03  0.10100000352E+00 0. -1.
       -3    1    3    3    0  502  0.73066299429E+03  0.16501943372E+03 -0.38546333679E+03  0.84242615044E+03  0.10100000352E+00 0.  1.
</event>
<event>
 5   0  0.3042125E-05  0.1601996E+04  0.7818609E-02  0.8819323E-01
       -3   -1    0    0    0  501  0.00000000000E+00  0.00000000000E+00  0.11414674767E+04  0.11414674811E+04  0.10100000352E+00 0.  1.
        3   -1    0    0  501    0  0.00000000000E+00  0.00000000000E+00 -0.56208178430E+03  0.56208179337E+03  0.10100000352E+00 0. -1.
    10030    2    1    2    0    0  0.00000000000E+00  0.00000000000E+00  0.57938569236E+03  0.17035492745E+04  0.16019963640E+04 0.  0.
        4    1    3    3  502    0  0.25803025869E+03 -0.42603364870E+03 -0.37737847406E+03  0.62490031990E+03  0.12699999809E+01 0. -1.
       -4    1    3    3    0  502 -0.25803025869E+03  0.42603364870E+03  0.95676416642E+03  0.10786489546E+04  0.12699999809E+01 0.  1.
</event>
<event>
 5   0  0.4504463E-05  0.1599555E+04  0.7818609E-02  0.8820821E-01
       -1   -1    0    0    0  501  0.00000000000E+00  0.00000000000E+00  0.68489746021E+03  0.68489746023E+03  0.50400001928E-02 0. -1.
        1   -1    0    0  501    0  0.00000000000E+00  0.00000000000E+00 -0.93392665866E+03  0.93392665868E+03  0.50400001928E-02 0.  1.
    10030    2    1    2    0    0  0.00000000000E+00  0.00000000000E+00 -0.24902919845E+03  0.16188241189E+04  0.15995549338E+04 0.  0.
        1    1    3    3  502    0  0.78578782942E+03  0.11335961685E+03 -0.26753407955E+02  0.79437312421E+03  0.50400001928E-02 0.  1.
       -1    1    3    3    0  502 -0.78578782942E+03 -0.11335961685E+03 -0.22227579049E+03  0.82445099470E+03  0.50400001928E-02 0. -1.
</event>
<event>
 5   0  0.4211419E-05  0.1599839E+04  0.7818609E-02  0.8820647E-01
       -1   -1    0    0    0  501  0.00000000000E+00  0.00000000000E+00  0.53246384794E+03  0.53246384797E+03  0.50400001928E-02 0.  1.
        1   -1    0    0  501    0  0.00000000000E+00  0.00000000000E+00 -0.12017169153E+04  0.12017169153E+04  0.50400001928E-02 0. -1.
    10030    2    1    2    0    0  0.00000000000E+00  0.00000000000E+00 -0.66925306739E+03  0.17341807633E+04  0.15998385080E+04 0.  0.
        2    1    3    3  502    0 -0.58792686374E+03 -0.54061744438E+03 -0.38243935777E+03  0.88554225233E+03  0.25500000920E-02 0. -1.
       -2    1    3    3    0  502  0.58792686374E+03  0.54061744438E+03 -0.28681370962E+03  0.84863851098E+03  0.25500000920E-02 0.  1.
</event>
<event>
 5   0  0.4373026E-05  0.1550843E+04  0.7818609E-02  0.8851330E-01
        1   -1    0    0  501    0  0.00000000000E+00  0.00000000000E+00  0.16832916294E+04  0.16832916295E+04  0.50400001928E-02 0.  1.
       -1   -1    0    0    0  501  0.00000000000E+00  0.00000000000E+00 -0.35720385368E+03  0.35720385371E+03  0.50400001928E-02 0. -1.
    10030    2    1    2    0    0  0.00000000000E+00  0.00000000000E+00  0.13260877758E+04  0.20404954832E+04  0.15508426831E+04 0.  0.
        4    1    3    3  502    0 -0.50029321388E+03  0.51058511360E+03  0.26769679836E+03  0.76331752687E+03  0.12699999809E+01 0. -1.
       -4    1    3    3    0  502  0.50029321388E+03 -0.51058511360E+03  0.10583909774E+04  0.12771779563E+04  0.12699999809E+01 0.  1.
</event>
<event>
 5   0  0.4314657E-05  0.1599094E+04  0.7818609E-02  0.8821105E-01
       -1   -1    0    0    0  501  0.00000000000E+00  0.00000000000E+00  0.74387881312E+03  0.74387881314E+03  0.50400001928E-02 0. -1.
        1   -1    0    0  501    0  0.00000000000E+00  0.00000000000E+00 -0.85938086144E+03  0.85938086145E+03  0.50400001928E-02 0.  1.
    10030    2    1    2    0    0  0.00000000000E+00  0.00000000000E+00 -0.11550204832E+03  0.16032596746E+04  0.15990937624E+04 0.  0.
        5    1    3    3  502    0  0.21574823208E+01  0.53077294826E+02  0.74209372007E+03  0.74400741483E+03  0.46999998093E+01 0. -1.
       -5    1    3    3    0  502 -0.21574823208E+01 -0.53077294826E+02 -0.85759576839E+03  0.85925225976E+03  0.46999998093E+01 0.  1.
</event>
<event>
 5   0  0.8694033E-05  0.1601311E+04  0.7818609E-02  0.8819743E-01
        2   -1    0    0  501    0  0.00000000000E+00  0.00000000000E+00  0.94431197641E+03  0.94431197642E+03  0.25500000920E-02 0. -1.
       -2   -1    0    0    0  501  0.00000000000E+00  0.00000000000E+00 -0.67885349157E+03  0.67885349158E+03  0.25500000920E-02 0.  1.
    10030    2    1    2    0    0  0.00000000000E+00  0.00000000000E+00  0.26545848484E+03  0.16231654680E+04  0.16013113156E+04 0.  0.
        1    1    3    3  502    0  0.41715403541E+03  0.25058335344E+03 -0.51174661340E+03  0.70618276857E+03  0.50400001928E-02 0.  1.
       -1    1    3    3    0  502 -0.41715403541E+03 -0.25058335344E+03  0.77720509824E+03  0.91698269942E+03  0.50400001928E-02 0. -1.
</event>
<event>
 5   0  0.4211419E-05  0.1601771E+04  0.7818609E-02  0.8819461E-01
        1   -1    0    0  501    0  0.00000000000E+00  0.00000000000E+00  0.14100883580E+04  0.14100883580E+04  0.50400001928E-02 0. -1.
       -1   -1    0    0    0  501  0.00000000000E+00  0.00000000000E+00 -0.45487770636E+03  0.45487770639E+03  0.50400001928E-02 0.  1.
    10030    2    1    2    0    0  0.00000000000E+00  0.00000000000E+00  0.95521065160E+03  0.18649660644E+04  0.16017712172E+04 0.  0.
        2    1    3    3  502    0 -0.67049534775E+03 -0.34100812337E+03  0.15754110201E+03  0.76855042150E+03  0.25500000920E-02 0.  1.
       -2    1    3    3    0  502  0.67049534775E+03  0.34100812337E+03  0.79766954959E+03  0.10964156429E+04  0.25500000920E-02 0. -1.
</event>
<event>
 5   0  0.7849690E-05  0.1633269E+04  0.7818609E-02  0.8800367E-01
       -2   -1    0    0    0  501  0.00000000000E+00  0.00000000000E+00  0.27970853422E+04  0.27970853422E+04  0.25500000920E-02 0.  1.
        2   -1    0    0  501    0  0.00000000000E+00  0.00000000000E+00 -0.23842375183E+03  0.23842375184E+03  0.25500000920E-02 0. -1.
    10030    2    1    2    0    0  0.00000000000E+00  0.00000000000E+00  0.25586615903E+04  0.30355090940E+04  0.16332686019E+04 0.  0.
        3    1    3    3  502    0  0.37822016689E+03  0.71716309491E+02  0.26178701606E+04  0.26460230369E+04  0.10100000352E+00 0.  1.
       -3    1    3    3    0  502 -0.37822016689E+03 -0.71716309491E+02 -0.59208570296E+02  0.38948605711E+03  0.10100000352E+00 0. -1.
</event>
<event>
 5   0  0.4373026E-05  0.1602185E+04  0.7818609E-02  0.8819207E-01
        1   -1    0    0  501    0  0.00000000000E+00  0.00000000000E+00  0.11229419746E+04  0.11229419746E+04  0.50400001928E-02 0.  1.
       -1   -1    0    0    0  501  0.00000000000E+00  0.00000000000E+00 -0.57148928813E+03  0.57148928815E+03  0.50400001928E-02 0. -1.
    10030    2    1    2    0    0  0.00000000000E+00  0.00000000000E+00  0.55145268644E+03  0.16944312627E+04  0.16021851450E+04 0.  0.
        4    1    3    3  502    0  0.21454781559E+03 -0.36208751074E+03 -0.44514096212E+03  0.61260935323E+03  0.12699999809E+01 0. -1.
       -4    1    3    3    0  502 -0.21454781559E+03  0.36208751074E+03  0.99659364856E+03  0.10818219095E+04  0.12699999809E+01 0.  1.
</event>
<event>
 5   0  0.8694033E-05  0.1603578E+04  0.7818609E-02  0.8818353E-01
       -2   -1    0    0    0  501  0.00000000000E+00  0.00000000000E+00  0.16567524044E+04  0.16567524044E+04  0.25500000920E-02 0.  1.
        2   -1    0    0  501    0  0.00000000000E+00  0.00000000000E+00 -0.38802736226E+03  0.38802736227E+03  0.25500000920E-02 0. -1.
    10030    2    1    2    0    0  0.00000000000E+00  0.00000000000E+00  0.12687250421E+04  0.20447797667E+04  0.16035775820E+04 0.  0.
        1    1    3    3  502    0  0.31689049766E+03 -0.49088595851E+03  0.13345001281E+04  0.14568044494E+04  0.50400001928E-02 0.  1.
       -1    1    3    3    0  502 -0.31689049766E+03  0.49088595851E+03 -0.65775085976E+02  0.58797531728E+03  0.50400001928E-02 0. -1.
</event>
<event>
 5   0  0.4256406E-05  0.1599964E+04  0.7818609E-02  0.8820570E-01
        1   -1    0    0  501    0  0.00000000000E+00  0.00000000000E+00  0.70703987216E+03  0.70703987218E+03  0.50400001928E-02 0. -1.
       -1   -1    0    0    0  501  0.00000000000E+00  0.00000000000E+00 -0.90514207985E+03  0.90514207986E+03  0.50400001928E-02 0.  1.
    10030    2    1    2    0    0  0.00000000000E+00  0.00000000000E+00 -0.19810220769E+03  0.16121819520E+04  0.15999644252E+04 0.  0.
        3    1    3    3  502    0 -0.77440260182E+03 -0.49203917398E+01 -0.30120192263E+03  0.83093092875E+03  0.10100000352E+00 0. -1.
       -3    1    3    3    0  502  0.77440260182E+03  0.49203917398E+01  0.10309971494E+03  0.78125102329E+03  0.10100000352E+00 0.  1.
</event>
<event>
 5   0  0.8620155E-05  0.1598915E+04  0.7818609E-02  0.8821215E-01
       -2   -1    0    0    0  501  0.00000000000E+00  0.00000000000E+00  0.81633860046E+03  0.81633860046E+03  0.25500000920E-02 0. -1.
        2   -1    0    0  501    0  0.00000000000E+00  0.00000000000E+00 -0.78292557071E+03  0.78292557071E+03  0.25500000920E-02 0.  1.
    10030    2    1    2    0    0  0.00000000000E+00  0.00000000000E+00  0.33413029751E+02  0.15992641712E+04  0.15989150880E+04 0.  0.
        4    1    3    3  502    0  0.12007980345E+03  0.31889150337E+03  0.74006548744E+03  0.81474504523E+03  0.12699999809E+01 0. -1.
       -4    1    3    3    0  502 -0.12007980345E+03 -0.31889150337E+03 -0.70665245769E+03  0.78451912595E+03  0.12699999809E+01 0.  1.
</event>
<event>
 5   0  0.3042125E-05  0.1603786E+04  0.7818609E-02  0.8818226E-01
        3   -1    0    0  501    0  0.00000000000E+00  0.00000000000E+00  0.72368318078E+03  0.72368318783E+03  0.10100000352E+00 0. -1.
       -3   -1    0    0    0  501  0.00000000000E+00  0.00000000000E+00 -0.88855462178E+03  0.88855462752E+03  0.10100000352E+00 0.  1.
    10030    2    1    2    0    0  0.00000000000E+00  0.00000000000E+00 -0.16487144100E+03  0.16122378153E+04  0.16037855783E+04 0.  0.
        5    1    3    3  502    0 -0.34735413202E+03 -0.43399721058E+03 -0.66341012225E+03  0.86553079213E+03  0.46999998093E+01 0.  1.
       -5    1    3    3    0  502  0.34735413202E+03  0.43399721058E+03  0.49853868125E+03  0.74670702322E+03  0.46999998093E+01 0. -1.
</event>
<event>
 5   0  0.7901257E-05  0.1601945E+04  0.7818609E-02  0.8819354E-01
       -2   -1    0    0    0  501  0.00000000000E+00  0.00000000000E+00  0.60628113272E+03  0.60628113273E+03  0.25500000920E-02 0. -1.
        2   -1    0    0  501    0  0.00000000000E+00  0.00000000000E+00 -0.10581835140E+04  0.10581835140E+04  0.25500000920E-02 0.  1.
    10030    2    1    2    0    0  0.00000000000E+00  0.00000000000E+00 -0.45190238129E+03  0.16644646467E+04  0.16019446926E+04 0.  0.
        2    1    3    3  502    0 -0.45601666135E+03 -0.54165421357E+03 -0.61501978875E+03  0.93786450144E+03  0.25500000920E-02 0.  1.
       -2    1    3    3    0  502  0.45601666135E+03  0.54165421357E+03  0.16311740746E+03  0.72660014529E+03  0.25500000920E-02 0. -1.
</event>
<event>
 5   0  0.8037548E-05  0.1594059E+04  0.7818609E-02  0.8824206E-01
        2   -1    0    0  501    0  0.00000000000E+00  0.00000000000E+00  0.19072915800E+04  0.19072915800E+04  0.25500000920E-02 0. -1.
       -2   -1    0    0    0  501  0.00000000000E+00  0.00000000000E+00 -0.33306687253E+03  0.33306687254E+03  0.25500000920E-02 0.  1.
    10030    2    1    2    0    0  0.00000000000E+00  0.00000000000E+00  0.15742247075E+04  0.22403584526E+04  0.15940585204E+04 0.  0.
        5    1    3    3  502    0 -0.20731528006E+03 -0.79202957596E+00 -0.29448843012E+03  0.36017464948E+03  0.46999998093E+01 0.  1.
       -5    1    3    3    0  502  0.20731528006E+03  0.79202957596E+00  0.18687131376E+04  0.18801838031E+04  0.46999998093E+01 0. -1.
</event>
<event>
 5   0  0.7901257E-05  0.1599400E+04  0.7818609E-02  0.8820917E-01
        2   -1    0    0  501    0  0.00000000000E+00  0.00000000000E+00  0.92089385011E+03  0.92089385012E+03  0.25500000920E-02 0. -1.
       -2   -1    0    0    0  501  0.00000000000E+00  0.00000000000E+00 -0.69445604643E+03  0.69445604644E+03  0.25500000920E-02 0.  1.
    10030    2    1    2    0    0  0.00000000000E+00  0.00000000000E+00  0.22643780368E+03  0.16153498966E+04  0.15994002655E+04 0.  0.
        2    1    3    3  502    0 -0.44263433153E+03  0.18053826495E+03 -0.53426791296E+03  0.71691102613E+03  0.25500000920E-02 0.  1.
       -2    1    3    3    0  502  0.44263433153E+03 -0.18053826495E+03  0.76070571664E+03  0.89843887043E+03  0.25500000920E-02 0. -1.
</event>
<event>
 5   0  0.7849690E-05  0.1587818E+04  0.7818609E-02  0.8828067E-01
        2   -1    0    0  501    0  0.00000000000E+00  0.00000000000E+00  0.11245506432E+04  0.11245506432E+04  0.25500000920E-02 0.  1.
       -2   -1    0    0    0  501  0.00000000000E+00  0.00000000000E+00 -0.56048290299E+03  0.56048290300E+03  0.25500000920E-02 0. -1.
    10030    2    1    2    0    0  0.00000000000E+00  0.00000000000E+00  0.56406774018E+03  0.16850335462E+04  0.15878178851E+04 0.  0.
        3    1    3    3  502    0  0.48064999237E+03 -0.17081624428E+03  0.92762986825E+03  0.10586310912E+04  0.10100000352E+00 0.  1.
       -3    1    3    3    0  502 -0.48064999237E+03  0.17081624428E+03 -0.36356212808E+03  0.62640245501E+03  0.10100000352E+00 0. -1.
</event>
<event>
 5   0  0.7849690E-05  0.1601569E+04  0.7818609E-02  0.8819585E-01
       -2   -1    0    0    0  501  0.00000000000E+00  0.00000000000E+00  0.60020572675E+03  0.60020572676E+03  0.25500000920E-02 0. -1.
        2   -1    0    0  501    0  0.00000000000E+00  0.00000000000E+00 -0.10683936962E+04  0.10683936962E+04  0.25500000920E-02 0.  1.
    10030    2    1    2    0    0  0.00000000000E+00  0.00000000000E+00 -0.46818796944E+03  0.16685994230E+04  0.16015692491E+04 0.  0.
        3    1    3    3  502    0  0.48508453184E+03 -0.25826756570E+03  0.37273216830E+03  0.66403194051E+03  0.10100000352E+00 0. -1.
       -3    1    3    3    0  502 -0.48508453184E+03  0.25826756570E+03 -0.84092013774E+03  0.10045674824E+04  0.10100000352E+00 0.  1.
</event>
<event>
 5   0  0.7901257E-05  0.1590202E+04  0.7818609E-02  0.8826590E-01
        2   -1    0    0  501    0  0.00000000000E+00  0.00000000000E+00  0.80257485360E+03  0.80257485360E+03  0.25500000920E-02 0.  1.
       -2   -1    0    0    0  501  0.00000000000E+00  0.00000000000E+00 -0.78769666504E+03  0.78769666505E+03  0.25500000920E-02 0. -1.
    10030    2    1    2    0    0  0.00000000000E+00  0.00000000000E+00  0.14878188556E+02  0.15902715187E+04  0.15902019188E+04 0.  0.
        2    1    3    3  502    0  0.59676744708E+03 -0.83744744689E+02 -0.51127519965E+03  0.79028279618E+03  0.25500000920E-02 0. -1.
       -2    1    3    3    0  502 -0.59676744708E+03  0.83744744689E+02  0.52615338820E+03  0.79998872247E+03  0.25500000920E-02 0.  1.
</event>
<event>
 5   0  0.3042125E-05  0.1632461E+04  0.7818609E-02  0.8800850E-01
       -3   -1    0    0    0  501  0.00000000000E+00  0.00000000000E+00  0.17220589800E+04  0.17220589830E+04  0.10100000352E+00 0.  1.
        3   -1    0    0  501    0  0.00000000000E+00  0.00000000000E+00 -0.38688132816E+03  0.38688134134E+03  0.10100000352E+00 0. -1.
    10030    2    1    2    0    0  0.00000000000E+00  0.00000000000E+00  0.13351776519E+04  0.21089403243E+04  0.16324613103E+04 0.  0.
        1    1    3    3  502    0  0.29035988106E+03 -0.71384071833E+03  0.32008801712E+03  0.83446615893E+03  0.50400001928E-02 0. -1.
       -1    1    3    3    0  502 -0.29035988106E+03  0.71384071833E+03  0.10150896347E+04  0.12744741654E+04  0.50400001928E-02 0.  1.
</event>
<event>
 5   0  0.3042125E-05  0.1597689E+04  0.7818609E-02  0.8821969E-01
       -4   -1    0    0    0  501  0.00000000000E+00  0.00000000000E+00  0.12552602500E+04  0.12552608924E+04  0.12699999809E+01 0.  1.
        4   -1    0    0  501    0  0.00000000000E+00  0.00000000000E+00 -0.50838130123E+03  0.50838288754E+03  0.12699999809E+01 0. -1.
    10030    2    1    2    0    0  0.00000000000E+00  0.00000000000E+00  0.74687894874E+03  0.17636437800E+04  0.15976893373E+04 0.  0.
        2    1    3    3  502    0  0.14254850909E+03 -0.56712509927E+03  0.97421525555E+03  0.11362421924E+04  0.25500000920E-02 0.  1.
       -2    1    3    3    0  502 -0.14254850909E+03  0.56712509927E+03 -0.22733630681E+03  0.62740158755E+03  0.25500000920E-02 0. -1.
</event>
<event>
 5   0  0.7849690E-05  0.1604824E+04  0.7818609E-02  0.8817590E-01
        2   -1    0    0  501    0  0.00000000000E+00  0.00000000000E+00  0.23431413681E+04  0.23431413681E+04  0.25500000920E-02 0.  1.
       -2   -1    0    0    0  501  0.00000000000E+00  0.00000000000E+00 -0.27478705728E+03  0.27478705729E+03  0.25500000920E-02 0. -1.
    10030    2    1    2    0    0  0.00000000000E+00  0.00000000000E+00  0.20683543108E+04  0.26179284254E+04  0.16048238799E+04 0.  0.
        3    1    3    3  502    0  0.24069105302E+03  0.69671167931E+03  0.51696508701E+03  0.90032897237E+03  0.10100000352E+00 0. -1.
       -3    1    3    3    0  502 -0.24069105302E+03 -0.69671167931E+03  0.15513892238E+04  0.17175994530E+04  0.10100000352E+00 0.  1.
</event>
<event>
 5   0  0.4373026E-05  0.1602367E+04  0.7818609E-02  0.8819095E-01
       -1   -1    0    0    0  501  0.00000000000E+00  0.00000000000E+00  0.34731572490E+03  0.34731572494E+03  0.50400001928E-02 0.  1.
        1   -1    0    0  501    0  0.00000000000E+00  0.00000000000E+00 -0.18481600258E+04  0.18481600258E+04  0.50400001928E-02 0. -1.
    10030    2    1    2    0    0  0.00000000000E+00  0.00000000000E+00 -0.15008443009E+04  0.21954757508E+04  0.16023670480E+04 0.  0.
        4    1    3    3  502    0  0.39584339557E+03  0.68568441412E+03 -0.91844419006E+03  0.12125990486E+04  0.12699999809E+01 0. -1.
       -4    1    3    3    0  502 -0.39584339557E+03 -0.68568441412E+03 -0.58240011087E+03  0.98287670215E+03  0.12699999809E+01 0.  1.
</event>
<event>
 5   0  0.8694033E-05  0.1601267E+04  0.7818609E-02  0.8819770E-01
        2   -1    0    0  501    0  0.00000000000E+00  0.00000000000E+00  0.97451978830E+03  0.97451978831E+03  0.25500000920E-02 0.  1.
       -2   -1    0    0    0  501  0.00000000000E+00  0.00000000000E+00 -0.65777456865E+03  0.65777456865E+03  0.25500000920E-02 0. -1.
    10030    2    1    2    0    0  0.00000000000E+00  0.00000000000E+00  0.31674521966E+03  0.16322943570E+04  0.16012674148E+04 0.  0.
        1    1    3    3  502    0  0.73055559187E+03  0.87790923578E+02  0.48007532069E+03  0.87857329383E+03  0.50400001928E-02 0.  1.
       -1    1    3    3    0  502 -0.73055559187E+03 -0.87790923578E+02 -0.16333010103E+03  0.75372106313E+03  0.50400001928E-02 0. -1.
</event>
<event>
 5   0  0.7901257E-05  0.1613948E+04  0.7818609E-02  0.8812025E-01
        2   -1    0    0  501    0  0.00000000000E+00  0.00000000000E+00  0.19010331699E+04  0.19010331699E+04  0.25500000920E-02 0.  1.
       -2   -1    0    0    0  501  0.00000000000E+00  0.00000000000E+00 -0.34255419413E+03  0.34255419414E+03  0.25500000920E-02 0. -1.
    10030    2    1    2    0    0  0.00000000000E+00  0.00000000000E+00  0.15584789758E+04  0.22435873641E+04  0.16139478127E+04 0.  0.
        2    1    3    3  502    0 -0.13056491585E+03 -0.54930220682E+03  0.15807357388E+04  0.16785426975E+04  0.25500000920E-02 0.  1.
       -2    1    3    3    0  502  0.13056491585E+03  0.54930220682E+03 -0.22256762953E+02  0.56504466653E+03  0.25500000920E-02 0. -1.
</event>
<event>
 5   0  0.4211419E-05  0.1598640E+04  0.7818609E-02  0.8821384E-01
        1   -1    0    0  501    0  0.00000000000E+00  0.00000000000E+00  0.13973506921E+04  0.13973506921E+04  0.50400001928E-02 0. -1.
       -1   -1    0    0    0  501  0.00000000000E+00  0.00000000000E+00 -0.45723110434E+03  0.45723110437E+03  0.50400001928E-02 0.  1.
    10030    2    1    2    0    0  0.00000000000E+00  0.00000000000E+00  0.94011958776E+03  0.18545817965E+04  0.15986396719E+04 0.  0.
        2    1    3    3  502    0 -0.17283780092E+02 -0.79892541413E+03  0.49118679485E+03  0.93800054043E+03  0.25500000920E-02 0.  1.
       -2    1    3    3    0  502  0.17283780092E+02  0.79892541413E+03  0.44893279291E+03  0.91658125606E+03  0.25500000920E-02 0. -1.
</event>
<event>
 5   0  0.8037548E-05  0.1599347E+04  0.7818609E-02  0.8820950E-01
       -2   -1    0    0    0  501  0.00000000000E+00  0.00000000000E+00  0.44278906614E+03  0.44278906615E+03  0.25500000920E-02 0.  1.
        2   -1    0    0  501    0  0.00000000000E+00  0.00000000000E+00 -0.14442030783E+04  0.14442030783E+04  0.25500000920E-02 0. -1.
    10030    2    1    2    0    0  0.00000000000E+00  0.00000000000E+00 -0.10014140122E+04  0.18869921444E+04  0.15993465320E+04 0.  0.
        5    1    3    3  502    0  0.26600061382E+03  0.70413334580E+03 -0.18215757942E+03  0.77444403862E+03  0.46999998093E+01 0. -1.
       -5    1    3    3    0  502 -0.26600061382E+03 -0.70413334580E+03 -0.81925643273E+03  0.11125481058E+04  0.46999998093E+01 0.  1.
</event>
<event>
 5   0  0.4256406E-05  0.1599138E+04  0.7818609E-02  0.8821078E-01
        1   -1    0    0  501    0  0.00000000000E+00  0.00000000000E+00  0.96984224312E+03  0.96984224313E+03  0.50400001928E-02 0.  1.
       -1   -1    0    0    0  501  0.00000000000E+00  0.00000000000E+00 -0.65919029659E+03  0.65919029661E+03  0.50400001928E-02 0. -1.
    10030    2    1    2    0    0  0.00000000000E+00  0.00000000000E+00  0.31065194653E+03  0.16290325397E+04  0.15991380127E+04 0.  0.
        3    1    3    3  502    0  0.49611775363E+03 -0.50343037088E+03 -0.22547441154E+03  0.74189870215E+03  0.10100000352E+00 0. -1.
       -3    1    3    3    0  502 -0.49611775363E+03  0.50343037088E+03  0.53612635807E+03  0.88713383759E+03  0.10100000352E+00 0.  1.
</event>
<event>
 5   0  0.4256406E-05  0.1598789E+04  0.7818609E-02  0.8821292E-01
        1   -1    0    0  501    0  0.00000000000E+00  0.00000000000E+00  0.28729181879E+04  0.28729181879E+04  0.50400001928E-02 0.  1.
       -1   -1    0    0    0  501  0.00000000000E+00  0.00000000000E+00 -0.22243304446E+03  0.22243304452E+03  0.50400001928E-02 0. -1.
    10030    2    1    2    0    0  0.00000000000E+00  0.00000000000E+00  0.26504851435E+04  0.30953512325E+04  0.15987894660E+04 0.  0.
        3    1    3    3  502    0 -0.77256870637E+03  0.31001978033E+00  0.92766900091E+03  0.12072416028E+04  0.10100000352E+00 0.  1.
       -3    1    3    3    0  502  0.77256870637E+03 -0.31001978033E+00  0.17228161426E+04  0.18881096296E+04  0.10100000352E+00 0. -1.
</event>
<event>
 5   0  0.4373026E-05  0.1600059E+04  0.7818609E-02  0.8820512E-01
       -1   -1    0    0    0  501  0.00000000000E+00  0.00000000000E+00  0.49602624736E+03  0.49602624739E+03  0.50400001928E-02 0.  1.
        1   -1    0    0  501    0  0.00000000000E+00  0.00000000000E+00 -0.12903488215E+04  0.12903488215E+04  0.50400001928E-02 0. -1.
    10030    2    1    2    0    0  0.00000000000E+00  0.00000000000E+00 -0.79432257414E+03  0.17863750689E+04  0.16000586036E+04 0.  0.
        4    1    3    3  502    0  0.63979224202E+02  0.73383061831E+03 -0.74567152795E+03  0.10481547395E+04  0.12699999809E+01 0. -1.
       -4    1    3    3    0  502 -0.63979224202E+02 -0.73383061831E+03 -0.48651046187E+02  0.73822032937E+03  0.12699999809E+01 0.  1.
</event>
<event>
 5   0  0.8620155E-05  0.1599744E+04  0.7818609E-02  0.8820705E-01
        2   -1    0    0  501    0  0.00000000000E+00  0.00000000000E+00  0.12585194291E+04  0.12585194291E+04  0.25500000920E-02 0.  1.
       -2   -1    0    0    0  501  0.00000000000E+00  0.00000000000E+00 -0.50837141315E+03  0.50837141316E+03  0.25500000920E-02 0. -1.
    10030    2    1    2    0    0  0.00000000000E+00  0.00000000000E+00  0.75014801592E+03  0.17668908422E+04  0.15997441053E+04 0.  0.
        4    1    3    3  502    0  0.65872455178E+03  0.40104951394E+03  0.14068675156E+03  0.78393438674E+03  0.12699999809E+01 0. -1.
       -4    1    3    3    0  502 -0.65872455178E+03 -0.40104951394E+03  0.60946126436E+03  0.98295645549E+03  0.12699999809E+01 0.  1.
</event>
<event>
 5   0  0.7901257E-05  0.1605442E+04  0.7818609E-02  0.8817212E-01
        2   -1    0    0  501    0  0.00000000000E+00  0.00000000000E+00  0.58586425387E+03  0.58586425387E+03  0.25500000920E-02 0. -1.
       -2   -1    0    0    0  501  0.00000000000E+00  0.00000000000E+00 -0.10998472572E+04  0.10998472572E+04  0.25500000920E-02 0.  1.
    10030    2    1    2    0    0  0.00000000000E+00  0.00000000000E+00 -0.51398300335E+03  0.16857115111E+04  0.16054422353E+04 0.  0.
        2    1    3    3  502    0 -0.21844172088E+03 -0.51551132066E+02 -0.10662308610E+04  0.10895974273E+04  0.25500000920E-02 0.  1.
       -2    1    3    3    0  502  0.21844172088E+03  0.51551132066E+02  0.55224785763E+03  0.59611408380E+03  0.25500000920E-02 0. -1.
</event>
<event>
 5   0  0.8620155E-05  0.1601734E+04  0.7818609E-02  0.8819483E-01
       -2   -1    0    0    0  501  0.00000000000E+00  0.00000000000E+00  0.83666085056E+03  0.83666085057E+03  0.25500000920E-02 0.  1.
        2   -1    0    0  501    0  0.00000000000E+00  0.00000000000E+00 -0.76660444935E+03  0.76660444936E+03  0.25500000920E-02 0. -1.
    10030    2    1    2    0    0  0.00000000000E+00  0.00000000000E+00  0.70056401210E+02  0.16032652999E+04  0.16017339737E+04 0.  0.
        4    1    3    3  502    0  0.27197911568E+03  0.30472488268E+03 -0.65451095745E+03  0.77150249501E+03  0.12699999809E+01 0. -1.
       -4    1    3    3    0  502 -0.27197911568E+03 -0.30472488268E+03  0.72456735866E+03  0.83176280491E+03  0.12699999809E+01 0.  1.
</event>
<event>
 5   0  0.8694033E-05  0.1601870E+04  0.7818609E-02  0.8819400E-01
       -2   -1    0    0    0  501  0.00000000000E+00  0.00000000000E+00  0.53505314524E+03  0.53505314525E+03  0.25500000920E-02 0. -1.
        2   -1    0    0  501    0  0.00000000000E+00  0.00000000000E+00 -0.11989401378E+04  0.11989401378E+04  0.25500000920E-02 0.  1.
    10030    2    1    2    0    0  0.00000000000E+00  0.00000000000E+00 -0.66388699260E+03  0.17339932831E+04  0.16018697721E+04 0.  0.
        1    1    3    3  502    0 -0.64636631463E+03 -0.33555057965E+03 -0.69277364095E+03  0.10051462191E+04  0.50400001928E-02 0.  1.
       -1    1    3    3    0  502  0.64636631463E+03  0.33555057965E+03  0.28886648346E+02  0.72884706398E+03  0.50400001928E-02 0. -1.
</event>
<event>
 5   0  0.7849690E-05  0.1599871E+04  0.7818609E-02  0.8820627E-01
       -2   -1    0    0    0  501  0.00000000000E+00  0.00000000000E+00  0.62149181211E+03  0.62149181212E+03  0.25500000920E-02 0. -1.
        2   -1    0    0  501    0  0.00000000000E+00  0.00000000000E+00 -0.10296140416E+04  0.10296140416E+04  0.25500000920E-02 0.  1.
    10030    2    1    2    0    0  0.00000000000E+00  0.00000000000E+00 -0.40812222953E+03  0.16511058538E+04  0.15998708654E+04 0.  0.
        3    1    3    3  502    0 -0.17198859288E+03 -0.37024557584E+03  0.50588981966E+03  0.65006644456E+03  0.10100000352E+00 0. -1.
       -3    1    3    3    0  502  0.17198859288E+03  0.37024557584E+03 -0.91401204918E+03  0.10010394092E+04  0.10100000352E+00 0.  1.
</event>
<event>
 5   0  0.4504463E-05  0.1603976E+04  0.7818609E-02  0.8818109E-01
        1   -1    0    0  501    0  0.00000000000E+00  0.00000000000E+00  0.15274595122E+04  0.15274595122E+04  0.50400001928E-02 0. -1.
       -1   -1    0    0    0  501  0.00000000000E+00  0.00000000000E+00 -0.42108119869E+03  0.42108119872E+03  0.50400001928E-02 0.  1.
    10030    2    1    2    0    0  0.00000000000E+00  0.00000000000E+00  0.11063783135E+04  0.19485407109E+04  0.16039756636E+04 0.  0.
        1    1    3    3  502    0  0.38864402518E+03  0.94164181196E+02  0.13977056974E+04  0.14537855028E+04  0.50400001928E-02 0. -1.
       -1    1    3    3    0  502 -0.38864402518E+03 -0.94164181196E+02 -0.29132738395E+03  0.49475520815E+03  0.50400001928E-02 0.  1.
</event>
<event>
 5   0  0.7901257E-05  0.1599836E+04  0.7818609E-02  0.8820649E-01
       -2   -1    0    0    0  501  0.00000000000E+00  0.00000000000E+00  0.44731338053E+03  0.44731338054E+03  0.25500000920E-02 0.  1.
        2   -1    0    0  501    0  0.00000000000E+00  0.00000000000E+00 -0.14304714064E+04  0.14304714064E+04  0.25500000920E-02 0. -1.
    10030    2    1    2    0    0  0.00000000000E+00  0.00000000000E+00 -0.98315802589E+03  0.18777847870E+04  0.15998362423E+04 0.  0.
        2    1    3    3  502    0 -0.56566094226E+03  0.54798482084E+03 -0.32721689863E+03  0.85283677467E+03  0.25500000920E-02 0.  1.
       -2    1    3    3    0  502  0.56566094226E+03 -0.54798482084E+03 -0.65594112726E+03  0.10249480123E+04  0.25500000920E-02 0. -1.
</event>
<event>
 5   0  0.4211419E-05  0.1609459E+04  0.7818609E-02  0.8814758E-01
       -1   -1    0    0    0  501  0.00000000000E+00  0.00000000000E+00  0.74621276874E+03  0.74621276876E+03  0.50400001928E-02 0. -1.
        1   -1    0    0  501    0  0.00000000000E+00  0.00000000000E+00 -0.86783533504E+03  0.86783533506E+03  0.50400001928E-02 0.  1.
    10030    2    1    2    0    0  0.00000000000E+00  0.00000000000E+00 -0.12162256630E+03  0.16140481038E+04  0.16094592983E+04 0.  0.
        2    1    3    3  502    0  0.39089257180E+02 -0.59363496562E+03  0.48263722881E+03  0.76607384570E+03  0.25500000920E-02 0. -1.
       -2    1    3    3    0  502 -0.39089257180E+02  0.59363496562E+03 -0.60425979511E+03  0.84797425812E+03  0.25500000920E-02 0.  1.
</event>
<event>
 5   0  0.7901257E-05  0.1603562E+04  0.7818609E-02  0.8818362E-01
        2   -1    0    0  501    0  0.00000000000E+00  0.00000000000E+00  0.98077859572E+03  0.98077859572E+03  0.25500000920E-02 0. -1.
       -2   -1    0    0    0  501  0.00000000000E+00  0.00000000000E+00 -0.65545179575E+03  0.65545179575E+03  0.25500000920E-02 0.  1.
    10030    2    1    2    0    0  0.00000000000E+00  0.00000000000E+00  0.32532679997E+03  0.16362303915E+04  0.16035623989E+04 0.  0.
        2    1    3    3  502    0 -0.89234389611E+02 -0.22390533367E+03  0.94293571961E+03  0.97325440973E+03  0.25500000920E-02 0. -1.
       -2    1    3    3    0  502  0.89234389611E+02  0.22390533367E+03 -0.61760891964E+03  0.66297598174E+03  0.25500000920E-02 0.  1.
</event>
<event>
 5   0  0.8620155E-05  0.1605192E+04  0.7818609E-02  0.8817365E-01
        2   -1    0    0  501    0  0.00000000000E+00  0.00000000000E+00  0.85567431119E+03  0.85567431119E+03  0.25500000920E-02 0.  1.
       -2   -1    0    0    0  501  0.00000000000E+00  0.00000000000E+00 -0.75280992660E+03  0.75280992661E+03  0.25500000920E-02 0. -1.
    10030    2    1    2    0    0  0.00000000000E+00  0.00000000000E+00  0.10286438459E+03  0.16084842378E+04  0.16051917211E+04 0.  0.
        4    1    3    3  502    0 -0.36047262612E+03  0.31214308673E+03 -0.59548064993E+03  0.76287131163E+03  0.12699999809E+01 0. -1.
       -4    1    3    3    0  502  0.36047262612E+03 -0.31214308673E+03  0.69834503452E+03  0.84561292617E+03  0.12699999809E+01 0.  1.
</event>
<event>
 5   0  0.4504463E-05  0.1600097E+04  0.7818609E-02  0.8820488E-01
        1   -1    0    0  501    0  0.00000000000E+00  0.00000000000E+00  0.14276384146E+04  0.14276384146E+04  0.50400001928E-02 0. -1.
       -1   -1    0    0    0  501  0.00000000000E+00  0.00000000000E+00 -0.44834709372E+03  0.44834709375E+03  0.50400001928E-02 0.  1.
    10030    2    1    2    0    0  0.00000000000E+00  0.00000000000E+00  0.97929132087E+03  0.18759855083E+04  0.16000969147E+04 0.  0.
        1    1    3    3  502    0  0.29702023643E+03  0.73949527018E+03  0.57257527879E+03  0.98128320345E+03  0.50400001928E-02 0. -1.
       -1    1    3    3    0  502 -0.29702023643E+03 -0.73949527018E+03  0.40671604208E+03  0.89470230489E+03  0.50400001928E-02 0.  1.
</event>
<event>
 5   0  0.4256406E-05  0.1605656E+04  0.7818609E-02  0.8817081E-01
        1   -1    0    0  501    0  0.00000000000E+00  0.00000000000E+00  0.37309811245E+03  0.37309811248E+03  0.50400001928E-02 0.  1.
       -1   -1    0    0    0  501  0.00000000000E+00  0.00000000000E+00 -0.17275153934E+04  0.17275153934E+04  0.50400001928E-02 0. -1.
    10030    2    1    2    0    0  0.00000000000E+00  0.00000000000E+00 -0.13544172810E+04  0.21006135059E+04  0.16056559190E+04 0.  0.
        3    1    3    3  502    0 -0.12523759532E+03 -0.46312031985E+03  0.16493599736E+03  0.50731526625E+03  0.10100000352E+00 0.  1.
       -3    1    3    3    0  502  0.12523759532E+03  0.46312031985E+03 -0.15193532783E+04  0.15932982397E+04  0.10100000352E+00 0. -1.
</event>
<event>
 5   0  0.7849690E-05  0.1599521E+04  0.7818609E-02  0.8820842E-01
        2   -1    0    0  501    0  0.00000000000E+00  0.00000000000E+00  0.70091827459E+03  0.70091827460E+03  0.25500000920E-02 0. -1.
       -2   -1    0    0    0  501  0.00000000000E+00  0.00000000000E+00 -0.91254108981E+03  0.91254108981E+03  0.25500000920E-02 0.  1.
    10030    2    1    2    0    0  0.00000000000E+00  0.00000000000E+00 -0.21162281522E+03  0.16134593644E+04  0.15995208360E+04 0.  0.
        3    1    3    3  502    0  0.51739334888E+03 -0.25827738503E+03  0.45146427556E+03  0.73363689070E+03  0.10100000352E+00 0. -1.
       -3    1    3    3    0  502 -0.51739334888E+03  0.25827738503E+03 -0.66308709077E+03  0.87982247371E+03  0.10100000352E+00 0.  1.
</event>
<event>
 5   0  0.4314657E-05  0.1593637E+04  0.7818609E-02  0.8824467E-01
        1   -1    0    0  501    0  0.00000000000E+00  0.00000000000E+00  0.12251215171E+04  0.12251215171E+04  0.50400001928E-02 0.  1.
       -1   -1    0    0    0  501  0.00000000000E+00  0.00000000000E+00 -0.51825040338E+03  0.51825040341E+03  0.50400001928E-02 0. -1.
    10030    2    1    2    0    0  0.00000000000E+00  0.00000000000E+00  0.70687111373E+03  0.17433719205E+04  0.15936369981E+04 0.  0.
        5    1    3    3  502    0 -0.12049286035E+03 -0.66611487945E+03 -0.10637838113E+03  0.68524886865E+03  0.46999998093E+01 0. -1.
       -5    1    3    3    0  502  0.12049286035E+03  0.66611487945E+03  0.81324949486E+03  0.10581230519E+04  0.46999998093E+01 0.  1.
</event>
<event>
 5   0  0.4373026E-05  0.1566375E+04  0.7818609E-02  0.8841476E-01
        1   -1    0    0  501    0  0.00000000000E+00  0.00000000000E+00  0.72992717979E+03  0.72992717980E+03  0.50400001928E-02 0. -1.
       -1   -1    0    0    0  501  0.00000000000E+00  0.00000000000E+00 -0.84033361111E+03  0.84033361113E+03  0.50400001928E-02 0.  1.
    10030    2    1    2    0    0  0.00000000000E+00  0.00000000000E+00 -0.11040643133E+03  0.15702607909E+04  0.15663745949E+04 0.  0.
        4    1    3    3  502    0 -0.15021496751E+02  0.67597267746E+03  0.34101911275E+03  0.75727165153E+03  0.12699999809E+01 0.  1.
       -4    1    3    3    0  502  0.15021496751E+02 -0.67597267746E+03 -0.45142554408E+03  0.81298913941E+03  0.12699999809E+01 0. -1.
</event>
<event>
 5   0  0.8620155E-05  0.1603965E+04  0.7818609E-02  0.8818116E-01
       -2   -1    0    0    0  501  0.00000000000E+00  0.00000000000E+00  0.10531552694E+04  0.10531552694E+04  0.25500000920E-02 0. -1.
        2   -1    0    0  501    0  0.00000000000E+00  0.00000000000E+00 -0.61071320303E+03  0.61071320303E+03  0.25500000920E-02 0.  1.
    10030    2    1    2    0    0  0.00000000000E+00  0.00000000000E+00  0.44244206640E+03  0.16638684725E+04  0.16039648723E+04 0.  0.
        4    1    3    3  502    0 -0.14572916573E+03  0.34236651030E+03 -0.51575001795E+03  0.63596502344E+03  0.12699999809E+01 0.  1.
       -4    1    3    3    0  502  0.14572916573E+03 -0.34236651030E+03  0.95819208435E+03  0.10279034490E+04  0.12699999809E+01 0. -1.
</event>
<event>
 5   0  0.8694033E-05  0.1597725E+04  0.7818609E-02  0.8821947E-01
        2   -1    0    0  501    0  0.00000000000E+00  0.00000000000E+00  0.19641568871E+04  0.19641568871E+04  0.25500000920E-02 0. -1.
       -2   -1    0    0    0  501  0.00000000000E+00  0.00000000000E+00 -0.32491374151E+03  0.32491374152E+03  0.25500000920E-02 0.  1.
    10030    2    1    2    0    0  0.00000000000E+00  0.00000000000E+00  0.16392431456E+04  0.22890706286E+04  0.15977253370E+04 0.  0.
        1    1    3    3  502    0 -0.29096949642E+03  0.97167813380E+02  0.18764078055E+04  0.19013182491E+04  0.50400001928E-02 0. -1.
       -1    1    3    3    0  502  0.29096949642E+03 -0.97167813380E+02 -0.23716465997E+03  0.38775237945E+03  0.50400001928E-02 0.  1.
</event>
<event>
 5   0  0.4211419E-05  0.1601349E+04  0.7818609E-02  0.8819720E-01
       -1   -1    0    0    0  501  0.00000000000E+00  0.00000000000E+00  0.94449501669E+03  0.94449501671E+03  0.50400001928E-02 0.  1.
        1   -1    0    0  501    0  0.00000000000E+00  0.00000000000E+00 -0.67875358911E+03  0.67875358913E+03  0.50400001928E-02 0. -1.
    10030    2    1    2    0    0  0.00000000000E+00  0.00000000000E+00  0.26574142758E+03  0.16232486058E+04  0.16013486597E+04 0.  0.
        2    1    3    3  502    0 -0.71074602975E+03 -0.22100878910E+03 -0.16624885714E+03  0.76265554884E+03  0.25500000920E-02 0. -1.
       -2    1    3    3    0  502  0.71074602975E+03  0.22100878910E+03  0.43199028472E+03  0.86059305700E+03  0.25500000920E-02 0.  1.
</event>
<event>
 5   0  0.7901257E-05  0.1592545E+04  0.7818609E-02  0.8825141E-01
        2   -1    0    0  501    0  0.00000000000E+00  0.00000000000E+00  0.80600405235E+03  0.80600405235E+03  0.25500000920E-02 0.  1.
       -2   -1    0    0    0  501  0.00000000000E+00  0.00000000000E+00 -0.78665880956E+03  0.78665880956E+03  0.25500000920E-02 0. -1.
    10030    2    1    2    0    0  0.00000000000E+00  0.00000000000E+00  0.19345242794E+02  0.15926628619E+04  0.15925453693E+04 0.  0.
        2    1    3    3  502    0 -0.79642855047E+02 -0.19939086796E+02  0.80175986517E+03  0.80595250043E+03  0.25500000920E-02 0.  1.
       -2    1    3    3    0  502  0.79642855047E+02  0.19939086796E+02 -0.78241462238E+03  0.78671036148E+03  0.25500000920E-02 0. -1.
</event>
<event>
 5   0  0.8694033E-05  0.1601101E+04  0.7818609E-02  0.8819872E-01
        2   -1    0    0  501    0  0.00000000000E+00  0.00000000000E+00  0.29376587146E+04  0.29376587146E+04  0.25500000920E-02 0. -1.
       -2   -1    0    0    0  501  0.00000000000E+00  0.00000000000E+00 -0.21816041577E+03  0.21816041579E+03  0.25500000920E-02 0.  1.
    10030    2    1    2    0    0  0.00000000000E+00  0.00000000000E+00  0.27194982989E+04  0.31558191304E+04  0.16011006797E+04 0.  0.
        1    1    3    3  502    0 -0.70805125574E+02 -0.56306785169E+03  0.24726786507E+04  0.25369663934E+04  0.50400001928E-02 0. -1.
       -1    1    3    3    0  502  0.70805125574E+02  0.56306785169E+03  0.24681964815E+03  0.61885273705E+03  0.50400001928E-02 0.  1.
</event>
<event>
 5   0  0.7849690E-05  0.1598048E+04  0.7818609E-02  0.8821748E-01
        2   -1    0    0  501    0  0.00000000000E+00  0.00000000000E+00  0.10452520764E+04  0.10452520764E+04  0.25500000920E-02 0.  1.
       -2   -1    0    0    0  501  0.00000000000E+00  0.00000000000E+00 -0.61079979095E+03  0.61079979096E+03  0.25500000920E-02 0. -1.
    10030    2    1    2    0    0  0.00000000000E+00  0.00000000000E+00  0.43445228545E+03  0.16560518674E+04  0.15980484971E+04 0.  0.
        3    1    3    3  502    0 -0.27208832987E+02 -0.72054637369E+03  0.57397761216E+03  0.92161689800E+03  0.10100000352E+00 0.  1.
       -3    1    3    3    0  502  0.27208832987E+02  0.72054637369E+03 -0.13952532671E+03  0.73443496936E+03  0.10100000352E+00 0. -1.
</event>
<event>
 5   0  0.7901257E-05  0.1600793E+04  0.7818609E-02  0.8820061E-01
       -2   -1    0    0    0  501  0.00000000000E+00  0.00000000000E+00  0.48921016884E+03  0.48921016885E+03  0.25500000920E-02 0. -1.
        2   -1    0    0  501    0  0.00000000000E+00  0.00000000000E+00 -0.13095287112E+04  0.13095287112E+04  0.25500000920E-02 0.  1.
    10030    2    1    2    0    0  0.00000000000E+00  0.00000000000E+00 -0.82031854238E+03  0.17987388801E+04  0.16007932558E+04 0.  0.
        2    1    3    3  502    0  0.46421476312E+03 -0.31164167209E+03 -0.10537092783E+04  0.11928617360E+04  0.25500000920E-02 0.  1.
       -2    1    3    3    0  502 -0.46421476312E+03  0.31164167209E+03  0.23339073591E+03  0.60587714406E+03  0.25500000920E-02 0. -1.
</event>
<event>
 5   0  0.4314657E-05  0.1595326E+04  0.7818609E-02  0.8823424E-01
        1   -1    0    0  501    0  0.00000000000E+00  0.00000000000E+00  0.24509631782E+04  0.24509631782E+04  0.50400001928E-02 0.  1.
       -1   -1    0    0    0  501  0.00000000000E+00  0.00000000000E+00 -0.25959850492E+03  0.25959850497E+03  0.50400001928E-02 0. -1.
    10030    2    1    2    0    0  0.00000000000E+00  0.00000000000E+00  0.21913646732E+04  0.27105616831E+04  0.15953261444E+04 0.  0.
        5    1    3    3  502    0 -0.10434803288E+03  0.27783780809E+03 -0.16227017433E+03  0.33828399171E+03  0.46999998093E+01 0. -1.
       -5    1    3    3    0  502  0.10434803288E+03 -0.27783780809E+03  0.23536348476E+04  0.23722776914E+04  0.46999998093E+01 0.  1.
</event>
<event>
 5   0  0.8620155E-05  0.1599848E+04  0.7818609E-02  0.8820641E-01
        2   -1    0    0  501    0  0.00000000000E+00  0.00000000000E+00  0.19150625770E+04  0.19150625770E+04  0.25500000920E-02 0. -1.
       -2   -1    0    0    0  501  0.00000000000E+00  0.00000000000E+00 -0.33412920004E+03  0.33412920005E+03  0.25500000920E-02 0.  1.
    10030    2    1    2    0    0  0.00000000000E+00  0.00000000000E+00  0.15809333769E+04  0.22491917770E+04  0.15998479014E+04 0.  0.
        4    1    3    3  502    0 -0.36168646606E+03  0.55037279232E+03  0.14287872478E+04  0.15732647338E+04  0.12699999809E+01 0.  1.
       -4    1    3    3    0  502  0.36168646606E+03 -0.55037279232E+03  0.15214612914E+03  0.67592704323E+03  0.12699999809E+01 0. -1.
</event>
<event>
 5   0  0.4256406E-05  0.1581153E+04  0.7818609E-02  0.8832211E-01
       -1   -1    0    0    0  501  0.00000000000E+00  0.00000000000E+00  0.52688292213E+03  0.52688292216E+03  0.50400001928E-02 0. -1.
        1   -1    0    0  501    0  0.00000000000E+00  0.00000000000E+00 -0.11862436707E+04  0.11862436707E+04  0.50400001928E-02 0.  1.
    10030    2    1    2    0    0  0.00000000000E+00  0.00000000000E+00 -0.65936074855E+03  0.17131265929E+04  0.15811534165E+04 0.  0.
        3    1    3    3  502    0  0.10376945066E+03  0.27200670409E+03  0.46669010918E+03  0.55005037421E+03  0.10100000352E+00 0. -1.
       -3    1    3    3    0  502 -0.10376945066E+03 -0.27200670409E+03 -0.11260508577E+04  0.11630762186E+04  0.10100000352E+00 0.  1.
</event>
<event>
 5   0  0.4504463E-05  0.1600410E+04  0.7818609E-02  0.8820296E-01
        1   -1    0    0  501    0  0.00000000000E+00  0.00000000000E+00  0.14178725611E+04  0.14178725611E+04  0.50400001928E-02 0. -1.
       -1   -1    0    0    0  501  0.00000000000E+00  0.00000000000E+00 -0.45161205617E+03  0.45161205619E+03  0.50400001928E-02 0.  1.
    10030    2    1    2    0    0  0.00000000000E+00  0.00000000000E+00  0.96626050492E+03  0.18694846173E+04  0.16004103758E+04 0.  0.
        1    1    3    3  502    0 -0.69197296452E+03  0.29234093273E+03  0.80524263270E+03  0.11012290870E+04  0.50400001928E-02 0.  1.
       -1    1    3    3    0  502  0.69197296452E+03 -0.29234093273E+03  0.16101787223E+03  0.76825553026E+03  0.50400001928E-02 0. -1.
</event>
<event>
 5   0  0.7849690E-05  0.1599644E+04  0.7818609E-02  0.8820767E-01
       -2   -1    0    0    0  501  0.00000000000E+00  0.00000000000E+00  0.15552815205E+04  0.15552815205E+04  0.25500000920E-02 0. -1.
        2   -1    0    0  501    0  0.00000000000E+00  0.00000000000E+00 -0.41131771173E+03  0.41131771174E+03  0.25500000920E-02 0.  1.
    10030    2    1    2    0    0  0.00000000000E+00  0.00000000000E+00  0.11439638088E+04  0.19665992323E+04  0.15996435054E+04 0.  0.
        3    1    3    3  502    0  0.66329186868E+01 -0.76879610840E+03  0.84307296956E+03  0.11409923287E+04  0.10100000352E+00 0.  1.
       -3    1    3    3    0  502 -0.66329186868E+01  0.76879610840E+03  0.30089083923E+03  0.82560690358E+03  0.10100000352E+00 0. -1.
</event>
<event>
 5   0  0.3042125E-05  0.1597930E+04  0.7818609E-02  0.8821820E-01
        3   -1    0    0  501    0  0.00000000000E+00  0.00000000000E+00  0.98068183657E+03  0.98068184177E+03  0.10100000352E+00 0. -1.
       -3   -1    0    0    0  501  0.00000000000E+00  0.00000000000E+00 -0.65091994107E+03  0.65091994891E+03  0.10100000352E+00 0.  1.
    10030    2    1    2    0    0  0.00000000000E+00  0.00000000000E+00  0.32976189550E+03  0.16316017907E+04  0.15979303788E+04 0.  0.
        4    1    3    3  502    0 -0.43771722090E+03 -0.20893332855E+03  0.81315647452E+03  0.94682340815E+03  0.12699999809E+01 0. -1.
       -4    1    3    3    0  502  0.43771722090E+03  0.20893332855E+03 -0.48339457903E+03  0.68477838253E+03  0.12699999809E+01 0.  1.
</event>
<event>
 5   0  0.4256406E-05  0.1595545E+04  0.7818609E-02  0.8823290E-01
       -1   -1    0    0    0  501  0.00000000000E+00  0.00000000000E+00  0.58935523691E+03  0.58935523693E+03  0.50400001928E-02 0.  1.
        1   -1    0    0  501    0  0.00000000000E+00  0.00000000000E+00 -0.10798930113E+04  0.10798930113E+04  0.50400001928E-02 0. -1.
    10030    2    1    2    0    0  0.00000000000E+00  0.00000000000E+00 -0.49053777435E+03  0.16692482482E+04  0.15955445484E+04 0.  0.
        3    1    3    3  502    0 -0.48664851697E+03  0.57497752901E+03  0.29572828084E+02  0.75385708215E+03  0.10100000352E+00 0.  1.
       -3    1    3    3    0  502  0.48664851697E+03 -0.57497752901E+03 -0.52011060243E+03  0.91539116606E+03  0.10100000352E+00 0. -1.
</event>
<event>
 5   0  0.4373026E-05  0.1601023E+04  0.7818609E-02  0.8819920E-01
        1   -1    0    0  501    0  0.00000000000E+00  0.00000000000E+00  0.48870778198E+03  0.48870778201E+03  0.50400001928E-02 0. -1.
       -1   -1    0    0    0  501  0.00000000000E+00  0.00000000000E+00 -0.13112519008E+04  0.13112519008E+04  0.50400001928E-02 0.  1.
    10030    2    1    2    0    0  0.00000000000E+00  0.00000000000E+00 -0.82254411885E+03  0.17999596828E+04  0.16010234328E+04 0.  0.
        4    1    3    3  502    0  0.50124190554E+03 -0.53762989958E+03 -0.76773032801E+03  0.10628738525E+04  0.12699999809E+01 0.  1.
       -4    1    3    3    0  502 -0.50124190554E+03  0.53762989958E+03 -0.54813790836E+02  0.73708583039E+03  0.12699999809E+01 0. -1.
</event>
<event>
 5   0  0.4314657E-05  0.1600569E+04  0.7818609E-02  0.8820199E-01
        1   -1    0    0  501    0  0.00000000000E+00  0.00000000000E+00  0.71437560538E+03  0.71437560540E+03  0.50400001928E-02 0.  1.
       -1   -1    0    0    0  501  0.00000000000E+00  0.00000000000E+00 -0.89652417905E+03  0.89652417907E+03  0.50400001928E-02 0. -1.
    10030    2    1    2    0    0  0.00000000000E+00  0.00000000000E+00 -0.18214857367E+03  0.16108997845E+04  0.16005686529E+04 0.  0.
        5    1    3    3  502    0  0.12803605715E+03  0.75067062165E+03 -0.33869751904E+03  0.83344928673E+03  0.46999998093E+01 0. -1.
       -5    1    3    3    0  502 -0.12803605715E+03 -0.75067062165E+03  0.15654894537E+03  0.77745049774E+03  0.46999998093E+01 0.  1.
</event>
<event>
 5   0  0.4373026E-05  0.1601137E+04  0.7818609E-02  0.8819850E-01
       -1   -1    0    0    0  501  0.00000000000E+00  0.00000000000E+00  0.51498053985E+03  0.51498053988E+03  0.50400001928E-02 0.  1.
        1   -1    0    0  501    0  0.00000000000E+00  0.00000000000E+00 -0.12445319191E+04  0.12445319191E+04  0.50400001928E-02 0. -1.
    10030    2    1    2    0    0  0.00000000000E+00  0.00000000000E+00 -0.72955137924E+03  0.17595124590E+04  0.16011367457E+04 0.  0.
        4    1    3    3  502    0 -0.42876091497E+03 -0.60460975935E+03 -0.32330475798E+02  0.74191357710E+03  0.12699999809E+01 0.  1.
       -4    1    3    3    0  502  0.42876091497E+03  0.60460975935E+03 -0.69722090345E+03  0.10175988819E+04  0.12699999809E+01 0. -1.
</event>
<event>
 5   0  0.7849690E-05  0.1615515E+04  0.7818609E-02  0.8811073E-01
        2   -1    0    0  501    0  0.00000000000E+00  0.00000000000E+00  0.18094918293E+04  0.18094918293E+04  0.25500000920E-02 0.  1.
       -2   -1    0    0    0  501  0.00000000000E+00  0.00000000000E+00 -0.36058317230E+03  0.36058317231E+03  0.25500000920E-02 0. -1.
    10030    2    1    2    0    0  0.00000000000E+00  0.00000000000E+00  0.14489086570E+04  0.21700750016E+04  0.16155151551E+04 0.  0.
        3    1    3    3  502    0 -0.12698999582E+03 -0.57755526496E+03  0.14635901534E+04  0.15785413173E+04  0.10100000352E+00 0.  1.
       -3    1    3    3    0  502  0.12698999582E+03  0.57755526496E+03 -0.14681496411E+02  0.59153368430E+03  0.10100000352E+00 0. -1.
</event>
<event>
 5   0  0.4373026E-05  0.1602656E+04  0.7818609E-02  0.8818918E-01
       -1   -1    0    0    0  501  0.00000000000E+00  0.00000000000E+00  0.45312885872E+03  0.45312885875E+03  0.50400001928E-02 0. -1.
        1   -1    0    0  501    0  0.00000000000E+00  0.00000000000E+00 -0.14170954202E+04  0.14170954202E+04  0.50400001928E-02 0.  1.
    10030    2    1    2    0    0  0.00000000000E+00  0.00000000000E+00 -0.96396656145E+03  0.18702242789E+04  0.16026563331E+04 0.  0.
        4    1    3    3  502    0  0.57656141549E+03  0.66979723092E+02  0.16271548863E+03  0.60281613472E+03  0.12699999809E+01 0. -1.
       -4    1    3    3    0  502 -0.57656141549E+03 -0.66979723092E+02 -0.11266820501E+04  0.12674081442E+04  0.12699999809E+01 0.  1.
</event>
<event>
 5   0  0.7849690E-05  0.1602174E+04  0.7818609E-02  0.8819214E-01
        2   -1    0    0  501    0  0.00000000000E+00  0.00000000000E+00  0.20403469483E+04  0.20403469483E+04  0.25500000920E-02 0.  1.
       -2   -1    0    0    0  501  0.00000000000E+00  0.00000000000E+00 -0.31452493077E+03  0.31452493078E+03  0.25500000920E-02 0. -1.
    10030    2    1    2    0    0  0.00000000000E+00  0.00000000000E+00  0.17258220175E+04  0.23548718791E+04  0.16021735020E+04 0.  0.
        3    1    3    3  502    0 -0.16907811465E+03  0.38088576258E+03  0.18684921770E+04  0.19143992266E+04  0.10100000352E+00 0.  1.
       -3    1    3    3    0  502  0.16907811465E+03 -0.38088576258E+03 -0.14267015948E+03  0.44047265249E+03  0.10100000352E+00 0. -1.
</event>
<event>
 5   0  0.8620155E-05  0.1601588E+04  0.7818609E-02  0.8819573E-01
        2   -1    0    0  501    0  0.00000000000E+00  0.00000000000E+00  0.78439364993E+03  0.78439364993E+03  0.25500000920E-02 0. -1.
       -2   -1    0    0    0  501  0.00000000000E+00  0.00000000000E+00 -0.81753680421E+03  0.81753680422E+03  0.25500000920E-02 0.  1.
    10030    2    1    2    0    0  0.00000000000E+00  0.00000000000E+00 -0.33143154285E+02  0.16019304542E+04  0.16015875597E+04 0.  0.
        4    1    3    3  502    0 -0.43607405920E+03 -0.21435204141E+03 -0.65323097448E+03  0.81413739730E+03  0.12699999809E+01 0.  1.
       -4    1    3    3    0  502  0.43607405920E+03  0.21435204141E+03  0.62008782020E+03  0.78779305685E+03  0.12699999809E+01 0. -1.
</event>
<event>
 5   0  0.4373026E-05  0.1601570E+04  0.7818609E-02  0.8819584E-01
       -1   -1    0    0    0  501  0.00000000000E+00  0.00000000000E+00  0.27062262119E+03  0.27062262123E+03  0.50400001928E-02 0. -1.
        1   -1    0    0  501    0  0.00000000000E+00  0.00000000000E+00 -0.23695599881E+04  0.23695599881E+04  0.50400001928E-02 0.  1.
    10030    2    1    2    0    0  0.00000000000E+00  0.00000000000E+00 -0.20989373669E+04  0.26401826093E+04  0.16015698987E+04 0.  0.
        4    1    3    3  502    0  0.21766211064E+03  0.67786733256E+03 -0.44517827260E+03  0.83968221504E+03  0.12699999809E+01 0. -1.
       -4    1    3    3    0  502 -0.21766211064E+03 -0.67786733256E+03 -0.16537590943E+04  0.18005003943E+04  0.12699999809E+01 0.  1.
</event>
<event>
 5   0  0.4504463E-05  0.1607278E+04  0.7818609E-02  0.8816089E-01
        1   -1    0    0  501    0  0.00000000000E+00  0.00000000000E+00  0.93120357475E+03  0.93120357477E+03  0.50400001928E-02 0. -1.
       -1   -1    0    0    0  501  0.00000000000E+00  0.00000000000E+00 -0.69354950184E+03  0.69354950186E+03  0.50400001928E-02 0.  1.
    10030    2    1    2    0    0  0.00000000000E+00  0.00000000000E+00  0.23765407291E+03  0.16247530766E+04  0.16072781656E+04 0.  0.
        1    1    3    3  502    0 -0.37503266915E+02 -0.69001041282E+03  0.53354955602E+03  0.87303836891E+03  0.50400001928E-02 0. -1.
       -1    1    3    3    0  502  0.37503266915E+02  0.69001041282E+03 -0.29589548311E+03  0.75171470771E+03  0.50400001928E-02 0.  1.
</event>
<event>
 5   0  0.7901257E-05  0.1601280E+04  0.7818609E-02  0.8819762E-01
        2   -1    0    0  501    0  0.00000000000E+00  0.00000000000E+00  0.20443934999E+04  0.20443934999E+04  0.25500000920E-02 0.  1.
       -2   -1    0    0    0  501  0.00000000000E+00  0.00000000000E+00 -0.31355228162E+03  0.31355228163E+03  0.25500000920E-02 0. -1.
    10030    2    1    2    0    0  0.00000000000E+00  0.00000000000E+00  0.17308412183E+04  0.23579457815E+04  0.16012797962E+04 0.  0.
        2    1    3    3  502    0  0.22394230909E+03  0.19925270373E+03  0.19586475884E+04  0.19814520366E+04  0.25500000920E-02 0.  1.
       -2    1    3    3    0  502 -0.22394230909E+03 -0.19925270373E+03 -0.22780637009E+03  0.37649374498E+03  0.25500000920E-02 0. -1.
</event>
<event>
 5   0  0.7849690E-05  0.1599759E+04  0.7818609E-02  0.8820696E-01
        2   -1    0    0  501    0  0.00000000000E+00  0.00000000000E+00  0.11453776728E+04  0.11453776728E+04  0.25500000920E-02 0. -1.
       -2   -1    0    0    0  501  0.00000000000E+00  0.00000000000E+00 -0.55859940856E+03  0.55859940856E+03  0.25500000920E-02 0.  1.
    10030    2    1    2    0    0  0.00000000000E+00  0.00000000000E+00  0.58677826423E+03  0.17039770814E+04  0.15997590951E+04 0.  0.
        3    1    3    3  502    0  0.97993489700E+02 -0.43775554409E+03  0.99878176405E+03  0.10948961881E+04  0.10100000352E+00 0. -1.
       -3    1    3    3    0  502 -0.97993489700E+02  0.43775554409E+03 -0.41200349982E+03  0.60908089321E+03  0.10100000352E+00 0.  1.
</event>
<event>
 5   0  0.4373026E-05  0.1599248E+04  0.7818609E-02  0.8821010E-01
       -1   -1    0    0    0  501  0.00000000000E+00  0.00000000000E+00  0.63238856171E+03  0.63238856173E+03  0.50400001928E-02 0. -1.
        1   -1    0    0  501    0  0.00000000000E+00  0.00000000000E+00 -0.10110854070E+04  0.10110854070E+04  0.50400001928E-02 0.  1.
    10030    2    1    2    0    0  0.00000000000E+00  0.00000000000E+00 -0.37869684526E+03  0.16434739687E+04  0.15992483813E+04 0.  0.
        4    1    3    3  502    0  0.58037635825E+02  0.49034420738E+03 -0.83570227863E+03  0.97067281835E+03  0.12699999809E+01 0.  1.
       -4    1    3    3    0  502 -0.58037635825E+02 -0.49034420738E+03  0.45700543337E+03  0.67280115035E+03  0.12699999809E+01 0. -1.
</event>
<event>
 5   0  0.4211419E-05  0.1592895E+04  0.7818609E-02  0.8824925E-01
       -1   -1    0    0    0  501  0.00000000000E+00  0.00000000000E+00  0.42234507533E+03  0.42234507536E+03  0.50400001928E-02 0. -1.
        1   -1    0    0  501    0  0.00000000000E+00  0.00000000000E+00 -0.15019197355E+04  0.15019197355E+04  0.50400001928E-02 0.  1.
    10030    2    1    2    0    0  0.00000000000E+00  0.00000000000E+00 -0.10795746602E+04  0.19242648109E+04  0.15928947283E+04 0.  0.
        2    1    3    3  502    0 -0.41017368253E+03 -0.30133504984E+03  0.20025624218E+03  0.54694407817E+03  0.25500000920E-02 0. -1.
       -2    1    3    3    0  502  0.41017368253E+03  0.30133504984E+03 -0.12798309024E+04  0.13773207327E+04  0.25500000920E-02 0.  1.
</event>
<event>
 5   0  0.4504463E-05  0.1600293E+04  0.7818609E-02  0.8820368E-01
        1   -1    0    0  501    0  0.00000000000E+00  0.00000000000E+00  0.13030369963E+04  0.13030369963E+04  0.50400001928E-02 0. -1.
       -1   -1    0    0    0  501  0.00000000000E+00  0.00000000000E+00 -0.49134045170E+03  0.49134045172E+03  0.50400001928E-02 0.  1.
    10030    2    1    2    0    0  0.00000000000E+00  0.00000000000E+00  0.81169654463E+03  0.17943774481E+04  0.16002934561E+04 0.  0.
        1    1    3    3  502    0 -0.69457532590E+03  0.34590290205E+03  0.62486012644E+03  0.99625994532E+03  0.50400001928E-02 0. -1.
       -1    1    3    3    0  502  0.69457532590E+03 -0.34590290205E+03  0.18683641818E+03  0.79811750274E+03  0.50400001928E-02 0.  1.
</event>
<event>
 5   0  0.7901257E-05  0.1601539E+04  0.7818609E-02  0.8819603E-01
        2   -1    0    0  501    0  0.00000000000E+00  0.00000000000E+00  0.22477040744E+04  0.22477040744E+04  0.25500000920E-02 0. -1.
       -2   -1    0    0    0  501  0.00000000000E+00  0.00000000000E+00 -0.28528292292E+03  0.28528292293E+03  0.25500000920E-02 0.  1.
    10030    2    1    2    0    0  0.00000000000E+00  0.00000000000E+00  0.19624211515E+04  0.25329869974E+04  0.16015387454E+04 0.  0.
        2    1    3    3  502    0  0.47071195083E+03  0.26759956158E+03  0.19142882076E+04  0.19893915170E+04  0.25500000920E-02 0. -1.
       -2    1    3    3    0  502 -0.47071195083E+03 -0.26759956158E+03  0.48132943917E+02  0.54359548040E+03  0.25500000920E-02 0.  1.
</event>
<event>
 5   0  0.4314657E-05  0.1594357E+04  0.7818609E-02  0.8824022E-01
        1   -1    0    0  501    0  0.00000000000E+00  0.00000000000E+00  0.11235023878E+04  0.11235023878E+04  0.50400001928E-02 0. -1.
       -1   -1    0    0    0  501  0.00000000000E+00  0.00000000000E+00 -0.56563591271E+03  0.56563591273E+03  0.50400001928E-02 0.  1.
    10030    2    1    2    0    0  0.00000000000E+00  0.00000000000E+00  0.55786647509E+03  0.16891383005E+04  0.15943566710E+04 0.  0.
        5    1    3    3  502    0 -0.10112176665E+03 -0.21721005101E+03  0.10844381818E+04  0.11106007735E+04  0.46999998093E+01 0. -1.
       -5    1    3    3    0  502  0.10112176665E+03  0.21721005101E+03 -0.52657170668E+03  0.57853752707E+03  0.46999998093E+01 0.  1.
</event>
<event>
 5   0  0.4256406E-05  0.1600965E+04  0.7818609E-02  0.8819955E-01
        1   -1    0    0  501    0  0.00000000000E+00  0.00000000000E+00  0.65486760737E+03  0.65486760739E+03  0.50400001928E-02 0. -1.
       -1   -1    0    0    0  501  0.00000000000E+00  0.00000000000E+00 -0.97847654077E+03  0.97847654078E+03  0.50400001928E-02 0.  1.
    10030    2    1    2    0    0  0.00000000000E+00  0.00000000000E+00 -0.32360893340E+03  0.16333441482E+04  0.16009654477E+04 0.  0.
        3    1    3    3  502    0 -0.74958207890E+03  0.26821523309E+03 -0.76691346044E+02  0.79980890032E+03  0.10100000352E+00 0.  1.
       -3    1    3    3    0  502  0.74958207890E+03 -0.26821523309E+03 -0.24691758736E+03  0.83353524785E+03  0.10100000352E+00 0. -1.
</event>
<event>
 5   0  0.7849690E-05  0.1599862E+04  0.7818609E-02  0.8820633E-01
        2   -1    0    0  501    0  0.00000000000E+00  0.00000000000E+00  0.11186916013E+04  0.11186916013E+04  0.25500000920E-02 0.  1.
       -2   -1    0    0    0  501  0.00000000000E+00  0.00000000000E+00 -0.57199821971E+03  0.57199821972E+03  0.25500000920E-02 0. -1.
    10030    2    1    2    0    0  0.00000000000E+00  0.00000000000E+00  0.54669338162E+03  0.16906898210E+04  0.15998619995E+04 0.  0.
        3    1    3    3  502    0 -0.67909034981E+03 -0.38202482233E+03  0.46468647169E+03  0.90721562776E+03  0.10100000352E+00 0.  1.
       -3    1    3    3    0  502  0.67909034981E+03  0.38202482233E+03  0.82006909929E+02  0.78347419329E+03  0.10100000352E+00 0. -1.
</event>
<event>
 5   0  0.7849690E-05  0.1596167E+04  0.7818609E-02  0.8822906E-01
        2   -1    0    0  501    0  0.00000000000E+00  0.00000000000E+00  0.76766393013E+03  0.76766393014E+03  0.25500000920E-02 0.  1.
       -2   -1    0    0    0  501  0.00000000000E+00  0.00000000000E+00 -0.82970881153E+03  0.82970881153E+03  0.25500000920E-02 0. -1.
    10030    2    1    2    0    0  0.00000000000E+00  0.00000000000E+00 -0.62044881399E+02  0.15973727417E+04  0.15961673185E+04 0.  0.
        3    1    3    3  502    0 -0.60315697636E+03  0.21512706761E+03  0.44563498442E+03  0.78017212389E+03  0.10100000352E+00 0.  1.
       -3    1    3    3    0  502  0.60315697636E+03 -0.21512706761E+03 -0.50767986582E+03  0.81720061778E+03  0.10100000352E+00 0. -1.
</event>
<event>
 5   0  0.4504463E-05  0.1598488E+04  0.7818609E-02  0.8821477E-01
       -1   -1    0    0    0  501  0.00000000000E+00  0.00000000000E+00  0.42770970795E+03  0.42770970798E+03  0.50400001928E-02 0. -1.
        1   -1    0    0  501    0  0.00000000000E+00  0.00000000000E+00 -0.14935150622E+04  0.14935150622E+04  0.50400001928E-02 0.  1.
    10030    2    1    2    0    0  0.00000000000E+00  0.00000000000E+00 -0.10658053543E+04  0.19212247702E+04  0.15984878994E+04 0.  0.
        1    1    3    3  502    0  0.27138615611E+03  0.58836151919E+03  0.29519311789E+02  0.64860705577E+03  0.50400001928E-02 0. -1.
       -1    1    3    3    0  502 -0.27138615611E+03 -0.58836151919E+03 -0.10953246661E+04  0.12726177144E+04  0.50400001928E-02 0.  1.
</event>
<event>
 5   0  0.8694033E-05  0.1598798E+04  0.7818609E-02  0.8821287E-01
        2   -1    0    0  501    0  0.00000000000E+00  0.00000000000E+00  0.11021950642E+04  0.11021950642E+04  0.25500000920E-02 0. -1.
       -2   -1    0    0    0  501  0.00000000000E+00  0.00000000000E+00 -0.57978720088E+03  0.57978720089E+03  0.25500000920E-02 0.  1.
    10030    2    1    2    0    0  0.00000000000E+00  0.00000000000E+00  0.52240786329E+03  0.16819822651E+04  0.15987977872E+04 0.  0.
        1    1    3    3  502    0 -0.34533727497E+03 -0.56784655995E+03  0.72853599450E+03  0.98614007344E+03  0.50400001928E-02 0. -1.
       -1    1    3    3    0  502  0.34533727497E+03  0.56784655995E+03 -0.20612813121E+03  0.69584219162E+03  0.50400001928E-02 0.  1.
</event>
<event>
 5   0  0.4211419E-05  0.1605311E+04  0.7818609E-02  0.8817292E-01
       -1   -1    0    0    0  501  0.00000000000E+00  0.00000000000E+00  0.54915825290E+03  0.54915825293E+03  0.50400001928E-02 0.  1.
        1   -1    0    0  501    0  0.00000000000E+00  0.00000000000E+00 -0.11731696498E+04  0.11731696498E+04  0.50400001928E-02 0. -1.
    10030    2    1    2    0    0  0.00000000000E+00  0.00000000000E+00 -0.62401139688E+03  0.17223279027E+04  0.16053109297E+04 0.  0.
        2    1    3    3  502    0 -0.35803183234E+03 -0.69611795921E+03 -0.50239154319E+03  0.93014206914E+03  0.25500000920E-02 0.  1.
       -2    1    3    3    0  502  0.35803183234E+03  0.69611795921E+03 -0.12161985368E+03  0.79218583358E+03  0.25500000920E-02 0. -1.
</event>
<event>
 5   0  0.4504463E-05  0.1599983E+04  0.7818609E-02  0.8820558E-01
       -1   -1    0    0    0  501  0.00000000000E+00  0.00000000000E+00  0.10363557391E+04  0.10363557391E+04  0.50400001928E-02 0.  1.
        1   -1    0    0  501    0  0.00000000000E+00  0.00000000000E+00 -0.61753576483E+03  0.61753576485E+03  0.50400001928E-02 0. -1.
    10030    2    1    2    0    0  0.00000000000E+00  0.00000000000E+00  0.41881997428E+03  0.16538915040E+04  0.15999834174E+04 0.  0.
        1    1    3    3  502    0 -0.25356200571E+03  0.30727975954E+03 -0.50770189628E+03  0.64534932934E+03  0.50400001928E-02 0. -1.
       -1    1    3    3    0  502  0.25356200571E+03 -0.30727975954E+03  0.92652187056E+03  0.10085421746E+04  0.50400001928E-02 0.  1.
</event>
<event>
 5   0  0.3042125E-05  0.1598623E+04  0.7818609E-02  0.8821394E-01
       -4   -1    0    0    0  501  0.00000000000E+00  0.00000000000E+00  0.41123452121E+03  0.41123648226E+03  0.12699999809E+01 0. -1.
        4   -1    0    0  501    0  0.00000000000E+00  0.00000000000E+00 -0.15536068616E+04  0.15536073807E+04  0.12699999809E+01 0.  1.
    10030    2    1    2    0    0  0.00000000000E+00  0.00000000000E+00 -0.11423723404E+04  0.19648438629E+04  0.15986234208E+04 0.  0.
        4    1    3    3  502    0 -0.13773598263E+03  0.69342186162E+03 -0.11279762262E+03  0.71591200273E+03  0.12699999809E+01 0.  1.
       -4    1    3    3    0  502  0.13773598263E+03 -0.69342186162E+03 -0.10295747178E+04  0.12489318602E+04  0.12699999809E+01 0. -1.
</event>
<event>
 5   0  0.7849690E-05  0.1596497E+04  0.7818609E-02  0.8822703E-01
        2   -1    0    0  501    0  0.00000000000E+00  0.00000000000E+00  0.50387625730E+03  0.50387625730E+03  0.25500000920E-02 0.  1.
       -2   -1    0    0    0  501  0.00000000000E+00  0.00000000000E+00 -0.12645979757E+04  0.12645979757E+04  0.25500000920E-02 0. -1.
    10030    2    1    2    0    0  0.00000000000E+00  0.00000000000E+00 -0.76072171837E+03  0.17684742330E+04  0.15964972847E+04 0.  0.
        3    1    3    3  502    0 -0.14245047985E+03  0.59754299583E+03  0.18430670748E+03  0.64134136284E+03  0.10100000352E+00 0.  1.
       -3    1    3    3    0  502  0.14245047985E+03 -0.59754299583E+03 -0.94502842584E+03  0.11271328701E+04  0.10100000352E+00 0. -1.
</event>
<event>
 5   0  0.4211419E-05  0.1600205E+04  0.7818609E-02  0.8820422E-01
       -1   -1    0    0    0  501  0.00000000000E+00  0.00000000000E+00  0.88166480082E+03  0.88166480084E+03  0.50400001928E-02 0.  1.
        1   -1    0    0  501    0  0.00000000000E+00  0.00000000000E+00 -0.72608516873E+03  0.72608516875E+03  0.50400001928E-02 0. -1.
    10030    2    1    2    0    0  0.00000000000E+00  0.00000000000E+00  0.15557963209E+03  0.16077499696E+04  0.16002046565E+04 0.  0.
        2    1    3    3  502    0 -0.23606333545E+03  0.11284802604E+03  0.83746558947E+03  0.87738770728E+03  0.25500000920E-02 0.  1.
       -2    1    3    3    0  502  0.23606333545E+03 -0.11284802604E+03 -0.68188595738E+03  0.73036226231E+03  0.25500000920E-02 0. -1.
</event>
<event>
 5   0  0.4211419E-05  0.1598447E+04  0.7818609E-02  0.8821503E-01
        1   -1    0    0  501    0  0.00000000000E+00  0.00000000000E+00  0.10062972409E+04  0.10062972409E+04  0.50400001928E-02 0.  1.
       -1   -1    0    0    0  501  0.00000000000E+00  0.00000000000E+00 -0.63476091953E+03  0.63476091955E+03  0.50400001928E-02 0. -1.
    10030    2    1    2    0    0  0.00000000000E+00  0.00000000000E+00  0.37153632134E+03  0.16410581604E+04  0.15984469487E+04 0.  0.
        2    1    3    3  502    0 -0.50249201527E+03  0.36026620240E+03 -0.33415900322E+03  0.70281733149E+03  0.25500000920E-02 0. -1.
       -2    1    3    3    0  502  0.50249201527E+03 -0.36026620240E+03  0.70569532456E+03  0.93824082895E+03  0.25500000920E-02 0.  1.
</event>
<event>
 5   0  0.7901257E-05  0.1600839E+04  0.7818609E-02  0.8820033E-01
       -2   -1    0    0    0  501  0.00000000000E+00  0.00000000000E+00  0.90272318412E+03  0.90272318412E+03  0.25500000920E-02 0.  1.
        2   -1    0    0  501    0  0.00000000000E+00  0.00000000000E+00 -0.70970931215E+03  0.70970931215E+03  0.25500000920E-02 0. -1.
    10030    2    1    2    0    0  0.00000000000E+00  0.00000000000E+00  0.19301387197E+03  0.16124324963E+04  0.16008385928E+04 0.  0.
        2    1    3    3  502    0  0.24222290300E+03 -0.56365334523E+03  0.61432555994E+03  0.86820096863E+03  0.25500000920E-02 0.  1.
       -2    1    3    3    0  502 -0.24222290300E+03  0.56365334523E+03 -0.42131168796E+03  0.74423152765E+03  0.25500000920E-02 0. -1.
</event>
<event>
 5   0  0.4256406E-05  0.1601032E+04  0.7818609E-02  0.8819914E-01
       -1   -1    0    0    0  501  0.00000000000E+00  0.00000000000E+00  0.11660209224E+04  0.11660209224E+04  0.50400001928E-02 0.  1.
        1   -1    0    0  501    0  0.00000000000E+00  0.00000000000E+00 -0.54958348390E+03  0.54958348392E+03  0.50400001928E-02 0. -1.
    10030    2    1    2    0    0  0.00000000000E+00  0.00000000000E+00  0.61643743851E+03  0.17156044063E+04  0.16010319683E+04 0.  0.
        3    1    3    3  502    0  0.27167581862E+03  0.75282964760E+03  0.29075516000E+03  0.85152733485E+03  0.10100000352E+00 0. -1.
       -3    1    3    3    0  502 -0.27167581862E+03 -0.75282964760E+03  0.32568227850E+03  0.86407707148E+03  0.10100000352E+00 0.  1.
</event>
<event>
 5   0  0.8037548E-05  0.1591143E+04  0.7818609E-02  0.8826008E-01
       -2   -1    0    0    0  501  0.00000000000E+00  0.00000000000E+00  0.33355099639E+03  0.33355099640E+03  0.25500000920E-02 0. -1.
        2   -1    0    0  501    0  0.00000000000E+00  0.00000000000E+00 -0.18975634880E+04  0.18975634880E+04  0.25500000920E-02 0.  1.
    10030    2    1    2    0    0  0.00000000000E+00  0.00000000000E+00 -0.15640124916E+04  0.22311144844E+04  0.15911432269E+04 0.  0.
        5    1    3    3  502    0  0.73407031213E+03 -0.17273557875E+02 -0.35265903136E+03  0.81458460663E+03  0.46999998093E+01 0. -1.
       -5    1    3    3    0  502 -0.73407031213E+03  0.17273557875E+02 -0.12113534603E+04  0.14165298778E+04  0.46999998093E+01 0.  1.
</event>
<event>
 5   0  0.4256406E-05  0.1599843E+04  0.7818609E-02  0.8820644E-01
       -1   -1    0    0    0  501  0.00000000000E+00  0.00000000000E+00  0.59594372795E+03  0.59594372797E+03  0.50400001928E-02 0.  1.
        1   -1    0    0  501    0  0.00000000000E+00  0.00000000000E+00 -0.10737162769E+04  0.10737162769E+04  0.50400001928E-02 0. -1.
    10030    2    1    2    0    0  0.00000000000E+00  0.00000000000E+00 -0.47777254894E+03  0.16696600049E+04  0.15998430933E+04 0.  0.
        3    1    3    3  502    0  0.26352634223E+03 -0.65707311994E+02  0.54635190374E+03  0.61013440882E+03  0.10100000352E+00 0.  1.
       -3    1    3    3    0  502 -0.26352634223E+03  0.65707311994E+02 -0.10241244527E+04  0.10595255960E+04  0.10100000352E+00 0. -1.
</event>
<event>
 5   0  0.7901257E-05  0.1603932E+04  0.7818609E-02  0.8818136E-01
        2   -1    0    0  501    0  0.00000000000E+00  0.00000000000E+00  0.95093253874E+03  0.95093253874E+03  0.25500000920E-02 0. -1.
       -2   -1    0    0    0  501  0.00000000000E+00  0.00000000000E+00 -0.67633575093E+03  0.67633575093E+03  0.25500000920E-02 0.  1.
    10030    2    1    2    0    0  0.00000000000E+00  0.00000000000E+00  0.27459678781E+03  0.16272682897E+04  0.16039322588E+04 0.  0.
        2    1    3    3  502    0 -0.26443057765E+03 -0.45822706335E+03 -0.47417617872E+03  0.71044959037E+03  0.25500000920E-02 0.  1.
       -2    1    3    3    0  502  0.26443057765E+03  0.45822706335E+03  0.74877296653E+03  0.91681869931E+03  0.25500000920E-02 0. -1.
</event>
<event>
 5   0  0.7901257E-05  0.1601124E+04  0.7818609E-02  0.8819858E-01
        2   -1    0    0  501    0  0.00000000000E+00  0.00000000000E+00  0.13641374691E+04  0.13641374691E+04  0.25500000920E-02 0. -1.
       -2   -1    0    0    0  501  0.00000000000E+00  0.00000000000E+00 -0.46982053963E+03  0.46982053964E+03  0.25500000920E-02 0.  1.
    10030    2    1    2    0    0  0.00000000000E+00  0.00000000000E+00  0.89431692943E+03  0.18339580087E+04  0.16011243573E+04 0.  0.
        2    1    3    3  502    0  0.73631840401E+03  0.41958802484E+02  0.90466745052E+02  0.74304075605E+03  0.25500000920E-02 0.  1.
       -2    1    3    3    0  502 -0.73631840401E+03 -0.41958802484E+02  0.80385018437E+03  0.10909172526E+04  0.25500000920E-02 0. -1.
</event>
<event>
 5   0  0.4504463E-05  0.1593132E+04  0.7818609E-02  0.8824779E-01
        1   -1    0    0  501    0  0.00000000000E+00  0.00000000000E+00  0.56455565809E+03  0.56455565812E+03  0.50400001928E-02 0. -1.
       -1   -1    0    0    0  501  0.00000000000E+00  0.00000000000E+00 -0.11239232621E+04  0.11239232621E+04  0.50400001928E-02 0.  1.
    10030    2    1    2    0    0  0.00000000000E+00  0.00000000000E+00 -0.55936760398E+03  0.16884789202E+04  0.15931318048E+04 0.  0.
        1    1    3    3  502    0  0.96231229230E+02 -0.78841928063E+03 -0.34373082272E+03  0.86545727224E+03  0.50400001928E-02 0. -1.
       -1    1    3    3    0  502 -0.96231229230E+02  0.78841928063E+03 -0.21563678126E+03  0.82302164796E+03  0.50400001928E-02 0.  1.
</event>
<event>
 5   0  0.7849690E-05  0.1601073E+04  0.7818609E-02  0.8819889E-01
        2   -1    0    0  501    0  0.00000000000E+00  0.00000000000E+00  0.97619564550E+03  0.97619564551E+03  0.25500000920E-02 0. -1.
       -2   -1    0    0    0  501  0.00000000000E+00  0.00000000000E+00 -0.65648565694E+03  0.65648565695E+03  0.25500000920E-02 0.  1.
    10030    2    1    2    0    0  0.00000000000E+00  0.00000000000E+00  0.31970998856E+03  0.16326813025E+04  0.16010726900E+04 0.  0.
        3    1    3    3  502    0 -0.50782150920E+03  0.44137398120E+03 -0.28248835999E+03  0.72972142645E+03  0.10100000352E+00 0.  1.
       -3    1    3    3    0  502  0.50782150920E+03 -0.44137398120E+03  0.60219834855E+03  0.90295987601E+03  0.10100000352E+00 0. -1.
</event>
<event>
 5   0  0.7901257E-05  0.1569739E+04  0.7818609E-02  0.8839357E-01
        2   -1    0    0  501    0  0.00000000000E+00  0.00000000000E+00  0.13362592361E+04  0.13362592361E+04  0.25500000920E-02 0.  1.
       -2   -1    0    0    0  501  0.00000000000E+00  0.00000000000E+00 -0.46100343499E+03  0.46100343500E+03  0.25500000920E-02 0. -1.
    10030    2    1    2    0    0  0.00000000000E+00  0.00000000000E+00  0.87525580109E+03  0.17972626711E+04  0.15697389565E+04 0.  0.
        2    1    3    3  502    0  0.18958927966E+03 -0.75560501652E+03  0.54707075252E+03  0.95192932733E+03  0.25500000920E-02 0.  1.
       -2    1    3    3    0  502 -0.18958927966E+03  0.75560501652E+03  0.32818504857E+03  0.84533334375E+03  0.25500000920E-02 0. -1.
</event>
<event>
 5   0  0.4256406E-05  0.1600899E+04  0.7818609E-02  0.8819996E-01
        1   -1    0    0  501    0  0.00000000000E+00  0.00000000000E+00  0.18526565628E+04  0.18526565628E+04  0.50400001928E-02 0.  1.
       -1   -1    0    0    0  501  0.00000000000E+00  0.00000000000E+00 -0.34583809617E+03  0.34583809621E+03  0.50400001928E-02 0. -1.
    10030    2    1    2    0    0  0.00000000000E+00  0.00000000000E+00  0.15068184666E+04  0.21984946590E+04  0.16008987708E+04 0.  0.
        3    1    3    3  502    0 -0.13628854941E+03 -0.74609790648E+03  0.40199095446E+03  0.85839000018E+03  0.10100000352E+00 0. -1.
       -3    1    3    3    0  502  0.13628854941E+03  0.74609790648E+03  0.11048275121E+04  0.13401046588E+04  0.10100000352E+00 0.  1.
</event>
<event>
 5   0  0.4256406E-05  0.1601085E+04  0.7818609E-02  0.8819882E-01
       -1   -1    0    0    0  501  0.00000000000E+00  0.00000000000E+00  0.75919156522E+03  0.75919156524E+03  0.50400001928E-02 0.  1.
        1   -1    0    0  501    0  0.00000000000E+00  0.00000000000E+00 -0.84414591223E+03  0.84414591224E+03  0.50400001928E-02 0. -1.
    10030    2    1    2    0    0  0.00000000000E+00  0.00000000000E+00 -0.84954347003E+02  0.16033374775E+04  0.16010852025E+04 0.  0.
        3    1    3    3  502    0  0.32947944446E+03  0.24741570900E+03 -0.72980791098E+03  0.83808760551E+03  0.10100000352E+00 0. -1.
       -3    1    3    3    0  502 -0.32947944446E+03 -0.24741570900E+03  0.64485356398E+03  0.76524987197E+03  0.10100000352E+00 0.  1.
</event>
<event>
 5   0  0.4373026E-05  0.1592548E+04  0.7818609E-02  0.8825139E-01
       -1   -1    0    0    0  501  0.00000000000E+00  0.00000000000E+00  0.76125123145E+03  0.76125123147E+03  0.50400001928E-02 0.  1.
        1   -1    0    0  501    0  0.00000000000E+00  0.00000000000E+00 -0.83290754097E+03  0.83290754098E+03  0.50400001928E-02 0. -1.
    10030    2    1    2    0    0  0.00000000000E+00  0.00000000000E+00 -0.71656309515E+02  0.15941587725E+04  0.15925475080E+04 0.  0.
        4    1    3    3  502    0  0.45966935363E+03  0.34517632987E+03 -0.58739168477E+03  0.82187177686E+03  0.12699999809E+01 0. -1.
       -4    1    3    3    0  502 -0.45966935363E+03 -0.34517632987E+03  0.51573537526E+03  0.77228699559E+03  0.12699999809E+01 0.  1.
</event>
<event>
 5   0  0.7849690E-05  0.1600455E+04  0.7818609E-02  0.8820268E-01
       -2   -1    0    0    0  501  0.00000000000E+00  0.00000000000E+00  0.26407403416E+03  0.26407403417E+03  0.25500000920E-02 0. -1.
        2   -1    0    0  501    0  0.00000000000E+00  0.00000000000E+00 -0.24249421625E+04  0.24249421625E+04  0.25500000920E-02 0.  1.
    10030    2    1    2    0    0  0.00000000000E+00  0.00000000000E+00 -0.21608681283E+04  0.26890161967E+04  0.16004552596E+04 0.  0.
        3    1    3    3  502    0  0.45006084453E+03 -0.34561051075E+03 -0.20284400490E+04  0.21063167927E+04  0.10100000352E+00 0.  1.
       -3    1    3    3    0  502 -0.45006084453E+03  0.34561051075E+03 -0.13242807936E+03  0.58269940392E+03  0.10100000352E+00 0. -1.
</event>
<event>
 5   0  0.7901257E-05  0.1600598E+04  0.7818609E-02  0.8820181E-01
        2   -1    0    0  501    0  0.00000000000E+00  0.00000000000E+00  0.18119502686E+04  0.18119502686E+04  0.25500000920E-02 0. -1.
       -2   -1    0    0    0  501  0.00000000000E+00  0.00000000000E+00 -0.35347472165E+03  0.35347472166E+03  0.25500000920E-02 0.  1.
    10030    2    1    2    0    0  0.00000000000E+00  0.00000000000E+00  0.14584755470E+04  0.21654249903E+04  0.16005981592E+04 0.  0.
        2    1    3    3  502    0 -0.19589755459E+02  0.48019681744E+03 -0.13650903591E+03  0.49960730468E+03  0.25500000920E-02 0.  1.
       -2    1    3    3    0  502  0.19589755459E+02 -0.48019681744E+03  0.15949845829E+04  0.16658176856E+04  0.25500000920E-02 0. -1.
</event>
<event>
 5   0  0.8620155E-05  0.1600999E+04  0.7818609E-02  0.8819934E-01
       -2   -1    0    0    0  501  0.00000000000E+00  0.00000000000E+00  0.52099978656E+03  0.52099978657E+03  0.25500000920E-02 0.  1.
        2   -1    0    0  501    0  0.00000000000E+00  0.00000000000E+00 -0.12299422716E+04  0.12299422716E+04  0.25500000920E-02 0. -1.
    10030    2    1    2    0    0  0.00000000000E+00  0.00000000000E+00 -0.70894248506E+03  0.17509420582E+04  0.16009992642E+04 0.  0.
        4    1    3    3  502    0  0.33549416590E+03  0.13988488645E+02  0.44025313591E+03  0.55369346190E+03  0.12699999809E+01 0.  1.
       -4    1    3    3    0  502 -0.33549416590E+03 -0.13988488645E+02 -0.11491956210E+04  0.11972485963E+04  0.12699999809E+01 0. -1.
</event>
<event>
 5   0  0.4211419E-05  0.1597783E+04  0.7818609E-02  0.8821911E-01
        1   -1    0    0  501    0  0.00000000000E+00  0.00000000000E+00  0.14693930918E+04  0.14693930918E+04  0.50400001928E-02 0. -1.
       -1   -1    0    0    0  501  0.00000000000E+00  0.00000000000E+00 -0.43434794971E+03  0.43434794974E+03  0.50400001928E-02 0.  1.
    10030    2    1    2    0    0  0.00000000000E+00  0.00000000000E+00  0.10350451421E+04  0.19037410415E+04  0.15977833104E+04 0.  0.
        2    1    3    3  502    0  0.52848244747E+03 -0.27400348351E+02 -0.19556475852E+03  0.56417200494E+03  0.25500000920E-02 0.  1.
       -2    1    3    3    0  502 -0.52848244747E+03  0.27400348351E+02  0.12306099006E+04  0.13395690366E+04  0.25500000920E-02 0. -1.
</event>
<event>
 5   0  0.3042125E-05  0.1601024E+04  0.7818609E-02  0.8819919E-01
       -3   -1    0    0    0  501  0.00000000000E+00  0.00000000000E+00  0.61805095997E+03  0.61805096822E+03  0.10100000352E+00 0. -1.
        3   -1    0    0  501    0  0.00000000000E+00  0.00000000000E+00 -0.10368386563E+04  0.10368386612E+04  0.10100000352E+00 0.  1.
    10030    2    1    2    0    0  0.00000000000E+00  0.00000000000E+00 -0.41878769631E+03  0.16548896294E+04  0.16010235948E+04 0.  0.
        1    1    3    3  502    0 -0.44244014557E+03 -0.61967706117E+03 -0.46482374781E+03  0.89208410989E+03  0.50400001928E-02 0.  1.
       -1    1    3    3    0  502  0.44244014557E+03  0.61967706117E+03  0.46036051502E+02  0.76280551953E+03  0.50400001928E-02 0. -1.
</event>
<event>
 5   0  0.7849690E-05  0.1598090E+04  0.7818609E-02  0.8821722E-01
       -2   -1    0    0    0  501  0.00000000000E+00  0.00000000000E+00  0.48093489285E+03  0.48093489286E+03  0.25500000920E-02 0.  1.
        2   -1    0    0  501    0  0.00000000000E+00  0.00000000000E+00 -0.13275665503E+04  0.13275665503E+04  0.25500000920E-02 0. -1.
    10030    2    1    2    0    0  0.00000000000E+00  0.00000000000E+00 -0.84663165746E+03  0.18085014432E+04  0.15980902060E+04 0.  0.
        3    1    3    3  502    0 -0.30370314939E+02  0.15954531759E+03 -0.13086910048E+04  0.13187301546E+04  0.10100000352E+00 0. -1.
       -3    1    3    3    0  502  0.30370314939E+02 -0.15954531759E+03  0.46205934737E+03  0.48977128855E+03  0.10100000352E+00 0.  1.
</event>
<event>
 5   0  0.7901257E-05  0.1598976E+04  0.7818609E-02  0.8821177E-01
       -2   -1    0    0    0  501  0.00000000000E+00  0.00000000000E+00  0.11685028184E+04  0.11685028184E+04  0.25500000920E-02 0. -1.
        2   -1    0    0  501    0  0.00000000000E+00  0.00000000000E+00 -0.54700869343E+03  0.54700869343E+03  0.25500000920E-02 0.  1.
    10030    2    1    2    0    0  0.00000000000E+00  0.00000000000E+00  0.62149412500E+03  0.17155115119E+04  0.15989761724E+04 0.  0.
        2    1    3    3  502    0  0.69819868679E+03 -0.36488956993E+03  0.16460112335E+03  0.80481012313E+03  0.25500000920E-02 0.  1.
       -2    1    3    3    0  502 -0.69819868679E+03  0.36488956993E+03  0.45689300165E+03  0.91070138873E+03  0.25500000920E-02 0. -1.
</event>
<event>
 5   0  0.4504463E-05  0.1596585E+04  0.7818609E-02  0.8822649E-01
        1   -1    0    0  501    0  0.00000000000E+00  0.00000000000E+00  0.14610460956E+04  0.14610460956E+04  0.50400001928E-02 0. -1.
       -1   -1    0    0    0  501  0.00000000000E+00  0.00000000000E+00 -0.43617436007E+03  0.43617436010E+03  0.50400001928E-02 0.  1.
    10030    2    1    2    0    0  0.00000000000E+00  0.00000000000E+00  0.10248717355E+04  0.18972204557E+04  0.15965849126E+04 0.  0.
        1    1    3    3  502    0  0.56472154736E+02 -0.64962665051E+03 -0.34784532401E+02  0.65300371594E+03  0.50400001928E-02 0.  1.
       -1    1    3    3    0  502 -0.56472154736E+02  0.64962665051E+03  0.10596562679E+04  0.12442167397E+04  0.50400001928E-02 0. -1.
</event>
<event>
 5   0  0.4256406E-05  0.1601537E+04  0.7818609E-02  0.8819604E-01
        1   -1    0    0  501    0  0.00000000000E+00  0.00000000000E+00  0.15264847756E+04  0.15264847756E+04  0.50400001928E-02 0.  1.
       -1   -1    0    0    0  501  0.00000000000E+00  0.00000000000E+00 -0.42006971053E+03  0.42006971056E+03  0.50400001928E-02 0. -1.
    10030    2    1    2    0    0  0.00000000000E+00  0.00000000000E+00  0.11064150651E+04  0.19465544862E+04  0.16015367843E+04 0.  0.
        3    1    3    3  502    0 -0.29189570449E+03 -0.72730404221E+03  0.75312894860E+03  0.10869119079E+04  0.10100000352E+00 0.  1.
       -3    1    3    3    0  502  0.29189570449E+03  0.72730404221E+03  0.35328611650E+03  0.85964257830E+03  0.10100000352E+00 0. -1.
</event>
<event>
 5   0  0.4373026E-05  0.1602254E+04  0.7818609E-02  0.8819165E-01
       -1   -1    0    0    0  501  0.00000000000E+00  0.00000000000E+00  0.34472927400E+03  0.34472927404E+03  0.50400001928E-02 0. -1.
        1   -1    0    0  501    0  0.00000000000E+00  0.00000000000E+00 -0.18617627928E+04  0.18617627928E+04  0.50400001928E-02 0.  1.
    10030    2    1    2    0    0  0.00000000000E+00  0.00000000000E+00 -0.15170335188E+04  0.22064920669E+04  0.16022535829E+04 0.  0.
        4    1    3    3  502    0 -0.34907689984E+03 -0.54833666273E+03 -0.14033767411E+04  0.15466077939E+04  0.12699999809E+01 0.  1.
       -4    1    3    3    0  502  0.34907689984E+03  0.54833666273E+03 -0.11365677769E+03  0.65988427297E+03  0.12699999809E+01 0. -1.
</event>
<event>
 5   0  0.4504463E-05  0.1598697E+04  0.7818609E-02  0.8821349E-01
       -1   -1    0    0    0  501  0.00000000000E+00  0.00000000000E+00  0.60830538324E+03  0.60830538326E+03  0.50400001928E-02 0.  1.
        1   -1    0    0  501    0  0.00000000000E+00  0.00000000000E+00 -0.10503908066E+04  0.10503908066E+04  0.50400001928E-02 0. -1.
    10030    2    1    2    0    0  0.00000000000E+00  0.00000000000E+00 -0.44208542332E+03  0.16586961898E+04  0.15986974475E+04 0.  0.
        1    1    3    3  502    0 -0.18940196373E+03 -0.69180363633E+03  0.14503479433E+03  0.73177897394E+03  0.50400001928E-02 0.  1.
       -1    1    3    3    0  502  0.18940196373E+03  0.69180363633E+03 -0.58712021765E+03  0.92691721588E+03  0.50400001928E-02 0. -1.
</event>
<event>
 5   0  0.7849690E-05  0.1598781E+04  0.7818609E-02  0.8821297E-01
        2   -1    0    0  501    0  0.00000000000E+00  0.00000000000E+00  0.12442012056E+04  0.12442012056E+04  0.25500000920E-02 0. -1.
       -2   -1    0    0    0  501  0.00000000000E+00  0.00000000000E+00 -0.51360300609E+03  0.51360300609E+03  0.25500000920E-02 0.  1.
    10030    2    1    2    0    0  0.00000000000E+00  0.00000000000E+00  0.73059819951E+03  0.17578042117E+04  0.15987813852E+04 0.  0.
        3    1    3    3  502    0  0.38227827847E+02  0.14561990905E+03 -0.49787473864E+03  0.52014016410E+03  0.10100000352E+00 0.  1.
       -3    1    3    3    0  502 -0.38227827847E+02 -0.14561990905E+03  0.12284729382E+04  0.12376640476E+04  0.10100000352E+00 0. -1.
</event>
<event>
 5   0  0.4211419E-05  0.1601419E+04  0.7818609E-02  0.8819676E-01
        1   -1    0    0  501    0  0.00000000000E+00  0.00000000000E+00  0.94348157509E+03  0.94348157510E+03  0.50400001928E-02 0. -1.
       -1   -1    0    0    0  501  0.00000000000E+00  0.00000000000E+00 -0.67954272021E+03  0.67954272023E+03  0.50400001928E-02 0.  1.
    10030    2    1    2    0    0  0.00000000000E+00  0.00000000000E+00  0.26393885488E+03  0.16230242953E+04  0.16014194154E+04 0.  0.
        2    1    3    3  502    0  0.17466402257E+03  0.94816654249E+01 -0.65994179826E+03  0.68273025409E+03  0.25500000920E-02 0.  1.
       -2    1    3    3    0  502 -0.17466402257E+03 -0.94816654249E+01  0.92388065313E+03  0.94029404124E+03  0.25500000920E-02 0. -1.
</event>
<event>
 5   0  0.8694033E-05  0.1599560E+04  0.7818609E-02  0.8820818E-01
        2   -1    0    0  501    0  0.00000000000E+00  0.00000000000E+00  0.82942869455E+03  0.82942869455E+03  0.25500000920E-02 0. -1.
       -2   -1    0    0    0  501  0.00000000000E+00  0.00000000000E+00 -0.77119151156E+03  0.77119151156E+03  0.25500000920E-02 0.  1.
    10030    2    1    2    0    0  0.00000000000E+00  0.00000000000E+00  0.58237182986E+02  0.16006202061E+04  0.15995604005E+04 0.  0.
        1    1    3    3  502    0 -0.12141915073E+03  0.59571863294E+03 -0.49086506530E+03  0.78139094706E+03  0.50400001928E-02 0.  1.
       -1    1    3    3    0  502  0.12141915073E+03 -0.59571863294E+03  0.54910224828E+03  0.81922925905E+03  0.50400001928E-02 0. -1.
</event>
<event>
 5   0  0.4211419E-05  0.1601012E+04  0.7818609E-02  0.8819926E-01
       -1   -1    0    0    0  501  0.00000000000E+00  0.00000000000E+00  0.40022845430E+03  0.40022845434E+03  0.50400001928E-02 0. -1.
        1   -1    0    0  501    0  0.00000000000E+00  0.00000000000E+00 -0.16011104702E+04  0.16011104702E+04  0.50400001928E-02 0.  1.
    10030    2    1    2    0    0  0.00000000000E+00  0.00000000000E+00 -0.12008820159E+04  0.20013389246E+04  0.16010121408E+04 0.  0.
        2    1    3    3  502    0 -0.35773573405E+03  0.46348868843E+03 -0.12828486409E+04  0.14101408636E+04  0.25500000920E-02 0.  1.
       -2    1    3    3    0  502  0.35773573405E+03 -0.46348868843E+03  0.81966624951E+02  0.59119806100E+03  0.25500000920E-02 0. -1.
</event>
<event>
 5   0  0.4256406E-05  0.1602186E+04  0.7818609E-02  0.8819206E-01
        1   -1    0    0  501    0  0.00000000000E+00  0.00000000000E+00  0.10248251891E+04  0.10248251891E+04  0.50400001928E-02 0. -1.
       -1   -1    0    0    0  501  0.00000000000E+00  0.00000000000E+00 -0.62620439740E+03  0.62620439742E+03  0.50400001928E-02 0.  1.
    10030    2    1    2    0    0  0.00000000000E+00  0.00000000000E+00  0.39862079170E+03  0.16510295865E+04  0.16021860566E+04 0.  0.
        3    1    3    3  502    0 -0.36425584780E+03 -0.13542196984E+03 -0.52256558499E+03  0.65122671428E+03  0.10100000352E+00 0.  1.
       -3    1    3    3    0  502  0.36425584780E+03  0.13542196984E+03  0.92118637669E+03  0.99980287226E+03  0.10100000352E+00 0. -1.
</event>
<event>
 5   0  0.8620155E-05  0.1601713E+04  0.7818609E-02  0.8819497E-01
        2   -1    0    0  501    0  0.00000000000E+00  0.00000000000E+00  0.11830294323E+04  0.11830294323E+04  0.25500000920E-02 0. -1.
       -2   -1    0    0    0  501  0.00000000000E+00  0.00000000000E+00 -0.54214273569E+03  0.54214273569E+03  0.25500000920E-02 0.  1.
    10030    2    1    2    0    0  0.00000000000E+00  0.00000000000E+00  0.64088669657E+03  0.17251721680E+04  0.16017125995E+04 0.  0.
        4    1    3    3  502    0 -0.40194517335E+03  0.52026559510E+03 -0.17211663131E+03  0.67960426683E+03  0.12699999809E+01 0.  1.
       -4    1    3    3    0  502  0.40194517335E+03 -0.52026559510E+03  0.81300332788E+03  0.10455679011E+04  0.12699999809E+01 0. -1.
</event>
<event>
 5   0  0.4373026E-05  0.1602424E+04  0.7818609E-02  0.8819060E-01
        1   -1    0    0  501    0  0.00000000000E+00  0.00000000000E+00  0.13028676194E+04  0.13028676194E+04  0.50400001928E-02 0.  1.
       -1   -1    0    0    0  501  0.00000000000E+00  0.00000000000E+00 -0.49271378563E+03  0.49271378565E+03  0.50400001928E-02 0. -1.
    10030    2    1    2    0    0  0.00000000000E+00  0.00000000000E+00  0.81015383379E+03  0.17955814051E+04  0.16024242097E+04 0.  0.
        4    1    3    3  502    0  0.16755902155E+03 -0.12610950281E+03  0.12715668468E+04  0.12887449286E+04  0.12699999809E+01 0.  1.
       -4    1    3    3    0  502 -0.16755902155E+03  0.12610950281E+03 -0.46141301298E+03  0.50683647644E+03  0.12699999809E+01 0. -1.
</event>
<event>
 5   0  0.7901257E-05  0.1614886E+04  0.7818609E-02  0.8811455E-01
        2   -1    0    0  501    0  0.00000000000E+00  0.00000000000E+00  0.25347804232E+04  0.25347804232E+04  0.25500000920E-02 0.  1.
       -2   -1    0    0    0  501  0.00000000000E+00  0.00000000000E+00 -0.25720737254E+03  0.25720737255E+03  0.25500000920E-02 0. -1.
    10030    2    1    2    0    0  0.00000000000E+00  0.00000000000E+00  0.22775730507E+04  0.27919877958E+04  0.16148860178E+04 0.  0.
        2    1    3    3  502    0  0.50944517552E+03 -0.51804180115E+03  0.52982207974E+03  0.89922918702E+03  0.25500000920E-02 0. -1.
       -2    1    3    3    0  502 -0.50944517552E+03  0.51804180115E+03  0.17477509709E+04  0.18927586088E+04  0.25500000920E-02 0.  1.
</event>
<event>
 5   0  0.4314657E-05  0.1603950E+04  0.7818609E-02  0.8818125E-01
        1   -1    0    0  501    0  0.00000000000E+00  0.00000000000E+00  0.16930998150E+04  0.16930998150E+04  0.50400001928E-02 0.  1.
       -1   -1    0    0    0  501  0.00000000000E+00  0.00000000000E+00 -0.37987376345E+03  0.37987376349E+03  0.50400001928E-02 0. -1.
    10030    2    1    2    0    0  0.00000000000E+00  0.00000000000E+00  0.13132260516E+04  0.20729735785E+04  0.16039503717E+04 0.  0.
        5    1    3    3  502    0  0.75328015718E+03 -0.14187456013E+03  0.35191281932E+03  0.84345960686E+03  0.46999998093E+01 0. -1.
       -5    1    3    3    0  502 -0.75328015718E+03  0.14187456013E+03  0.96131323227E+03  0.12295139717E+04  0.46999998093E+01 0.  1.
</event>
<event>
 5   0  0.7849690E-05  0.1566240E+04  0.7818609E-02  0.8841561E-01
       -2   -1    0    0    0  501  0.00000000000E+00  0.00000000000E+00  0.51352234291E+03  0.51352234292E+03  0.25500000920E-02 0.  1.
        2   -1    0    0  501    0  0.00000000000E+00  0.00000000000E+00 -0.11942553289E+04  0.11942553289E+04  0.25500000920E-02 0. -1.
    10030    2    1    2    0    0  0.00000000000E+00  0.00000000000E+00 -0.68073298601E+03  0.17077776718E+04  0.15662398214E+04 0.  0.
        3    1    3    3  502    0 -0.64690992379E+03  0.76272209110E+02 -0.81435293746E+03  0.10428233869E+04  0.10100000352E+00 0. -1.
       -3    1    3    3    0  502  0.64690992379E+03 -0.76272209110E+02  0.13361995146E+03  0.66495428490E+03  0.10100000352E+00 0.  1.
</event>
<event>
 5   0  0.4211419E-05  0.1556174E+04  0.7818609E-02  0.8847934E-01
        1   -1    0    0  501    0  0.00000000000E+00  0.00000000000E+00  0.76392007701E+03  0.76392007702E+03  0.50400001928E-02 0.  1.
       -1   -1    0    0    0  501  0.00000000000E+00  0.00000000000E+00 -0.79251643748E+03  0.79251643750E+03  0.50400001928E-02 0. -1.
    10030    2    1    2    0    0  0.00000000000E+00  0.00000000000E+00 -0.28596360472E+02  0.15564365145E+04  0.15561737923E+04 0.  0.
        2    1    3    3  502    0 -0.26753089735E+03  0.71512318808E+03 -0.16414090483E+03  0.78097131306E+03  0.25500000920E-02 0. -1.
       -2    1    3    3    0  502  0.26753089735E+03 -0.71512318808E+03  0.13554454436E+03  0.77546520146E+03  0.25500000920E-02 0.  1.
</event>
<event>
 5   0  0.7901257E-05  0.1599450E+04  0.7818609E-02  0.8820886E-01
        2   -1    0    0  501    0  0.00000000000E+00  0.00000000000E+00  0.17584377085E+04  0.17584377085E+04  0.25500000920E-02 0. -1.
       -2   -1    0    0    0  501  0.00000000000E+00  0.00000000000E+00 -0.36370909717E+03  0.36370909718E+03  0.25500000920E-02 0.  1.
    10030    2    1    2    0    0  0.00000000000E+00  0.00000000000E+00  0.13947286113E+04  0.21221468057E+04  0.15994496446E+04 0.  0.
        2    1    3    3  502    0 -0.26331362108E+03  0.67671619959E+03  0.11419523926E+04  0.13532679501E+04  0.25500000920E-02 0. -1.
       -2    1    3    3    0  502  0.26331362108E+03 -0.67671619959E+03  0.25277621879E+03  0.76887885562E+03  0.25500000920E-02 0.  1.
</event>
<event>
 5   0  0.8694033E-05  0.1594545E+04  0.7818609E-02  0.8823906E-01
       -2   -1    0    0    0  501  0.00000000000E+00  0.00000000000E+00  0.28878039329E+03  0.28878039330E+03  0.25500000920E-02 0. -1.
        2   -1    0    0  501    0  0.00000000000E+00  0.00000000000E+00 -0.22011306465E+04  0.22011306465E+04  0.25500000920E-02 0.  1.
    10030    2    1    2    0    0  0.00000000000E+00  0.00000000000E+00 -0.19123502532E+04  0.24899110398E+04  0.15945449179E+04 0.  0.
        1    1    3    3  502    0 -0.23272269214E+03 -0.43982212484E+03 -0.19288894986E+04  0.19920386670E+04  0.50400001928E-02 0. -1.
       -1    1    3    3    0  502  0.23272269214E+03  0.43982212484E+03  0.16539245403E+02  0.49787237280E+03  0.50400001928E-02 0.  1.
</event>
<event>
 5   0  0.4256406E-05  0.1604349E+04  0.7818609E-02  0.8817880E-01
       -1   -1    0    0    0  501  0.00000000000E+00  0.00000000000E+00  0.70166447332E+03  0.70166447334E+03  0.50400001928E-02 0. -1.
        1   -1    0    0  501    0  0.00000000000E+00  0.00000000000E+00 -0.91708266085E+03  0.91708266087E+03  0.50400001928E-02 0.  1.
    10030    2    1    2    0    0  0.00000000000E+00  0.00000000000E+00 -0.21541818753E+03  0.16187471342E+04  0.16043494909E+04 0.  0.
        3    1    3    3  502    0  0.18194095260E+03  0.71596970070E+03  0.20777759449E+03  0.76738951096E+03  0.10100000352E+00 0. -1.
       -3    1    3    3    0  502 -0.18194095260E+03 -0.71596970070E+03 -0.42319578202E+03  0.85135762325E+03  0.10100000352E+00 0.  1.
</event>
<event>
 5   0  0.4211419E-05  0.1599437E+04  0.7818609E-02  0.8820894E-01
       -1   -1    0    0    0  501  0.00000000000E+00  0.00000000000E+00  0.55083071686E+03  0.55083071688E+03  0.50400001928E-02 0. -1.
        1   -1    0    0  501    0  0.00000000000E+00  0.00000000000E+00 -0.11610638618E+04  0.11610638619E+04  0.50400001928E-02 0.  1.
    10030    2    1    2    0    0  0.00000000000E+00  0.00000000000E+00 -0.61023314499E+03  0.17118945787E+04  0.15994369501E+04 0.  0.
        2    1    3    3  502    0 -0.29025804618E+03 -0.18773811985E+03 -0.10769689378E+04  0.11310868349E+04  0.25500000920E-02 0.  1.
       -2    1    3    3    0  502  0.29025804618E+03  0.18773811985E+03  0.46673579283E+03  0.58080774386E+03  0.25500000920E-02 0. -1.
</event>
<event>
 5   0  0.7901257E-05  0.1594260E+04  0.7818609E-02  0.8824082E-01
        2   -1    0    0  501    0  0.00000000000E+00  0.00000000000E+00  0.17437677044E+04  0.17437677044E+04  0.25500000920E-02 0. -1.
       -2   -1    0    0    0  501  0.00000000000E+00  0.00000000000E+00 -0.36439248726E+03  0.36439248726E+03  0.25500000920E-02 0.  1.
    10030    2    1    2    0    0  0.00000000000E+00  0.00000000000E+00  0.13793752171E+04  0.21081601916E+04  0.15942595159E+04 0.  0.
        2    1    3    3  502    0 -0.32147854403E+03 -0.72861127886E+03  0.64401403420E+03  0.10241957460E+04  0.25500000920E-02 0. -1.
       -2    1    3    3    0  502  0.32147854403E+03  0.72861127886E+03  0.73536118290E+03  0.10839644456E+04  0.25500000920E-02 0.  1.
</event>
<event>
 5   0  0.8620155E-05  0.1599643E+04  0.7818609E-02  0.8820767E-01
       -2   -1    0    0    0  501  0.00000000000E+00  0.00000000000E+00  0.11700965326E+04  0.11700965326E+04  0.25500000920E-02 0. -1.
        2   -1    0    0  501    0  0.00000000000E+00  0.00000000000E+00 -0.54671930458E+03  0.54671930459E+03  0.25500000920E-02 0.  1.
    10030    2    1    2    0    0  0.00000000000E+00  0.00000000000E+00  0.62337722797E+03  0.17168158371E+04  0.15996429134E+04 0.  0.
        4    1    3    3  502    0 -0.46551569297E+03  0.18356344149E+03  0.98134151748E+03  0.11015594329E+04  0.12699999809E+01 0. -1.
       -4    1    3    3    0  502  0.46551569297E+03 -0.18356344149E+03 -0.35796428951E+03  0.61525640421E+03  0.12699999809E+01 0.  1.
</event>
<event>
 5   0  0.7849690E-05  0.1598674E+04  0.7818609E-02  0.8821363E-01
        2   -1    0    0  501    0  0.00000000000E+00  0.00000000000E+00  0.47058509045E+03  0.47058509046E+03  0.25500000920E-02 0.  1.
       -2   -1    0    0    0  501  0.00000000000E+00  0.00000000000E+00 -0.13577558271E+04  0.13577558271E+04  0.25500000920E-02 0. -1.
    10030    2    1    2    0    0  0.00000000000E+00  0.00000000000E+00 -0.88717073660E+03  0.18283409175E+04  0.15986740114E+04 0.  0.
        3    1    3    3  502    0  0.58607539797E+03  0.32406316634E+03  0.55499550413E+02  0.67199815341E+03  0.10100000352E+00 0. -1.
       -3    1    3    3    0  502 -0.58607539797E+03 -0.32406316634E+03 -0.94267028701E+03  0.11563427641E+04  0.10100000352E+00 0.  1.
</event>
<event>
 5   0  0.8037548E-05  0.1602740E+04  0.7818609E-02  0.8818867E-01
       -2   -1    0    0    0  501  0.00000000000E+00  0.00000000000E+00  0.89263796121E+03  0.89263796121E+03  0.25500000920E-02 0. -1.
        2   -1    0    0  501    0  0.00000000000E+00  0.00000000000E+00 -0.71943332975E+03  0.71943332975E+03  0.25500000920E-02 0.  1.
    10030    2    1    2    0    0  0.00000000000E+00  0.00000000000E+00  0.17320463146E+03  0.16120712910E+04  0.16027395305E+04 0.  0.
        5    1    3    3  502    0 -0.48023796591E+03 -0.14016553584E+02  0.73169953264E+03  0.87534636786E+03  0.46999998093E+01 0. -1.
       -5    1    3    3    0  502  0.48023796591E+03  0.14016553584E+02 -0.55849490118E+03  0.73672492310E+03  0.46999998093E+01 0.  1.
</event>
<event>
 5   0  0.4373026E-05  0.1600209E+04  0.7818609E-02  0.8820420E-01
       -1   -1    0    0    0  501  0.00000000000E+00  0.00000000000E+00  0.43574336277E+03  0.43574336280E+03  0.50400001928E-02 0. -1.
        1   -1    0    0  501    0  0.00000000000E+00  0.00000000000E+00 -0.14691378017E+04  0.14691378017E+04  0.50400001928E-02 0.  1.
    10030    2    1    2    0    0  0.00000000000E+00  0.00000000000E+00 -0.10333944390E+04  0.19048811645E+04  0.16002087940E+04 0.  0.
        4    1    3    3  502    0  0.76274526098E+03  0.63586725579E+02 -0.23920017743E+03  0.80189896034E+03  0.12699999809E+01 0. -1.
       -4    1    3    3    0  502 -0.76274526098E+03 -0.63586725579E+02 -0.79419426153E+03  0.11029822042E+04  0.12699999809E+01 0.  1.
</event>
<event>
 5   0  0.4314657E-05  0.1623567E+04  0.7818609E-02  0.8806199E-01
        1   -1    0    0  501    0  0.00000000000E+00  0.00000000000E+00  0.12008043928E+04  0.12008043928E+04  0.50400001928E-02 0. -1.
       -1   -1    0    0    0  501  0.00000000000E+00  0.00000000000E+00 -0.54879228654E+03  0.54879228657E+03  0.50400001928E-02 0.  1.
    10030    2    1    2    0    0  0.00000000000E+00  0.00000000000E+00  0.65201210627E+03  0.17495966794E+04  0.16235666767E+04 0.  0.
        5    1    3    3  502    0 -0.56302043371E+03 -0.27010257499E+03 -0.23293018961E+03  0.66650279296E+03  0.46999998093E+01 0.  1.
       -5    1    3    3    0  502  0.56302043371E+03  0.27010257499E+03  0.88494229587E+03  0.10830938864E+04  0.46999998093E+01 0. -1.
</event>
<event>
 5   0  0.4504463E-05  0.1598337E+04  0.7818609E-02  0.8821570E-01
        1   -1    0    0  501    0  0.00000000000E+00  0.00000000000E+00  0.17790527198E+04  0.17790527198E+04  0.50400001928E-02 0.  1.
       -1   -1    0    0    0  501  0.00000000000E+00  0.00000000000E+00 -0.35899468665E+03  0.35899468668E+03  0.50400001928E-02 0. -1.
    10030    2    1    2    0    0  0.00000000000E+00  0.00000000000E+00  0.14200580332E+04  0.21380474065E+04  0.15983372282E+04 0.  0.
        1    1    3    3  502    0  0.47597490548E+03  0.77893172067E+02  0.15624207252E+04  0.16351690982E+04  0.50400001928E-02 0.  1.
       -1    1    3    3    0  502 -0.47597490548E+03 -0.77893172067E+02 -0.14236269206E+03  0.50287830836E+03  0.50400001928E-02 0. -1.
</event>
<event>
 5   0  0.8620155E-05  0.1596357E+04  0.7818609E-02  0.8822789E-01
       -2   -1    0    0    0  501  0.00000000000E+00  0.00000000000E+00  0.62571569942E+03  0.62571569943E+03  0.25500000920E-02 0. -1.
        2   -1    0    0  501    0  0.00000000000E+00  0.00000000000E+00 -0.10181768644E+04  0.10181768644E+04  0.25500000920E-02 0.  1.
    10030    2    1    2    0    0  0.00000000000E+00  0.00000000000E+00 -0.39246116502E+03  0.16438925639E+04  0.15963574147E+04 0.  0.
        4    1    3    3  502    0 -0.75432077651E+03  0.21529590929E+03 -0.34805018512E+03  0.85819153264E+03  0.12699999809E+01 0.  1.
       -4    1    3    3    0  502  0.75432077651E+03 -0.21529590929E+03 -0.44410979902E+02  0.78570103123E+03  0.12699999809E+01 0. -1.
</event>
<event>
 5   0  0.8620155E-05  0.1600888E+04  0.7818609E-02  0.8820003E-01
        2   -1    0    0  501    0  0.00000000000E+00  0.00000000000E+00  0.79406907948E+03  0.79406907948E+03  0.25500000920E-02 0.  1.
       -2   -1    0    0    0  501  0.00000000000E+00  0.00000000000E+00 -0.80687005628E+03  0.80687005629E+03  0.25500000920E-02 0. -1.
    10030    2    1    2    0    0  0.00000000000E+00  0.00000000000E+00 -0.12800976808E+02  0.16009391358E+04  0.16008879572E+04 0.  0.
        4    1    3    3  502    0  0.61025951536E+03 -0.36982243605E+03  0.35627298612E+03  0.79756966080E+03  0.12699999809E+01 0.  1.
       -4    1    3    3    0  502 -0.61025951536E+03  0.36982243605E+03 -0.36907396293E+03  0.80336947497E+03  0.12699999809E+01 0. -1.
</event>
<event>
 5   0  0.3042125E-05  0.1580424E+04  0.7818609E-02  0.8832665E-01
       -3   -1    0    0    0  501  0.00000000000E+00  0.00000000000E+00  0.31203394943E+03  0.31203396578E+03  0.10100000352E+00 0. -1.
        3   -1    0    0  501    0  0.00000000000E+00  0.00000000000E+00 -0.20011769292E+04  0.20011769318E+04  0.10100000352E+00 0.  1.
    10030    2    1    2    0    0  0.00000000000E+00  0.00000000000E+00 -0.16891429798E+04  0.23132108976E+04  0.15804241995E+04 0.  0.
        2    1    3    3  502    0  0.27858486310E+03 -0.37537584758E+03  0.87954704370E+02  0.47566015486E+03  0.25500000920E-02 0. -1.
       -2    1    3    3    0  502 -0.27858486310E+03  0.37537584758E+03 -0.17770976842E+04  0.18375507427E+04  0.25500000920E-02 0.  1.
</event>
<event>
 5   0  0.7901257E-05  0.1599071E+04  0.7818609E-02  0.8821119E-01
       -2   -1    0    0    0  501  0.00000000000E+00  0.00000000000E+00  0.64874715714E+03  0.64874715715E+03  0.25500000920E-02 0. -1.
        2   -1    0    0  501    0  0.00000000000E+00  0.00000000000E+00 -0.98537192760E+03  0.98537192760E+03  0.25500000920E-02 0.  1.
    10030    2    1    2    0    0  0.00000000000E+00  0.00000000000E+00 -0.33662477045E+03  0.16341190847E+04  0.15990712764E+04 0.  0.
        2    1    3    3  502    0  0.48783475646E+03  0.38353835575E+03 -0.68351781428E+03  0.92319067499E+03  0.25500000920E-02 0.  1.
       -2    1    3    3    0  502 -0.48783475646E+03 -0.38353835575E+03  0.34689304383E+03  0.71092840976E+03  0.25500000920E-02 0. -1.
</event>
<event>
 5   0  0.4211419E-05  0.1600743E+04  0.7818609E-02  0.8820092E-01
        1   -1    0    0  501    0  0.00000000000E+00  0.00000000000E+00  0.13766207610E+04  0.13766207610E+04  0.50400001928E-02 0.  1.
       -1   -1    0    0    0  501  0.00000000000E+00  0.00000000000E+00 -0.46533837571E+03  0.46533837574E+03  0.50400001928E-02 0. -1.
    10030    2    1    2    0    0  0.00000000000E+00  0.00000000000E+00  0.91128238530E+03  0.18419591368E+04  0.16007429137E+04 0.  0.
        2    1    3    3  502    0  0.68509084435E+03  0.38421309929E+03  0.27877409337E+03  0.83347715375E+03  0.25500000920E-02 0. -1.
       -2    1    3    3    0  502 -0.68509084435E+03 -0.38421309929E+03  0.63250829193E+03  0.10084819830E+04  0.25500000920E-02 0.  1.
</event>
<event>
 5   0  0.4256406E-05  0.1602333E+04  0.7818609E-02  0.8819116E-01
        1   -1    0    0  501    0  0.00000000000E+00  0.00000000000E+00  0.23601409182E+04  0.23601409182E+04  0.50400001928E-02 0.  1.
       -1   -1    0    0    0  501  0.00000000000E+00  0.00000000000E+00 -0.27196163528E+03  0.27196163533E+03  0.50400001928E-02 0. -1.
    10030    2    1    2    0    0  0.00000000000E+00  0.00000000000E+00  0.20881792829E+04  0.26321025535E+04  0.16023330287E+04 0.  0.
        3    1    3    3  502    0 -0.44654298715E+03  0.57898514525E+03  0.50614798175E+03  0.88927511346E+03  0.10100000352E+00 0. -1.
       -3    1    3    3    0  502  0.44654298715E+03 -0.57898514525E+03  0.15820313012E+04  0.17428274401E+04  0.10100000352E+00 0.  1.
</event>
<event>
 5   0  0.8037548E-05  0.1599013E+04  0.7818609E-02  0.8821155E-01
        2   -1    0    0  501    0  0.00000000000E+00  0.00000000000E+00  0.14009345549E+04  0.14009345549E+04  0.25500000920E-02 0.  1.
       -2   -1    0    0    0  501  0.00000000000E+00  0.00000000000E+00 -0.45627437624E+03  0.45627437624E+03  0.25500000920E-02 0. -1.
    10030    2    1    2    0    0  0.00000000000E+00  0.00000000000E+00  0.94466017863E+03  0.18572089311E+04  0.15990128707E+04 0.  0.
        5    1    3    3  502    0 -0.31769584700E+03  0.56412980244E+03 -0.72467666138E+02  0.65149576962E+03  0.46999998093E+01 0. -1.
       -5    1    3    3    0  502  0.31769584700E+03 -0.56412980244E+03  0.10171278448E+04  0.12057131615E+04  0.46999998093E+01 0.  1.
</event>
<event>
 5   0  0.8694033E-05  0.1608858E+04  0.7818609E-02  0.8815124E-01
        2   -1    0    0  501    0  0.00000000000E+00  0.00000000000E+00  0.54191665323E+03  0.54191665323E+03  0.25500000920E-02 0. -1.
       -2   -1    0    0    0  501  0.00000000000E+00  0.00000000000E+00 -0.11941067799E+04  0.11941067799E+04  0.25500000920E-02 0.  1.
    10030    2    1    2    0    0  0.00000000000E+00  0.00000000000E+00 -0.65219012663E+03  0.17360234331E+04  0.16088584148E+04 0.  0.
        1    1    3    3  502    0 -0.41446354763E+03 -0.67140780306E+03 -0.49512213610E+03  0.93151188936E+03  0.50400001928E-02 0.  1.
       -1    1    3    3    0  502  0.41446354763E+03  0.67140780306E+03 -0.15706799053E+03  0.80451154373E+03  0.50400001928E-02 0. -1.
</event>
<event>
 5   0  0.4373026E-05  0.1592625E+04  0.7818609E-02  0.8825092E-01
        1   -1    0    0  501    0  0.00000000000E+00  0.00000000000E+00  0.12641667287E+04  0.12641667287E+04  0.50400001928E-02 0. -1.
       -1   -1    0    0    0  501  0.00000000000E+00  0.00000000000E+00 -0.50160598451E+03  0.50160598454E+03  0.50400001928E-02 0.  1.
    10030    2    1    2    0    0  0.00000000000E+00  0.00000000000E+00  0.76256074421E+03  0.17657727133E+04  0.15926249986E+04 0.  0.
        4    1    3    3  502    0  0.52111682544E+03 -0.35423618698E+03  0.92110895253E+03  0.11160149359E+04  0.12699999809E+01 0. -1.
       -4    1    3    3    0  502 -0.52111682544E+03  0.35423618698E+03 -0.15854820832E+03  0.64975777732E+03  0.12699999809E+01 0.  1.
</event>
<event>
 5   0  0.4373026E-05  0.1603618E+04  0.7818609E-02  0.8818329E-01
        1   -1    0    0  501    0  0.00000000000E+00  0.00000000000E+00  0.75538588218E+03  0.75538588220E+03  0.50400001928E-02 0.  1.
       -1   -1    0    0    0  501  0.00000000000E+00  0.00000000000E+00 -0.85108493309E+03  0.85108493310E+03  0.50400001928E-02 0. -1.
    10030    2    1    2    0    0  0.00000000000E+00  0.00000000000E+00 -0.95699050907E+02  0.16064708153E+04  0.16036178385E+04 0.  0.
        4    1    3    3  502    0 -0.61552909526E+03  0.43455506385E+03  0.22683121165E+03  0.78687240523E+03  0.12699999809E+01 0.  1.
       -4    1    3    3    0  502  0.61552909526E+03 -0.43455506385E+03 -0.32253026256E+03  0.81959841007E+03  0.12699999809E+01 0. -1.
</event>
<event>
 5   0  0.4314657E-05  0.1597573E+04  0.7818609E-02  0.8822040E-01
        1   -1    0    0  501    0  0.00000000000E+00  0.00000000000E+00  0.86247612814E+03  0.86247612815E+03  0.50400001928E-02 0. -1.
       -1   -1    0    0    0  501  0.00000000000E+00  0.00000000000E+00 -0.73980015136E+03  0.73980015138E+03  0.50400001928E-02 0.  1.
    10030    2    1    2    0    0  0.00000000000E+00  0.00000000000E+00  0.12267597678E+03  0.16022762795E+04  0.15975731222E+04 0.  0.
        5    1    3    3  502    0 -0.21333271705E+03  0.28024427701E+03 -0.65770369539E+03  0.74608574835E+03  0.46999998093E+01 0.  1.
       -5    1    3    3    0  502  0.21333271705E+03 -0.28024427701E+03  0.78037967217E+03  0.85619053119E+03  0.46999998093E+01 0. -1.
</event>
<event>
 5   0  0.8620155E-05  0.1599691E+04  0.7818609E-02  0.8820738E-01
       -2   -1    0    0    0  501  0.00000000000E+00  0.00000000000E+00  0.36626407080E+03  0.36626407081E+03  0.25500000920E-02 0. -1.
        2   -1    0    0  501    0  0.00000000000E+00  0.00000000000E+00 -0.17466978855E+04  0.17466978855E+04  0.25500000920E-02 0.  1.
    10030    2    1    2    0    0  0.00000000000E+00  0.00000000000E+00 -0.13804338147E+04  0.21129619563E+04  0.15996908177E+04 0.  0.
        4    1    3    3  502    0 -0.64020100350E+03 -0.18063282465E+02 -0.57352329377E+02  0.64301983611E+03  0.12699999809E+01 0. -1.
       -4    1    3    3    0  502  0.64020100350E+03  0.18063282465E+02 -0.13230814853E+04  0.14699421202E+04  0.12699999809E+01 0.  1.
</event>
<event>
 5   0  0.4314657E-05  0.1598711E+04  0.7818609E-02  0.8821341E-01
       -1   -1    0    0    0  501  0.00000000000E+00  0.00000000000E+00  0.79032522640E+03  0.79032522642E+03  0.50400001928E-02 0.  1.
        1   -1    0    0  501    0  0.00000000000E+00  0.00000000000E+00 -0.80848849454E+03  0.80848849456E+03  0.50400001928E-02 0. -1.
    10030    2    1    2    0    0  0.00000000000E+00  0.00000000000E+00 -0.18163268141E+02  0.15988137210E+04  0.15987105461E+04 0.  0.
        5    1    3    3  502    0  0.40244634641E+03  0.68951724548E+03  0.30286741488E+02  0.79895961742E+03  0.46999998093E+01 0.  1.
       -5    1    3    3    0  502 -0.40244634641E+03 -0.68951724548E+03 -0.48450009629E+02  0.79985410356E+03  0.46999998093E+01 0. -1.
</event>
<event>
 5   0  0.7849690E-05  0.1602519E+04  0.7818609E-02  0.8819002E-01
       -2   -1    0    0    0  501  0.00000000000E+00  0.00000000000E+00  0.37715224957E+03  0.37715224958E+03  0.25500000920E-02 0.  1.
        2   -1    0    0  501    0  0.00000000000E+00  0.00000000000E+00 -0.17022758493E+04  0.17022758493E+04  0.25500000920E-02 0. -1.
    10030    2    1    2    0    0  0.00000000000E+00  0.00000000000E+00 -0.13251235998E+04  0.20794280989E+04  0.16025194738E+04 0.  0.
        3    1    3    3  502    0  0.50229852279E+03 -0.52110079278E+03 -0.21650591488E+03  0.75546321129E+03  0.10100000352E+00 0.  1.
       -3    1    3    3    0  502 -0.50229852279E+03  0.52110079278E+03 -0.11086176849E+04  0.13239648876E+04  0.10100000352E+00 0. -1.
</event>
<event>
 5   0  0.7849690E-05  0.1602275E+04  0.7818609E-02  0.8819152E-01
       -2   -1    0    0    0  501  0.00000000000E+00  0.00000000000E+00  0.33304828808E+03  0.33304828809E+03  0.25500000920E-02 0. -1.
        2   -1    0    0  501    0  0.00000000000E+00  0.00000000000E+00 -0.19271116639E+04  0.19271116639E+04  0.25500000920E-02 0.  1.
    10030    2    1    2    0    0  0.00000000000E+00  0.00000000000E+00 -0.15940633759E+04  0.22601599520E+04  0.16022749335E+04 0.  0.
        3    1    3    3  502    0  0.72850685467E+03  0.32779533287E+03 -0.71181949626E+03  0.10699808517E+04  0.10100000352E+00 0.  1.
       -3    1    3    3    0  502 -0.72850685467E+03 -0.32779533287E+03 -0.88224387961E+03  0.11901791003E+04  0.10100000352E+00 0. -1.
</event>
<event>
 5   0  0.3042125E-05  0.1604790E+04  0.7818609E-02  0.8817611E-01
       -3   -1    0    0    0  501  0.00000000000E+00  0.00000000000E+00  0.14122387440E+04  0.14122387476E+04  0.10100000352E+00 0.  1.
        3   -1    0    0  501    0  0.00000000000E+00  0.00000000000E+00 -0.45589851878E+03  0.45589852997E+03  0.10100000352E+00 0. -1.
    10030    2    1    2    0    0  0.00000000000E+00  0.00000000000E+00  0.95634022520E+03  0.18681372776E+04  0.16047897873E+04 0.  0.
        4    1    3    3  502    0  0.58049941167E+02 -0.16461218767E+03  0.13898692431E+04  0.14007873121E+04  0.12699999809E+01 0.  1.
       -4    1    3    3    0  502 -0.58049941167E+02  0.16461218767E+03 -0.43352901786E+03  0.46734996547E+03  0.12699999809E+01 0. -1.
</event>
<event>
 5   0  0.4314657E-05  0.1588792E+04  0.7818609E-02  0.8827463E-01
       -1   -1    0    0    0  501  0.00000000000E+00  0.00000000000E+00  0.24320395288E+03  0.24320395293E+03  0.50400001928E-02 0.  1.
        1   -1    0    0  501    0  0.00000000000E+00  0.00000000000E+00 -0.25947961489E+04  0.25947961489E+04  0.50400001928E-02 0. -1.
    10030    2    1    2    0    0  0.00000000000E+00  0.00000000000E+00 -0.23515921960E+04  0.28380001018E+04  0.15887915916E+04 0.  0.
        5    1    3    3  502    0 -0.64518891018E+03  0.26933610768E+03 -0.50213105372E+03  0.86079518692E+03  0.46999998093E+01 0. -1.
       -5    1    3    3    0  502  0.64518891018E+03 -0.26933610768E+03 -0.18494611423E+04  0.19772049149E+04  0.46999998093E+01 0.  1.
</event>
<event>
 5   0  0.7849690E-05  0.1600496E+04  0.7818609E-02  0.8820243E-01
        2   -1    0    0  501    0  0.00000000000E+00  0.00000000000E+00  0.70101714418E+03  0.70101714418E+03  0.25500000920E-02 0. -1.
       -2   -1    0    0    0  501  0.00000000000E+00  0.00000000000E+00 -0.91352549261E+03  0.91352549262E+03  0.25500000920E-02 0.  1.
    10030    2    1    2    0    0  0.00000000000E+00  0.00000000000E+00 -0.21250834843E+03  0.16145426368E+04  0.16004962130E+04 0.  0.
        3    1    3    3  502    0 -0.76674797906E+03  0.15608732779E+03  0.62941713429E+02  0.78500152024E+03  0.10100000352E+00 0. -1.
       -3    1    3    3    0  502  0.76674797906E+03 -0.15608732779E+03 -0.27545006186E+03  0.82954111656E+03  0.10100000352E+00 0.  1.
</event>
<event>
 5   0  0.3042125E-05  0.1607405E+04  0.7818609E-02  0.8816011E-01
       -3   -1    0    0    0  501  0.00000000000E+00  0.00000000000E+00  0.71669052801E+03  0.71669053513E+03  0.10100000352E+00 0.  1.
        3   -1    0    0  501    0  0.00000000000E+00  0.00000000000E+00 -0.90127880860E+03  0.90127881426E+03  0.10100000352E+00 0. -1.
    10030    2    1    2    0    0  0.00000000000E+00  0.00000000000E+00 -0.18458828060E+03  0.16179693494E+04  0.16074053572E+04 0.  0.
        3    1    3    3  502    0  0.48048627122E+03 -0.64207738605E+03 -0.38959506987E+02  0.80289991897E+03  0.10100000352E+00 0. -1.
       -3    1    3    3    0  502 -0.48048627122E+03  0.64207738605E+03 -0.14562877361E+03  0.81506943042E+03  0.10100000352E+00 0.  1.
</event>
<event>
 5   0  0.7901257E-05  0.1600650E+04  0.7818609E-02  0.8820149E-01
        2   -1    0    0  501    0  0.00000000000E+00  0.00000000000E+00  0.82689679627E+03  0.82689679627E+03  0.25500000920E-02 0.  1.
       -2   -1    0    0    0  501  0.00000000000E+00  0.00000000000E+00 -0.77460704188E+03  0.77460704189E+03  0.25500000920E-02 0. -1.
    10030    2    1    2    0    0  0.00000000000E+00  0.00000000000E+00  0.52289754384E+02  0.16015038382E+04  0.16006499696E+04 0.  0.
        2    1    3    3  502    0 -0.33110704095E+03  0.80905825406E+02  0.75064610391E+03  0.82440718002E+03  0.25500000920E-02 0.  1.
       -2    1    3    3    0  502  0.33110704095E+03 -0.80905825406E+02 -0.69835634953E+03  0.77709665813E+03  0.25500000920E-02 0. -1.
</event>
<event>
 5   0  0.8694033E-05  0.1597635E+04  0.7818609E-02  0.8822002E-01
       -2   -1    0    0    0  501  0.00000000000E+00  0.00000000000E+00  0.34512073616E+03  0.34512073617E+03  0.25500000920E-02 0. -1.
        2   -1    0    0  501    0  0.00000000000E+00  0.00000000000E+00 -0.18489463846E+04  0.18489463846E+04  0.25500000920E-02 0.  1.
    10030    2    1    2    0    0  0.00000000000E+00  0.00000000000E+00 -0.15038256485E+04  0.21940671208E+04  0.15976354245E+04 0.  0.
        1    1    3    3  502    0  0.68886753818E+03  0.20913785615E+03 -0.12273134355E+04  0.14228757490E+04  0.50400001928E-02 0.  1.
       -1    1    3    3    0  502 -0.68886753818E+03 -0.20913785615E+03 -0.27651221296E+03  0.77119137183E+03  0.50400001928E-02 0. -1.
</event>
<event>
 5   0  0.4504463E-05  0.1601250E+04  0.7818609E-02  0.8819780E-01
       -1   -1    0    0    0  501  0.00000000000E+00  0.00000000000E+00  0.23124893049E+03  0.23124893054E+03  0.50400001928E-02 0. -1.
        1   -1    0    0  501    0  0.00000000000E+00  0.00000000000E+00 -0.27719069811E+04  0.27719069811E+04  0.50400001928E-02 0.  1.
    10030    2    1    2    0    0  0.00000000000E+00  0.00000000000E+00 -0.25406580507E+04  0.30031559117E+04  0.16012501677E+04 0.  0.
        1    1    3    3  502    0 -0.23578451852E+03 -0.70585375371E+03 -0.71657255413E+03  0.10331021664E+04  0.50400001928E-02 0. -1.
       -1    1    3    3    0  502  0.23578451852E+03  0.70585375371E+03 -0.18240854965E+04  0.19700537453E+04  0.50400001928E-02 0.  1.
</event>
<event>
 5   0  0.8620155E-05  0.1603193E+04  0.7818609E-02  0.8818589E-01
       -2   -1    0    0    0  501  0.00000000000E+00  0.00000000000E+00  0.58907565546E+03  0.58907565546E+03  0.25500000920E-02 0. -1.
        2   -1    0    0  501    0  0.00000000000E+00  0.00000000000E+00 -0.10907884926E+04  0.10907884926E+04  0.25500000920E-02 0.  1.
    10030    2    1    2    0    0  0.00000000000E+00  0.00000000000E+00 -0.50171283718E+03  0.16798641481E+04  0.16031929968E+04 0.  0.
        4    1    3    3  502    0 -0.79616776816E+02  0.59742109463E+02  0.58257374059E+03  0.59101753520E+03  0.12699999809E+01 0. -1.
       -4    1    3    3    0  502  0.79616776816E+02 -0.59742109463E+02 -0.10842865778E+04  0.10888466129E+04  0.12699999809E+01 0.  1.
</event>
<event>
 5   0  0.8620155E-05  0.1603090E+04  0.7818609E-02  0.8818652E-01
       -2   -1    0    0    0  501  0.00000000000E+00  0.00000000000E+00  0.10724646004E+04  0.10724646004E+04  0.25500000920E-02 0.  1.
        2   -1    0    0  501    0  0.00000000000E+00  0.00000000000E+00 -0.59906314003E+03  0.59906314004E+03  0.25500000920E-02 0. -1.
    10030    2    1    2    0    0  0.00000000000E+00  0.00000000000E+00  0.47340146036E+03  0.16715277404E+04  0.16030895310E+04 0.  0.
        4    1    3    3  502    0 -0.12698784036E+03  0.59697231760E+03 -0.30506807761E+03  0.68232690439E+03  0.12699999809E+01 0. -1.
       -4    1    3    3    0  502  0.12698784036E+03 -0.59697231760E+03  0.77846953797E+03  0.98920083604E+03  0.12699999809E+01 0.  1.
</event>
<event>
 5   0  0.8037548E-05  0.1601115E+04  0.7818609E-02  0.8819863E-01
        2   -1    0    0  501    0  0.00000000000E+00  0.00000000000E+00  0.13860290431E+04  0.13860290431E+04  0.25500000920E-02 0.  1.
       -2   -1    0    0    0  501  0.00000000000E+00  0.00000000000E+00 -0.46239445460E+03  0.46239445460E+03  0.25500000920E-02 0. -1.
    10030    2    1    2    0    0  0.00000000000E+00  0.00000000000E+00  0.92363458854E+03  0.18484234977E+04  0.16011147910E+04 0.  0.
        5    1    3    3  502    0  0.35453928945E+03 -0.71326188319E+03  0.36924835134E+03  0.87795618156E+03  0.46999998093E+01 0. -1.
       -5    1    3    3    0  502 -0.35453928945E+03  0.71326188319E+03  0.55438623720E+03  0.97046731618E+03  0.46999998093E+01 0.  1.
</event>
<event>
 5   0  0.4373026E-05  0.1600842E+04  0.7818609E-02  0.8820031E-01
       -1   -1    0    0    0  501  0.00000000000E+00  0.00000000000E+00  0.84404277152E+03  0.84404277154E+03  0.50400001928E-02 0. -1.
        1   -1    0    0  501    0  0.00000000000E+00  0.00000000000E+00 -0.75905322057E+03  0.75905322059E+03  0.50400001928E-02 0.  1.
    10030    2    1    2    0    0  0.00000000000E+00  0.00000000000E+00  0.84989550950E+02  0.16030959921E+04  0.16008415088E+04 0.  0.
        4    1    3    3  502    0 -0.76451575015E+03  0.17483097477E+03 -0.11779803879E+03  0.79304993084E+03  0.12699999809E+01 0. -1.
       -4    1    3    3    0  502  0.76451575015E+03 -0.17483097477E+03  0.20278758974E+03  0.81004606129E+03  0.12699999809E+01 0.  1.
</event>
<event>
 5   0  0.4211419E-05  0.1597925E+04  0.7818609E-02  0.8821824E-01
        1   -1    0    0  501    0  0.00000000000E+00  0.00000000000E+00  0.94021041932E+03  0.94021041933E+03  0.50400001928E-02 0. -1.
       -1   -1    0    0    0  501  0.00000000000E+00  0.00000000000E+00 -0.67893451027E+03  0.67893451029E+03  0.50400001928E-02 0.  1.
    10030    2    1    2    0    0  0.00000000000E+00  0.00000000000E+00  0.26127590905E+03  0.16191449296E+04  0.15979252806E+04 0.  0.
        2    1    3    3  502    0  0.67174420594E+03  0.58033231038E+01 -0.30761842465E+03  0.73885252382E+03  0.25500000920E-02 0.  1.
       -2    1    3    3    0  502 -0.67174420594E+03 -0.58033231038E+01  0.56889433370E+03  0.88029240579E+03  0.25500000920E-02 0. -1.
</event>
<event>
 5   0  0.7849690E-05  0.1598688E+04  0.7818609E-02  0.8821354E-01
        2   -1    0    0  501    0  0.00000000000E+00  0.00000000000E+00  0.26330349192E+04  0.26330349192E+04  0.25500000920E-02 0.  1.
       -2   -1    0    0    0  501  0.00000000000E+00  0.00000000000E+00 -0.24266718254E+03  0.24266718255E+03  0.25500000920E-02 0. -1.
    10030    2    1    2    0    0  0.00000000000E+00  0.00000000000E+00  0.23903677366E+04  0.28757021017E+04  0.15986884191E+04 0.  0.
        3    1    3    3  502    0  0.12748329720E+03 -0.57085478583E+03  0.21751917221E+04  0.22524622562E+04  0.10100000352E+00 0. -1.
       -3    1    3    3    0  502 -0.12748329720E+03  0.57085478583E+03  0.21517601449E+03  0.62323984547E+03  0.10100000352E+00 0.  1.
</event>
<event>
 5   0  0.8620155E-05  0.1598729E+04  0.7818609E-02  0.8821329E-01
       -2   -1    0    0    0  501  0.00000000000E+00  0.00000000000E+00  0.16860976146E+04  0.16860976146E+04  0.25500000920E-02 0.  1.
        2   -1    0    0  501    0  0.00000000000E+00  0.00000000000E+00 -0.37897195632E+03  0.37897195633E+03  0.25500000920E-02 0. -1.
    10030    2    1    2    0    0  0.00000000000E+00  0.00000000000E+00  0.13071256583E+04  0.20650695709E+04  0.15987291347E+04 0.  0.
        4    1    3    3  502    0 -0.30629904410E+03  0.20201879357E+03  0.15708945549E+04  0.16131776136E+04  0.12699999809E+01 0.  1.
       -4    1    3    3    0  502  0.30629904410E+03 -0.20201879357E+03 -0.26376889665E+03  0.45189195734E+03  0.12699999809E+01 0. -1.
</event>
<event>
 5   0  0.8620155E-05  0.1599946E+04  0.7818609E-02  0.8820581E-01
       -2   -1    0    0    0  501  0.00000000000E+00  0.00000000000E+00  0.13518254923E+04  0.13518254923E+04  0.25500000920E-02 0.  1.
        2   -1    0    0  501    0  0.00000000000E+00  0.00000000000E+00 -0.47340189029E+03  0.47340189030E+03  0.25500000920E-02 0. -1.
    10030    2    1    2    0    0  0.00000000000E+00  0.00000000000E+00  0.87842360200E+03  0.18252273826E+04  0.15999459283E+04 0.  0.
        4    1    3    3  502    0  0.58067258903E+03 -0.18000359988E+03  0.10324013265E+04  0.11980968506E+04  0.12699999809E+01 0.  1.
       -4    1    3    3    0  502 -0.58067258903E+03  0.18000359988E+03 -0.15397772448E+03  0.62713053199E+03  0.12699999809E+01 0. -1.
</event>
<event>
 5   0  0.4256406E-05  0.1599216E+04  0.7818609E-02  0.8821030E-01
        1   -1    0    0  501    0  0.00000000000E+00  0.00000000000E+00  0.14483961642E+04  0.14483961642E+04  0.50400001928E-02 0. -1.
       -1   -1    0    0    0  501  0.00000000000E+00  0.00000000000E+00 -0.44143512673E+03  0.44143512676E+03  0.50400001928E-02 0.  1.
    10030    2    1    2    0    0  0.00000000000E+00  0.00000000000E+00  0.10069610375E+04  0.18898312910E+04  0.15992159883E+04 0.  0.
        3    1    3    3  502    0  0.45724066202E+03 -0.58332952533E+03  0.85805781730E+03  0.11338454860E+04  0.10100000352E+00 0. -1.
       -3    1    3    3    0  502 -0.45724066202E+03  0.58332952533E+03  0.14890322019E+03  0.75598580497E+03  0.10100000352E+00 0.  1.
</event>
<event>
 5   0  0.4504463E-05  0.1601086E+04  0.7818609E-02  0.8819881E-01
        1   -1    0    0  501    0  0.00000000000E+00  0.00000000000E+00  0.83187053973E+03  0.83187053974E+03  0.50400001928E-02 0.  1.
       -1   -1    0    0    0  501  0.00000000000E+00  0.00000000000E+00 -0.77039568275E+03  0.77039568277E+03  0.50400001928E-02 0. -1.
    10030    2    1    2    0    0  0.00000000000E+00  0.00000000000E+00  0.61474856978E+02  0.16022662225E+04  0.16010864717E+04 0.  0.
        1    1    3    3  502    0  0.60804106112E+03  0.11494294858E+03 -0.47751834124E+03  0.78163263729E+03  0.50400001928E-02 0. -1.
       -1    1    3    3    0  502 -0.60804106112E+03 -0.11494294858E+03  0.53899319822E+03  0.82063358522E+03  0.50400001928E-02 0.  1.
</event>
<event>
 5   0  0.4211419E-05  0.1602406E+04  0.7818609E-02  0.8819071E-01
       -1   -1    0    0    0  501  0.00000000000E+00  0.00000000000E+00  0.20164870569E+03  0.20164870575E+03  0.50400001928E-02 0.  1.
        1   -1    0    0  501    0  0.00000000000E+00  0.00000000000E+00 -0.31833878524E+04  0.31833878524E+04  0.50400001928E-02 0. -1.
    10030    2    1    2    0    0  0.00000000000E+00  0.00000000000E+00 -0.29817391467E+04  0.33850365582E+04  0.16024057417E+04 0.  0.
        2    1    3    3  502    0  0.59284864824E+03 -0.12900690869E+03 -0.38547204787E+03  0.71881917191E+03  0.25500000920E-02 0.  1.
       -2    1    3    3    0  502 -0.59284864824E+03  0.12900690869E+03 -0.25962670989E+04  0.26662173863E+04  0.25500000920E-02 0. -1.
</event>
<event>
 5   0  0.8694033E-05  0.1598889E+04  0.7818609E-02  0.8821231E-01
        2   -1    0    0  501    0  0.00000000000E+00  0.00000000000E+00  0.44428316241E+03  0.44428316242E+03  0.25500000920E-02 0. -1.
       -2   -1    0    0    0  501  0.00000000000E+00  0.00000000000E+00 -0.14385237983E+04  0.14385237983E+04  0.25500000920E-02 0.  1.
    10030    2    1    2    0    0  0.00000000000E+00  0.00000000000E+00 -0.99424063590E+03  0.18828069607E+04  0.15988894925E+04 0.  0.
        1    1    3    3  502    0  0.27095489835E+03 -0.11293401959E+02 -0.13827041644E+04  0.14090475166E+04  0.50400001928E-02 0.  1.
       -1    1    3    3    0  502 -0.27095489835E+03  0.11293401959E+02  0.38846352850E+03  0.47375944409E+03  0.50400001928E-02 0. -1.
</event>
<event>
 5   0  0.8620155E-05  0.1601158E+04  0.7818609E-02  0.8819837E-01
       -2   -1    0    0    0  501  0.00000000000E+00  0.00000000000E+00  0.46798954406E+03  0.46798954407E+03  0.25500000920E-02 0.  1.
        2   -1    0    0  501    0  0.00000000000E+00  0.00000000000E+00 -0.13695321067E+04  0.13695321067E+04  0.25500000920E-02 0. -1.
    10030    2    1    2    0    0  0.00000000000E+00  0.00000000000E+00 -0.90154256260E+03  0.18375216507E+04  0.16011579637E+04 0.  0.
        4    1    3    3  502    0 -0.47313542526E+03 -0.44343013840E+03  0.88045602732E+02  0.65440129839E+03  0.12699999809E+01 0.  1.
       -4    1    3    3    0  502  0.47313542526E+03  0.44343013840E+03 -0.98958816533E+03  0.11831203523E+04  0.12699999809E+01 0. -1.
</event>
<event>
 5   0  0.4314657E-05  0.1596944E+04  0.7818609E-02  0.8822428E-01
       -1   -1    0    0    0  501  0.00000000000E+00  0.00000000000E+00  0.50189842265E+03  0.50189842268E+03  0.50400001928E-02 0.  1.
        1   -1    0    0  501    0  0.00000000000E+00  0.00000000000E+00 -0.12702915524E+04  0.12702915524E+04  0.50400001928E-02 0. -1.
    10030    2    1    2    0    0  0.00000000000E+00  0.00000000000E+00 -0.76839312975E+03  0.17721899751E+04  0.15969437391E+04 0.  0.
        5    1    3    3  502    0 -0.42590948785E+02  0.76083547308E+03 -0.11959750172E+03  0.77136908055E+03  0.46999998093E+01 0.  1.
       -5    1    3    3    0  502  0.42590948785E+02 -0.76083547308E+03 -0.64879562803E+03  0.10008208945E+04  0.46999998093E+01 0. -1.
</event>
<event>
 5   0  0.8694033E-05  0.1595365E+04  0.7818609E-02  0.8823401E-01
       -2   -1    0    0    0  501  0.00000000000E+00  0.00000000000E+00  0.29313137402E+03  0.29313137403E+03  0.25500000920E-02 0.  1.
        2   -1    0    0  501    0  0.00000000000E+00  0.00000000000E+00 -0.21706892899E+04  0.21706892899E+04  0.25500000920E-02 0. -1.
    10030    2    1    2    0    0  0.00000000000E+00  0.00000000000E+00 -0.18775579159E+04  0.24638206640E+04  0.15953647033E+04 0.  0.
        1    1    3    3  502    0 -0.64474327047E+03 -0.17263017689E+03 -0.26418778120E+03  0.71783720059E+03  0.50400001928E-02 0.  1.
       -1    1    3    3    0  502  0.64474327047E+03  0.17263017689E+03 -0.16133701347E+04  0.17459834634E+04  0.50400001928E-02 0. -1.
</event>
<event>
 5   0  0.4256406E-05  0.1600751E+04  0.7818609E-02  0.8820087E-01
        1   -1    0    0  501    0  0.00000000000E+00  0.00000000000E+00  0.11708510132E+04  0.11708510132E+04  0.50400001928E-02 0.  1.
       -1   -1    0    0    0  501  0.00000000000E+00  0.00000000000E+00 -0.54712450819E+03  0.54712450822E+03  0.50400001928E-02 0. -1.
    10030    2    1    2    0    0  0.00000000000E+00  0.00000000000E+00  0.62372650498E+03  0.17179755214E+04  0.16007514295E+04 0.  0.
        3    1    3    3  502    0  0.45395189665E+03  0.34157892912E+03  0.91693389780E+03  0.10786641147E+04  0.10100000352E+00 0.  1.
       -3    1    3    3    0  502 -0.45395189665E+03 -0.34157892912E+03 -0.29320739282E+03  0.63931140667E+03  0.10100000352E+00 0. -1.
</event>
<event>
 5   0  0.4314657E-05  0.1602819E+04  0.7818609E-02  0.8818818E-01
       -1   -1    0    0    0  501  0.00000000000E+00  0.00000000000E+00  0.10159017845E+04  0.10159017846E+04  0.50400001928E-02 0.  1.
        1   -1    0    0  501    0  0.00000000000E+00  0.00000000000E+00 -0.63220406914E+03  0.63220406916E+03  0.50400001928E-02 0. -1.
    10030    2    1    2    0    0  0.00000000000E+00  0.00000000000E+00  0.38369771540E+03  0.16481058537E+04  0.16028190691E+04 0.  0.
        5    1    3    3  502    0 -0.28405868900E+03  0.74840978276E+03  0.15298396295E+03  0.81500473903E+03  0.46999998093E+01 0.  1.
       -5    1    3    3    0  502  0.28405868900E+03 -0.74840978276E+03  0.23071375245E+03  0.83310111468E+03  0.46999998093E+01 0. -1.
</event>
<event>
 5   0  0.4314657E-05  0.1594541E+04  0.7818609E-02  0.8823909E-01
       -1   -1    0    0    0  501  0.00000000000E+00  0.00000000000E+00  0.27053655633E+03  0.27053655638E+03  0.50400001928E-02 0. -1.
        1   -1    0    0  501    0  0.00000000000E+00  0.00000000000E+00 -0.23495540572E+04  0.23495540572E+04  0.50400001928E-02 0.  1.
    10030    2    1    2    0    0  0.00000000000E+00  0.00000000000E+00 -0.20790175008E+04  0.26200906136E+04  0.15945410169E+04 0.  0.
        5    1    3    3  502    0 -0.35099742136E+03 -0.49696682086E+03 -0.18860852803E+04  0.19817958991E+04  0.46999998093E+01 0.  1.
       -5    1    3    3    0  502  0.35099742136E+03  0.49696682086E+03 -0.19293222051E+03  0.63829471450E+03  0.46999998093E+01 0. -1.
</event>
<event>
 5   0  0.3042125E-05  0.1600209E+04  0.7818609E-02  0.8820419E-01
       -4   -1    0    0    0  501  0.00000000000E+00  0.00000000000E+00  0.17286572130E+04  0.17286576795E+04  0.12699999809E+01 0. -1.
        4   -1    0    0  501    0  0.00000000000E+00  0.00000000000E+00 -0.37032490578E+03  0.37032708345E+03  0.12699999809E+01 0.  1.
    10030    2    1    2    0    0  0.00000000000E+00  0.00000000000E+00  0.13583323072E+04  0.20989847630E+04  0.16002094795E+04 0.  0.
        2    1    3    3  502    0  0.63711722899E+03  0.42327826313E+03  0.37130980703E+03  0.85026691357E+03  0.25500000920E-02 0.  1.
       -2    1    3    3    0  502 -0.63711722899E+03 -0.42327826313E+03  0.98702250020E+03  0.12487178494E+04  0.25500000920E-02 0. -1.
</event>
<event>
 5   0  0.8037548E-05  0.1594391E+04  0.7818609E-02  0.8824001E-01
       -2   -1    0    0    0  501  0.00000000000E+00  0.00000000000E+00  0.46328524015E+03  0.46328524016E+03  0.25500000920E-02 0.  1.
        2   -1    0    0  501    0  0.00000000000E+00  0.00000000000E+00 -0.13717703080E+04  0.13717703080E+04  0.25500000920E-02 0. -1.
    10030    2    1    2    0    0  0.00000000000E+00  0.00000000000E+00 -0.90848506781E+03  0.18350555481E+04  0.15943913404E+04 0.  0.
        5    1    3    3  502    0  0.34212362084E+02 -0.15604699640E+03  0.44465722867E+03  0.47250745160E+03  0.46999998093E+01 0.  1.
       -5    1    3    3    0  502 -0.34212362084E+02  0.15604699640E+03 -0.13531422965E+04  0.13625480965E+04  0.46999998093E+01 0. -1.
</event>
<event>
 5   0  0.7901257E-05  0.1600998E+04  0.7818609E-02  0.8819935E-01
        2   -1    0    0  501    0  0.00000000000E+00  0.00000000000E+00  0.80237769529E+03  0.80237769529E+03  0.25500000920E-02 0.  1.
       -2   -1    0    0    0  501  0.00000000000E+00  0.00000000000E+00 -0.79862444776E+03  0.79862444777E+03  0.25500000920E-02 0. -1.
    10030    2    1    2    0    0  0.00000000000E+00  0.00000000000E+00  0.37532475260E+01  0.16010021431E+04  0.16009977437E+04 0.  0.
        2    1    3    3  502    0 -0.53351210074E+03 -0.41730332706E+03 -0.42476399285E+03  0.79950089308E+03  0.25500000920E-02 0. -1.
       -2    1    3    3    0  502  0.53351210074E+03  0.41730332706E+03  0.42851724038E+03  0.80150124998E+03  0.25500000920E-02 0.  1.
</event>
<event>
 5   0  0.4504463E-05  0.1601173E+04  0.7818609E-02  0.8819828E-01
       -1   -1    0    0    0  501  0.00000000000E+00  0.00000000000E+00  0.80439924877E+03  0.80439924879E+03  0.50400001928E-02 0. -1.
        1   -1    0    0  501    0  0.00000000000E+00  0.00000000000E+00 -0.79679161099E+03  0.79679161101E+03  0.50400001928E-02 0.  1.
    10030    2    1    2    0    0  0.00000000000E+00  0.00000000000E+00  0.76076377751E+01  0.16011908598E+04  0.16011727868E+04 0.  0.
        1    1    3    3  502    0  0.76311361490E+03 -0.15861161712E+03 -0.17906032153E+03  0.79972659897E+03  0.50400001928E-02 0. -1.
       -1    1    3    3    0  502 -0.76311361490E+03  0.15861161712E+03  0.18666795931E+03  0.80146426083E+03  0.50400001928E-02 0.  1.
</event>
<event>
 5   0  0.8037548E-05  0.1599931E+04  0.7818609E-02  0.8820590E-01
        2   -1    0    0  501    0  0.00000000000E+00  0.00000000000E+00  0.70072321159E+03  0.70072321160E+03  0.25500000920E-02 0.  1.
       -2   -1    0    0    0  501  0.00000000000E+00  0.00000000000E+00 -0.91326365284E+03  0.91326365284E+03  0.25500000920E-02 0. -1.
    10030    2    1    2    0    0  0.00000000000E+00  0.00000000000E+00 -0.21254044125E+03  0.16139868644E+04  0.15999312983E+04 0.  0.
        5    1    3    3  502    0 -0.20280498987E+03 -0.76813512448E+03 -0.20069550527E+03  0.81942797683E+03  0.46999998093E+01 0. -1.
       -5    1    3    3    0  502  0.20280498987E+03  0.76813512448E+03 -0.11844935974E+02  0.79455888761E+03  0.46999998093E+01 0.  1.
</event>
<event>
 5   0  0.4314657E-05  0.1599047E+04  0.7818609E-02  0.8821133E-01
        1   -1    0    0  501    0  0.00000000000E+00  0.00000000000E+00  0.70236189624E+03  0.70236189626E+03  0.50400001928E-02 0. -1.
       -1   -1    0    0    0  501  0.00000000000E+00  0.00000000000E+00 -0.91012656733E+03  0.91012656735E+03  0.50400001928E-02 0.  1.
    10030    2    1    2    0    0  0.00000000000E+00  0.00000000000E+00 -0.20776467109E+03  0.16124884636E+04  0.15990474936E+04 0.  0.
        5    1    3    3  502    0 -0.61451602697E+03  0.14011004514E+03  0.39214187718E+03  0.74233288624E+03  0.46999998093E+01 0. -1.
       -5    1    3    3    0  502  0.61451602697E+03 -0.14011004514E+03 -0.59990654827E+03  0.87015557736E+03  0.46999998093E+01 0.  1.
</event>
<event>
 5   0  0.7849690E-05  0.1598397E+04  0.7818609E-02  0.8821534E-01
        2   -1    0    0  501    0  0.00000000000E+00  0.00000000000E+00  0.73720393729E+03  0.73720393729E+03  0.25500000920E-02 0. -1.
       -2   -1    0    0    0  501  0.00000000000E+00  0.00000000000E+00 -0.86640594366E+03  0.86640594366E+03  0.25500000920E-02 0.  1.
    10030    2    1    2    0    0  0.00000000000E+00  0.00000000000E+00 -0.12920200637E+03  0.16036098810E+04  0.15983965377E+04 0.  0.
        3    1    3    3  502    0 -0.32163763615E+03 -0.70723397273E+03 -0.25252773426E+03  0.81694609856E+03  0.10100000352E+00 0. -1.
       -3    1    3    3    0  502  0.32163763615E+03  0.70723397273E+03  0.12332572788E+03  0.78666378240E+03  0.10100000352E+00 0.  1.
</event>
<event>
 5   0  0.8037548E-05  0.1599587E+04  0.7818609E-02  0.8820802E-01
       -2   -1    0    0    0  501  0.00000000000E+00  0.00000000000E+00  0.16746451858E+04  0.16746451858E+04  0.25500000920E-02 0. -1.
        2   -1    0    0  501    0  0.00000000000E+00  0.00000000000E+00 -0.38197333740E+03  0.38197333741E+03  0.25500000920E-02 0.  1.
    10030    2    1    2    0    0  0.00000000000E+00  0.00000000000E+00  0.12926718484E+04  0.20566185232E+04  0.15995872100E+04 0.  0.
        5    1    3    3  502    0 -0.27289345937E+03  0.36298080997E+03 -0.20011386627E+03  0.49627971754E+03  0.46999998093E+01 0.  1.
       -5    1    3    3    0  502  0.27289345937E+03 -0.36298080997E+03  0.14927857147E+04  0.15603388057E+04  0.46999998093E+01 0. -1.
</event>
<event>
 5   0  0.4373026E-05  0.1598167E+04  0.7818609E-02  0.8821675E-01
        1   -1    0    0  501    0  0.00000000000E+00  0.00000000000E+00  0.12099809424E+04  0.12099809424E+04  0.50400001928E-02 0. -1.
       -1   -1    0    0    0  501  0.00000000000E+00  0.00000000000E+00 -0.52772253160E+03  0.52772253163E+03  0.50400001928E-02 0.  1.
    10030    2    1    2    0    0  0.00000000000E+00  0.00000000000E+00  0.68225841080E+03  0.17377034740E+04  0.15981667074E+04 0.  0.
        4    1    3    3  502    0  0.48770445504E+03  0.58801635866E+03  0.59592603597E+03  0.96889025527E+03  0.12699999809E+01 0.  1.
       -4    1    3    3    0  502 -0.48770445504E+03 -0.58801635866E+03  0.86332374838E+02  0.76881321878E+03  0.12699999809E+01 0. -1.
</event>
<event>
 5   0  0.7849690E-05  0.1599744E+04  0.7818609E-02  0.8820705E-01
        2   -1    0    0  501    0  0.00000000000E+00  0.00000000000E+00  0.19514743551E+04  0.19514743551E+04  0.25500000920E-02 0.  1.
       -2   -1    0    0    0  501  0.00000000000E+00  0.00000000000E+00 -0.32785237661E+03  0.32785237662E+03  0.25500000920E-02 0. -1.
    10030    2    1    2    0    0  0.00000000000E+00  0.00000000000E+00  0.16236219784E+04  0.22793267317E+04  0.15997443611E+04 0.  0.
        3    1    3    3  502    0  0.62002208303E+03  0.40815158761E+03  0.38727498525E+03  0.83725565171E+03  0.10100000352E+00 0. -1.
       -3    1    3    3    0  502 -0.62002208303E+03 -0.40815158761E+03  0.12363469932E+04  0.14420710800E+04  0.10100000352E+00 0.  1.
</event>
<event>
 5   0  0.7901257E-05  0.1596127E+04  0.7818609E-02  0.8822931E-01
        2   -1    0    0  501    0  0.00000000000E+00  0.00000000000E+00  0.96030587355E+03  0.96030587356E+03  0.25500000920E-02 0. -1.
       -2   -1    0    0    0  501  0.00000000000E+00  0.00000000000E+00 -0.66323157087E+03  0.66323157087E+03  0.25500000920E-02 0.  1.
    10030    2    1    2    0    0  0.00000000000E+00  0.00000000000E+00  0.29707430269E+03  0.16235374444E+04  0.15961267782E+04 0.  0.
        2    1    3    3  502    0 -0.62531047737E+03  0.47692096807E+03  0.10417272072E+02  0.78649559595E+03  0.25500000920E-02 0.  1.
       -2    1    3    3    0  502  0.62531047737E+03 -0.47692096807E+03  0.28665703061E+03  0.83704184847E+03  0.25500000920E-02 0. -1.
</event>
<event>
 5   0  0.8620155E-05  0.1595329E+04  0.7818609E-02  0.8823423E-01
        2   -1    0    0  501    0  0.00000000000E+00  0.00000000000E+00  0.14370172389E+04  0.14370172389E+04  0.25500000920E-02 0.  1.
       -2   -1    0    0    0  501  0.00000000000E+00  0.00000000000E+00 -0.44277032013E+03  0.44277032013E+03  0.25500000920E-02 0. -1.
    10030    2    1    2    0    0  0.00000000000E+00  0.00000000000E+00  0.99424691876E+03  0.18797875590E+04  0.15953289102E+04 0.  0.
        4    1    3    3  502    0 -0.13389621023E+03  0.26979415523E+03  0.13674370618E+04  0.14002152735E+04  0.12699999809E+01 0.  1.
       -4    1    3    3    0  502  0.13389621023E+03 -0.26979415523E+03 -0.37319014301E+03  0.47957228553E+03  0.12699999809E+01 0. -1.
</event>
<event>
 5   0  0.8037548E-05  0.1614076E+04  0.7818609E-02  0.8811947E-01
       -2   -1    0    0    0  501  0.00000000000E+00  0.00000000000E+00  0.81914366124E+03  0.81914366124E+03  0.25500000920E-02 0.  1.
        2   -1    0    0  501    0  0.00000000000E+00  0.00000000000E+00 -0.79511122432E+03  0.79511122432E+03  0.25500000920E-02 0. -1.
    10030    2    1    2    0    0  0.00000000000E+00  0.00000000000E+00  0.24032436923E+02  0.16142548856E+04  0.16140759826E+04 0.  0.
        5    1    3    3  502    0  0.58455791893E+02 -0.10153269794E+03  0.81057968038E+03  0.81901616383E+03  0.46999998093E+01 0.  1.
       -5    1    3    3    0  502 -0.58455791893E+02  0.10153269794E+03 -0.78654724346E+03  0.79523872174E+03  0.46999998093E+01 0. -1.
</event>
<event>
 5   0  0.8694033E-05  0.1612048E+04  0.7818609E-02  0.8813181E-01
       -2   -1    0    0    0  501  0.00000000000E+00  0.00000000000E+00  0.11151633905E+04  0.11151633905E+04  0.25500000920E-02 0.  1.
        2   -1    0    0  501    0  0.00000000000E+00  0.00000000000E+00 -0.58258239489E+03  0.58258239490E+03  0.25500000920E-02 0. -1.
    10030    2    1    2    0    0  0.00000000000E+00  0.00000000000E+00  0.53258099556E+03  0.16977457854E+04  0.16120478389E+04 0.  0.
        1    1    3    3  502    0 -0.35844458704E+03  0.22243226058E+02 -0.49366364699E+03  0.61047610884E+03  0.50400001928E-02 0. -1.
       -1    1    3    3    0  502  0.35844458704E+03 -0.22243226058E+02  0.10262446425E+04  0.10872696765E+04  0.50400001928E-02 0.  1.
</event>
<event>
 5   0  0.8694033E-05  0.1599351E+04  0.7818609E-02  0.8820947E-01
        2   -1    0    0  501    0  0.00000000000E+00  0.00000000000E+00  0.15132770079E+04  0.15132770079E+04  0.25500000920E-02 0.  1.
       -2   -1    0    0    0  501  0.00000000000E+00  0.00000000000E+00 -0.42258005686E+03  0.42258005687E+03  0.25500000920E-02 0. -1.
    10030    2    1    2    0    0  0.00000000000E+00  0.00000000000E+00  0.10906969510E+04  0.19358570648E+04  0.15993507233E+04 0.  0.
        1    1    3    3  502    0  0.55852732697E+03 -0.57199153247E+03  0.52258790487E+03  0.95510481442E+03  0.50400001928E-02 0. -1.
       -1    1    3    3    0  502 -0.55852732697E+03  0.57199153247E+03  0.56810904616E+03  0.98075225034E+03  0.50400001928E-02 0.  1.
</event>
<event>
 5   0  0.4504463E-05  0.1608743E+04  0.7818609E-02  0.8815195E-01
       -1   -1    0    0    0  501  0.00000000000E+00  0.00000000000E+00  0.75491313310E+03  0.75491313312E+03  0.50400001928E-02 0. -1.
        1   -1    0    0  501    0  0.00000000000E+00  0.00000000000E+00 -0.85706987616E+03  0.85706987618E+03  0.50400001928E-02 0.  1.
    10030    2    1    2    0    0  0.00000000000E+00  0.00000000000E+00 -0.10215674306E+03  0.16119830093E+04  0.16087427458E+04 0.  0.
        1    1    3    3  502    0  0.34081883821E+03 -0.40889376451E+03 -0.65533670589E+03  0.84428537192E+03  0.50400001928E-02 0.  1.
       -1    1    3    3    0  502 -0.34081883821E+03  0.40889376451E+03  0.55317996283E+03  0.76769763737E+03  0.50400001928E-02 0. -1.
</event>
<event>
 5   0  0.4211419E-05  0.1599609E+04  0.7818609E-02  0.8820788E-01
        1   -1    0    0  501    0  0.00000000000E+00  0.00000000000E+00  0.14565189461E+04  0.14565189461E+04  0.50400001928E-02 0. -1.
       -1   -1    0    0    0  501  0.00000000000E+00  0.00000000000E+00 -0.43918908069E+03  0.43918908071E+03  0.50400001928E-02 0.  1.
    10030    2    1    2    0    0  0.00000000000E+00  0.00000000000E+00  0.10173298654E+04  0.18957080268E+04  0.15996089734E+04 0.  0.
        2    1    3    3  502    0 -0.14012955600E+01 -0.66030948327E+03  0.10435102870E+04  0.12348782516E+04  0.25500000920E-02 0.  1.
       -2    1    3    3    0  502  0.14012955600E+01  0.66030948327E+03 -0.26180421545E+02  0.66082977521E+03  0.25500000920E-02 0. -1.
</event>
<event>
 5   0  0.8694033E-05  0.1601866E+04  0.7818609E-02  0.8819402E-01
        2   -1    0    0  501    0  0.00000000000E+00  0.00000000000E+00  0.12441168324E+04  0.12441168324E+04  0.25500000920E-02 0.  1.
       -2   -1    0    0    0  501  0.00000000000E+00  0.00000000000E+00 -0.51562193787E+03  0.51562193787E+03  0.25500000920E-02 0. -1.
    10030    2    1    2    0    0  0.00000000000E+00  0.00000000000E+00  0.72849489451E+03  0.17597387703E+04  0.16018663266E+04 0.  0.
        1    1    3    3  502    0 -0.65738486978E+02  0.44651723579E+03  0.10911182107E+04  0.11807786162E+04  0.50400001928E-02 0.  1.
       -1    1    3    3    0  502  0.65738486978E+02 -0.44651723579E+03 -0.36262331624E+03  0.57896015410E+03  0.50400001928E-02 0. -1.
</event>
<event>
 5   0  0.4314657E-05  0.1600819E+04  0.7818609E-02  0.8820045E-01
       -1   -1    0    0    0  501  0.00000000000E+00  0.00000000000E+00  0.31319197576E+03  0.31319197580E+03  0.50400001928E-02 0. -1.
        1   -1    0    0  501    0  0.00000000000E+00  0.00000000000E+00 -0.20455665876E+04  0.20455665876E+04  0.50400001928E-02 0.  1.
    10030    2    1    2    0    0  0.00000000000E+00  0.00000000000E+00 -0.17323746118E+04  0.23587585634E+04  0.16008185921E+04 0.  0.
        5    1    3    3  502    0 -0.17030480646E+03 -0.74219651946E+03 -0.12294314948E+04  0.14461615715E+04  0.46999998093E+01 0.  1.
       -5    1    3    3    0  502  0.17030480646E+03  0.74219651946E+03 -0.50294311704E+03  0.91259699187E+03  0.46999998093E+01 0. -1.
</event>
<event>
 5   0  0.8037548E-05  0.1588292E+04  0.7818609E-02  0.8827773E-01
        2   -1    0    0  501    0  0.00000000000E+00  0.00000000000E+00  0.97534466068E+03  0.97534466068E+03  0.25500000920E-02 0. -1.
       -2   -1    0    0    0  501  0.00000000000E+00  0.00000000000E+00 -0.64661009546E+03  0.64661009546E+03  0.25500000920E-02 0.  1.
    10030    2    1    2    0    0  0.00000000000E+00  0.00000000000E+00  0.32873456522E+03  0.16219547561E+04  0.15882917920E+04 0.  0.
        5    1    3    3  502    0 -0.29980550575E+03  0.79352886433E+02 -0.58219877075E+03  0.65966485469E+03  0.46999998093E+01 0.  1.
       -5    1    3    3    0  502  0.29980550575E+03 -0.79352886433E+02  0.91093333597E+03  0.96228990145E+03  0.46999998093E+01 0. -1.
</event>
<event>
 5   0  0.4256406E-05  0.1578273E+04  0.7818609E-02  0.8834008E-01
        1   -1    0    0  501    0  0.00000000000E+00  0.00000000000E+00  0.62292884673E+03  0.62292884675E+03  0.50400001928E-02 0. -1.
       -1   -1    0    0    0  501  0.00000000000E+00  0.00000000000E+00 -0.99969067918E+03  0.99969067919E+03  0.50400001928E-02 0.  1.
    10030    2    1    2    0    0  0.00000000000E+00  0.00000000000E+00 -0.37676183245E+03  0.16226195259E+04  0.15782726785E+04 0.  0.
        3    1    3    3  502    0 -0.39989404152E+03  0.67562833326E+03 -0.27028921216E+03  0.83032834322E+03  0.10100000352E+00 0. -1.
       -3    1    3    3    0  502  0.39989404152E+03 -0.67562833326E+03 -0.10647262028E+03  0.79229118272E+03  0.10100000352E+00 0.  1.
</event>
<event>
 5   0  0.7901257E-05  0.1598753E+04  0.7818609E-02  0.8821314E-01
       -2   -1    0    0    0  501  0.00000000000E+00  0.00000000000E+00  0.66717657005E+03  0.66717657005E+03  0.25500000920E-02 0. -1.
        2   -1    0    0  501    0  0.00000000000E+00  0.00000000000E+00 -0.95777200472E+03  0.95777200473E+03  0.25500000920E-02 0.  1.
    10030    2    1    2    0    0  0.00000000000E+00  0.00000000000E+00 -0.29059543467E+03  0.16249485748E+04  0.15987533156E+04 0.  0.
        2    1    3    3  502    0 -0.30338160460E+03  0.32718714195E+03 -0.81942310208E+03  0.93303056975E+03  0.25500000920E-02 0.  1.
       -2    1    3    3    0  502  0.30338160460E+03 -0.32718714195E+03  0.52882766740E+03  0.69191800503E+03  0.25500000920E-02 0. -1.
</event>
<event>
 5   0  0.4373026E-05  0.1597391E+04  0.7818609E-02  0.8822152E-01
        1   -1    0    0  501    0  0.00000000000E+00  0.00000000000E+00  0.13369534161E+04  0.13369534161E+04  0.50400001928E-02 0.  1.
       -1   -1    0    0    0  501  0.00000000000E+00  0.00000000000E+00 -0.47714046273E+03  0.47714046276E+03  0.50400001928E-02 0. -1.
    10030    2    1    2    0    0  0.00000000000E+00  0.00000000000E+00  0.85981295336E+03  0.18140938789E+04  0.15973910875E+04 0.  0.
        4    1    3    3  502    0 -0.70591293166E+03 -0.33770548338E+03  0.24836093917E+03  0.82100111424E+03  0.12699999809E+01 0. -1.
       -4    1    3    3    0  502  0.70591293166E+03  0.33770548338E+03  0.61145201420E+03  0.99309276462E+03  0.12699999809E+01 0.  1.
</event>
<event>
 5   0  0.4314657E-05  0.1600610E+04  0.7818609E-02  0.8820173E-01
       -1   -1    0    0    0  501  0.00000000000E+00  0.00000000000E+00  0.79360192316E+03  0.79360192318E+03  0.50400001928E-02 0.  1.
        1   -1    0    0  501    0  0.00000000000E+00  0.00000000000E+00 -0.80706515055E+03  0.80706515056E+03  0.50400001928E-02 0. -1.
    10030    2    1    2    0    0  0.00000000000E+00  0.00000000000E+00 -0.13463227388E+02  0.16006670737E+04  0.16006104531E+04 0.  0.
        5    1    3    3  502    0  0.45188021051E+03 -0.60128184917E+03  0.26664736509E+03  0.79803414344E+03  0.46999998093E+01 0.  1.
       -5    1    3    3    0  502 -0.45188021051E+03  0.60128184917E+03 -0.28011059248E+03  0.80263293030E+03  0.46999998093E+01 0. -1.
</event>
<event>
 5   0  0.4504463E-05  0.1600233E+04  0.7818609E-02  0.8820405E-01
       -1   -1    0    0    0  501  0.00000000000E+00  0.00000000000E+00  0.67602333120E+03  0.67602333122E+03  0.50400001928E-02 0.  1.
        1   -1    0    0  501    0  0.00000000000E+00  0.00000000000E+00 -0.94698884174E+03  0.94698884175E+03  0.50400001928E-02 0. -1.
    10030    2    1    2    0    0  0.00000000000E+00  0.00000000000E+00 -0.27096551054E+03  0.16230121730E+04  0.16002331723E+04 0.  0.
        1    1    3    3  502    0 -0.15038293042E+03 -0.49438138922E+03  0.48407987793E+03  0.70806871984E+03  0.50400001928E-02 0.  1.
       -1    1    3    3    0  502  0.15038293042E+03  0.49438138922E+03 -0.75504538847E+03  0.91494345314E+03  0.50400001928E-02 0. -1.
</event>
<event>
 5   0  0.4211419E-05  0.1597099E+04  0.7818609E-02  0.8822332E-01
       -1   -1    0    0    0  501  0.00000000000E+00  0.00000000000E+00  0.51408424016E+03  0.51408424018E+03  0.50400001928E-02 0. -1.
        1   -1    0    0  501    0  0.00000000000E+00  0.00000000000E+00 -0.12404212872E+04  0.12404212872E+04  0.50400001928E-02 0.  1.
    10030    2    1    2    0    0  0.00000000000E+00  0.00000000000E+00 -0.72633704706E+03  0.17545055274E+04  0.15970986631E+04 0.  0.
        2    1    3    3  502    0 -0.43601779919E+03  0.45123568795E+03  0.17943002633E+03  0.65262569797E+03  0.25500000920E-02 0. -1.
       -2    1    3    3    0  502  0.43601779919E+03 -0.45123568795E+03 -0.90576707340E+03  0.11018798294E+04  0.25500000920E-02 0.  1.
</event>
<event>
 5   0  0.7849690E-05  0.1600920E+04  0.7818609E-02  0.8819983E-01
       -2   -1    0    0    0  501  0.00000000000E+00  0.00000000000E+00  0.12457904169E+04  0.12457904169E+04  0.25500000920E-02 0.  1.
        2   -1    0    0  501    0  0.00000000000E+00  0.00000000000E+00 -0.51432114222E+03  0.51432114223E+03  0.25500000920E-02 0. -1.
    10030    2    1    2    0    0  0.00000000000E+00  0.00000000000E+00  0.73146927464E+03  0.17601115591E+04  0.16009201731E+04 0.  0.
        3    1    3    3  502    0 -0.53255400740E+03  0.38362280894E+03 -0.13803823373E+03  0.67069724505E+03  0.10100000352E+00 0. -1.
       -3    1    3    3    0  502  0.53255400740E+03 -0.38362280894E+03  0.86950750837E+03  0.10894143140E+04  0.10100000352E+00 0.  1.
</event>
<event>
 5   0  0.8694033E-05  0.1598762E+04  0.7818609E-02  0.8821309E-01
        2   -1    0    0  501    0  0.00000000000E+00  0.00000000000E+00  0.94209468122E+03  0.94209468123E+03  0.25500000920E-02 0. -1.
       -2   -1    0    0    0  501  0.00000000000E+00  0.00000000000E+00 -0.67828629307E+03  0.67828629308E+03  0.25500000920E-02 0.  1.
    10030    2    1    2    0    0  0.00000000000E+00  0.00000000000E+00  0.26380838815E+03  0.16203809743E+04  0.15987619073E+04 0.  0.
        1    1    3    3  502    0 -0.54306944946E+03 -0.18208844616E+03  0.69705474296E+03  0.90220061176E+03  0.50400001928E-02 0. -1.
       -1    1    3    3    0  502  0.54306944946E+03  0.18208844616E+03 -0.43324635481E+03  0.71818036254E+03  0.50400001928E-02 0.  1.
</event>
<event>
 5   0  0.4211419E-05  0.1599649E+04  0.7818609E-02  0.8820764E-01
       -1   -1    0    0    0  501  0.00000000000E+00  0.00000000000E+00  0.53587159756E+03  0.53587159758E+03  0.50400001928E-02 0.  1.
        1   -1    0    0  501    0  0.00000000000E+00  0.00000000000E+00 -0.11937919857E+04  0.11937919857E+04  0.50400001928E-02 0. -1.
    10030    2    1    2    0    0  0.00000000000E+00  0.00000000000E+00 -0.65792038815E+03  0.17296635833E+04  0.15996489847E+04 0.  0.
        2    1    3    3  502    0  0.23845465702E+03  0.37550271897E+03 -0.10477095597E+04  0.11382259165E+04  0.25500000920E-02 0. -1.
       -2    1    3    3    0  502 -0.23845465702E+03 -0.37550271897E+03  0.38978917159E+03  0.59143766680E+03  0.25500000920E-02 0.  1.
</event>
<event>
 5   0  0.4373026E-05  0.1600869E+04  0.7818609E-02  0.8820014E-01
       -1   -1    0    0    0  501  0.00000000000E+00  0.00000000000E+00  0.40375961512E+03  0.40375961516E+03  0.50400001928E-02 0. -1.
        1   -1    0    0  501    0  0.00000000000E+00  0.00000000000E+00 -0.15868247289E+04  0.15868247289E+04  0.50400001928E-02 0.  1.
    10030    2    1    2    0    0  0.00000000000E+00  0.00000000000E+00 -0.11830651138E+04  0.19905843441E+04  0.16008694411E+04 0.  0.
        4    1    3    3  502    0  0.47915237527E+03 -0.61283077384E+03 -0.35710026764E+03  0.85596189759E+03  0.12699999809E+01 0. -1.
       -4    1    3    3    0  502 -0.47915237527E+03  0.61283077384E+03 -0.82596484615E+03  0.11346224465E+04  0.12699999809E+01 0.  1.
</event>
<event>
 5   0  0.4256406E-05  0.1598174E+04  0.7818609E-02  0.8821670E-01
       -1   -1    0    0    0  501  0.00000000000E+00  0.00000000000E+00  0.38115150793E+03  0.38115150796E+03  0.50400001928E-02 0. -1.
        1   -1    0    0  501    0  0.00000000000E+00  0.00000000000E+00 -0.16752929284E+04  0.16752929284E+04  0.50400001928E-02 0.  1.
    10030    2    1    2    0    0  0.00000000000E+00  0.00000000000E+00 -0.12941414205E+04  0.20564444364E+04  0.15981744910E+04 0.  0.
        3    1    3    3  502    0  0.32050293259E+03 -0.73182467258E+03 -0.66745394024E+03  0.10410495924E+04  0.10100000352E+00 0.  1.
       -3    1    3    3    0  502 -0.32050293259E+03  0.73182467258E+03 -0.62668748026E+03  0.10153948440E+04  0.10100000352E+00 0. -1.
</event>
<event>
 5   0  0.4373026E-05  0.1600884E+04  0.7818609E-02  0.8820005E-01
       -1   -1    0    0    0  501  0.00000000000E+00  0.00000000000E+00  0.98977313036E+03  0.98977313037E+03  0.50400001928E-02 0. -1.
        1   -1    0    0  501    0  0.00000000000E+00  0.00000000000E+00 -0.64732740788E+03  0.64732740790E+03  0.50400001928E-02 0.  1.
    10030    2    1    2    0    0  0.00000000000E+00  0.00000000000E+00  0.34244572248E+03  0.16371005383E+04  0.16008838495E+04 0.  0.
        4    1    3    3  502    0 -0.15992089128E+03  0.78417257831E+03  0.15660479083E+03  0.81549248767E+03  0.12699999809E+01 0.  1.
       -4    1    3    3    0  502  0.15992089128E+03 -0.78417257831E+03  0.18584093165E+03  0.82160805060E+03  0.12699999809E+01 0. -1.
</event>
<event>
 5   0  0.7901257E-05  0.1602473E+04  0.7818609E-02  0.8819030E-01
        2   -1    0    0  501    0  0.00000000000E+00  0.00000000000E+00  0.10170945004E+04  0.10170945004E+04  0.25500000920E-02 0.  1.
       -2   -1    0    0    0  501  0.00000000000E+00  0.00000000000E+00 -0.63119040606E+03  0.63119040606E+03  0.25500000920E-02 0. -1.
    10030    2    1    2    0    0  0.00000000000E+00  0.00000000000E+00  0.38590409436E+03  0.16482849065E+04  0.16024734515E+04 0.  0.
        2    1    3    3  502    0  0.70797751604E+03  0.22533835325E+03 -0.11557420155E+03  0.75190885932E+03  0.25500000920E-02 0. -1.
       -2    1    3    3    0  502 -0.70797751604E+03 -0.22533835325E+03  0.50147829591E+03  0.89637604716E+03  0.25500000920E-02 0.  1.
</event>
<event>
 5   0  0.8694033E-05  0.1599858E+04  0.7818609E-02  0.8820635E-01
        2   -1    0    0  501    0  0.00000000000E+00  0.00000000000E+00  0.13839505418E+04  0.13839505418E+04  0.25500000920E-02 0.  1.
       -2   -1    0    0    0  501  0.00000000000E+00  0.00000000000E+00 -0.46236205507E+03  0.46236205508E+03  0.25500000920E-02 0. -1.
    10030    2    1    2    0    0  0.00000000000E+00  0.00000000000E+00  0.92158848676E+03  0.18463125969E+04  0.15998577645E+04 0.  0.
        1    1    3    3  502    0  0.75814367626E+03 -0.16257582347E+03  0.68774441256E+03  0.10364386664E+04  0.50400001928E-02 0.  1.
       -1    1    3    3    0  502 -0.75814367626E+03  0.16257582347E+03  0.23384407420E+03  0.80987393049E+03  0.50400001928E-02 0. -1.
</event>
<event>
 5   0  0.4504463E-05  0.1578940E+04  0.7818609E-02  0.8833592E-01
        1   -1    0    0  501    0  0.00000000000E+00  0.00000000000E+00  0.13383130919E+04  0.13383130919E+04  0.50400001928E-02 0.  1.
       -1   -1    0    0    0  501  0.00000000000E+00  0.00000000000E+00 -0.46570753560E+03  0.46570753563E+03  0.50400001928E-02 0. -1.
    10030    2    1    2    0    0  0.00000000000E+00  0.00000000000E+00  0.87260555630E+03  0.18040206275E+04  0.15789395073E+04 0.  0.
        1    1    3    3  502    0  0.72969493801E+03 -0.10459496462E+03  0.11340760756E+03  0.74582578037E+03  0.50400001928E-02 0. -1.
       -1    1    3    3    0  502 -0.72969493801E+03  0.10459496462E+03  0.75919794875E+03  0.10581948472E+04  0.50400001928E-02 0.  1.
</event>
<event>
 5   0  0.7901257E-05  0.1598983E+04  0.7818609E-02  0.8821173E-01
        2   -1    0    0  501    0  0.00000000000E+00  0.00000000000E+00  0.60072112246E+03  0.60072112246E+03  0.25500000920E-02 0. -1.
       -2   -1    0    0    0  501  0.00000000000E+00  0.00000000000E+00 -0.10640327300E+04  0.10640327300E+04  0.25500000920E-02 0.  1.
    10030    2    1    2    0    0  0.00000000000E+00  0.00000000000E+00 -0.46331160751E+03  0.16647538524E+04  0.15989833469E+04 0.  0.
        2    1    3    3  502    0  0.54945858052E+03 -0.51363532981E+03 -0.51384108967E+03  0.91091088980E+03  0.25500000920E-02 0.  1.
       -2    1    3    3    0  502 -0.54945858052E+03  0.51363532981E+03  0.50529482155E+02  0.75384296263E+03  0.25500000920E-02 0. -1.
</event>
<event>
 5   0  0.4256406E-05  0.1601606E+04  0.7818609E-02  0.8819562E-01
       -1   -1    0    0    0  501  0.00000000000E+00  0.00000000000E+00  0.35815761380E+03  0.35815761384E+03  0.50400001928E-02 0. -1.
        1   -1    0    0  501    0  0.00000000000E+00  0.00000000000E+00 -0.17905114495E+04  0.17905114495E+04  0.50400001928E-02 0.  1.
    10030    2    1    2    0    0  0.00000000000E+00  0.00000000000E+00 -0.14323538357E+04  0.21486690633E+04  0.16016058295E+04 0.  0.
        3    1    3    3  502    0  0.49823287593E+03 -0.56912574930E+02 -0.15537843494E+04  0.16327035415E+04  0.10100000352E+00 0.  1.
       -3    1    3    3    0  502 -0.49823287593E+03  0.56912574930E+02  0.12143051371E+03  0.51596552182E+03  0.10100000352E+00 0. -1.
</event>
<event>
 5   0  0.8694033E-05  0.1599564E+04  0.7818609E-02  0.8820816E-01
        2   -1    0    0  501    0  0.00000000000E+00  0.00000000000E+00  0.18783863616E+04  0.18783863616E+04  0.25500000920E-02 0. -1.
       -2   -1    0    0    0  501  0.00000000000E+00  0.00000000000E+00 -0.34053222473E+03  0.34053222474E+03  0.25500000920E-02 0.  1.
    10030    2    1    2    0    0  0.00000000000E+00  0.00000000000E+00  0.15378541369E+04  0.22189185864E+04  0.15995637988E+04 0.  0.
        1    1    3    3  502    0 -0.67267009651E+03  0.32309562646E+03  0.11680347036E+04  0.13860667053E+04  0.50400001928E-02 0. -1.
       -1    1    3    3    0  502  0.67267009651E+03 -0.32309562646E+03  0.36981943327E+03  0.83285188108E+03  0.50400001928E-02 0.  1.
</event>
<event>
 5   0  0.4256406E-05  0.1599422E+04  0.7818609E-02  0.8820903E-01
        1   -1    0    0  501    0  0.00000000000E+00  0.00000000000E+00  0.97829508098E+03  0.97829508099E+03  0.50400001928E-02 0.  1.
       -1   -1    0    0    0  501  0.00000000000E+00  0.00000000000E+00 -0.65372703092E+03  0.65372703094E+03  0.50400001928E-02 0. -1.
    10030    2    1    2    0    0  0.00000000000E+00  0.00000000000E+00  0.32456805005E+03  0.16320221119E+04  0.15994223191E+04 0.  0.
        3    1    3    3  502    0 -0.47816944342E+03 -0.62613903951E+03  0.22220757113E+02  0.78815600338E+03  0.10100000352E+00 0.  1.
       -3    1    3    3    0  502  0.47816944342E+03  0.62613903951E+03  0.30234729294E+03  0.84386610855E+03  0.10100000352E+00 0. -1.
</event>
<event>
 5   0  0.8037548E-05  0.1601378E+04  0.7818609E-02  0.8819702E-01
        2   -1    0    0  501    0  0.00000000000E+00  0.00000000000E+00  0.10384705233E+04  0.10384705233E+04  0.25500000920E-02 0.  1.
       -2   -1    0    0    0  501  0.00000000000E+00  0.00000000000E+00 -0.61735286679E+03  0.61735286680E+03  0.25500000920E-02 0. -1.
    10030    2    1    2    0    0  0.00000000000E+00  0.00000000000E+00  0.42111765647E+03  0.16558233901E+04  0.16013778500E+04 0.  0.
        5    1    3    3  502    0 -0.30835781488E+03 -0.63442064351E+03  0.60226109766E+03  0.92753146290E+03  0.46999998093E+01 0.  1.
       -5    1    3    3    0  502  0.30835781488E+03  0.63442064351E+03 -0.18114344119E+03  0.72829192718E+03  0.46999998093E+01 0. -1.
</event>
<event>
 5   0  0.8694033E-05  0.1600167E+04  0.7818609E-02  0.8820445E-01
        2   -1    0    0  501    0  0.00000000000E+00  0.00000000000E+00  0.48996504450E+03  0.48996504450E+03  0.25500000920E-02 0. -1.
       -2   -1    0    0    0  501  0.00000000000E+00  0.00000000000E+00 -0.13064883015E+04  0.13064883015E+04  0.25500000920E-02 0.  1.
    10030    2    1    2    0    0  0.00000000000E+00  0.00000000000E+00 -0.81652325703E+03  0.17964533460E+04  0.16001669898E+04 0.  0.
        1    1    3    3  502    0  0.36177865442E+03  0.17061313066E+03  0.36965851254E+03  0.54464672134E+03  0.50400001928E-02 0. -1.
       -1    1    3    3    0  502 -0.36177865442E+03 -0.17061313066E+03 -0.11861817696E+04  0.12518066247E+04  0.50400001928E-02 0.  1.
</event>
<event>
 5   0  0.4211419E-05  0.1599569E+04  0.7818609E-02  0.8820813E-01
        1   -1    0    0  501    0  0.00000000000E+00  0.00000000000E+00  0.62769079651E+03  0.62769079653E+03  0.50400001928E-02 0. -1.
       -1   -1    0    0    0  501  0.00000000000E+00  0.00000000000E+00 -0.10190610186E+04  0.10190610186E+04  0.50400001928E-02 0.  1.
    10030    2    1    2    0    0  0.00000000000E+00  0.00000000000E+00 -0.39137022208E+03  0.16467518151E+04  0.15995689700E+04 0.  0.
        2    1    3    3  502    0  0.30246260184E+03 -0.72087317913E+03 -0.36952527154E+03  0.86469109641E+03  0.25500000920E-02 0. -1.
       -2    1    3    3    0  502 -0.30246260184E+03  0.72087317913E+03 -0.21844950543E+02  0.78206071872E+03  0.25500000920E-02 0.  1.
</event>
<event>
 5   0  0.7901257E-05  0.1602912E+04  0.7818609E-02  0.8818761E-01
       -2   -1    0    0    0  501  0.00000000000E+00  0.00000000000E+00  0.65278349295E+03  0.65278349295E+03  0.25500000920E-02 0.  1.
        2   -1    0    0  501    0  0.00000000000E+00  0.00000000000E+00 -0.98398928289E+03  0.98398928290E+03  0.25500000920E-02 0. -1.
    10030    2    1    2    0    0  0.00000000000E+00  0.00000000000E+00 -0.33120578995E+03  0.16367727758E+04  0.16029123009E+04 0.  0.
        2    1    3    3  502    0  0.14971679805E+03 -0.45288027597E+03 -0.82327063050E+03  0.95146739042E+03  0.25500000920E-02 0. -1.
       -2    1    3    3    0  502 -0.14971679805E+03  0.45288027597E+03  0.49206484055E+03  0.68530538543E+03  0.25500000920E-02 0.  1.
</event>
<event>
 5   0  0.8694033E-05  0.1584899E+04  0.7818609E-02  0.8829879E-01
        2   -1    0    0  501    0  0.00000000000E+00  0.00000000000E+00  0.16075460895E+04  0.16075460895E+04  0.25500000920E-02 0. -1.
       -2   -1    0    0    0  501  0.00000000000E+00  0.00000000000E+00 -0.39064284699E+03  0.39064284700E+03  0.25500000920E-02 0.  1.
    10030    2    1    2    0    0  0.00000000000E+00  0.00000000000E+00  0.12169032425E+04  0.19981889365E+04  0.15848992158E+04 0.  0.
        1    1    3    3  502    0 -0.40174668704E+03 -0.44155703936E+03 -0.48604506448E+02  0.59894525428E+03  0.50400001928E-02 0.  1.
       -1    1    3    3    0  502  0.40174668704E+03  0.44155703936E+03  0.12655077490E+04  0.13992436822E+04  0.50400001928E-02 0. -1.
</event>
<event>
 5   0  0.4211419E-05  0.1601304E+04  0.7818609E-02  0.8819747E-01
       -1   -1    0    0    0  501  0.00000000000E+00  0.00000000000E+00  0.32251952770E+03  0.32251952774E+03  0.50400001928E-02 0. -1.
        1   -1    0    0  501    0  0.00000000000E+00  0.00000000000E+00 -0.19876124279E+04  0.19876124279E+04  0.50400001928E-02 0.  1.
    10030    2    1    2    0    0  0.00000000000E+00  0.00000000000E+00 -0.16650929002E+04  0.23101319557E+04  0.16013042454E+04 0.  0.
        2    1    3    3  502    0 -0.27927539940E+03 -0.67203289800E+03 -0.35099113622E+03  0.80797137475E+03  0.25500000920E-02 0. -1.
       -2    1    3    3    0  502  0.27927539940E+03  0.67203289800E+03 -0.13141017640E+04  0.15021605809E+04  0.25500000920E-02 0.  1.
</event>
<event>
 5   0  0.4373026E-05  0.1599669E+04  0.7818609E-02  0.8820752E-01
       -1   -1    0    0    0  501  0.00000000000E+00  0.00000000000E+00  0.49189377000E+03  0.49189377002E+03  0.50400001928E-02 0. -1.
        1   -1    0    0  501    0  0.00000000000E+00  0.00000000000E+00 -0.13005550912E+04  0.13005550912E+04  0.50400001928E-02 0.  1.
    10030    2    1    2    0    0  0.00000000000E+00  0.00000000000E+00 -0.80866132118E+03  0.17924488612E+04  0.15996686493E+04 0.  0.
        4    1    3    3  502    0  0.88099741344E+01  0.74885213084E+03 -0.89635733029E+02  0.75425016211E+03  0.12699999809E+01 0. -1.
       -4    1    3    3    0  502 -0.88099741344E+01 -0.74885213084E+03 -0.71902558815E+03  0.10381986991E+04  0.12699999809E+01 0.  1.
</event>
<event>
 5   0  0.8037548E-05  0.1598953E+04  0.7818609E-02  0.8821192E-01
        2   -1    0    0  501    0  0.00000000000E+00  0.00000000000E+00  0.11430230347E+04  0.11430230347E+04  0.25500000920E-02 0. -1.
       -2   -1    0    0    0  501  0.00000000000E+00  0.00000000000E+00 -0.55918613777E+03  0.55918613777E+03  0.25500000920E-02 0.  1.
    10030    2    1    2    0    0  0.00000000000E+00  0.00000000000E+00  0.58383689690E+03  0.17022091724E+04  0.15989529526E+04 0.  0.
        5    1    3    3  502    0 -0.33785992299E+02 -0.76404279279E+03  0.43989220580E+02  0.76606789778E+03  0.46999998093E+01 0. -1.
       -5    1    3    3    0  502  0.33785992299E+02  0.76404279279E+03  0.53984767632E+03  0.93614127466E+03  0.46999998093E+01 0.  1.
</event>
<event>
 5   0  0.4256406E-05  0.1596069E+04  0.7818609E-02  0.8822967E-01
        1   -1    0    0  501    0  0.00000000000E+00  0.00000000000E+00  0.97896093154E+03  0.97896093156E+03  0.50400001928E-02 0.  1.
       -1   -1    0    0    0  501  0.00000000000E+00  0.00000000000E+00 -0.65054600885E+03  0.65054600887E+03  0.50400001928E-02 0. -1.
    10030    2    1    2    0    0  0.00000000000E+00  0.00000000000E+00  0.32841492269E+03  0.16295069404E+04  0.15960690798E+04 0.  0.
        3    1    3    3  502    0 -0.20913464670E+03 -0.61889206633E+03 -0.30375583983E+03  0.72043897080E+03  0.10100000352E+00 0. -1.
       -3    1    3    3    0  502  0.20913464670E+03  0.61889206633E+03  0.63217076252E+03  0.90906796963E+03  0.10100000352E+00 0.  1.
</event>
<event>
 5   0  0.4256406E-05  0.1599176E+04  0.7818609E-02  0.8821054E-01
       -1   -1    0    0    0  501  0.00000000000E+00  0.00000000000E+00  0.80188624355E+03  0.80188624357E+03  0.50400001928E-02 0.  1.
        1   -1    0    0  501    0  0.00000000000E+00  0.00000000000E+00 -0.79729626059E+03  0.79729626061E+03  0.50400001928E-02 0. -1.
    10030    2    1    2    0    0  0.00000000000E+00  0.00000000000E+00  0.45899829605E+01  0.15991825042E+04  0.15991759171E+04 0.  0.
        3    1    3    3  502    0 -0.39351344493E+03  0.10526237179E+03 -0.68575427636E+03  0.79761640906E+03  0.10100000352E+00 0. -1.
       -3    1    3    3    0  502  0.39351344493E+03 -0.10526237179E+03  0.69034425932E+03  0.80156609511E+03  0.10100000352E+00 0.  1.
</event>
<event>
 5   0  0.7849690E-05  0.1604938E+04  0.7818609E-02  0.8817520E-01
       -2   -1    0    0    0  501  0.00000000000E+00  0.00000000000E+00  0.17177317785E+04  0.17177317785E+04  0.25500000920E-02 0.  1.
        2   -1    0    0  501    0  0.00000000000E+00  0.00000000000E+00 -0.37488765136E+03  0.37488765137E+03  0.25500000920E-02 0. -1.
    10030    2    1    2    0    0  0.00000000000E+00  0.00000000000E+00  0.13428441271E+04  0.20926194299E+04  0.16049379204E+04 0.  0.
        3    1    3    3  502    0 -0.23531281963E+00 -0.48941410986E+03 -0.15776745121E+03  0.51421474616E+03  0.10100000352E+00 0. -1.
       -3    1    3    3    0  502  0.23531281963E+00  0.48941410986E+03  0.15006115783E+04  0.15784046837E+04  0.10100000352E+00 0.  1.
</event>
<event>
 5   0  0.8037548E-05  0.1605310E+04  0.7818609E-02  0.8817293E-01
        2   -1    0    0  501    0  0.00000000000E+00  0.00000000000E+00  0.19497817434E+04  0.19497817434E+04  0.25500000920E-02 0. -1.
       -2   -1    0    0    0  501  0.00000000000E+00  0.00000000000E+00 -0.33042418005E+03  0.33042418006E+03  0.25500000920E-02 0.  1.
    10030    2    1    2    0    0  0.00000000000E+00  0.00000000000E+00  0.16193575633E+04  0.22802059234E+04  0.16053099811E+04 0.  0.
        5    1    3    3  502    0 -0.19396836626E+03  0.30241683753E+03  0.18291697796E+04  0.18641254903E+04  0.46999998093E+01 0. -1.
       -5    1    3    3    0  502  0.19396836626E+03 -0.30241683753E+03 -0.20981221633E+03  0.41608043316E+03  0.46999998093E+01 0.  1.
</event>
<event>
 5   0  0.4314657E-05  0.1600343E+04  0.7818609E-02  0.8820338E-01
       -1   -1    0    0    0  501  0.00000000000E+00  0.00000000000E+00  0.54071690060E+03  0.54071690062E+03  0.50400001928E-02 0. -1.
        1   -1    0    0  501    0  0.00000000000E+00  0.00000000000E+00 -0.11841206927E+04  0.11841206928E+04  0.50400001928E-02 0.  1.
    10030    2    1    2    0    0  0.00000000000E+00  0.00000000000E+00 -0.64340379215E+03  0.17248375934E+04  0.16003425520E+04 0.  0.
        5    1    3    3  502    0  0.63097029311E+03 -0.33988387203E+03 -0.70520143131E+03  0.10054728768E+04  0.46999998093E+01 0.  1.
       -5    1    3    3    0  502 -0.63097029311E+03  0.33988387203E+03  0.61797639166E+02  0.71936471658E+03  0.46999998093E+01 0. -1.
</event>
<event>
 5   0  0.4211419E-05  0.1606071E+04  0.7818609E-02  0.8816827E-01
        1   -1    0    0  501    0  0.00000000000E+00  0.00000000000E+00  0.11625200077E+04  0.11625200077E+04  0.50400001928E-02 0. -1.
       -1   -1    0    0    0  501  0.00000000000E+00  0.00000000000E+00 -0.55471380752E+03  0.55471380754E+03  0.50400001928E-02 0.  1.
    10030    2    1    2    0    0  0.00000000000E+00  0.00000000000E+00  0.60780620016E+03  0.17172338152E+04  0.16060708575E+04 0.  0.
        2    1    3    3  502    0  0.61876653861E+03 -0.51124799979E+03  0.33051242916E+03  0.86803514470E+03  0.25500000920E-02 0.  1.
       -2    1    3    3    0  502 -0.61876653861E+03  0.51124799979E+03  0.27729377100E+03  0.84919867053E+03  0.25500000920E-02 0. -1.
</event>
<event>
 5   0  0.8620155E-05  0.1603232E+04  0.7818609E-02  0.8818565E-01
       -2   -1    0    0    0  501  0.00000000000E+00  0.00000000000E+00  0.10351735928E+04  0.10351735928E+04  0.25500000920E-02 0.  1.
        2   -1    0    0  501    0  0.00000000000E+00  0.00000000000E+00 -0.62075403352E+03  0.62075403353E+03  0.25500000920E-02 0. -1.
    10030    2    1    2    0    0  0.00000000000E+00  0.00000000000E+00  0.41441955926E+03  0.16559276263E+04  0.16032319647E+04 0.  0.
        4    1    3    3  502    0  0.24265081910E+03  0.75958312080E+03  0.12240988285E+03  0.80674142681E+03  0.12699999809E+01 0.  1.
       -4    1    3    3    0  502 -0.24265081910E+03 -0.75958312080E+03  0.29200967641E+03  0.84918619950E+03  0.12699999809E+01 0. -1.
</event>
<event>
 5   0  0.8037548E-05  0.1601368E+04  0.7818609E-02  0.8819708E-01
       -2   -1    0    0    0  501  0.00000000000E+00  0.00000000000E+00  0.74466948622E+03  0.74466948623E+03  0.25500000920E-02 0.  1.
        2   -1    0    0  501    0  0.00000000000E+00  0.00000000000E+00 -0.86091211511E+03  0.86091211512E+03  0.25500000920E-02 0. -1.
    10030    2    1    2    0    0  0.00000000000E+00  0.00000000000E+00 -0.11624262889E+03  0.16055816013E+04  0.16013681431E+04 0.  0.
        5    1    3    3  502    0  0.71209676386E+03 -0.10927774788E+03  0.29215368298E+03  0.77743121353E+03  0.46999998093E+01 0.  1.
       -5    1    3    3    0  502 -0.71209676386E+03  0.10927774788E+03 -0.40839631188E+03  0.82815038782E+03  0.46999998093E+01 0. -1.
</event>
<event>
 5   0  0.4504463E-05  0.1598193E+04  0.7818609E-02  0.8821659E-01
       -1   -1    0    0    0  501  0.00000000000E+00  0.00000000000E+00  0.67014372862E+03  0.67014372864E+03  0.50400001928E-02 0.  1.
        1   -1    0    0  501    0  0.00000000000E+00  0.00000000000E+00 -0.95286296414E+03  0.95286296416E+03  0.50400001928E-02 0. -1.
    10030    2    1    2    0    0  0.00000000000E+00  0.00000000000E+00 -0.28271923552E+03  0.16230066928E+04  0.15981929041E+04 0.  0.
        1    1    3    3  502    0  0.32961251120E+03  0.39960638770E+02 -0.87949686827E+03  0.94008297586E+03  0.50400001928E-02 0. -1.
       -1    1    3    3    0  502 -0.32961251120E+03 -0.39960638770E+02  0.59677763274E+03  0.68292371694E+03  0.50400001928E-02 0.  1.
</event>
<event>
 5   0  0.7901257E-05  0.1605956E+04  0.7818609E-02  0.8816897E-01
        2   -1    0    0  501    0  0.00000000000E+00  0.00000000000E+00  0.90358568544E+03  0.90358568545E+03  0.25500000920E-02 0.  1.
       -2   -1    0    0    0  501  0.00000000000E+00  0.00000000000E+00 -0.71357261213E+03  0.71357261213E+03  0.25500000920E-02 0. -1.
    10030    2    1    2    0    0  0.00000000000E+00  0.00000000000E+00  0.19001307332E+03  0.16171582976E+04  0.16059564102E+04 0.  0.
        2    1    3    3  502    0  0.26612848763E+03  0.50201654158E+03 -0.47633900466E+03  0.74144711700E+03  0.25500000920E-02 0. -1.
       -2    1    3    3    0  502 -0.26612848763E+03 -0.50201654158E+03  0.66635207798E+03  0.87571118057E+03  0.25500000920E-02 0.  1.
</event>
<event>
 5   0  0.4211419E-05  0.1600238E+04  0.7818609E-02  0.8820402E-01
       -1   -1    0    0    0  501  0.00000000000E+00  0.00000000000E+00  0.11727779786E+04  0.11727779786E+04  0.50400001928E-02 0.  1.
        1   -1    0    0  501    0  0.00000000000E+00  0.00000000000E+00 -0.54587491319E+03  0.54587491322E+03  0.50400001928E-02 0. -1.
    10030    2    1    2    0    0  0.00000000000E+00  0.00000000000E+00  0.62690306541E+03  0.17186528918E+04  0.16002375790E+04 0.  0.
        2    1    3    3  502    0 -0.20430402819E+03 -0.60626209187E+03 -0.20262263081E+03  0.67108106104E+03  0.25500000920E-02 0.  1.
       -2    1    3    3    0  502  0.20430402819E+03  0.60626209187E+03  0.82952569622E+03  0.10475718308E+04  0.25500000920E-02 0. -1.
</event>
<event>
 5   0  0.8694033E-05  0.1600947E+04  0.7818609E-02  0.8819966E-01
       -2   -1    0    0    0  501  0.00000000000E+00  0.00000000000E+00  0.36729399756E+03  0.36729399757E+03  0.25500000920E-02 0.  1.
        2   -1    0    0  501    0  0.00000000000E+00  0.00000000000E+00 -0.17445376203E+04  0.17445376203E+04  0.25500000920E-02 0. -1.
    10030    2    1    2    0    0  0.00000000000E+00  0.00000000000E+00 -0.13772436228E+04  0.21118316179E+04  0.16009474651E+04 0.  0.
        1    1    3    3  502    0  0.51377926231E+03  0.49108497761E+03 -0.11744150428E+04  0.13727287709E+04  0.50400001928E-02 0. -1.
       -1    1    3    3    0  502 -0.51377926231E+03 -0.49108497761E+03 -0.20282857999E+03  0.73910284703E+03  0.50400001928E-02 0.  1.
</event>
<event>
 5   0  0.4256406E-05  0.1598283E+04  0.7818609E-02  0.8821603E-01
        1   -1    0    0  501    0  0.00000000000E+00  0.00000000000E+00  0.17055462233E+04  0.17055462233E+04  0.50400001928E-02 0.  1.
       -1   -1    0    0    0  501  0.00000000000E+00  0.00000000000E+00 -0.37444147335E+03  0.37444147338E+03  0.50400001928E-02 0. -1.
    10030    2    1    2    0    0  0.00000000000E+00  0.00000000000E+00  0.13311047500E+04  0.20799876967E+04  0.15982831298E+04 0.  0.
        3    1    3    3  502    0 -0.52868325879E+03 -0.41209764297E+03  0.99340910864E+02  0.67764229667E+03  0.10100000352E+00 0. -1.
       -3    1    3    3    0  502  0.52868325879E+03  0.41209764297E+03  0.12317638391E+04  0.14023454000E+04  0.10100000352E+00 0.  1.
</event>
<event>
 5   0  0.4256406E-05  0.1599282E+04  0.7818609E-02  0.8820989E-01
        1   -1    0    0  501    0  0.00000000000E+00  0.00000000000E+00  0.13370486627E+04  0.13370486627E+04  0.50400001928E-02 0. -1.
       -1   -1    0    0    0  501  0.00000000000E+00  0.00000000000E+00 -0.47823643685E+03  0.47823643688E+03  0.50400001928E-02 0.  1.
    10030    2    1    2    0    0  0.00000000000E+00  0.00000000000E+00  0.85881222587E+03  0.18152850996E+04  0.15992815742E+04 0.  0.
        3    1    3    3  502    0 -0.87908712271E+02 -0.58094632739E+03  0.10450652915E+04  0.11989111939E+04  0.10100000352E+00 0. -1.
       -3    1    3    3    0  502  0.87908712271E+02  0.58094632739E+03 -0.18625306567E+03  0.61637390574E+03  0.10100000352E+00 0.  1.
</event>
<event>
 5   0  0.8620155E-05  0.1600372E+04  0.7818609E-02  0.8820320E-01
       -2   -1    0    0    0  501  0.00000000000E+00  0.00000000000E+00  0.51205624303E+03  0.51205624304E+03  0.25500000920E-02 0. -1.
        2   -1    0    0  501    0  0.00000000000E+00  0.00000000000E+00 -0.12504432791E+04  0.12504432791E+04  0.25500000920E-02 0.  1.
    10030    2    1    2    0    0  0.00000000000E+00  0.00000000000E+00 -0.73838703608E+03  0.17624995222E+04  0.16003715664E+04 0.  0.
        4    1    3    3  502    0 -0.20114807302E+03 -0.75297455041E+02 -0.12181039446E+04  0.12368949377E+04  0.12699999809E+01 0.  1.
       -4    1    3    3    0  502  0.20114807302E+03  0.75297455041E+02  0.47971690853E+03  0.52560458450E+03  0.12699999809E+01 0. -1.
</event>
<event>
 5   0  0.8694033E-05  0.1599068E+04  0.7818609E-02  0.8821121E-01
        2   -1    0    0  501    0  0.00000000000E+00  0.00000000000E+00  0.81108048722E+03  0.81108048723E+03  0.25500000920E-02 0.  1.
       -2   -1    0    0    0  501  0.00000000000E+00  0.00000000000E+00 -0.78815159804E+03  0.78815159804E+03  0.25500000920E-02 0. -1.
    10030    2    1    2    0    0  0.00000000000E+00  0.00000000000E+00  0.22928889182E+02  0.15992320853E+04  0.15990677061E+04 0.  0.
        1    1    3    3  502    0 -0.16732411698E+03 -0.63462620762E+03  0.46813661198E+03  0.80616355104E+03  0.50400001928E-02 0. -1.
       -1    1    3    3    0  502  0.16732411698E+03  0.63462620762E+03 -0.44520772280E+03  0.79306853423E+03  0.50400001928E-02 0.  1.
</event>
<event>
 5   0  0.3042125E-05  0.1633097E+04  0.7818609E-02  0.8800469E-01
       -4   -1    0    0    0  501  0.00000000000E+00  0.00000000000E+00  0.13719400385E+04  0.13719406263E+04  0.12699999809E+01 0. -1.
        4   -1    0    0  501    0  0.00000000000E+00  0.00000000000E+00 -0.48599040948E+03  0.48599206887E+03  0.12699999809E+01 0.  1.
    10030    2    1    2    0    0  0.00000000000E+00  0.00000000000E+00  0.88594962899E+03  0.18579326952E+04  0.16330974112E+04 0.  0.
        4    1    3    3  502    0  0.76806890704E+03  0.17279342470E+03  0.68951896515E+03  0.10465301858E+04  0.12699999809E+01 0. -1.
       -4    1    3    3    0  502 -0.76806890704E+03 -0.17279342470E+03  0.19643066384E+03  0.81140250935E+03  0.12699999809E+01 0.  1.
</event>
<event>
 5   0  0.4373026E-05  0.1597484E+04  0.7818609E-02  0.8822095E-01
        1   -1    0    0  501    0  0.00000000000E+00  0.00000000000E+00  0.65325965528E+03  0.65325965530E+03  0.50400001928E-02 0. -1.
       -1   -1    0    0    0  501  0.00000000000E+00  0.00000000000E+00 -0.97662326961E+03  0.97662326963E+03  0.50400001928E-02 0.  1.
    10030    2    1    2    0    0  0.00000000000E+00  0.00000000000E+00 -0.32336361433E+03  0.16298829249E+04  0.15974837470E+04 0.  0.
        4    1    3    3  502    0 -0.71369249120E+01  0.45355371833E+03 -0.83245381641E+03  0.94802050635E+03  0.12699999809E+01 0.  1.
       -4    1    3    3    0  502  0.71369249120E+01 -0.45355371833E+03  0.50909020208E+03  0.68186241857E+03  0.12699999809E+01 0. -1.
</event>
<event>
 5   0  0.4314657E-05  0.1598943E+04  0.7818609E-02  0.8821198E-01
        1   -1    0    0  501    0  0.00000000000E+00  0.00000000000E+00  0.10581780066E+04  0.10581780066E+04  0.50400001928E-02 0.  1.
       -1   -1    0    0    0  501  0.00000000000E+00  0.00000000000E+00 -0.60401419621E+03  0.60401419623E+03  0.50400001928E-02 0. -1.
    10030    2    1    2    0    0  0.00000000000E+00  0.00000000000E+00  0.45416381039E+03  0.16621922028E+04  0.15989428234E+04 0.  0.
        5    1    3    3  502    0  0.31882350962E+03 -0.19865642717E+03 -0.50653873648E+03  0.63064759406E+03  0.46999998093E+01 0. -1.
       -5    1    3    3    0  502 -0.31882350962E+03  0.19865642717E+03  0.96070254687E+03  0.10315446088E+04  0.46999998093E+01 0.  1.
</event>
<event>
 5   0  0.7901257E-05  0.1599960E+04  0.7818609E-02  0.8820573E-01
       -2   -1    0    0    0  501  0.00000000000E+00  0.00000000000E+00  0.62561665763E+03  0.62561665763E+03  0.25500000920E-02 0. -1.
        2   -1    0    0  501    0  0.00000000000E+00  0.00000000000E+00 -0.10229391883E+04  0.10229391883E+04  0.25500000920E-02 0.  1.
    10030    2    1    2    0    0  0.00000000000E+00  0.00000000000E+00 -0.39732253067E+03  0.16485558459E+04  0.15999597444E+04 0.  0.
        2    1    3    3  502    0  0.43990810466E+02  0.29452268978E+03 -0.96370148490E+03  0.10086621626E+04  0.25500000920E-02 0.  1.
       -2    1    3    3    0  502 -0.43990810466E+02 -0.29452268978E+03  0.56637895423E+03  0.63989368336E+03  0.25500000920E-02 0. -1.
</event>
<event>
 5   0  0.4373026E-05  0.1596441E+04  0.7818609E-02  0.8822737E-01
        1   -1    0    0  501    0  0.00000000000E+00  0.00000000000E+00  0.12732817608E+04  0.12732817608E+04  0.50400001928E-02 0.  1.
       -1   -1    0    0    0  501  0.00000000000E+00  0.00000000000E+00 -0.50040463162E+03  0.50040463165E+03  0.50400001928E-02 0. -1.
    10030    2    1    2    0    0  0.00000000000E+00  0.00000000000E+00  0.77287712916E+03  0.17736863924E+04  0.15964411552E+04 0.  0.
        4    1    3    3  502    0  0.49365714830E+03  0.82298314063E+02 -0.30444055635E+03  0.58579523540E+03  0.12699999809E+01 0. -1.
       -4    1    3    3    0  502 -0.49365714830E+03 -0.82298314063E+02  0.10773176855E+04  0.11878911570E+04  0.12699999809E+01 0.  1.
</event>
<event>
 5   0  0.8037548E-05  0.1600589E+04  0.7818609E-02  0.8820187E-01
        2   -1    0    0  501    0  0.00000000000E+00  0.00000000000E+00  0.20515963345E+04  0.20515963345E+04  0.25500000920E-02 0. -1.
       -2   -1    0    0    0  501  0.00000000000E+00  0.00000000000E+00 -0.31218173068E+03  0.31218173069E+03  0.25500000920E-02 0.  1.
    10030    2    1    2    0    0  0.00000000000E+00  0.00000000000E+00  0.17394146038E+04  0.23637780652E+04  0.16005885098E+04 0.  0.
        5    1    3    3  502    0 -0.68953996402E+03  0.33239329161E+03  0.52494652409E+03  0.92819265535E+03  0.46999998093E+01 0.  1.
       -5    1    3    3    0  502  0.68953996402E+03 -0.33239329161E+03  0.12144680798E+04  0.14355854099E+04  0.46999998093E+01 0. -1.
</event>
<event>
 5   0  0.4314657E-05  0.1572356E+04  0.7818609E-02  0.8837713E-01
       -1   -1    0    0    0  501  0.00000000000E+00  0.00000000000E+00  0.79826422483E+03  0.79826422485E+03  0.50400001928E-02 0.  1.
        1   -1    0    0  501    0  0.00000000000E+00  0.00000000000E+00 -0.77427501517E+03  0.77427501518E+03  0.50400001928E-02 0. -1.
    10030    2    1    2    0    0  0.00000000000E+00  0.00000000000E+00  0.23989209665E+02  0.15725392400E+04  0.15723562507E+04 0.  0.
        5    1    3    3  502    0  0.75027399995E+02 -0.51497258744E+03  0.60132380239E+03  0.79525988323E+03  0.46999998093E+01 0.  1.
       -5    1    3    3    0  502 -0.75027399995E+02  0.51497258744E+03 -0.57733459272E+03  0.77727935680E+03  0.46999998093E+01 0. -1.
</event>
<event>
 5   0  0.4504463E-05  0.1600923E+04  0.7818609E-02  0.8819981E-01
        1   -1    0    0  501    0  0.00000000000E+00  0.00000000000E+00  0.74438003125E+03  0.74438003127E+03  0.50400001928E-02 0.  1.
       -1   -1    0    0    0  501  0.00000000000E+00  0.00000000000E+00 -0.86076846503E+03  0.86076846505E+03  0.50400001928E-02 0. -1.
    10030    2    1    2    0    0  0.00000000000E+00  0.00000000000E+00 -0.11638843378E+03  0.16051484963E+04  0.16009233048E+04 0.  0.
        1    1    3    3  502    0  0.17532023899E+03 -0.39675573820E+03  0.61632684277E+03  0.75366509746E+03  0.50400001928E-02 0.  1.
       -1    1    3    3    0  502 -0.17532023899E+03  0.39675573820E+03 -0.73271527655E+03  0.85148339885E+03  0.50400001928E-02 0. -1.
</event>
<event>
 5   0  0.7901257E-05  0.1601049E+04  0.7818609E-02  0.8819904E-01
       -2   -1    0    0    0  501  0.00000000000E+00  0.00000000000E+00  0.50258205519E+03  0.50258205519E+03  0.25500000920E-02 0.  1.
        2   -1    0    0  501    0  0.00000000000E+00  0.00000000000E+00 -0.12750937866E+04  0.12750937866E+04  0.25500000920E-02 0. -1.
    10030    2    1    2    0    0  0.00000000000E+00  0.00000000000E+00 -0.77251173145E+03  0.17776758418E+04  0.16010487261E+04 0.  0.
        2    1    3    3  502    0  0.32423480777E+03 -0.53250437725E+03  0.17128617752E+03  0.64655090826E+03  0.25500000920E-02 0.  1.
       -2    1    3    3    0  502 -0.32423480777E+03  0.53250437725E+03 -0.94379790897E+03  0.11311249336E+04  0.25500000920E-02 0. -1.
</event>
<event>
 5   0  0.4314657E-05  0.1560824E+04  0.7818609E-02  0.8844983E-01
       -1   -1    0    0    0  501  0.00000000000E+00  0.00000000000E+00  0.29533471782E+03  0.29533471786E+03  0.50400001928E-02 0.  1.
        1   -1    0    0  501    0  0.00000000000E+00  0.00000000000E+00 -0.20622132134E+04  0.20622132134E+04  0.50400001928E-02 0. -1.
    10030    2    1    2    0    0  0.00000000000E+00  0.00000000000E+00 -0.17668784956E+04  0.23575479313E+04  0.15608243431E+04 0.  0.
        5    1    3    3  502    0  0.75393806501E+03  0.82258718648E+02 -0.11612634731E+04  0.13869910045E+04  0.46999998093E+01 0. -1.
       -5    1    3    3    0  502 -0.75393806501E+03 -0.82258718648E+02 -0.60561502257E+03  0.97055692683E+03  0.46999998093E+01 0.  1.
</event>
<event>
 5   0  0.8694033E-05  0.1599118E+04  0.7818609E-02  0.8821090E-01
        2   -1    0    0  501    0  0.00000000000E+00  0.00000000000E+00  0.11398836121E+04  0.11398836121E+04  0.25500000920E-02 0. -1.
       -2   -1    0    0    0  501  0.00000000000E+00  0.00000000000E+00 -0.56084181567E+03  0.56084181568E+03  0.25500000920E-02 0.  1.
    10030    2    1    2    0    0  0.00000000000E+00  0.00000000000E+00  0.57904179642E+03  0.17007254278E+04  0.15991177501E+04 0.  0.
        1    1    3    3  502    0 -0.33492349099E+03 -0.24368847187E+03 -0.43784749966E+03  0.60271738744E+03  0.50400001928E-02 0.  1.
       -1    1    3    3    0  502  0.33492349099E+03  0.24368847187E+03  0.10168892961E+04  0.10980080403E+04  0.50400001928E-02 0. -1.
</event>
<event>
 5   0  0.4504463E-05  0.1599599E+04  0.7818609E-02  0.8820794E-01
        1   -1    0    0  501    0  0.00000000000E+00  0.00000000000E+00  0.11573387440E+04  0.11573387440E+04  0.50400001928E-02 0.  1.
       -1   -1    0    0    0  501  0.00000000000E+00  0.00000000000E+00 -0.55271578907E+03  0.55271578909E+03  0.50400001928E-02 0. -1.
    10030    2    1    2    0    0  0.00000000000E+00  0.00000000000E+00  0.60462295492E+03  0.17100545331E+04  0.15995991962E+04 0.  0.
        1    1    3    3  502    0 -0.77016592374E+01 -0.46155446174E+03 -0.39592555109E+03  0.60815201943E+03  0.50400001928E-02 0. -1.
       -1    1    3    3    0  502  0.77016592374E+01  0.46155446174E+03  0.10005485060E+04  0.11019025137E+04  0.50400001928E-02 0.  1.
</event>
<event>
 5   0  0.4211419E-05  0.1605073E+04  0.7818609E-02  0.8817437E-01
        1   -1    0    0  501    0  0.00000000000E+00  0.00000000000E+00  0.20398056794E+04  0.20398056795E+04  0.50400001928E-02 0. -1.
       -1   -1    0    0    0  501  0.00000000000E+00  0.00000000000E+00 -0.31574826381E+03  0.31574826385E+03  0.50400001928E-02 0.  1.
    10030    2    1    2    0    0  0.00000000000E+00  0.00000000000E+00  0.17240574156E+04  0.23555539433E+04  0.16050733340E+04 0.  0.
        2    1    3    3  502    0  0.36597763387E+03 -0.27298570316E+03 -0.10657079850E+03  0.46884769139E+03  0.25500000920E-02 0.  1.
       -2    1    3    3    0  502 -0.36597763387E+03  0.27298570316E+03  0.18306282141E+04  0.18867062519E+04  0.25500000920E-02 0. -1.
</event>
<event>
 5   0  0.8620155E-05  0.1608642E+04  0.7818609E-02  0.8815256E-01
       -2   -1    0    0    0  501  0.00000000000E+00  0.00000000000E+00  0.46650231154E+03  0.46650231154E+03  0.25500000920E-02 0. -1.
        2   -1    0    0  501    0  0.00000000000E+00  0.00000000000E+00 -0.13867726589E+04  0.13867726589E+04  0.25500000920E-02 0.  1.
    10030    2    1    2    0    0  0.00000000000E+00  0.00000000000E+00 -0.92027034734E+03  0.18532749704E+04  0.16086424723E+04 0.  0.
        4    1    3    3  502    0  0.28181977959E+02  0.73434160588E+03 -0.83494717406E+02  0.73961124839E+03  0.12699999809E+01 0. -1.
       -4    1    3    3    0  502 -0.28181977959E+02 -0.73434160588E+03 -0.83677562993E+03  0.11136637220E+04  0.12699999809E+01 0.  1.
</event>
<event>
 5   0  0.7901257E-05  0.1603634E+04  0.7818609E-02  0.8818319E-01
        2   -1    0    0  501    0  0.00000000000E+00  0.00000000000E+00  0.25579386750E+04  0.25579386750E+04  0.25500000920E-02 0. -1.
       -2   -1    0    0    0  501  0.00000000000E+00  0.00000000000E+00 -0.25133934292E+03  0.25133934293E+03  0.25500000920E-02 0.  1.
    10030    2    1    2    0    0  0.00000000000E+00  0.00000000000E+00  0.23065993320E+04  0.28092780179E+04  0.16036341551E+04 0.  0.
        2    1    3    3  502    0 -0.53356894085E+02  0.67807449788E+03  0.40949043547E+03  0.79392342173E+03  0.25500000920E-02 0. -1.
       -2    1    3    3    0  502  0.53356894085E+02 -0.67807449788E+03  0.18971088966E+04  0.20153545962E+04  0.25500000920E-02 0.  1.
</event>
<event>
 5   0  0.8620155E-05  0.1601243E+04  0.7818609E-02  0.8819785E-01
       -2   -1    0    0    0  501  0.00000000000E+00  0.00000000000E+00  0.12281686095E+04  0.12281686095E+04  0.25500000920E-02 0.  1.
        2   -1    0    0  501    0  0.00000000000E+00  0.00000000000E+00 -0.52191093525E+03  0.52191093526E+03  0.25500000920E-02 0. -1.
    10030    2    1    2    0    0  0.00000000000E+00  0.00000000000E+00  0.70625767426E+03  0.17500795448E+04  0.16012428019E+04 0.  0.
        4    1    3    3  502    0 -0.53855807015E+03 -0.41605650138E+03 -0.10778705379E+03  0.68903372133E+03  0.12699999809E+01 0. -1.
       -4    1    3    3    0  502  0.53855807015E+03  0.41605650138E+03  0.81404472804E+03  0.10610458234E+04  0.12699999809E+01 0.  1.
</event>
<event>
 5   0  0.4211419E-05  0.1598869E+04  0.7818609E-02  0.8821243E-01
        1   -1    0    0  501    0  0.00000000000E+00  0.00000000000E+00  0.75718380399E+03  0.75718380400E+03  0.50400001928E-02 0. -1.
       -1   -1    0    0    0  501  0.00000000000E+00  0.00000000000E+00 -0.84404325611E+03  0.84404325613E+03  0.50400001928E-02 0.  1.
    10030    2    1    2    0    0  0.00000000000E+00  0.00000000000E+00 -0.86859452128E+02  0.16012270601E+04  0.15988694549E+04 0.  0.
        2    1    3    3  502    0 -0.52440473818E+03  0.22926867460E+03  0.51554329702E+03  0.77029172765E+03  0.25500000920E-02 0. -1.
       -2    1    3    3    0  502  0.52440473818E+03 -0.22926867460E+03 -0.60240274915E+03  0.83093533248E+03  0.25500000920E-02 0.  1.
</event>
<event>
 5   0  0.8694033E-05  0.1600348E+04  0.7818609E-02  0.8820334E-01
       -2   -1    0    0    0  501  0.00000000000E+00  0.00000000000E+00  0.65752126542E+03  0.65752126543E+03  0.25500000920E-02 0.  1.
        2   -1    0    0  501    0  0.00000000000E+00  0.00000000000E+00 -0.97377620500E+03  0.97377620500E+03  0.25500000920E-02 0. -1.
    10030    2    1    2    0    0  0.00000000000E+00  0.00000000000E+00 -0.31625493957E+03  0.16312974704E+04  0.16003481653E+04 0.  0.
        1    1    3    3  502    0 -0.22819543131E+03  0.76246290923E+03 -0.73726932176E+02  0.79928624621E+03  0.50400001928E-02 0. -1.
       -1    1    3    3    0  502  0.22819543131E+03 -0.76246290923E+03 -0.24252800740E+03  0.83201122422E+03  0.50400001928E-02 0.  1.
</event>
<event>
 5   0  0.4373026E-05  0.1599553E+04  0.7818609E-02  0.8820822E-01
        1   -1    0    0  501    0  0.00000000000E+00  0.00000000000E+00  0.92308100406E+03  0.92308100407E+03  0.50400001928E-02 0. -1.
       -1   -1    0    0    0  501  0.00000000000E+00  0.00000000000E+00 -0.69294322089E+03  0.69294322091E+03  0.50400001928E-02 0.  1.
    10030    2    1    2    0    0  0.00000000000E+00  0.00000000000E+00  0.23013778317E+03  0.16160242250E+04  0.15995533428E+04 0.  0.
        4    1    3    3  502    0 -0.32308830717E+03 -0.29162429326E+03 -0.56281742271E+03  0.71147441757E+03  0.12699999809E+01 0.  1.
       -4    1    3    3    0  502  0.32308830717E+03  0.29162429326E+03  0.79295520588E+03  0.90454980741E+03  0.12699999809E+01 0. -1.
</event>
<event>
 5   0  0.4211419E-05  0.1601955E+04  0.7818609E-02  0.8819348E-01
       -1   -1    0    0    0  501  0.00000000000E+00  0.00000000000E+00  0.80322724317E+03  0.80322724318E+03  0.50400001928E-02 0. -1.
        1   -1    0    0  501    0  0.00000000000E+00  0.00000000000E+00 -0.79873430192E+03  0.79873430194E+03  0.50400001928E-02 0.  1.
    10030    2    1    2    0    0  0.00000000000E+00  0.00000000000E+00  0.44929412492E+01  0.16019615451E+04  0.16019552445E+04 0.  0.
        2    1    3    3  502    0  0.12890347718E+02 -0.28616424610E+03  0.75025276454E+03  0.80307866832E+03  0.25500000920E-02 0. -1.
       -2    1    3    3    0  502 -0.12890347718E+02  0.28616424610E+03 -0.74575982329E+03  0.79888287680E+03  0.25500000920E-02 0.  1.
</event>
<event>
 5   0  0.4504463E-05  0.1582101E+04  0.7818609E-02  0.8831620E-01
        1   -1    0    0  501    0  0.00000000000E+00  0.00000000000E+00  0.11068418158E+04  0.11068418158E+04  0.50400001928E-02 0.  1.
       -1   -1    0    0    0  501  0.00000000000E+00  0.00000000000E+00 -0.56535693814E+03  0.56535693816E+03  0.50400001928E-02 0. -1.
    10030    2    1    2    0    0  0.00000000000E+00  0.00000000000E+00  0.54148487766E+03  0.16721987540E+04  0.15821007553E+04 0.  0.
        1    1    3    3  502    0  0.66700233164E+03  0.19758785803E+03  0.66878927588E+03  0.96499335107E+03  0.50400001928E-02 0.  1.
       -1    1    3    3    0  502 -0.66700233164E+03 -0.19758785803E+03 -0.12730439822E+03  0.70720540290E+03  0.50400001928E-02 0. -1.
</event>
<event>
 5   0  0.8694033E-05  0.1593713E+04  0.7818609E-02  0.8824420E-01
        2   -1    0    0  501    0  0.00000000000E+00  0.00000000000E+00  0.11545528780E+04  0.11545528780E+04  0.25500000920E-02 0. -1.
       -2   -1    0    0    0  501  0.00000000000E+00  0.00000000000E+00 -0.54997918333E+03  0.54997918333E+03  0.25500000920E-02 0.  1.
    10030    2    1    2    0    0  0.00000000000E+00  0.00000000000E+00  0.60457369464E+03  0.17045320613E+04  0.15937127080E+04 0.  0.
        1    1    3    3  502    0  0.45021092751E+02 -0.13148511211E+02 -0.54850163599E+03  0.55050324872E+03  0.50400001928E-02 0.  1.
       -1    1    3    3    0  502 -0.45021092751E+02  0.13148511211E+02  0.11530753306E+04  0.11540288126E+04  0.50400001928E-02 0. -1.
</event>
<event>
 5   0  0.4256406E-05  0.1601919E+04  0.7818609E-02  0.8819370E-01
       -1   -1    0    0    0  501  0.00000000000E+00  0.00000000000E+00  0.77470779116E+03  0.77470779117E+03  0.50400001928E-02 0. -1.
        1   -1    0    0  501    0  0.00000000000E+00  0.00000000000E+00 -0.82810032485E+03  0.82810032487E+03  0.50400001928E-02 0.  1.
    10030    2    1    2    0    0  0.00000000000E+00  0.00000000000E+00 -0.53392533697E+02  0.16028081160E+04  0.16019185667E+04 0.  0.
        3    1    3    3  502    0 -0.40944806178E+02 -0.56320982661E+03  0.54164554757E+03  0.78247153006E+03  0.10100000352E+00 0. -1.
       -3    1    3    3    0  502  0.40944806178E+02  0.56320982661E+03 -0.59503808127E+03  0.82033658598E+03  0.10100000352E+00 0.  1.
</event>
<event>
 5   0  0.4314657E-05  0.1596883E+04  0.7818609E-02  0.8822465E-01
        1   -1    0    0  501    0  0.00000000000E+00  0.00000000000E+00  0.86952707478E+03  0.86952707480E+03  0.50400001928E-02 0.  1.
       -1   -1    0    0    0  501  0.00000000000E+00  0.00000000000E+00 -0.73316686309E+03  0.73316686310E+03  0.50400001928E-02 0. -1.
    10030    2    1    2    0    0  0.00000000000E+00  0.00000000000E+00  0.13636021170E+03  0.16026939379E+04  0.15968825102E+04 0.  0.
        5    1    3    3  502    0 -0.18543356431E+03 -0.26321820568E+03  0.80146678618E+03  0.86373637756E+03  0.46999998093E+01 0.  1.
       -5    1    3    3    0  502  0.18543356431E+03  0.26321820568E+03 -0.66510657448E+03  0.73895756034E+03  0.46999998093E+01 0. -1.
</event>
<event>
 5   0  0.4256406E-05  0.1611536E+04  0.7818609E-02  0.8813492E-01
        1   -1    0    0  501    0  0.00000000000E+00  0.00000000000E+00  0.85609634324E+03  0.85609634326E+03  0.50400001928E-02 0.  1.
       -1   -1    0    0    0  501  0.00000000000E+00  0.00000000000E+00 -0.75839855238E+03  0.75839855239E+03  0.50400001928E-02 0. -1.
    10030    2    1    2    0    0  0.00000000000E+00  0.00000000000E+00  0.97697790868E+02  0.16144948957E+04  0.16115361956E+04 0.  0.
        3    1    3    3  502    0  0.43792681783E+03  0.51383436029E+03 -0.39179560408E+03  0.78058276510E+03  0.10100000352E+00 0. -1.
       -3    1    3    3    0  502 -0.43792681783E+03 -0.51383436029E+03  0.48949339495E+03  0.83391213055E+03  0.10100000352E+00 0.  1.
</event>
<event>
 5   0  0.7901257E-05  0.1599655E+04  0.7818609E-02  0.8820760E-01
        2   -1    0    0  501    0  0.00000000000E+00  0.00000000000E+00  0.16738299649E+04  0.16738299649E+04  0.25500000920E-02 0. -1.
       -2   -1    0    0    0  501  0.00000000000E+00  0.00000000000E+00 -0.38219191953E+03  0.38219191954E+03  0.25500000920E-02 0.  1.
    10030    2    1    2    0    0  0.00000000000E+00  0.00000000000E+00  0.12916380453E+04  0.20560218844E+04  0.15996553219E+04 0.  0.
        2    1    3    3  502    0  0.23179068924E+03  0.58287314368E+03  0.80036840577E+01  0.62732135641E+03  0.25500000920E-02 0.  1.
       -2    1    3    3    0  502 -0.23179068924E+03 -0.58287314368E+03  0.12836343613E+04  0.14287005280E+04  0.25500000920E-02 0. -1.
</event>
<event>
 5   0  0.7901257E-05  0.1584716E+04  0.7818609E-02  0.8829993E-01
        2   -1    0    0  501    0  0.00000000000E+00  0.00000000000E+00  0.85969669272E+03  0.85969669273E+03  0.25500000920E-02 0. -1.
       -2   -1    0    0    0  501  0.00000000000E+00  0.00000000000E+00 -0.73029356465E+03  0.73029356466E+03  0.25500000920E-02 0.  1.
    10030    2    1    2    0    0  0.00000000000E+00  0.00000000000E+00  0.12940312807E+03  0.15899902574E+04  0.15847156997E+04 0.  0.
        2    1    3    3  502    0 -0.30430233728E+03  0.36185661529E+03  0.70265657551E+03  0.84691580787E+03  0.25500000920E-02 0. -1.
       -2    1    3    3    0  502  0.30430233728E+03 -0.36185661529E+03 -0.57325344745E+03  0.74307444951E+03  0.25500000920E-02 0.  1.
</event>
<event>
 5   0  0.8620155E-05  0.1600540E+04  0.7818609E-02  0.8820216E-01
       -2   -1    0    0    0  501  0.00000000000E+00  0.00000000000E+00  0.47932370695E+03  0.47932370696E+03  0.25500000920E-02 0.  1.
        2   -1    0    0  501    0  0.00000000000E+00  0.00000000000E+00 -0.13361161702E+04  0.13361161702E+04  0.25500000920E-02 0. -1.
    10030    2    1    2    0    0  0.00000000000E+00  0.00000000000E+00 -0.85679246328E+03  0.18154398772E+04  0.16005401034E+04 0.  0.
        4    1    3    3  502    0  0.14305763778E+03  0.39781210251E+03  0.34233015268E+03  0.54397748388E+03  0.12699999809E+01 0.  1.
       -4    1    3    3    0  502 -0.14305763778E+03 -0.39781210251E+03 -0.11991226160E+04  0.12714623933E+04  0.12699999809E+01 0. -1.
</event>
<event>
 5   0  0.3042125E-05  0.1598767E+04  0.7818609E-02  0.8821306E-01
       -3   -1    0    0    0  501  0.00000000000E+00  0.00000000000E+00  0.13984003812E+04  0.13984003849E+04  0.10100000352E+00 0.  1.
        3   -1    0    0  501    0  0.00000000000E+00  0.00000000000E+00 -0.45696044338E+03  0.45696045454E+03  0.10100000352E+00 0. -1.
    10030    2    1    2    0    0  0.00000000000E+00  0.00000000000E+00  0.94143993784E+03  0.18553608394E+04  0.15987666146E+04 0.  0.
        4    1    3    3  502    0  0.40287449333E+03 -0.54742019371E+03  0.95900486590E+03  0.11754440317E+04  0.12699999809E+01 0.  1.
       -4    1    3    3    0  502 -0.40287449333E+03  0.54742019371E+03 -0.17564928057E+02  0.67991680775E+03  0.12699999809E+01 0. -1.
</event>
<event>
 5   0  0.4256406E-05  0.1601838E+04  0.7818609E-02  0.8819420E-01
       -1   -1    0    0    0  501  0.00000000000E+00  0.00000000000E+00  0.48966055704E+03  0.48966055707E+03  0.50400001928E-02 0.  1.
        1   -1    0    0  501    0  0.00000000000E+00  0.00000000000E+00 -0.13100321316E+04  0.13100321317E+04  0.50400001928E-02 0. -1.
    10030    2    1    2    0    0  0.00000000000E+00  0.00000000000E+00 -0.82037157460E+03  0.17996926887E+04  0.16018377738E+04 0.  0.
        3    1    3    3  502    0  0.44706358487E+02  0.81783628500E+02 -0.13039182006E+04  0.13072451585E+04  0.10100000352E+00 0. -1.
       -3    1    3    3    0  502 -0.44706358487E+02 -0.81783628500E+02  0.48354662596E+03  0.49244753026E+03  0.10100000352E+00 0.  1.
</event>
<event>
 5   0  0.4373026E-05  0.1598910E+04  0.7818609E-02  0.8821218E-01
        1   -1    0    0  501    0  0.00000000000E+00  0.00000000000E+00  0.90033487991E+03  0.90033487992E+03  0.50400001928E-02 0. -1.
       -1   -1    0    0    0  501  0.00000000000E+00  0.00000000000E+00 -0.70987880723E+03  0.70987880724E+03  0.50400001928E-02 0.  1.
    10030    2    1    2    0    0  0.00000000000E+00  0.00000000000E+00  0.19045607268E+03  0.16102136872E+04  0.15989104424E+04 0.  0.
        4    1    3    3  502    0 -0.49507283692E+03 -0.14292008783E+03  0.71078039739E+03  0.87791437599E+03  0.12699999809E+01 0. -1.
       -4    1    3    3    0  502  0.49507283692E+03  0.14292008783E+03 -0.52032432471E+03  0.73229931117E+03  0.12699999809E+01 0.  1.
</event>
<event>
 5   0  0.8037548E-05  0.1573572E+04  0.7818609E-02  0.8836950E-01
        2   -1    0    0  501    0  0.00000000000E+00  0.00000000000E+00  0.71171341193E+03  0.71171341193E+03  0.25500000920E-02 0. -1.
       -2   -1    0    0    0  501  0.00000000000E+00  0.00000000000E+00 -0.86977767345E+03  0.86977767345E+03  0.25500000920E-02 0.  1.
    10030    2    1    2    0    0  0.00000000000E+00  0.00000000000E+00 -0.15806426152E+03  0.15814910854E+04  0.15735722870E+04 0.  0.
        5    1    3    3  502    0  0.45396914134E+03  0.40339444727E+03  0.42368028302E+03  0.74050127184E+03  0.46999998093E+01 0. -1.
       -5    1    3    3    0  502 -0.45396914134E+03 -0.40339444727E+03 -0.58174454454E+03  0.84098981354E+03  0.46999998093E+01 0.  1.
</event>
<event>
 5   0  0.4256406E-05  0.1599535E+04  0.7818609E-02  0.8820834E-01
        1   -1    0    0  501    0  0.00000000000E+00  0.00000000000E+00  0.10211760246E+04  0.10211760246E+04  0.50400001928E-02 0.  1.
       -1   -1    0    0    0  501  0.00000000000E+00  0.00000000000E+00 -0.62636399061E+03  0.62636399063E+03  0.50400001928E-02 0. -1.
    10030    2    1    2    0    0  0.00000000000E+00  0.00000000000E+00  0.39481203398E+03  0.16475400152E+04  0.15995347948E+04 0.  0.
        3    1    3    3  502    0  0.45849157298E+03  0.83987670677E+01  0.87231371373E+03  0.98550306298E+03  0.10100000352E+00 0.  1.
       -3    1    3    3    0  502 -0.45849157298E+03 -0.83987670677E+01 -0.47750167975E+03  0.66203695225E+03  0.10100000352E+00 0. -1.
</event>
<event>
 5   0  0.4211419E-05  0.1598684E+04  0.7818609E-02  0.8821357E-01
       -1   -1    0    0    0  501  0.00000000000E+00  0.00000000000E+00  0.33367911837E+03  0.33367911841E+03  0.50400001928E-02 0.  1.
        1   -1    0    0  501    0  0.00000000000E+00  0.00000000000E+00 -0.19148561595E+04  0.19148561595E+04  0.50400001928E-02 0. -1.
    10030    2    1    2    0    0  0.00000000000E+00  0.00000000000E+00 -0.15811770411E+04  0.22485352779E+04  0.15986838526E+04 0.  0.
        2    1    3    3  502    0  0.20616922438E+03 -0.59485904115E+03 -0.14833259120E+04  0.16114027395E+04  0.25500000920E-02 0. -1.
       -2    1    3    3    0  502 -0.20616922438E+03  0.59485904115E+03 -0.97851129131E+02  0.63713253833E+03  0.25500000920E-02 0.  1.
</event>
<event>
 5   0  0.7849690E-05  0.1600553E+04  0.7818609E-02  0.8820209E-01
        2   -1    0    0  501    0  0.00000000000E+00  0.00000000000E+00  0.19768155909E+04  0.19768155909E+04  0.25500000920E-02 0. -1.
       -2   -1    0    0    0  501  0.00000000000E+00  0.00000000000E+00 -0.32397665577E+03  0.32397665578E+03  0.25500000920E-02 0.  1.
    10030    2    1    2    0    0  0.00000000000E+00  0.00000000000E+00  0.16528389351E+04  0.23007922467E+04  0.16005525349E+04 0.  0.
        3    1    3    3  502    0 -0.76040726049E+03 -0.21461638966E+03  0.64366651833E+03  0.10191103932E+04  0.10100000352E+00 0.  1.
       -3    1    3    3    0  502  0.76040726049E+03  0.21461638966E+03  0.10091724168E+04  0.12816818535E+04  0.10100000352E+00 0. -1.
</event>
<event>
 5   0  0.4256406E-05  0.1596210E+04  0.7818609E-02  0.8822880E-01
        1   -1    0    0  501    0  0.00000000000E+00  0.00000000000E+00  0.84688776333E+03  0.84688776334E+03  0.50400001928E-02 0.  1.
       -1   -1    0    0    0  501  0.00000000000E+00  0.00000000000E+00 -0.75213231022E+03  0.75213231024E+03  0.50400001928E-02 0. -1.
    10030    2    1    2    0    0  0.00000000000E+00  0.00000000000E+00  0.94755453103E+02  0.15990200736E+04  0.15962100738E+04 0.  0.
        3    1    3    3  502    0 -0.22987037689E+03  0.62141977773E+03  0.49309774967E+03  0.82592271506E+03  0.10100000352E+00 0.  1.
       -3    1    3    3    0  502  0.22987037689E+03 -0.62141977773E+03 -0.39834229657E+03  0.77309735852E+03  0.10100000352E+00 0. -1.
</event>
<event>
 5   0  0.4256406E-05  0.1599170E+04  0.7818609E-02  0.8821058E-01
        1   -1    0    0  501    0  0.00000000000E+00  0.00000000000E+00  0.17116722433E+04  0.17116722433E+04  0.50400001928E-02 0.  1.
       -1   -1    0    0    0  501  0.00000000000E+00  0.00000000000E+00 -0.37351565012E+03  0.37351565015E+03  0.50400001928E-02 0. -1.
    10030    2    1    2    0    0  0.00000000000E+00  0.00000000000E+00  0.13381565932E+04  0.20851878935E+04  0.15991702483E+04 0.  0.
        3    1    3    3  502    0 -0.19960862065E+03  0.77091912143E+03  0.57526438723E+03  0.98238944347E+03  0.10100000352E+00 0. -1.
       -3    1    3    3    0  502  0.19960862065E+03 -0.77091912143E+03  0.76289220598E+03  0.11027984500E+04  0.10100000352E+00 0.  1.
</event>
<event>
 5   0  0.4256406E-05  0.1583033E+04  0.7818609E-02  0.8831040E-01
       -1   -1    0    0    0  501  0.00000000000E+00  0.00000000000E+00  0.31949740370E+03  0.31949740374E+03  0.50400001928E-02 0.  1.
        1   -1    0    0  501    0  0.00000000000E+00  0.00000000000E+00 -0.19608873827E+04  0.19608873827E+04  0.50400001928E-02 0. -1.
    10030    2    1    2    0    0  0.00000000000E+00  0.00000000000E+00 -0.16413899790E+04  0.22803847865E+04  0.15830330733E+04 0.  0.
        3    1    3    3  502    0 -0.72122673125E+03 -0.15666112782E+03 -0.40872823251E+03  0.84366432015E+03  0.10100000352E+00 0.  1.
       -3    1    3    3    0  502  0.72122673125E+03  0.15666112782E+03 -0.12326617465E+04  0.14367204663E+04  0.10100000352E+00 0. -1.
</event>
<event>
 5   0  0.3042125E-05  0.1596705E+04  0.7818609E-02  0.8822575E-01
       -4   -1    0    0    0  501  0.00000000000E+00  0.00000000000E+00  0.13753030858E+04  0.13753036722E+04  0.12699999809E+01 0.  1.
        4   -1    0    0  501    0  0.00000000000E+00  0.00000000000E+00 -0.46343554729E+03  0.46343728745E+03  0.12699999809E+01 0. -1.
    10030    2    1    2    0    0  0.00000000000E+00  0.00000000000E+00  0.91186753851E+03  0.18387409596E+04  0.15967047031E+04 0.  0.
        1    1    3    3  502    0  0.58877510333E+03 -0.17598098870E+03  0.10428366470E+04  0.12104270746E+04  0.50400001928E-02 0.  1.
       -1    1    3    3    0  502 -0.58877510333E+03  0.17598098870E+03 -0.13096910847E+03  0.62831388500E+03  0.50400001928E-02 0. -1.
</event>
<event>
 5   0  0.4373026E-05  0.1605785E+04  0.7818609E-02  0.8817002E-01
        1   -1    0    0  501    0  0.00000000000E+00  0.00000000000E+00  0.14615972965E+04  0.14615972965E+04  0.50400001928E-02 0.  1.
       -1   -1    0    0    0  501  0.00000000000E+00  0.00000000000E+00 -0.44104933255E+03  0.44104933258E+03  0.50400001928E-02 0. -1.
    10030    2    1    2    0    0  0.00000000000E+00  0.00000000000E+00  0.10205479640E+04  0.19026466291E+04  0.16057851813E+04 0.  0.
        4    1    3    3  502    0  0.10621711167E+02 -0.75846347122E+03  0.82208898937E+03  0.11185756913E+04  0.12699999809E+01 0.  1.
       -4    1    3    3    0  502 -0.10621711167E+02  0.75846347122E+03  0.19845897459E+03  0.78407093775E+03  0.12699999809E+01 0. -1.
</event>
<event>
 5   0  0.4373026E-05  0.1598839E+04  0.7818609E-02  0.8821262E-01
        1   -1    0    0  501    0  0.00000000000E+00  0.00000000000E+00  0.42531359399E+03  0.42531359402E+03  0.50400001928E-02 0.  1.
       -1   -1    0    0    0  501  0.00000000000E+00  0.00000000000E+00 -0.15025886847E+04  0.15025886847E+04  0.50400001928E-02 0. -1.
    10030    2    1    2    0    0  0.00000000000E+00  0.00000000000E+00 -0.10772750907E+04  0.19279022787E+04  0.15988388209E+04 0.  0.
        4    1    3    3  502    0 -0.50491531848E+03  0.25845754085E+03 -0.12178973235E+04  0.13435085719E+04  0.12699999809E+01 0. -1.
       -4    1    3    3    0  502  0.50491531848E+03 -0.25845754085E+03  0.14062223284E+03  0.58439370678E+03  0.12699999809E+01 0.  1.
</event>
<event>
 5   0  0.7849690E-05  0.1608876E+04  0.7818609E-02  0.8815114E-01
        2   -1    0    0  501    0  0.00000000000E+00  0.00000000000E+00  0.88890944309E+03  0.88890944309E+03  0.25500000920E-02 0. -1.
       -2   -1    0    0    0  501  0.00000000000E+00  0.00000000000E+00 -0.72799387158E+03  0.72799387159E+03  0.25500000920E-02 0.  1.
    10030    2    1    2    0    0  0.00000000000E+00  0.00000000000E+00  0.16091557150E+03  0.16169033147E+04  0.16088761630E+04 0.  0.
        3    1    3    3  502    0 -0.50464318169E+03 -0.56177043969E+03  0.35909521087E+03  0.83618188715E+03  0.10100000352E+00 0. -1.
       -3    1    3    3    0  502  0.50464318169E+03  0.56177043969E+03 -0.19817963937E+03  0.78072142752E+03  0.10100000352E+00 0.  1.
</event>
<event>
 5   0  0.8620155E-05  0.1575698E+04  0.7818609E-02  0.8835618E-01
        2   -1    0    0  501    0  0.00000000000E+00  0.00000000000E+00  0.16101131554E+04  0.16101131554E+04  0.25500000920E-02 0. -1.
       -2   -1    0    0    0  501  0.00000000000E+00  0.00000000000E+00 -0.38550471713E+03  0.38550471714E+03  0.25500000920E-02 0.  1.
    10030    2    1    2    0    0  0.00000000000E+00  0.00000000000E+00  0.12246084383E+04  0.19956178726E+04  0.15756982154E+04 0.  0.
        4    1    3    3  502    0 -0.68581825576E+03 -0.37954608909E+03  0.71285080156E+03  0.10595092222E+04  0.12699999809E+01 0.  1.
       -4    1    3    3    0  502  0.68581825576E+03  0.37954608909E+03  0.51175763675E+03  0.93610865040E+03  0.12699999809E+01 0. -1.
</event>
<event>
 5   0  0.8620155E-05  0.1598835E+04  0.7818609E-02  0.8821264E-01
        2   -1    0    0  501    0  0.00000000000E+00  0.00000000000E+00  0.10375350550E+04  0.10375350550E+04  0.25500000920E-02 0. -1.
       -2   -1    0    0    0  501  0.00000000000E+00  0.00000000000E+00 -0.61594846096E+03  0.61594846096E+03  0.25500000920E-02 0.  1.
    10030    2    1    2    0    0  0.00000000000E+00  0.00000000000E+00  0.42158659400E+03  0.16534835159E+04  0.15988347260E+04 0.  0.
        4    1    3    3  502    0  0.59813202126E+03 -0.17965111078E+03  0.72687943413E+03  0.95832758550E+03  0.12699999809E+01 0. -1.
       -4    1    3    3    0  502 -0.59813202126E+03  0.17965111078E+03 -0.30529284013E+03  0.69515593042E+03  0.12699999809E+01 0.  1.
</event>
<event>
 5   0  0.4314657E-05  0.1600088E+04  0.7818609E-02  0.8820494E-01
       -1   -1    0    0    0  501  0.00000000000E+00  0.00000000000E+00  0.47615619707E+03  0.47615619710E+03  0.50400001928E-02 0.  1.
        1   -1    0    0  501    0  0.00000000000E+00  0.00000000000E+00 -0.13442442760E+04  0.13442442760E+04  0.50400001928E-02 0. -1.
    10030    2    1    2    0    0  0.00000000000E+00  0.00000000000E+00 -0.86808807895E+03  0.18204004731E+04  0.16000878006E+04 0.  0.
        5    1    3    3  502    0  0.31652170799E+03  0.54264045316E+03  0.12954624948E+03  0.64144288428E+03  0.46999998093E+01 0.  1.
       -5    1    3    3    0  502 -0.31652170799E+03 -0.54264045316E+03 -0.99763432844E+03  0.11789575889E+04  0.46999998093E+01 0. -1.
</event>
<event>
 5   0  0.4256406E-05  0.1600736E+04  0.7818609E-02  0.8820096E-01
       -1   -1    0    0    0  501  0.00000000000E+00  0.00000000000E+00  0.31687194167E+03  0.31687194171E+03  0.50400001928E-02 0.  1.
        1   -1    0    0  501    0  0.00000000000E+00  0.00000000000E+00 -0.20216016446E+04  0.20216016446E+04  0.50400001928E-02 0. -1.
    10030    2    1    2    0    0  0.00000000000E+00  0.00000000000E+00 -0.17047297029E+04  0.23384735863E+04  0.16007358789E+04 0.  0.
        3    1    3    3  502    0 -0.53206372618E+03  0.86594467074E+02 -0.17166276709E+04  0.17992779055E+04  0.10100000352E+00 0. -1.
       -3    1    3    3    0  502  0.53206372618E+03 -0.86594467074E+02  0.11897967922E+02  0.53919568089E+03  0.10100000352E+00 0.  1.
</event>
<event>
 5   0  0.8620155E-05  0.1599287E+04  0.7818609E-02  0.8820986E-01
       -2   -1    0    0    0  501  0.00000000000E+00  0.00000000000E+00  0.60487607507E+03  0.60487607507E+03  0.25500000920E-02 0.  1.
        2   -1    0    0  501    0  0.00000000000E+00  0.00000000000E+00 -0.10571258258E+04  0.10571258258E+04  0.25500000920E-02 0. -1.
    10030    2    1    2    0    0  0.00000000000E+00  0.00000000000E+00 -0.45224975069E+03  0.16620019008E+04  0.15992874918E+04 0.  0.
        4    1    3    3  502    0 -0.11992035452E+03 -0.39506185519E+02 -0.10467005418E+04  0.10542889866E+04  0.12699999809E+01 0. -1.
       -4    1    3    3    0  502  0.11992035452E+03  0.39506185519E+02  0.59445079114E+03  0.60771291422E+03  0.12699999809E+01 0.  1.
</event>
<event>
 5   0  0.8037548E-05  0.1597942E+04  0.7818609E-02  0.8821813E-01
        2   -1    0    0  501    0  0.00000000000E+00  0.00000000000E+00  0.14367885379E+04  0.14367885379E+04  0.25500000920E-02 0.  1.
       -2   -1    0    0    0  501  0.00000000000E+00  0.00000000000E+00 -0.44429267385E+03  0.44429267386E+03  0.25500000920E-02 0. -1.
    10030    2    1    2    0    0  0.00000000000E+00  0.00000000000E+00  0.99249586401E+03  0.18810812117E+04  0.15979419529E+04 0.  0.
        5    1    3    3  502    0 -0.88757928547E+02 -0.63188735461E+03 -0.69750251952E+02  0.64190870570E+03  0.46999998093E+01 0. -1.
       -5    1    3    3    0  502  0.88757928547E+02  0.63188735461E+03  0.10622461160E+04  0.12391725060E+04  0.46999998093E+01 0.  1.
</event>
<event>
 5   0  0.4314657E-05  0.1603709E+04  0.7818609E-02  0.8818273E-01
       -1   -1    0    0    0  501  0.00000000000E+00  0.00000000000E+00  0.57418183891E+03  0.57418183893E+03  0.50400001928E-02 0. -1.
        1   -1    0    0  501    0  0.00000000000E+00  0.00000000000E+00 -0.11198032538E+04  0.11198032538E+04  0.50400001928E-02 0.  1.
    10030    2    1    2    0    0  0.00000000000E+00  0.00000000000E+00 -0.54562141490E+03  0.16939850927E+04  0.16037090653E+04 0.  0.
        5    1    3    3  502    0 -0.56788633507E+03  0.38411053658E+03 -0.71204635697E+03  0.98846744931E+03  0.46999998093E+01 0.  1.
       -5    1    3    3    0  502  0.56788633507E+03 -0.38411053658E+03  0.16642494207E+03  0.70551764344E+03  0.46999998093E+01 0. -1.
</event>
<event>
 5   0  0.4256406E-05  0.1620660E+04  0.7818609E-02  0.8807955E-01
       -1   -1    0    0    0  501  0.00000000000E+00  0.00000000000E+00  0.57484495809E+03  0.57484495811E+03  0.50400001928E-02 0. -1.
        1   -1    0    0  501    0  0.00000000000E+00  0.00000000000E+00 -0.11422817245E+04  0.11422817246E+04  0.50400001928E-02 0.  1.
    10030    2    1    2    0    0  0.00000000000E+00  0.00000000000E+00 -0.56743676645E+03  0.17171266827E+04  0.16206602236E+04 0.  0.
        3    1    3    3  502    0  0.63713303679E+03 -0.14550086501E+03  0.22388696149E+03  0.69082153268E+03  0.10100000352E+00 0. -1.
       -3    1    3    3    0  502 -0.63713303679E+03  0.14550086501E+03 -0.79132372794E+03  0.10263051500E+04  0.10100000352E+00 0.  1.
</event>
<event>
 5   0  0.7901257E-05  0.1599913E+04  0.7818609E-02  0.8820601E-01
       -2   -1    0    0    0  501  0.00000000000E+00  0.00000000000E+00  0.33587666266E+03  0.33587666267E+03  0.25500000920E-02 0.  1.
        2   -1    0    0  501    0  0.00000000000E+00  0.00000000000E+00 -0.19052539986E+04  0.19052539986E+04  0.25500000920E-02 0. -1.
    10030    2    1    2    0    0  0.00000000000E+00  0.00000000000E+00 -0.15693773360E+04  0.22411306613E+04  0.15999129409E+04 0.  0.
        2    1    3    3  502    0  0.10236044760E+03  0.96878302902E+02 -0.18877260635E+04  0.18929798619E+04  0.25500000920E-02 0. -1.
       -2    1    3    3    0  502 -0.10236044760E+03 -0.96878302902E+02  0.31834872751E+03  0.34815079940E+03  0.25500000920E-02 0.  1.
</event>
<event>
 5   0  0.8037548E-05  0.1597939E+04  0.7818609E-02  0.8821815E-01
        2   -1    0    0  501    0  0.00000000000E+00  0.00000000000E+00  0.71492952014E+03  0.71492952014E+03  0.25500000920E-02 0. -1.
       -2   -1    0    0    0  501  0.00000000000E+00  0.00000000000E+00 -0.89288787090E+03  0.89288787090E+03  0.25500000920E-02 0.  1.
    10030    2    1    2    0    0  0.00000000000E+00  0.00000000000E+00 -0.17795835076E+03  0.16078173910E+04  0.15979385434E+04 0.  0.
        5    1    3    3  502    0  0.49201328954E+02  0.35730868319E+03  0.62833741374E+03  0.72451381033E+03  0.46999998093E+01 0. -1.
       -5    1    3    3    0  502 -0.49201328954E+02 -0.35730868319E+03 -0.80629576450E+03  0.88330358071E+03  0.46999998093E+01 0.  1.
</event>
<event>
 5   0  0.8694033E-05  0.1610562E+04  0.7818609E-02  0.8814086E-01
        2   -1    0    0  501    0  0.00000000000E+00  0.00000000000E+00  0.53138939667E+03  0.53138939667E+03  0.25500000920E-02 0. -1.
       -2   -1    0    0    0  501  0.00000000000E+00  0.00000000000E+00 -0.12203427708E+04  0.12203427708E+04  0.25500000920E-02 0.  1.
    10030    2    1    2    0    0  0.00000000000E+00  0.00000000000E+00 -0.68895337412E+03  0.17517321675E+04  0.16105616520E+04 0.  0.
        1    1    3    3  502    0 -0.10305400158E+03  0.11439298585E+03  0.51523116955E+03  0.53774440077E+03  0.50400001928E-02 0. -1.
       -1    1    3    3    0  502  0.10305400158E+03 -0.11439298585E+03 -0.12041845437E+04  0.12139877667E+04  0.50400001928E-02 0.  1.
</event>
<event>
 5   0  0.8620155E-05  0.1600491E+04  0.7818609E-02  0.8820247E-01
        2   -1    0    0  501    0  0.00000000000E+00  0.00000000000E+00  0.61978244657E+03  0.61978244658E+03  0.25500000920E-02 0. -1.
       -2   -1    0    0    0  501  0.00000000000E+00  0.00000000000E+00 -0.10332536463E+04  0.10332536463E+04  0.25500000920E-02 0.  1.
    10030    2    1    2    0    0  0.00000000000E+00  0.00000000000E+00 -0.41347119975E+03  0.16530360929E+04  0.16004905159E+04 0.  0.
        4    1    3    3  502    0  0.29688720705E+02  0.88912151245E+02  0.61409150854E+03  0.62120591155E+03  0.12699999809E+01 0. -1.
       -4    1    3    3    0  502 -0.29688720705E+02 -0.88912151245E+02 -0.10275627083E+04  0.10318301814E+04  0.12699999809E+01 0.  1.
</event>
<event>
 5   0  0.8037548E-05  0.1601845E+04  0.7818609E-02  0.8819416E-01
        2   -1    0    0  501    0  0.00000000000E+00  0.00000000000E+00  0.20112060069E+04  0.20112060069E+04  0.25500000920E-02 0.  1.
       -2   -1    0    0    0  501  0.00000000000E+00  0.00000000000E+00 -0.31895121228E+03  0.31895121229E+03  0.25500000920E-02 0. -1.
    10030    2    1    2    0    0  0.00000000000E+00  0.00000000000E+00  0.16922547946E+04  0.23301572192E+04  0.16018446792E+04 0.  0.
        5    1    3    3  502    0 -0.27246809806E+03  0.32640784854E+03 -0.14120062458E+03  0.44804090710E+03  0.46999998093E+01 0. -1.
       -5    1    3    3    0  502  0.27246809806E+03 -0.32640784854E+03  0.18334554192E+04  0.18821163121E+04  0.46999998093E+01 0.  1.
</event>
<event>
 5   0  0.7849690E-05  0.1602140E+04  0.7818609E-02  0.8819234E-01
       -2   -1    0    0    0  501  0.00000000000E+00  0.00000000000E+00  0.35667639137E+03  0.35667639138E+03  0.25500000920E-02 0. -1.
        2   -1    0    0  501    0  0.00000000000E+00  0.00000000000E+00 -0.17991472223E+04  0.17991472223E+04  0.25500000920E-02 0.  1.
    10030    2    1    2    0    0  0.00000000000E+00  0.00000000000E+00 -0.14424708309E+04  0.21558236137E+04  0.16021402420E+04 0.  0.
        3    1    3    3  502    0  0.17222874445E+03 -0.29886372218E+02  0.33070037225E+03  0.37405705723E+03  0.10100000352E+00 0. -1.
       -3    1    3    3    0  502 -0.17222874445E+03  0.29886372218E+02 -0.17731712032E+04  0.17817665564E+04  0.10100000352E+00 0.  1.
</event>
<event>
 5   0  0.4211419E-05  0.1599748E+04  0.7818609E-02  0.8820703E-01
       -1   -1    0    0    0  501  0.00000000000E+00  0.00000000000E+00  0.15457861083E+04  0.15457861083E+04  0.50400001928E-02 0.  1.
        1   -1    0    0  501    0  0.00000000000E+00  0.00000000000E+00 -0.41389844928E+03  0.41389844931E+03  0.50400001928E-02 0. -1.
    10030    2    1    2    0    0  0.00000000000E+00  0.00000000000E+00  0.11318876590E+04  0.19596845576E+04  0.15997480717E+04 0.  0.
        2    1    3    3  502    0 -0.49616095902E+02  0.30733836845E+03 -0.33663768285E+03  0.45852323737E+03  0.25500000920E-02 0. -1.
       -2    1    3    3    0  502  0.49616095902E+02 -0.30733836845E+03  0.14685253419E+04  0.15011613203E+04  0.25500000920E-02 0.  1.
</event>
<event>
 5   0  0.8037548E-05  0.1598958E+04  0.7818609E-02  0.8821188E-01
       -2   -1    0    0    0  501  0.00000000000E+00  0.00000000000E+00  0.35067135382E+03  0.35067135383E+03  0.25500000920E-02 0. -1.
        2   -1    0    0  501    0  0.00000000000E+00  0.00000000000E+00 -0.18226952284E+04  0.18226952284E+04  0.25500000920E-02 0.  1.
    10030    2    1    2    0    0  0.00000000000E+00  0.00000000000E+00 -0.14720238746E+04  0.21733665823E+04  0.15989584152E+04 0.  0.
        5    1    3    3  502    0  0.29211893480E+03  0.28439342728E+02 -0.17467984081E+04  0.17712902182E+04  0.46999998093E+01 0.  1.
       -5    1    3    3    0  502 -0.29211893480E+03 -0.28439342728E+02  0.27477453353E+03  0.40207636409E+03  0.46999998093E+01 0. -1.
</event>
<event>
 5   0  0.4314657E-05  0.1599589E+04  0.7818609E-02  0.8820801E-01
        1   -1    0    0  501    0  0.00000000000E+00  0.00000000000E+00  0.70496938485E+03  0.70496938486E+03  0.50400001928E-02 0. -1.
       -1   -1    0    0    0  501  0.00000000000E+00  0.00000000000E+00 -0.90737409780E+03  0.90737409781E+03  0.50400001928E-02 0.  1.
    10030    2    1    2    0    0  0.00000000000E+00  0.00000000000E+00 -0.20240471295E+03  0.16123434827E+04  0.15995886466E+04 0.  0.
        5    1    3    3  502    0  0.13204669731E+03 -0.51143208912E+02  0.69221898071E+03  0.70657000031E+03  0.46999998093E+01 0. -1.
       -5    1    3    3    0  502 -0.13204669731E+03  0.51143208912E+02 -0.89462369366E+03  0.90577348236E+03  0.46999998093E+01 0.  1.
</event>
<event>
 5   0  0.4314657E-05  0.1596556E+04  0.7818609E-02  0.8822666E-01
        1   -1    0    0  501    0  0.00000000000E+00  0.00000000000E+00  0.12561313435E+04  0.12561313436E+04  0.50400001928E-02 0.  1.
       -1   -1    0    0    0  501  0.00000000000E+00  0.00000000000E+00 -0.50730994364E+03  0.50730994366E+03  0.50400001928E-02 0. -1.
    10030    2    1    2    0    0  0.00000000000E+00  0.00000000000E+00  0.74882139991E+03  0.17634412872E+04  0.15965561952E+04 0.  0.
        5    1    3    3  502    0  0.41062701512E+03  0.25856785456E+03 -0.32568413420E+03  0.58443487766E+03  0.46999998093E+01 0. -1.
       -5    1    3    3    0  502 -0.41062701512E+03 -0.25856785456E+03  0.10745055341E+04  0.11790064096E+04  0.46999998093E+01 0.  1.
</event>
<event>
 5   0  0.4314657E-05  0.1599222E+04  0.7818609E-02  0.8821026E-01
       -1   -1    0    0    0  501  0.00000000000E+00  0.00000000000E+00  0.43036266352E+03  0.43036266355E+03  0.50400001928E-02 0.  1.
        1   -1    0    0  501    0  0.00000000000E+00  0.00000000000E+00 -0.14856714199E+04  0.14856714199E+04  0.50400001928E-02 0. -1.
    10030    2    1    2    0    0  0.00000000000E+00  0.00000000000E+00 -0.10553087563E+04  0.19160340834E+04  0.15992216975E+04 0.  0.
        5    1    3    3  502    0  0.18940787887E+03 -0.93743751750E+02  0.39627903254E+03  0.44913516584E+03  0.46999998093E+01 0.  1.
       -5    1    3    3    0  502 -0.18940787887E+03  0.93743751750E+02 -0.14515877889E+04  0.14668989176E+04  0.46999998093E+01 0. -1.
</event>
<event>
 5   0  0.4504463E-05  0.1600569E+04  0.7818609E-02  0.8820199E-01
        1   -1    0    0  501    0  0.00000000000E+00  0.00000000000E+00  0.14848288045E+04  0.14848288045E+04  0.50400001928E-02 0.  1.
       -1   -1    0    0    0  501  0.00000000000E+00  0.00000000000E+00 -0.43133253784E+03  0.43133253787E+03  0.50400001928E-02 0. -1.
    10030    2    1    2    0    0  0.00000000000E+00  0.00000000000E+00  0.10534962666E+04  0.19161613424E+04  0.16005686196E+04 0.  0.
        1    1    3    3  502    0 -0.53763161775E+03  0.59121875116E+03  0.47501120000E+03  0.92963595470E+03  0.50400001928E-02 0. -1.
       -1    1    3    3    0  502  0.53763161775E+03 -0.59121875116E+03  0.57848506665E+03  0.98652538765E+03  0.50400001928E-02 0.  1.
</event>
<event>
 5   0  0.7849690E-05  0.1599033E+04  0.7818609E-02  0.8821142E-01
        2   -1    0    0  501    0  0.00000000000E+00  0.00000000000E+00  0.53194771454E+03  0.53194771455E+03  0.25500000920E-02 0.  1.
       -2   -1    0    0    0  501  0.00000000000E+00  0.00000000000E+00 -0.12016717984E+04  0.12016717984E+04  0.25500000920E-02 0. -1.
    10030    2    1    2    0    0  0.00000000000E+00  0.00000000000E+00 -0.66972408384E+03  0.17336195129E+04  0.15990329162E+04 0.  0.
        3    1    3    3  502    0  0.48523899781E+03 -0.24996296071E+03  0.29850726370E+03  0.62212937835E+03  0.10100000352E+00 0.  1.
       -3    1    3    3    0  502 -0.48523899781E+03  0.24996296071E+03 -0.96823134753E+03  0.11114901346E+04  0.10100000352E+00 0. -1.
</event>
<event>
 5   0  0.3042125E-05  0.1600063E+04  0.7818609E-02  0.8820510E-01
        4   -1    0    0  501    0  0.00000000000E+00  0.00000000000E+00  0.36522576568E+03  0.36522797376E+03  0.12699999809E+01 0. -1.
       -4   -1    0    0    0  501  0.00000000000E+00  0.00000000000E+00 -0.17524703386E+04  0.17524707988E+04  0.12699999809E+01 0.  1.
    10030    2    1    2    0    0  0.00000000000E+00  0.00000000000E+00 -0.13872445729E+04  0.21176987725E+04  0.16000626819E+04 0.  0.
        4    1    3    3  502    0  0.46023760604E+03  0.42745516591E+02 -0.15578678558E+04  0.16249922161E+04  0.12699999809E+01 0.  1.
       -4    1    3    3    0  502 -0.46023760604E+03 -0.42745516591E+02  0.17062328292E+03  0.49270655646E+03  0.12699999809E+01 0. -1.
</event>
<event>
 5   0  0.4373026E-05  0.1598963E+04  0.7818609E-02  0.8821185E-01
        1   -1    0    0  501    0  0.00000000000E+00  0.00000000000E+00  0.49802494609E+03  0.49802494612E+03  0.50400001928E-02 0.  1.
       -1   -1    0    0    0  501  0.00000000000E+00  0.00000000000E+00 -0.12834111152E+04  0.12834111152E+04  0.50400001928E-02 0. -1.
    10030    2    1    2    0    0  0.00000000000E+00  0.00000000000E+00 -0.78538616912E+03  0.17814360613E+04  0.15989631034E+04 0.  0.
        4    1    3    3  502    0  0.52763178667E+03 -0.50394792823E+03 -0.75680794930E+03  0.10512462612E+04  0.12699999809E+01 0. -1.
       -4    1    3    3    0  502 -0.52763178667E+03  0.50394792823E+03 -0.28578219818E+02  0.73018980014E+03  0.12699999809E+01 0.  1.
</event>
<event>
 5   0  0.7901257E-05  0.1604374E+04  0.7818609E-02  0.8817866E-01
       -2   -1    0    0    0  501  0.00000000000E+00  0.00000000000E+00  0.56486050744E+03  0.56486050745E+03  0.25500000920E-02 0. -1.
        2   -1    0    0  501    0  0.00000000000E+00  0.00000000000E+00 -0.11392260248E+04  0.11392260248E+04  0.25500000920E-02 0.  1.
    10030    2    1    2    0    0  0.00000000000E+00  0.00000000000E+00 -0.57436551739E+03  0.17040865323E+04  0.16043737601E+04 0.  0.
        2    1    3    3  502    0 -0.26774084947E+02 -0.65903947078E+02 -0.11358693988E+04  0.11380946678E+04  0.25500000920E-02 0.  1.
       -2    1    3    3    0  502  0.26774084947E+02  0.65903947078E+02  0.56150388136E+03  0.56599186448E+03  0.25500000920E-02 0. -1.
</event>
<event>
 5   0  0.7901257E-05  0.1599981E+04  0.7818609E-02  0.8820560E-01
       -2   -1    0    0    0  501  0.00000000000E+00  0.00000000000E+00  0.31794274875E+03  0.31794274876E+03  0.25500000920E-02 0. -1.
        2   -1    0    0  501    0  0.00000000000E+00  0.00000000000E+00 -0.20128925180E+04  0.20128925180E+04  0.25500000920E-02 0.  1.
    10030    2    1    2    0    0  0.00000000000E+00  0.00000000000E+00 -0.16949497692E+04  0.23308352667E+04  0.15999807250E+04 0.  0.
        2    1    3    3  502    0 -0.63289220910E+02 -0.61622077540E+03 -0.11002990523E+03  0.62915828658E+03  0.25500000920E-02 0. -1.
       -2    1    3    3    0  502  0.63289220910E+02  0.61622077540E+03 -0.15849198640E+04  0.17016769801E+04  0.25500000920E-02 0.  1.
</event>
<event>
 5   0  0.4504463E-05  0.1598581E+04  0.7818609E-02  0.8821420E-01
       -1   -1    0    0    0  501  0.00000000000E+00  0.00000000000E+00  0.64345627312E+03  0.64345627314E+03  0.50400001928E-02 0.  1.
        1   -1    0    0  501    0  0.00000000000E+00  0.00000000000E+00 -0.99286523417E+03  0.99286523418E+03  0.50400001928E-02 0. -1.
    10030    2    1    2    0    0  0.00000000000E+00  0.00000000000E+00 -0.34940896105E+03  0.16363215073E+04  0.15985810750E+04 0.  0.
        1    1    3    3  502    0  0.22493099191E+03 -0.75794139318E+03 -0.54473994086E+02  0.79248755364E+03  0.50400001928E-02 0. -1.
       -1    1    3    3    0  502 -0.22493099191E+03  0.75794139318E+03 -0.29493496697E+03  0.84383395368E+03  0.50400001928E-02 0.  1.
</event>
<event>
 5   0  0.8037548E-05  0.1601864E+04  0.7818609E-02  0.8819403E-01
        2   -1    0    0  501    0  0.00000000000E+00  0.00000000000E+00  0.21970126447E+04  0.21970126447E+04  0.25500000920E-02 0.  1.
       -2   -1    0    0    0  501  0.00000000000E+00  0.00000000000E+00 -0.29198392572E+03  0.29198392573E+03  0.25500000920E-02 0. -1.
    10030    2    1    2    0    0  0.00000000000E+00  0.00000000000E+00  0.19050287189E+04  0.24889965704E+04  0.16018643848E+04 0.  0.
        5    1    3    3  502    0  0.31557094587E+03  0.71674451008E+03  0.69175811832E+03  0.10449206185E+04  0.46999998093E+01 0. -1.
       -5    1    3    3    0  502 -0.31557094587E+03 -0.71674451008E+03  0.12132706006E+04  0.14440759519E+04  0.46999998093E+01 0.  1.
</event>
<event>
 5   0  0.4256406E-05  0.1588493E+04  0.7818609E-02  0.8827649E-01
        1   -1    0    0  501    0  0.00000000000E+00  0.00000000000E+00  0.10293899803E+04  0.10293899803E+04  0.50400001928E-02 0.  1.
       -1   -1    0    0    0  501  0.00000000000E+00  0.00000000000E+00 -0.61281674672E+03  0.61281674674E+03  0.50400001928E-02 0. -1.
    10030    2    1    2    0    0  0.00000000000E+00  0.00000000000E+00  0.41657323359E+03  0.16422067271E+04  0.15884928944E+04 0.  0.
        3    1    3    3  502    0  0.26448645844E+03 -0.64873822254E+03 -0.17854930299E+03  0.72297595526E+03  0.10100000352E+00 0. -1.
       -3    1    3    3    0  502 -0.26448645844E+03  0.64873822254E+03  0.59512253659E+03  0.91923077180E+03  0.10100000352E+00 0.  1.
</event>
<event>
 5   0  0.8620155E-05  0.1598645E+04  0.7818609E-02  0.8821381E-01
       -2   -1    0    0    0  501  0.00000000000E+00  0.00000000000E+00  0.69147551038E+03  0.69147551039E+03  0.25500000920E-02 0. -1.
        2   -1    0    0  501    0  0.00000000000E+00  0.00000000000E+00 -0.92399041060E+03  0.92399041060E+03  0.25500000920E-02 0.  1.
    10030    2    1    2    0    0  0.00000000000E+00  0.00000000000E+00 -0.23251490021E+03  0.16154659210E+04  0.15986453525E+04 0.  0.
        4    1    3    3  502    0 -0.15496703682E+03  0.45322724074E+03 -0.76290090996E+03  0.90080471001E+03  0.12699999809E+01 0.  1.
       -4    1    3    3    0  502  0.15496703682E+03 -0.45322724074E+03  0.53038600975E+03  0.71466121098E+03  0.12699999809E+01 0. -1.
</event>
<event>
 5   0  0.3042125E-05  0.1599519E+04  0.7818609E-02  0.8820843E-01
        3   -1    0    0  501    0  0.00000000000E+00  0.00000000000E+00  0.42637219010E+03  0.42637220206E+03  0.10100000352E+00 0.  1.
       -3   -1    0    0    0  501  0.00000000000E+00  0.00000000000E+00 -0.15001342663E+04  0.15001342697E+04  0.10100000352E+00 0. -1.
    10030    2    1    2    0    0  0.00000000000E+00  0.00000000000E+00 -0.10737620762E+04  0.19265064718E+04  0.15995193620E+04 0.  0.
        3    1    3    3  502    0 -0.18984053133E+03  0.10518749156E+03 -0.14639871338E+04  0.14799872208E+04  0.10100000352E+00 0. -1.
       -3    1    3    3    0  502  0.18984053133E+03 -0.10518749156E+03  0.39022505757E+03  0.44651925095E+03  0.10100000352E+00 0.  1.
</event>
<event>
 5   0  0.3042125E-05  0.1596645E+04  0.7818609E-02  0.8822612E-01
       -4   -1    0    0    0  501  0.00000000000E+00  0.00000000000E+00  0.75414886870E+03  0.75414993805E+03  0.12699999809E+01 0.  1.
        4   -1    0    0  501    0  0.00000000000E+00  0.00000000000E+00 -0.84508097836E+03  0.84508193264E+03  0.12699999809E+01 0. -1.
    10030    2    1    2    0    0  0.00000000000E+00  0.00000000000E+00 -0.90932109655E+02  0.15992318707E+04  0.15966445840E+04 0.  0.
        4    1    3    3  502    0  0.36727126241E+03 -0.17098642931E+03  0.64353840360E+03  0.76043923426E+03  0.12699999809E+01 0.  1.
       -4    1    3    3    0  502 -0.36727126241E+03  0.17098642931E+03 -0.73447051326E+03  0.83879263644E+03  0.12699999809E+01 0. -1.
</event>
<event>
 5   0  0.4504463E-05  0.1596869E+04  0.7818609E-02  0.8822474E-01
       -1   -1    0    0    0  501  0.00000000000E+00  0.00000000000E+00  0.13356394851E+04  0.13356394851E+04  0.50400001928E-02 0. -1.
        1   -1    0    0  501    0  0.00000000000E+00  0.00000000000E+00 -0.47729755521E+03  0.47729755524E+03  0.50400001928E-02 0.  1.
    10030    2    1    2    0    0  0.00000000000E+00  0.00000000000E+00  0.85834192993E+03  0.18129370404E+04  0.15968687622E+04 0.  0.
        1    1    3    3  502    0  0.76519602536E+03 -0.12299002370E+03  0.64709665094E+03  0.10096462642E+04  0.50400001928E-02 0. -1.
       -1    1    3    3    0  502 -0.76519602536E+03  0.12299002370E+03  0.21124527899E+03  0.80329077617E+03  0.50400001928E-02 0.  1.
</event>
<event>
 5   0  0.4504463E-05  0.1596417E+04  0.7818609E-02  0.8822752E-01
       -1   -1    0    0    0  501  0.00000000000E+00  0.00000000000E+00  0.47684110648E+03  0.47684110651E+03  0.50400001928E-02 0.  1.
        1   -1    0    0  501    0  0.00000000000E+00  0.00000000000E+00 -0.13361615084E+04  0.13361615084E+04  0.50400001928E-02 0. -1.
    10030    2    1    2    0    0  0.00000000000E+00  0.00000000000E+00 -0.85932040194E+03  0.18130026149E+04  0.15964169031E+04 0.  0.
        1    1    3    3  502    0 -0.41512184625E+03 -0.37448454254E+03  0.21734471446E+03  0.59983626496E+03  0.50400001928E-02 0.  1.
       -1    1    3    3    0  502  0.41512184625E+03  0.37448454254E+03 -0.10766651164E+04  0.12131663500E+04  0.50400001928E-02 0. -1.
</event>
<event>
 5   0  0.4256406E-05  0.1605427E+04  0.7818609E-02  0.8817221E-01
       -1   -1    0    0    0  501  0.00000000000E+00  0.00000000000E+00  0.75529321563E+03  0.75529321565E+03  0.50400001928E-02 0. -1.
        1   -1    0    0  501    0  0.00000000000E+00  0.00000000000E+00 -0.85311060556E+03  0.85311060557E+03  0.50400001928E-02 0.  1.
    10030    2    1    2    0    0  0.00000000000E+00  0.00000000000E+00 -0.97817389924E+02  0.16084038212E+04  0.16054266132E+04 0.  0.
        3    1    3    3  502    0  0.46457445604E+03  0.27916442390E+03 -0.64211013470E+03  0.84027830870E+03  0.10100000352E+00 0.  1.
       -3    1    3    3    0  502 -0.46457445604E+03 -0.27916442390E+03  0.54429274478E+03  0.76812551253E+03  0.10100000352E+00 0. -1.
</event>
<event>
 5   0  0.8620155E-05  0.1600087E+04  0.7818609E-02  0.8820494E-01
       -2   -1    0    0    0  501  0.00000000000E+00  0.00000000000E+00  0.58976467838E+03  0.58976467838E+03  0.25500000920E-02 0.  1.
        2   -1    0    0  501    0  0.00000000000E+00  0.00000000000E+00 -0.10852972335E+04  0.10852972335E+04  0.25500000920E-02 0. -1.
    10030    2    1    2    0    0  0.00000000000E+00  0.00000000000E+00 -0.49553255508E+03  0.16750619119E+04  0.16000874649E+04 0.  0.
        4    1    3    3  502    0 -0.59899114246E+02 -0.66764679544E+03 -0.70495405481E+03  0.97278054033E+03  0.12699999809E+01 0. -1.
       -4    1    3    3    0  502  0.59899114246E+02  0.66764679544E+03  0.20942149973E+03  0.70228137152E+03  0.12699999809E+01 0.  1.
</event>
<event>
 5   0  0.8694033E-05  0.1600889E+04  0.7818609E-02  0.8820002E-01
       -2   -1    0    0    0  501  0.00000000000E+00  0.00000000000E+00  0.47634687497E+03  0.47634687497E+03  0.25500000920E-02 0.  1.
        2   -1    0    0  501    0  0.00000000000E+00  0.00000000000E+00 -0.13450518535E+04  0.13450518535E+04  0.25500000920E-02 0. -1.
    10030    2    1    2    0    0  0.00000000000E+00  0.00000000000E+00 -0.86870497855E+03  0.18213987285E+04  0.16008888120E+04 0.  0.
        1    1    3    3  502    0  0.77168393551E+03 -0.21083355089E+03 -0.40289716724E+03  0.89569694087E+03  0.50400001928E-02 0.  1.
       -1    1    3    3    0  502 -0.77168393551E+03  0.21083355089E+03 -0.46580781132E+03  0.92570178762E+03  0.50400001928E-02 0. -1.
</event>
<event>
 5   0  0.3042125E-05  0.1594492E+04  0.7818609E-02  0.8823939E-01
        4   -1    0    0  501    0  0.00000000000E+00  0.00000000000E+00  0.46844175769E+03  0.46844347924E+03  0.12699999809E+01 0.  1.
       -4   -1    0    0    0  501  0.00000000000E+00  0.00000000000E+00 -0.13568362408E+04  0.13568368352E+04  0.12699999809E+01 0. -1.
    10030    2    1    2    0    0  0.00000000000E+00  0.00000000000E+00 -0.88839448316E+03  0.18252803144E+04  0.15944916019E+04 0.  0.
        4    1    3    3  502    0  0.42760606309E+03  0.24116301034E+03  0.27489046367E+03  0.56264813397E+03  0.12699999809E+01 0.  1.
       -4    1    3    3    0  502 -0.42760606309E+03 -0.24116301034E+03 -0.11632849468E+04  0.12626321805E+04  0.12699999809E+01 0. -1.
</event>
<event>
 5   0  0.4211419E-05  0.1599630E+04  0.7818609E-02  0.8820776E-01
       -1   -1    0    0    0  501  0.00000000000E+00  0.00000000000E+00  0.60045683153E+03  0.60045683155E+03  0.50400001928E-02 0.  1.
        1   -1    0    0  501    0  0.00000000000E+00  0.00000000000E+00 -0.10653617458E+04  0.10653617459E+04  0.50400001928E-02 0. -1.
    10030    2    1    2    0    0  0.00000000000E+00  0.00000000000E+00 -0.46490491431E+03  0.16658185774E+04  0.15996296301E+04 0.  0.
        2    1    3    3  502    0 -0.26208697558E+03 -0.15425386933E+03 -0.10028044352E+04  0.10479029412E+04  0.25500000920E-02 0. -1.
       -2    1    3    3    0  502  0.26208697558E+03  0.15425386933E+03  0.53789952084E+03  0.61791563623E+03  0.25500000920E-02 0.  1.
</event>
<event>
 5   0  0.4314657E-05  0.1598092E+04  0.7818609E-02  0.8821721E-01
       -1   -1    0    0    0  501  0.00000000000E+00  0.00000000000E+00  0.33261354198E+03  0.33261354202E+03  0.50400001928E-02 0. -1.
        1   -1    0    0  501    0  0.00000000000E+00  0.00000000000E+00 -0.19195692182E+04  0.19195692182E+04  0.50400001928E-02 0.  1.
    10030    2    1    2    0    0  0.00000000000E+00  0.00000000000E+00 -0.15869556762E+04  0.22521827602E+04  0.15980922586E+04 0.  0.
        5    1    3    3  502    0 -0.34309583479E+03 -0.26705589776E+03  0.15129523583E+03  0.46037587118E+03  0.46999998093E+01 0. -1.
       -5    1    3    3    0  502  0.34309583479E+03  0.26705589776E+03 -0.17382509120E+04  0.17918068890E+04  0.46999998093E+01 0.  1.
</event>
<event>
 5   0  0.8620155E-05  0.1601543E+04  0.7818609E-02  0.8819600E-01
        2   -1    0    0  501    0  0.00000000000E+00  0.00000000000E+00  0.97633152796E+03  0.97633152797E+03  0.25500000920E-02 0. -1.
       -2   -1    0    0    0  501  0.00000000000E+00  0.00000000000E+00 -0.65678029291E+03  0.65678029292E+03  0.25500000920E-02 0.  1.
    10030    2    1    2    0    0  0.00000000000E+00  0.00000000000E+00  0.31955123505E+03  0.16331118209E+04  0.16015433893E+04 0.  0.
        4    1    3    3  502    0 -0.59569882685E+03 -0.46236005698E+03 -0.11497891392E+03  0.76279465005E+03  0.12699999809E+01 0.  1.
       -4    1    3    3    0  502  0.59569882685E+03  0.46236005698E+03  0.43453014897E+03  0.87031717084E+03  0.12699999809E+01 0. -1.
</event>
<event>
 5   0  0.4256406E-05  0.1617717E+04  0.7818609E-02  0.8809737E-01
       -1   -1    0    0    0  501  0.00000000000E+00  0.00000000000E+00  0.56240886129E+03  0.56240886131E+03  0.50400001928E-02 0.  1.
        1   -1    0    0  501    0  0.00000000000E+00  0.00000000000E+00 -0.11633035357E+04  0.11633035357E+04  0.50400001928E-02 0. -1.
    10030    2    1    2    0    0  0.00000000000E+00  0.00000000000E+00 -0.60089467439E+03  0.17257123970E+04  0.16177171778E+04 0.  0.
        3    1    3    3  502    0 -0.71906704291E+03 -0.28900784074E+03 -0.54757913890E+03  0.94890772353E+03  0.10100000352E+00 0.  1.
       -3    1    3    3    0  502  0.71906704291E+03  0.28900784074E+03 -0.53315535485E+02  0.77680467347E+03  0.10100000352E+00 0. -1.
</event>
<event>
 5   0  0.8620155E-05  0.1605271E+04  0.7818609E-02  0.8817316E-01
       -2   -1    0    0    0  501  0.00000000000E+00  0.00000000000E+00  0.42528503263E+03  0.42528503264E+03  0.25500000920E-02 0.  1.
        2   -1    0    0  501    0  0.00000000000E+00  0.00000000000E+00 -0.15148050698E+04  0.15148050698E+04  0.25500000920E-02 0. -1.
    10030    2    1    2    0    0  0.00000000000E+00  0.00000000000E+00 -0.10895200372E+04  0.19400901024E+04  0.16052712214E+04 0.  0.
        4    1    3    3  502    0  0.79143652765E+03  0.12111066674E+03 -0.47657734218E+03  0.93175487489E+03  0.12699999809E+01 0.  1.
       -4    1    3    3    0  502 -0.79143652765E+03 -0.12111066674E+03 -0.61294269499E+03  0.10083352276E+04  0.12699999809E+01 0. -1.
</event>
<event>
 5   0  0.4256406E-05  0.1600381E+04  0.7818609E-02  0.8820314E-01
       -1   -1    0    0    0  501  0.00000000000E+00  0.00000000000E+00  0.54547224672E+03  0.54547224674E+03  0.50400001928E-02 0.  1.
        1   -1    0    0  501    0  0.00000000000E+00  0.00000000000E+00 -0.11738544185E+04  0.11738544185E+04  0.50400001928E-02 0. -1.
    10030    2    1    2    0    0  0.00000000000E+00  0.00000000000E+00 -0.62838217175E+03  0.17193266652E+04  0.16003812133E+04 0.  0.
        3    1    3    3  502    0 -0.29975373808E+02 -0.14128644922E+03 -0.11597350513E+04  0.11686940503E+04  0.10100000352E+00 0. -1.
       -3    1    3    3    0  502  0.29975373808E+02  0.14128644922E+03  0.53135287957E+03  0.55063261491E+03  0.10100000352E+00 0.  1.
</event>
<event>
 5   0  0.4504463E-05  0.1601903E+04  0.7818609E-02  0.8819380E-01
       -1   -1    0    0    0  501  0.00000000000E+00  0.00000000000E+00  0.69532743198E+03  0.69532743200E+03  0.50400001928E-02 0.  1.
        1   -1    0    0  501    0  0.00000000000E+00  0.00000000000E+00 -0.92262072846E+03  0.92262072847E+03  0.50400001928E-02 0. -1.
    10030    2    1    2    0    0  0.00000000000E+00  0.00000000000E+00 -0.22729329648E+03  0.16179481605E+04  0.16019032453E+04 0.  0.
        1    1    3    3  502    0  0.55710911712E+03  0.29490377686E+03 -0.61274661618E+03  0.87908885879E+03  0.50400001928E-02 0. -1.
       -1    1    3    3    0  502 -0.55710911712E+03 -0.29490377686E+03  0.38545331970E+03  0.73885930168E+03  0.50400001928E-02 0.  1.
</event>
<event>
 5   0  0.8620155E-05  0.1599252E+04  0.7818609E-02  0.8821008E-01
        2   -1    0    0  501    0  0.00000000000E+00  0.00000000000E+00  0.67175059319E+03  0.67175059320E+03  0.25500000920E-02 0. -1.
       -2   -1    0    0    0  501  0.00000000000E+00  0.00000000000E+00 -0.95184403973E+03  0.95184403973E+03  0.25500000920E-02 0.  1.
    10030    2    1    2    0    0  0.00000000000E+00  0.00000000000E+00 -0.28009344654E+03  0.16235946329E+04  0.15992520731E+04 0.  0.
        4    1    3    3  502    0 -0.32887011520E+03 -0.15422052188E+02 -0.87984058431E+03  0.93942240715E+03  0.12699999809E+01 0.  1.
       -4    1    3    3    0  502  0.32887011520E+03  0.15422052188E+02  0.59974713777E+03  0.68417222578E+03  0.12699999809E+01 0. -1.
</event>
<event>
 5   0  0.8694033E-05  0.1593558E+04  0.7818609E-02  0.8824515E-01
       -2   -1    0    0    0  501  0.00000000000E+00  0.00000000000E+00  0.36023736904E+03  0.36023736905E+03  0.25500000920E-02 0.  1.
        2   -1    0    0  501    0  0.00000000000E+00  0.00000000000E+00 -0.17623291148E+04  0.17623291148E+04  0.25500000920E-02 0. -1.
    10030    2    1    2    0    0  0.00000000000E+00  0.00000000000E+00 -0.14020917458E+04  0.21225664839E+04  0.15935580362E+04 0.  0.
        1    1    3    3  502    0 -0.66160569079E+02 -0.14025349911E+02  0.35640736233E+03  0.36276733493E+03  0.50400001928E-02 0.  1.
       -1    1    3    3    0  502  0.66160569079E+02  0.14025349911E+02 -0.17584991081E+04  0.17597991489E+04  0.50400001928E-02 0. -1.
</event>
<event>
 5   0  0.7901257E-05  0.1602097E+04  0.7818609E-02  0.8819261E-01
       -2   -1    0    0    0  501  0.00000000000E+00  0.00000000000E+00  0.32475318897E+03  0.32475318898E+03  0.25500000920E-02 0. -1.
        2   -1    0    0  501    0  0.00000000000E+00  0.00000000000E+00 -0.19758966061E+04  0.19758966061E+04  0.25500000920E-02 0.  1.
    10030    2    1    2    0    0  0.00000000000E+00  0.00000000000E+00 -0.16511434171E+04  0.23006497950E+04  0.16020970306E+04 0.  0.
        2    1    3    3  502    0  0.53303168544E+03  0.57990086755E+03 -0.10350094468E+04  0.13006353635E+04  0.25500000920E-02 0.  1.
       -2    1    3    3    0  502 -0.53303168544E+03 -0.57990086755E+03 -0.61613397025E+03  0.10000144315E+04  0.25500000920E-02 0. -1.
</event>
<event>
 5   0  0.8620155E-05  0.1601018E+04  0.7818609E-02  0.8819923E-01
       -2   -1    0    0    0  501  0.00000000000E+00  0.00000000000E+00  0.51270665230E+03  0.51270665231E+03  0.25500000920E-02 0.  1.
        2   -1    0    0  501    0  0.00000000000E+00  0.00000000000E+00 -0.12498659696E+04  0.12498659696E+04  0.25500000920E-02 0. -1.
    10030    2    1    2    0    0  0.00000000000E+00  0.00000000000E+00 -0.73715931730E+03  0.17625726219E+04  0.16010179226E+04 0.  0.
        4    1    3    3  502    0  0.11111127706E+03  0.78139321676E+03 -0.51583775029E+03  0.94287394312E+03  0.12699999809E+01 0. -1.
       -4    1    3    3    0  502 -0.11111127706E+03 -0.78139321676E+03 -0.22132156700E+03  0.81969867879E+03  0.12699999809E+01 0.  1.
</event>
<event>
 5   0  0.4504463E-05  0.1591700E+04  0.7818609E-02  0.8825663E-01
        1   -1    0    0  501    0  0.00000000000E+00  0.00000000000E+00  0.10458705444E+04  0.10458705445E+04  0.50400001928E-02 0.  1.
       -1   -1    0    0    0  501  0.00000000000E+00  0.00000000000E+00 -0.60559824761E+03  0.60559824763E+03  0.50400001928E-02 0. -1.
    10030    2    1    2    0    0  0.00000000000E+00  0.00000000000E+00  0.44027229683E+03  0.16514687921E+04  0.15917001840E+04 0.  0.
        1    1    3    3  502    0  0.35165653999E+03 -0.71146161039E+03  0.15842656002E+03  0.80928296665E+03  0.50400001928E-02 0.  1.
       -1    1    3    3    0  502 -0.35165653999E+03  0.71146161039E+03  0.28184573681E+03  0.84218582543E+03  0.50400001928E-02 0. -1.
</event>
<event>
 5   0  0.4256406E-05  0.1611842E+04  0.7818609E-02  0.8813306E-01
       -1   -1    0    0    0  501  0.00000000000E+00  0.00000000000E+00  0.11103514649E+04  0.11103514649E+04  0.50400001928E-02 0. -1.
        1   -1    0    0  501    0  0.00000000000E+00  0.00000000000E+00 -0.58495787757E+03  0.58495787760E+03  0.50400001928E-02 0.  1.
    10030    2    1    2    0    0  0.00000000000E+00  0.00000000000E+00  0.52539358730E+03  0.16953093425E+04  0.16118422209E+04 0.  0.
        3    1    3    3  502    0 -0.22916841216E+03 -0.44470796744E+02 -0.54861849452E+03  0.59621982156E+03  0.10100000352E+00 0.  1.
       -3    1    3    3    0  502  0.22916841216E+03  0.44470796744E+02  0.10740120818E+04  0.10990895209E+04  0.10100000352E+00 0. -1.
</event>
<event>
 5   0  0.7901257E-05  0.1600307E+04  0.7818609E-02  0.8820360E-01
        2   -1    0    0  501    0  0.00000000000E+00  0.00000000000E+00  0.10996795501E+04  0.10996795501E+04  0.25500000920E-02 0. -1.
       -2   -1    0    0    0  501  0.00000000000E+00  0.00000000000E+00 -0.58221093317E+03  0.58221093318E+03  0.25500000920E-02 0.  1.
    10030    2    1    2    0    0  0.00000000000E+00  0.00000000000E+00  0.51746861689E+03  0.16818904832E+04  0.16003067919E+04 0.  0.
        2    1    3    3  502    0 -0.37903057034E+03 -0.47789804233E+03 -0.28554220826E+03  0.67348724176E+03  0.25500000920E-02 0.  1.
       -2    1    3    3    0  502  0.37903057034E+03  0.47789804233E+03  0.80301082515E+03  0.10084032415E+04  0.25500000920E-02 0. -1.
</event>
<event>
 5   0  0.4211419E-05  0.1599662E+04  0.7818609E-02  0.8820756E-01
        1   -1    0    0  501    0  0.00000000000E+00  0.00000000000E+00  0.82812597435E+03  0.82812597437E+03  0.50400001928E-02 0.  1.
       -1   -1    0    0    0  501  0.00000000000E+00  0.00000000000E+00 -0.77250287777E+03  0.77250287778E+03  0.50400001928E-02 0. -1.
    10030    2    1    2    0    0  0.00000000000E+00  0.00000000000E+00  0.55623096583E+02  0.16006288522E+04  0.15996620873E+04 0.  0.
        2    1    3    3  502    0  0.70668357275E+02  0.53516715577E+03  0.61836464231E+03  0.82083660506E+03  0.25500000920E-02 0.  1.
       -2    1    3    3    0  502 -0.70668357275E+02 -0.53516715577E+03 -0.56274154572E+03  0.77979224709E+03  0.25500000920E-02 0. -1.
</event>
<event>
 5   0  0.4373026E-05  0.1593615E+04  0.7818609E-02  0.8824480E-01
       -1   -1    0    0    0  501  0.00000000000E+00  0.00000000000E+00  0.34642674328E+03  0.34642674332E+03  0.50400001928E-02 0.  1.
        1   -1    0    0  501    0  0.00000000000E+00  0.00000000000E+00 -0.18327170417E+04  0.18327170418E+04  0.50400001928E-02 0. -1.
    10030    2    1    2    0    0  0.00000000000E+00  0.00000000000E+00 -0.14862902985E+04  0.21791437851E+04  0.15936150052E+04 0.  0.
        4    1    3    3  502    0  0.70147530406E+03 -0.37787920294E+03 -0.75182467635E+03  0.10954917850E+04  0.12699999809E+01 0.  1.
       -4    1    3    3    0  502 -0.70147530406E+03  0.37787920294E+03 -0.73446562211E+03  0.10836520000E+04  0.12699999809E+01 0. -1.
</event>
<event>
 5   0  0.4373026E-05  0.1597700E+04  0.7818609E-02  0.8821962E-01
        1   -1    0    0  501    0  0.00000000000E+00  0.00000000000E+00  0.12092108438E+04  0.12092108439E+04  0.50400001928E-02 0. -1.
       -1   -1    0    0    0  501  0.00000000000E+00  0.00000000000E+00 -0.52775013152E+03  0.52775013154E+03  0.50400001928E-02 0.  1.
    10030    2    1    2    0    0  0.00000000000E+00  0.00000000000E+00  0.68146071233E+03  0.17369609754E+04  0.15976998240E+04 0.  0.
        4    1    3    3  502    0  0.18336446630E+02 -0.68962747534E+03  0.77862558584E+03  0.10402796239E+04  0.12699999809E+01 0. -1.
       -4    1    3    3    0  502 -0.18336446630E+02  0.68962747534E+03 -0.97164873511E+02  0.69668135153E+03  0.12699999809E+01 0.  1.
</event>
<event>
 5   0  0.7901257E-05  0.1601939E+04  0.7818609E-02  0.8819358E-01
       -2   -1    0    0    0  501  0.00000000000E+00  0.00000000000E+00  0.43066358349E+03  0.43066358350E+03  0.25500000920E-02 0.  1.
        2   -1    0    0  501    0  0.00000000000E+00  0.00000000000E+00 -0.14896831981E+04  0.14896831981E+04  0.25500000920E-02 0. -1.
    10030    2    1    2    0    0  0.00000000000E+00  0.00000000000E+00 -0.10590196146E+04  0.19203467816E+04  0.16019392053E+04 0.  0.
        2    1    3    3  502    0  0.14990075604E+02  0.58346011785E+03 -0.11870860154E+04  0.13228089883E+04  0.25500000920E-02 0. -1.
       -2    1    3    3    0  502 -0.14990075604E+02 -0.58346011785E+03  0.12806640076E+03  0.59753779336E+03  0.25500000920E-02 0.  1.
</event>
<event>
 5   0  0.4504463E-05  0.1600051E+04  0.7818609E-02  0.8820517E-01
        1   -1    0    0  501    0  0.00000000000E+00  0.00000000000E+00  0.18788125897E+04  0.18788125898E+04  0.50400001928E-02 0.  1.
       -1   -1    0    0    0  501  0.00000000000E+00  0.00000000000E+00 -0.34066243376E+03  0.34066243380E+03  0.50400001928E-02 0. -1.
    10030    2    1    2    0    0  0.00000000000E+00  0.00000000000E+00  0.15381501560E+04  0.22194750236E+04  0.16000510860E+04 0.  0.
        1    1    3    3  502    0 -0.14589789402E+03  0.37868794928E+03  0.17254390632E+04  0.17725210067E+04  0.50400001928E-02 0.  1.
       -1    1    3    3    0  502  0.14589789402E+03 -0.37868794928E+03 -0.18728890719E+03  0.44695401686E+03  0.50400001928E-02 0. -1.
</event>
<event>
 5   0  0.7901257E-05  0.1597750E+04  0.7818609E-02  0.8821931E-01
        2   -1    0    0  501    0  0.00000000000E+00  0.00000000000E+00  0.18279926123E+04  0.18279926123E+04  0.25500000920E-02 0.  1.
       -2   -1    0    0    0  501  0.00000000000E+00  0.00000000000E+00 -0.34912698184E+03  0.34912698185E+03  0.25500000920E-02 0. -1.
    10030    2    1    2    0    0  0.00000000000E+00  0.00000000000E+00  0.14788656305E+04  0.21771195942E+04  0.15977503479E+04 0.  0.
        2    1    3    3  502    0  0.14916910694E+02  0.28771767102E+03  0.17547392635E+04  0.17782333524E+04  0.25500000920E-02 0.  1.
       -2    1    3    3    0  502 -0.14916910694E+02 -0.28771767102E+03 -0.27587363309E+03  0.39888624178E+03  0.25500000920E-02 0. -1.
</event>
<event>
 5   0  0.7901257E-05  0.1599049E+04  0.7818609E-02  0.8821133E-01
       -2   -1    0    0    0  501  0.00000000000E+00  0.00000000000E+00  0.41563386424E+03  0.41563386425E+03  0.25500000920E-02 0.  1.
        2   -1    0    0  501    0  0.00000000000E+00  0.00000000000E+00 -0.15379867253E+04  0.15379867253E+04  0.25500000920E-02 0. -1.
    10030    2    1    2    0    0  0.00000000000E+00  0.00000000000E+00 -0.11223528611E+04  0.19536205896E+04  0.15990489246E+04 0.  0.
        2    1    3    3  502    0  0.52363115517E+03  0.51230252450E+03 -0.95250673449E+03  0.12016291202E+04  0.25500000920E-02 0. -1.
       -2    1    3    3    0  502 -0.52363115517E+03 -0.51230252450E+03 -0.16984612660E+03  0.75199146937E+03  0.25500000920E-02 0.  1.
</event>
<event>
 5   0  0.7901257E-05  0.1589772E+04  0.7818609E-02  0.8826856E-01
        2   -1    0    0  501    0  0.00000000000E+00  0.00000000000E+00  0.23347608491E+04  0.23347608491E+04  0.25500000920E-02 0.  1.
       -2   -1    0    0    0  501  0.00000000000E+00  0.00000000000E+00 -0.27062469632E+03  0.27062469633E+03  0.25500000920E-02 0. -1.
    10030    2    1    2    0    0  0.00000000000E+00  0.00000000000E+00  0.20641361528E+04  0.26053855455E+04  0.15897722425E+04 0.  0.
        2    1    3    3  502    0 -0.21611394466E+02  0.78143847178E+03  0.12680317814E+04  0.14896367800E+04  0.25500000920E-02 0. -1.
       -2    1    3    3    0  502  0.21611394466E+02 -0.78143847178E+03  0.79610437140E+03  0.11157487655E+04  0.25500000920E-02 0.  1.
</event>
<event>
 5   0  0.8694033E-05  0.1601368E+04  0.7818609E-02  0.8819708E-01
        2   -1    0    0  501    0  0.00000000000E+00  0.00000000000E+00  0.76495396179E+03  0.76495396180E+03  0.25500000920E-02 0. -1.
       -2   -1    0    0    0  501  0.00000000000E+00  0.00000000000E+00 -0.83808270571E+03  0.83808270571E+03  0.25500000920E-02 0.  1.
    10030    2    1    2    0    0  0.00000000000E+00  0.00000000000E+00 -0.73128743918E+02  0.16030366675E+04  0.16013677729E+04 0.  0.
        1    1    3    3  502    0 -0.39196078527E+03  0.42976150370E+03 -0.58738001698E+03  0.82664592882E+03  0.50400001928E-02 0.  1.
       -1    1    3    3    0  502  0.39196078527E+03 -0.42976150370E+03  0.51425127306E+03  0.77639073869E+03  0.50400001928E-02 0. -1.
</event>
<event>
 5   0  0.4211419E-05  0.1599988E+04  0.7818609E-02  0.8820556E-01
        1   -1    0    0  501    0  0.00000000000E+00  0.00000000000E+00  0.72609890426E+03  0.72609890428E+03  0.50400001928E-02 0.  1.
       -1   -1    0    0    0  501  0.00000000000E+00  0.00000000000E+00 -0.88140889522E+03  0.88140889523E+03  0.50400001928E-02 0. -1.
    10030    2    1    2    0    0  0.00000000000E+00  0.00000000000E+00 -0.15530999096E+03  0.16075077995E+04  0.15999875413E+04 0.  0.
        2    1    3    3  502    0 -0.11245855328E+03  0.14254877622E+03 -0.86043377627E+03  0.87938237596E+03  0.25500000920E-02 0. -1.
       -2    1    3    3    0  502  0.11245855328E+03 -0.14254877622E+03  0.70512378531E+03  0.72812542355E+03  0.25500000920E-02 0.  1.
</event>
<event>
 5   0  0.8620155E-05  0.1602062E+04  0.7818609E-02  0.8819282E-01
       -2   -1    0    0    0  501  0.00000000000E+00  0.00000000000E+00  0.57297448480E+03  0.57297448481E+03  0.25500000920E-02 0.  1.
        2   -1    0    0  501    0  0.00000000000E+00  0.00000000000E+00 -0.11198592308E+04  0.11198592308E+04  0.25500000920E-02 0. -1.
    10030    2    1    2    0    0  0.00000000000E+00  0.00000000000E+00 -0.54688474602E+03  0.16928337156E+04  0.16020621284E+04 0.  0.
        4    1    3    3  502    0  0.67779110848E+03  0.21049262769E+03 -0.66589024381E+03  0.97320057684E+03  0.12699999809E+01 0. -1.
       -4    1    3    3    0  502 -0.67779110848E+03 -0.21049262769E+03  0.11900549779E+03  0.71963313880E+03  0.12699999809E+01 0.  1.
</event>
<event>
 5   0  0.8037548E-05  0.1599829E+04  0.7818609E-02  0.8820653E-01
       -2   -1    0    0    0  501  0.00000000000E+00  0.00000000000E+00  0.36019232952E+03  0.36019232953E+03  0.25500000920E-02 0. -1.
        2   -1    0    0  501    0  0.00000000000E+00  0.00000000000E+00 -0.17764491190E+04  0.17764491190E+04  0.25500000920E-02 0.  1.
    10030    2    1    2    0    0  0.00000000000E+00  0.00000000000E+00 -0.14162567895E+04  0.21366414485E+04  0.15998291740E+04 0.  0.
        5    1    3    3  502    0 -0.69232389262E+03 -0.66925032625E+01 -0.17310344488E+03  0.71368344139E+03  0.46999998093E+01 0. -1.
       -5    1    3    3    0  502  0.69232389262E+03  0.66925032625E+01 -0.12431533446E+04  0.14229580071E+04  0.46999998093E+01 0.  1.
</event>
<event>
 5   0  0.4256406E-05  0.1599182E+04  0.7818609E-02  0.8821051E-01
       -1   -1    0    0    0  501  0.00000000000E+00  0.00000000000E+00  0.72491525481E+03  0.72491525483E+03  0.50400001928E-02 0. -1.
        1   -1    0    0  501    0  0.00000000000E+00  0.00000000000E+00 -0.88195889911E+03  0.88195889912E+03  0.50400001928E-02 0.  1.
    10030    2    1    2    0    0  0.00000000000E+00  0.00000000000E+00 -0.15704364430E+03  0.16068741539E+04  0.15991816158E+04 0.  0.
        3    1    3    3  502    0 -0.15923526380E+03 -0.30110215427E+03 -0.80541514282E+03  0.87447809522E+03  0.10100000352E+00 0.  1.
       -3    1    3    3    0  502  0.15923526380E+03  0.30110215427E+03  0.64837149852E+03  0.73239605873E+03  0.10100000352E+00 0. -1.
</event>
<event>
 5   0  0.8037548E-05  0.1601114E+04  0.7818609E-02  0.8819864E-01
       -2   -1    0    0    0  501  0.00000000000E+00  0.00000000000E+00  0.84275603271E+03  0.84275603272E+03  0.25500000920E-02 0. -1.
        2   -1    0    0  501    0  0.00000000000E+00  0.00000000000E+00 -0.76047119094E+03  0.76047119095E+03  0.25500000920E-02 0.  1.
    10030    2    1    2    0    0  0.00000000000E+00  0.00000000000E+00  0.82284841771E+02  0.16032272237E+04  0.16011142169E+04 0.  0.
        5    1    3    3  502    0  0.24687306380E+03 -0.32197917222E+03 -0.64987896624E+03  0.76614728201E+03  0.46999998093E+01 0.  1.
       -5    1    3    3    0  502 -0.24687306380E+03  0.32197917222E+03  0.73216380801E+03  0.83707994166E+03  0.46999998093E+01 0. -1.
</event>
<event>
 5   0  0.4314657E-05  0.1598536E+04  0.7818609E-02  0.8821448E-01
        1   -1    0    0  501    0  0.00000000000E+00  0.00000000000E+00  0.17867857481E+04  0.17867857481E+04  0.50400001928E-02 0. -1.
       -1   -1    0    0    0  501  0.00000000000E+00  0.00000000000E+00 -0.35752969382E+03  0.35752969385E+03  0.50400001928E-02 0.  1.
    10030    2    1    2    0    0  0.00000000000E+00  0.00000000000E+00  0.14292560543E+04  0.21443154419E+04  0.15985355316E+04 0.  0.
        5    1    3    3  502    0 -0.43210872607E+03  0.22018026347E+02  0.16160856801E+04  0.16730085953E+04  0.46999998093E+01 0. -1.
       -5    1    3    3    0  502  0.43210872607E+03 -0.22018026347E+02 -0.18682962580E+03  0.47130684665E+03  0.46999998093E+01 0.  1.
</event>
<event>
 5   0  0.8037548E-05  0.1606880E+04  0.7818609E-02  0.8816333E-01
       -2   -1    0    0    0  501  0.00000000000E+00  0.00000000000E+00  0.66110423752E+03  0.66110423752E+03  0.25500000920E-02 0.  1.
        2   -1    0    0  501    0  0.00000000000E+00  0.00000000000E+00 -0.97642018317E+03  0.97642018317E+03  0.25500000920E-02 0. -1.
    10030    2    1    2    0    0  0.00000000000E+00  0.00000000000E+00 -0.31531594565E+03  0.16375244207E+04  0.16068796105E+04 0.  0.
        5    1    3    3  502    0  0.26434801045E+03  0.21065497046E+03 -0.90041886569E+03  0.96178563667E+03  0.46999998093E+01 0. -1.
       -5    1    3    3    0  502 -0.26434801045E+03 -0.21065497046E+03  0.58510292004E+03  0.67573878403E+03  0.46999998093E+01 0.  1.
</event>
<event>
 5   0  0.7901257E-05  0.1603805E+04  0.7818609E-02  0.8818214E-01
        2   -1    0    0  501    0  0.00000000000E+00  0.00000000000E+00  0.11813731099E+04  0.11813731099E+04  0.25500000920E-02 0.  1.
       -2   -1    0    0    0  501  0.00000000000E+00  0.00000000000E+00 -0.54432222690E+03  0.54432222691E+03  0.25500000920E-02 0. -1.
    10030    2    1    2    0    0  0.00000000000E+00  0.00000000000E+00  0.63705088295E+03  0.17256953368E+04  0.16038050280E+04 0.  0.
        2    1    3    3  502    0  0.22807524352E+03 -0.65797487840E+02  0.11427026581E+04  0.11670976785E+04  0.25500000920E-02 0.  1.
       -2    1    3    3    0  502 -0.22807524352E+03  0.65797487840E+02 -0.50565177519E+03  0.55859765831E+03  0.25500000920E-02 0. -1.
</event>
<event>
 5   0  0.4504463E-05  0.1601113E+04  0.7818609E-02  0.8819865E-01
       -1   -1    0    0    0  501  0.00000000000E+00  0.00000000000E+00  0.53814758435E+03  0.53814758438E+03  0.50400001928E-02 0.  1.
        1   -1    0    0  501    0  0.00000000000E+00  0.00000000000E+00 -0.11909198961E+04  0.11909198961E+04  0.50400001928E-02 0. -1.
    10030    2    1    2    0    0  0.00000000000E+00  0.00000000000E+00 -0.65277231174E+03  0.17290674805E+04  0.16011129445E+04 0.  0.
        1    1    3    3  502    0  0.55346584252E+03 -0.28983410128E+03 -0.86695117926E+03  0.10686124613E+04  0.50400001928E-02 0. -1.
       -1    1    3    3    0  502 -0.55346584252E+03  0.28983410128E+03  0.21417886752E+03  0.66045501923E+03  0.50400001928E-02 0.  1.
</event>
<event>
 5   0  0.4256406E-05  0.1599482E+04  0.7818609E-02  0.8820866E-01
        1   -1    0    0  501    0  0.00000000000E+00  0.00000000000E+00  0.11441605236E+04  0.11441605236E+04  0.50400001928E-02 0.  1.
       -1   -1    0    0    0  501  0.00000000000E+00  0.00000000000E+00 -0.55900009019E+03  0.55900009022E+03  0.50400001928E-02 0. -1.
    10030    2    1    2    0    0  0.00000000000E+00  0.00000000000E+00  0.58516043338E+03  0.17031606138E+04  0.15994822111E+04 0.  0.
        3    1    3    3  502    0 -0.68498896087E+03 -0.26979271135E+02 -0.14600162831E+03  0.70089531547E+03  0.10100000352E+00 0. -1.
       -3    1    3    3    0  502  0.68498896087E+03  0.26979271135E+02  0.73116206169E+03  0.10022652983E+04  0.10100000352E+00 0.  1.
</event>
<event>
 5   0  0.8620155E-05  0.1616504E+04  0.7818609E-02  0.8810473E-01
        2   -1    0    0  501    0  0.00000000000E+00  0.00000000000E+00  0.78041610355E+03  0.78041610355E+03  0.25500000920E-02 0.  1.
       -2   -1    0    0    0  501  0.00000000000E+00  0.00000000000E+00 -0.83708075563E+03  0.83708075564E+03  0.25500000920E-02 0. -1.
    10030    2    1    2    0    0  0.00000000000E+00  0.00000000000E+00 -0.56664652086E+02  0.16174968592E+04  0.16165040076E+04 0.  0.
        4    1    3    3  502    0 -0.76352010899E+02 -0.35848302452E+02 -0.83266368485E+03  0.83692601544E+03  0.12699999809E+01 0. -1.
       -4    1    3    3    0  502  0.76352010899E+02  0.35848302452E+02  0.77599903276E+03  0.78057084375E+03  0.12699999809E+01 0.  1.
</event>
<event>
 5   0  0.8620155E-05  0.1600396E+04  0.7818609E-02  0.8820305E-01
       -2   -1    0    0    0  501  0.00000000000E+00  0.00000000000E+00  0.38505292477E+03  0.38505292478E+03  0.25500000920E-02 0.  1.
        2   -1    0    0  501    0  0.00000000000E+00  0.00000000000E+00 -0.16629317531E+04  0.16629317531E+04  0.25500000920E-02 0. -1.
    10030    2    1    2    0    0  0.00000000000E+00  0.00000000000E+00 -0.12778788283E+04  0.20479846779E+04  0.16003958701E+04 0.  0.
        4    1    3    3  502    0 -0.20655992820E+03  0.35199129342E+03  0.24185389351E+03  0.47440467250E+03  0.12699999809E+01 0.  1.
       -4    1    3    3    0  502  0.20655992820E+03 -0.35199129342E+03 -0.15197327218E+04  0.15735800054E+04  0.12699999809E+01 0. -1.
</event>
<event>
 5   0  0.8694033E-05  0.1599664E+04  0.7818609E-02  0.8820755E-01
       -2   -1    0    0    0  501  0.00000000000E+00  0.00000000000E+00  0.43578493397E+03  0.43578493398E+03  0.25500000920E-02 0. -1.
        2   -1    0    0  501    0  0.00000000000E+00  0.00000000000E+00 -0.14679970166E+04  0.14679970166E+04  0.25500000920E-02 0.  1.
    10030    2    1    2    0    0  0.00000000000E+00  0.00000000000E+00 -0.10322120827E+04  0.19037819506E+04  0.15996636934E+04 0.  0.
        1    1    3    3  502    0 -0.48003993592E+03 -0.26680919308E+03  0.17590756422E+03  0.57668791973E+03  0.50400001928E-02 0. -1.
       -1    1    3    3    0  502  0.48003993592E+03  0.26680919308E+03 -0.12081196469E+04  0.13270940309E+04  0.50400001928E-02 0.  1.
</event>
<event>
 5   0  0.8037548E-05  0.1600703E+04  0.7818609E-02  0.8820116E-01
        2   -1    0    0  501    0  0.00000000000E+00  0.00000000000E+00  0.16168466854E+04  0.16168466854E+04  0.25500000920E-02 0. -1.
       -2   -1    0    0    0  501  0.00000000000E+00  0.00000000000E+00 -0.39617994736E+03  0.39617994737E+03  0.25500000920E-02 0.  1.
    10030    2    1    2    0    0  0.00000000000E+00  0.00000000000E+00  0.12206667381E+04  0.20130266328E+04  0.16007026391E+04 0.  0.
        5    1    3    3  502    0  0.37420624743E+03 -0.11094221823E+03 -0.26836229366E+03  0.47368650187E+03  0.46999998093E+01 0.  1.
       -5    1    3    3    0  502 -0.37420624743E+03  0.11094221823E+03  0.14890290317E+04  0.15393401309E+04  0.46999998093E+01 0. -1.
</event>
<event>
 5   0  0.4256406E-05  0.1600726E+04  0.7818609E-02  0.8820102E-01
        1   -1    0    0  501    0  0.00000000000E+00  0.00000000000E+00  0.74686881736E+03  0.74686881737E+03  0.50400001928E-02 0. -1.
       -1   -1    0    0    0  501  0.00000000000E+00  0.00000000000E+00 -0.85768877394E+03  0.85768877396E+03  0.50400001928E-02 0.  1.
    10030    2    1    2    0    0  0.00000000000E+00  0.00000000000E+00 -0.11081995659E+03  0.16045575913E+04  0.16007260856E+04 0.  0.
        3    1    3    3  502    0  0.12730892366E+02  0.66680325023E+03 -0.49895339297E+03  0.83291244959E+03  0.10100000352E+00 0.  1.
       -3    1    3    3    0  502 -0.12730892366E+02 -0.66680325023E+03  0.38813343638E+03  0.77164514174E+03  0.10100000352E+00 0. -1.
</event>
<event>
 5   0  0.4504463E-05  0.1590099E+04  0.7818609E-02  0.8826654E-01
       -1   -1    0    0    0  501  0.00000000000E+00  0.00000000000E+00  0.13888471871E+04  0.13888471871E+04  0.50400001928E-02 0. -1.
        1   -1    0    0  501    0  0.00000000000E+00  0.00000000000E+00 -0.45512856299E+03  0.45512856302E+03  0.50400001928E-02 0.  1.
    10030    2    1    2    0    0  0.00000000000E+00  0.00000000000E+00  0.93371862406E+03  0.18439757501E+04  0.15900993988E+04 0.  0.
        1    1    3    3  502    0  0.70661775313E+03  0.31295867786E+03  0.68335352341E+03  0.10316122436E+04  0.50400001928E-02 0. -1.
       -1    1    3    3    0  502 -0.70661775313E+03 -0.31295867786E+03  0.25036510065E+03  0.81236350652E+03  0.50400001928E-02 0.  1.
</event>
<event>
 5   0  0.7901257E-05  0.1601627E+04  0.7818609E-02  0.8819549E-01
       -2   -1    0    0    0  501  0.00000000000E+00  0.00000000000E+00  0.78087215610E+03  0.78087215611E+03  0.25500000920E-02 0.  1.
        2   -1    0    0  501    0  0.00000000000E+00  0.00000000000E+00 -0.82126451932E+03  0.82126451933E+03  0.25500000920E-02 0. -1.
    10030    2    1    2    0    0  0.00000000000E+00  0.00000000000E+00 -0.40392363219E+02  0.16021366754E+04  0.16016274173E+04 0.  0.
        2    1    3    3  502    0  0.18518478289E+03  0.20434120381E+03  0.73187654177E+03  0.78210741193E+03  0.25500000920E-02 0.  1.
       -2    1    3    3    0  502 -0.18518478289E+03 -0.20434120381E+03 -0.77226890499E+03  0.82002926351E+03  0.25500000920E-02 0. -1.
</event>
<event>
 5   0  0.4314657E-05  0.1602028E+04  0.7818609E-02  0.8819303E-01
        1   -1    0    0  501    0  0.00000000000E+00  0.00000000000E+00  0.90652709183E+03  0.90652709185E+03  0.50400001928E-02 0.  1.
       -1   -1    0    0    0  501  0.00000000000E+00  0.00000000000E+00 -0.70778160319E+03  0.70778160321E+03  0.50400001928E-02 0. -1.
    10030    2    1    2    0    0  0.00000000000E+00  0.00000000000E+00  0.19874548864E+03  0.16143086951E+04  0.16020277131E+04 0.  0.
        5    1    3    3  502    0  0.30842896076E+03  0.70738644108E+03 -0.11692857374E+03  0.78052442769E+03  0.46999998093E+01 0.  1.
       -5    1    3    3    0  502 -0.30842896076E+03 -0.70738644108E+03  0.31567406238E+03  0.83378426737E+03  0.46999998093E+01 0. -1.
</event>
<event>
 5   0  0.4256406E-05  0.1598056E+04  0.7818609E-02  0.8821743E-01
        1   -1    0    0  501    0  0.00000000000E+00  0.00000000000E+00  0.23384854859E+04  0.23384854859E+04  0.50400001928E-02 0.  1.
       -1   -1    0    0    0  501  0.00000000000E+00  0.00000000000E+00 -0.27301664999E+03  0.27301665003E+03  0.50400001928E-02 0. -1.
    10030    2    1    2    0    0  0.00000000000E+00  0.00000000000E+00  0.20654688359E+04  0.26115021359E+04  0.15980556605E+04 0.  0.
        3    1    3    3  502    0 -0.40570809210E+03  0.31725859218E+03  0.20310444993E+04  0.20953266663E+04  0.10100000352E+00 0.  1.
       -3    1    3    3    0  502  0.40570809210E+03 -0.31725859218E+03  0.34424336651E+02  0.51617546964E+03  0.10100000352E+00 0. -1.
</event>
<event>
 5   0  0.4211419E-05  0.1599066E+04  0.7818609E-02  0.8821122E-01
       -1   -1    0    0    0  501  0.00000000000E+00  0.00000000000E+00  0.46132094925E+03  0.46132094927E+03  0.50400001928E-02 0.  1.
        1   -1    0    0  501    0  0.00000000000E+00  0.00000000000E+00 -0.13857011088E+04  0.13857011088E+04  0.50400001928E-02 0. -1.
    10030    2    1    2    0    0  0.00000000000E+00  0.00000000000E+00 -0.92438015951E+03  0.18470220580E+04  0.15990659160E+04 0.  0.
        2    1    3    3  502    0 -0.51461933868E+03  0.49530404379E+03 -0.47180240296E+02  0.71581082320E+03  0.25500000920E-02 0.  1.
       -2    1    3    3    0  502  0.51461933868E+03 -0.49530404379E+03 -0.87719991921E+03  0.11312112348E+04  0.25500000920E-02 0. -1.
</event>
<event>
 5   0  0.7901257E-05  0.1596582E+04  0.7818609E-02  0.8822651E-01
       -2   -1    0    0    0  501  0.00000000000E+00  0.00000000000E+00  0.51513581494E+03  0.51513581494E+03  0.25500000920E-02 0. -1.
        2   -1    0    0  501    0  0.00000000000E+00  0.00000000000E+00 -0.12370882460E+04  0.12370882460E+04  0.25500000920E-02 0.  1.
    10030    2    1    2    0    0  0.00000000000E+00  0.00000000000E+00 -0.72195243103E+03  0.17522240609E+04  0.15965819262E+04 0.  0.
        2    1    3    3  502    0 -0.29238516784E+03  0.11805848736E+03  0.44389354982E+03  0.54448909666E+03  0.25500000920E-02 0. -1.
       -2    1    3    3    0  502  0.29238516784E+03 -0.11805848736E+03 -0.11658459808E+04  0.12077349642E+04  0.25500000920E-02 0.  1.
</event>
<event>
 5   0  0.7849690E-05  0.1577444E+04  0.7818609E-02  0.8834526E-01
       -2   -1    0    0    0  501  0.00000000000E+00  0.00000000000E+00  0.35665393378E+03  0.35665393379E+03  0.25500000920E-02 0.  1.
        2   -1    0    0  501    0  0.00000000000E+00  0.00000000000E+00 -0.17442180008E+04  0.17442180008E+04  0.25500000920E-02 0. -1.
    10030    2    1    2    0    0  0.00000000000E+00  0.00000000000E+00 -0.13875640670E+04  0.21008719345E+04  0.15774437693E+04 0.  0.
        3    1    3    3  502    0 -0.14075537504E+03 -0.77510043775E+03 -0.74518128011E+03  0.10843836566E+04  0.10100000352E+00 0. -1.
       -3    1    3    3    0  502  0.14075537504E+03  0.77510043775E+03 -0.64238278687E+03  0.10164882780E+04  0.10100000352E+00 0.  1.
</event>
<event>
 5   0  0.4314657E-05  0.1599655E+04  0.7818609E-02  0.8820760E-01
        1   -1    0    0  501    0  0.00000000000E+00  0.00000000000E+00  0.14941228528E+04  0.14941228528E+04  0.50400001928E-02 0.  1.
       -1   -1    0    0    0  501  0.00000000000E+00  0.00000000000E+00 -0.42816036251E+03  0.42816036254E+03  0.50400001928E-02 0. -1.
    10030    2    1    2    0    0  0.00000000000E+00  0.00000000000E+00  0.10659624902E+04  0.19222832153E+04  0.15996551907E+04 0.  0.
        5    1    3    3  502    0  0.47270839435E+03 -0.28276707992E+03 -0.16388436501E+03  0.57470916355E+03  0.46999998093E+01 0. -1.
       -5    1    3    3    0  502 -0.47270839435E+03  0.28276707992E+03  0.12298468553E+04  0.13475740518E+04  0.46999998093E+01 0.  1.
</event>
<event>
 5   0  0.4504463E-05  0.1600960E+04  0.7818609E-02  0.8819958E-01
       -1   -1    0    0    0  501  0.00000000000E+00  0.00000000000E+00  0.94531230923E+03  0.94531230925E+03  0.50400001928E-02 0.  1.
        1   -1    0    0  501    0  0.00000000000E+00  0.00000000000E+00 -0.67783792384E+03  0.67783792386E+03  0.50400001928E-02 0. -1.
    10030    2    1    2    0    0  0.00000000000E+00  0.00000000000E+00  0.26747438539E+03  0.16231502331E+04  0.16009603781E+04 0.  0.
        1    1    3    3  502    0 -0.20180545303E+03  0.21347566070E+03  0.88868624590E+03  0.93598105871E+03  0.50400001928E-02 0.  1.
       -1    1    3    3    0  502  0.20180545303E+03 -0.21347566070E+03 -0.62121186051E+03  0.68716917440E+03  0.50400001928E-02 0. -1.
</event>
<event>
 5   0  0.4256406E-05  0.1595489E+04  0.7818609E-02  0.8823324E-01
       -1   -1    0    0    0  501  0.00000000000E+00  0.00000000000E+00  0.63213618387E+03  0.63213618389E+03  0.50400001928E-02 0.  1.
        1   -1    0    0  501    0  0.00000000000E+00  0.00000000000E+00 -0.10067396854E+04  0.10067396854E+04  0.50400001928E-02 0. -1.
    10030    2    1    2    0    0  0.00000000000E+00  0.00000000000E+00 -0.37460350151E+03  0.16388758693E+04  0.15954893706E+04 0.  0.
        3    1    3    3  502    0  0.38610993049E+02 -0.28600841362E+03  0.57663238870E+03  0.64482287750E+03  0.10100000352E+00 0.  1.
       -3    1    3    3    0  502 -0.38610993049E+02  0.28600841362E+03 -0.95123589021E+03  0.99405299178E+03  0.10100000352E+00 0. -1.
</event>
<event>
 5   0  0.8037548E-05  0.1598025E+04  0.7818609E-02  0.8821762E-01
        2   -1    0    0  501    0  0.00000000000E+00  0.00000000000E+00  0.18117234074E+04  0.18117234074E+04  0.25500000920E-02 0.  1.
       -2   -1    0    0    0  501  0.00000000000E+00  0.00000000000E+00 -0.35238328344E+03  0.35238328345E+03  0.25500000920E-02 0. -1.
    10030    2    1    2    0    0  0.00000000000E+00  0.00000000000E+00  0.14593401239E+04  0.21641066908E+04  0.15980250849E+04 0.  0.
        5    1    3    3  502    0  0.11404884027E+03  0.49952262442E+03  0.15599285192E+04  0.16419284592E+04  0.46999998093E+01 0.  1.
       -5    1    3    3    0  502 -0.11404884027E+03 -0.49952262442E+03 -0.10058839526E+03  0.52217823158E+03  0.46999998093E+01 0. -1.
</event>
<event>
 5   0  0.3042125E-05  0.1598320E+04  0.7818609E-02  0.8821581E-01
       -3   -1    0    0    0  501  0.00000000000E+00  0.00000000000E+00  0.86436192704E+03  0.86436193294E+03  0.10100000352E+00 0.  1.
        3   -1    0    0  501    0  0.00000000000E+00  0.00000000000E+00 -0.73887625149E+03  0.73887625840E+03  0.10100000352E+00 0. -1.
    10030    2    1    2    0    0  0.00000000000E+00  0.00000000000E+00  0.12548567554E+03  0.16032381913E+04  0.15983197563E+04 0.  0.
        4    1    3    3  502    0 -0.71115859908E+03 -0.24912122172E+03 -0.20424716353E+03  0.78072175124E+03  0.12699999809E+01 0. -1.
       -4    1    3    3    0  502  0.71115859908E+03  0.24912122172E+03  0.32973283907E+03  0.82251644009E+03  0.12699999809E+01 0.  1.
</event>
<event>
 5   0  0.7901257E-05  0.1598921E+04  0.7818609E-02  0.8821211E-01
       -2   -1    0    0    0  501  0.00000000000E+00  0.00000000000E+00  0.29761323991E+03  0.29761323992E+03  0.25500000920E-02 0. -1.
        2   -1    0    0  501    0  0.00000000000E+00  0.00000000000E+00 -0.21475412943E+04  0.21475412943E+04  0.25500000920E-02 0.  1.
    10030    2    1    2    0    0  0.00000000000E+00  0.00000000000E+00 -0.18499280544E+04  0.24451545342E+04  0.15989205389E+04 0.  0.
        2    1    3    3  502    0 -0.69354524002E+02 -0.30518601615E+03  0.20003870468E+03  0.37143510581E+03  0.25500000920E-02 0. -1.
       -2    1    3    3    0  502  0.69354524002E+02  0.30518601615E+03 -0.20499667591E+04  0.20737194284E+04  0.25500000920E-02 0.  1.
</event>
<event>
 5   0  0.7901257E-05  0.1599725E+04  0.7818609E-02  0.8820717E-01
        2   -1    0    0  501    0  0.00000000000E+00  0.00000000000E+00  0.10551146460E+04  0.10551146460E+04  0.25500000920E-02 0.  1.
       -2   -1    0    0    0  501  0.00000000000E+00  0.00000000000E+00 -0.60636102145E+03  0.60636102145E+03  0.25500000920E-02 0. -1.
    10030    2    1    2    0    0  0.00000000000E+00  0.00000000000E+00  0.44875362455E+03  0.16614756675E+04  0.15997254696E+04 0.  0.
        2    1    3    3  502    0  0.24027815652E+03 -0.71419817547E+03  0.50300018389E+03  0.90599216958E+03  0.25500000920E-02 0.  1.
       -2    1    3    3    0  502 -0.24027815652E+03  0.71419817547E+03 -0.54246559344E+02  0.75548349787E+03  0.25500000920E-02 0. -1.
</event>
<event>
 5   0  0.8037548E-05  0.1609485E+04  0.7818609E-02  0.8814742E-01
       -2   -1    0    0    0  501  0.00000000000E+00  0.00000000000E+00  0.29483883636E+03  0.29483883637E+03  0.25500000920E-02 0. -1.
        2   -1    0    0  501    0  0.00000000000E+00  0.00000000000E+00 -0.21964891962E+04  0.21964891962E+04  0.25500000920E-02 0.  1.
    10030    2    1    2    0    0  0.00000000000E+00  0.00000000000E+00 -0.19016503599E+04  0.24913280326E+04  0.16094847855E+04 0.  0.
        5    1    3    3  502    0 -0.84688531385E+02  0.78810041770E+03 -0.73570653674E+03  0.10814622573E+04  0.46999998093E+01 0. -1.
       -5    1    3    3    0  502  0.84688531385E+02 -0.78810041770E+03 -0.11659438231E+04  0.14098657753E+04  0.46999998093E+01 0.  1.
</event>
<event>
 5   0  0.8694033E-05  0.1600822E+04  0.7818609E-02  0.8820043E-01
       -2   -1    0    0    0  501  0.00000000000E+00  0.00000000000E+00  0.31781613997E+03  0.31781613998E+03  0.25500000920E-02 0. -1.
        2   -1    0    0  501    0  0.00000000000E+00  0.00000000000E+00 -0.20158125203E+04  0.20158125203E+04  0.25500000920E-02 0.  1.
    10030    2    1    2    0    0  0.00000000000E+00  0.00000000000E+00 -0.16979963804E+04  0.23336286603E+04  0.16008219815E+04 0.  0.
        1    1    3    3  502    0  0.36329448618E+03 -0.52175455476E+03 -0.15578503474E+04  0.16825897907E+04  0.50400001928E-02 0.  1.
       -1    1    3    3    0  502 -0.36329448618E+03  0.52175455476E+03 -0.14014603300E+03  0.65103886957E+03  0.50400001928E-02 0. -1.
</event>
<event>
 5   0  0.7901257E-05  0.1601694E+04  0.7818609E-02  0.8819508E-01
       -2   -1    0    0    0  501  0.00000000000E+00  0.00000000000E+00  0.62806807216E+03  0.62806807216E+03  0.25500000920E-02 0.  1.
        2   -1    0    0  501    0  0.00000000000E+00  0.00000000000E+00 -0.10211569415E+04  0.10211569415E+04  0.25500000920E-02 0. -1.
    10030    2    1    2    0    0  0.00000000000E+00  0.00000000000E+00 -0.39308886930E+03  0.16492250136E+04  0.16016941925E+04 0.  0.
        2    1    3    3  502    0  0.69996308924E+03 -0.51948252518E+02  0.20052743460E+03  0.72997136881E+03  0.25500000920E-02 0.  1.
       -2    1    3    3    0  502 -0.69996308924E+03  0.51948252518E+02 -0.59361630389E+03  0.91925364481E+03  0.25500000920E-02 0. -1.
</event>
<event>
 5   0  0.8694033E-05  0.1602341E+04  0.7818609E-02  0.8819111E-01
        2   -1    0    0  501    0  0.00000000000E+00  0.00000000000E+00  0.12462208989E+04  0.12462208989E+04  0.25500000920E-02 0.  1.
       -2   -1    0    0    0  501  0.00000000000E+00  0.00000000000E+00 -0.51505680427E+03  0.51505680427E+03  0.25500000920E-02 0. -1.
    10030    2    1    2    0    0  0.00000000000E+00  0.00000000000E+00  0.73116409466E+03  0.17612777032E+04  0.16023414787E+04 0.  0.
        1    1    3    3  502    0 -0.58983470966E+03  0.50270744897E+03  0.58884154869E+03  0.97332118721E+03  0.50400001928E-02 0.  1.
       -1    1    3    3    0  502  0.58983470966E+03 -0.50270744897E+03  0.14232254597E+03  0.78795651599E+03  0.50400001928E-02 0. -1.
</event>
<event>
 5   0  0.4373026E-05  0.1602875E+04  0.7818609E-02  0.8818784E-01
       -1   -1    0    0    0  501  0.00000000000E+00  0.00000000000E+00  0.84407001888E+03  0.84407001890E+03  0.50400001928E-02 0. -1.
        1   -1    0    0  501    0  0.00000000000E+00  0.00000000000E+00 -0.76095818792E+03  0.76095818794E+03  0.50400001928E-02 0.  1.
    10030    2    1    2    0    0  0.00000000000E+00  0.00000000000E+00  0.83111830963E+02  0.16050282068E+04  0.16028749073E+04 0.  0.
        4    1    3    3  502    0 -0.41000807595E+03 -0.13641805800E+03  0.71743220133E+03  0.83751243889E+03  0.12699999809E+01 0. -1.
       -4    1    3    3    0  502  0.41000807595E+03  0.13641805800E+03 -0.63432037036E+03  0.76751576795E+03  0.12699999809E+01 0.  1.
</event>
<event>
 5   0  0.4373026E-05  0.1601654E+04  0.7818609E-02  0.8819532E-01
       -1   -1    0    0    0  501  0.00000000000E+00  0.00000000000E+00  0.54053442467E+03  0.54053442469E+03  0.50400001928E-02 0. -1.
        1   -1    0    0  501    0  0.00000000000E+00  0.00000000000E+00 -0.11864632189E+04  0.11864632189E+04  0.50400001928E-02 0.  1.
    10030    2    1    2    0    0  0.00000000000E+00  0.00000000000E+00 -0.64592879419E+03  0.17269976436E+04  0.16016544115E+04 0.  0.
        4    1    3    3  502    0 -0.21339551741E+01 -0.68905567233E+03  0.11703953595E+03  0.69892928055E+03  0.12699999809E+01 0. -1.
       -4    1    3    3    0  502  0.21339551741E+01  0.68905567233E+03 -0.76296833013E+03  0.10280683630E+04  0.12699999809E+01 0.  1.
</event>
<event>
 5   0  0.4373026E-05  0.1556468E+04  0.7818609E-02  0.8847747E-01
       -1   -1    0    0    0  501  0.00000000000E+00  0.00000000000E+00  0.68408460985E+03  0.68408460986E+03  0.50400001928E-02 0.  1.
        1   -1    0    0  501    0  0.00000000000E+00  0.00000000000E+00 -0.88534089738E+03  0.88534089740E+03  0.50400001928E-02 0. -1.
    10030    2    1    2    0    0  0.00000000000E+00  0.00000000000E+00 -0.20125628754E+03  0.15694255073E+04  0.15564679019E+04 0.  0.
        4    1    3    3  502    0  0.33771496026E+02  0.36482488500E+03  0.59167987447E+03  0.69593419043E+03  0.12699999809E+01 0.  1.
       -4    1    3    3    0  502 -0.33771496026E+02 -0.36482488500E+03 -0.79293616201E+03  0.87349131683E+03  0.12699999809E+01 0. -1.
</event>
<event>
 5   0  0.8620155E-05  0.1597539E+04  0.7818609E-02  0.8822061E-01
       -2   -1    0    0    0  501  0.00000000000E+00  0.00000000000E+00  0.11625245004E+04  0.11625245004E+04  0.25500000920E-02 0.  1.
        2   -1    0    0  501    0  0.00000000000E+00  0.00000000000E+00 -0.54883363288E+03  0.54883363289E+03  0.25500000920E-02 0. -1.
    10030    2    1    2    0    0  0.00000000000E+00  0.00000000000E+00  0.61369086750E+03  0.17113581333E+04  0.15975387881E+04 0.  0.
        4    1    3    3  502    0 -0.76607949396E+03  0.12307954189E+03  0.10357777290E+03  0.78278753991E+03  0.12699999809E+01 0. -1.
       -4    1    3    3    0  502  0.76607949396E+03 -0.12307954189E+03  0.51011309460E+03  0.92857059337E+03  0.12699999809E+01 0.  1.
</event>
<event>
 5   0  0.4314657E-05  0.1603224E+04  0.7818609E-02  0.8818570E-01
        1   -1    0    0  501    0  0.00000000000E+00  0.00000000000E+00  0.18443791979E+04  0.18443791979E+04  0.50400001928E-02 0.  1.
       -1   -1    0    0    0  501  0.00000000000E+00  0.00000000000E+00 -0.34840006407E+03  0.34840006410E+03  0.50400001928E-02 0. -1.
    10030    2    1    2    0    0  0.00000000000E+00  0.00000000000E+00  0.14959791338E+04  0.21927792620E+04  0.16032240402E+04 0.  0.
        5    1    3    3  502    0  0.52289919162E+03  0.59726558909E+03  0.59562413264E+03  0.99244140678E+03  0.46999998093E+01 0.  1.
       -5    1    3    3    0  502 -0.52289919162E+03 -0.59726558909E+03  0.90035500118E+03  0.12003378552E+04  0.46999998093E+01 0. -1.
</event>
<event>
 5   0  0.4211419E-05  0.1599060E+04  0.7818609E-02  0.8821125E-01
        1   -1    0    0  501    0  0.00000000000E+00  0.00000000000E+00  0.12263791001E+04  0.12263791001E+04  0.50400001928E-02 0. -1.
       -1   -1    0    0    0  501  0.00000000000E+00  0.00000000000E+00 -0.52124875552E+03  0.52124875554E+03  0.50400001928E-02 0.  1.
    10030    2    1    2    0    0  0.00000000000E+00  0.00000000000E+00  0.70513034455E+03  0.17476278556E+04  0.15990604488E+04 0.  0.
        2    1    3    3  502    0  0.73233495368E+03 -0.30099910543E+03  0.23119007166E+03  0.82484167880E+03  0.25500000920E-02 0.  1.
       -2    1    3    3    0  502 -0.73233495368E+03  0.30099910543E+03  0.47394027290E+03  0.92278617682E+03  0.25500000920E-02 0. -1.
</event>
<event>
 5   0  0.4373026E-05  0.1602167E+04  0.7818609E-02  0.8819218E-01
       -1   -1    0    0    0  501  0.00000000000E+00  0.00000000000E+00  0.71801296920E+03  0.71801296922E+03  0.50400001928E-02 0.  1.
        1   -1    0    0  501    0  0.00000000000E+00  0.00000000000E+00 -0.89376526113E+03  0.89376526114E+03  0.50400001928E-02 0. -1.
    10030    2    1    2    0    0  0.00000000000E+00  0.00000000000E+00 -0.17575229193E+03  0.16117782304E+04  0.16021673432E+04 0.  0.
        4    1    3    3  502    0  0.58231494069E+03  0.30863068242E+03 -0.54600870389E+03  0.85584502447E+03  0.12699999809E+01 0. -1.
       -4    1    3    3    0  502 -0.58231494069E+03 -0.30863068242E+03  0.37025641196E+03  0.75593320590E+03  0.12699999809E+01 0.  1.
</event>
<event>
 5   0  0.4373026E-05  0.1600084E+04  0.7818609E-02  0.8820497E-01
       -1   -1    0    0    0  501  0.00000000000E+00  0.00000000000E+00  0.83873180842E+03  0.83873180843E+03  0.50400001928E-02 0.  1.
        1   -1    0    0  501    0  0.00000000000E+00  0.00000000000E+00 -0.76313650831E+03  0.76313650832E+03  0.50400001928E-02 0. -1.
    10030    2    1    2    0    0  0.00000000000E+00  0.00000000000E+00  0.75595300111E+02  0.16018683168E+04  0.16000835774E+04 0.  0.
        4    1    3    3  502    0 -0.61025611055E+03  0.43431523935E+01  0.55570810564E+03  0.82537536613E+03  0.12699999809E+01 0.  1.
       -4    1    3    3    0  502  0.61025611055E+03 -0.43431523935E+01 -0.48011280553E+03  0.77649295063E+03  0.12699999809E+01 0. -1.
</event>
<event>
 5   0  0.7849690E-05  0.1596905E+04  0.7818609E-02  0.8822452E-01
        2   -1    0    0  501    0  0.00000000000E+00  0.00000000000E+00  0.11657871326E+04  0.11657871326E+04  0.25500000920E-02 0.  1.
       -2   -1    0    0    0  501  0.00000000000E+00  0.00000000000E+00 -0.54686350973E+03  0.54686350973E+03  0.25500000920E-02 0. -1.
    10030    2    1    2    0    0  0.00000000000E+00  0.00000000000E+00  0.61892362287E+03  0.17126506423E+04  0.15969050603E+04 0.  0.
        3    1    3    3  502    0  0.25016019481E+03  0.10320777334E+03 -0.49618108091E+03  0.56517930146E+03  0.10100000352E+00 0. -1.
       -3    1    3    3    0  502 -0.25016019481E+03 -0.10320777334E+03  0.11151047038E+04  0.11474713409E+04  0.10100000352E+00 0.  1.
</event>
<event>
 5   0  0.4211419E-05  0.1603245E+04  0.7818609E-02  0.8818557E-01
        1   -1    0    0  501    0  0.00000000000E+00  0.00000000000E+00  0.12708218199E+04  0.12708218199E+04  0.50400001928E-02 0.  1.
       -1   -1    0    0    0  501  0.00000000000E+00  0.00000000000E+00 -0.50565569925E+03  0.50565569927E+03  0.50400001928E-02 0. -1.
    10030    2    1    2    0    0  0.00000000000E+00  0.00000000000E+00  0.76516612064E+03  0.17764775192E+04  0.16032445802E+04 0.  0.
        2    1    3    3  502    0 -0.69382248141E+03 -0.36840482533E+02  0.82559783549E+03  0.10790545134E+04  0.25500000920E-02 0.  1.
       -2    1    3    3    0  502  0.69382248141E+03  0.36840482533E+02 -0.60431714848E+02  0.69742300580E+03  0.25500000920E-02 0. -1.
</event>
<event>
 5   0  0.7849690E-05  0.1599408E+04  0.7818609E-02  0.8820912E-01
       -2   -1    0    0    0  501  0.00000000000E+00  0.00000000000E+00  0.41913637595E+03  0.41913637596E+03  0.25500000920E-02 0. -1.
        2   -1    0    0  501    0  0.00000000000E+00  0.00000000000E+00 -0.15258195797E+04  0.15258195797E+04  0.25500000920E-02 0.  1.
    10030    2    1    2    0    0  0.00000000000E+00  0.00000000000E+00 -0.11066832037E+04  0.19449559556E+04  0.15994080017E+04 0.  0.
        3    1    3    3  502    0 -0.18204985488E+03 -0.25517379012E+03 -0.14480010489E+04  0.14815407050E+04  0.10100000352E+00 0.  1.
       -3    1    3    3    0  502  0.18204985488E+03  0.25517379012E+03  0.34131784520E+03  0.46341525059E+03  0.10100000352E+00 0. -1.
</event>
<event>
 5   0  0.4314657E-05  0.1593214E+04  0.7818609E-02  0.8824728E-01
        1   -1    0    0  501    0  0.00000000000E+00  0.00000000000E+00  0.48613015455E+03  0.48613015457E+03  0.50400001928E-02 0. -1.
       -1   -1    0    0    0  501  0.00000000000E+00  0.00000000000E+00 -0.13053756909E+04  0.13053756909E+04  0.50400001928E-02 0.  1.
    10030    2    1    2    0    0  0.00000000000E+00  0.00000000000E+00 -0.81924553636E+03  0.17915058455E+04  0.15932137162E+04 0.  0.
        5    1    3    3  502    0 -0.55744518971E+03 -0.46190046740E+03 -0.78334852721E+03  0.10666556081E+04  0.46999998093E+01 0.  1.
       -5    1    3    3    0  502  0.55744518971E+03  0.46190046740E+03 -0.35897009155E+02  0.72485023734E+03  0.46999998093E+01 0. -1.
</event>
<event>
 5   0  0.7849690E-05  0.1595404E+04  0.7818609E-02  0.8823376E-01
       -2   -1    0    0    0  501  0.00000000000E+00  0.00000000000E+00  0.63904438094E+03  0.63904438095E+03  0.25500000920E-02 0.  1.
        2   -1    0    0  501    0  0.00000000000E+00  0.00000000000E+00 -0.99575022463E+03  0.99575022463E+03  0.25500000920E-02 0. -1.
    10030    2    1    2    0    0  0.00000000000E+00  0.00000000000E+00 -0.35670584369E+03  0.16347946056E+04  0.15954041317E+04 0.  0.
        3    1    3    3  502    0 -0.66309404669E+03  0.40542433196E+03 -0.36241522824E+03  0.85755898431E+03  0.10100000352E+00 0. -1.
       -3    1    3    3    0  502  0.66309404669E+03 -0.40542433196E+03  0.57093845478E+01  0.77723562128E+03  0.10100000352E+00 0.  1.
</event>
<event>
 5   0  0.4256406E-05  0.1599737E+04  0.7818609E-02  0.8820710E-01
        1   -1    0    0  501    0  0.00000000000E+00  0.00000000000E+00  0.55387579165E+03  0.55387579168E+03  0.50400001928E-02 0.  1.
       -1   -1    0    0    0  501  0.00000000000E+00  0.00000000000E+00 -0.11551133150E+04  0.11551133150E+04  0.50400001928E-02 0. -1.
    10030    2    1    2    0    0  0.00000000000E+00  0.00000000000E+00 -0.60123752331E+03  0.17089891066E+04  0.15997366056E+04 0.  0.
        3    1    3    3  502    0  0.24136154979E+03 -0.16523528803E+03  0.49469096617E+03  0.57469753814E+03  0.10100000352E+00 0.  1.
       -3    1    3    3    0  502 -0.24136154979E+03  0.16523528803E+03 -0.10959284895E+04  0.11342915685E+04  0.10100000352E+00 0. -1.
</event>
<event>
 5   0  0.4314657E-05  0.1601682E+04  0.7818609E-02  0.8819515E-01
        1   -1    0    0  501    0  0.00000000000E+00  0.00000000000E+00  0.17682671254E+04  0.17682671255E+04  0.50400001928E-02 0. -1.
       -1   -1    0    0    0  501  0.00000000000E+00  0.00000000000E+00 -0.36269753978E+03  0.36269753981E+03  0.50400001928E-02 0.  1.
    10030    2    1    2    0    0  0.00000000000E+00  0.00000000000E+00  0.14055695857E+04  0.21309646653E+04  0.16016817863E+04 0.  0.
        5    1    3    3  502    0 -0.41131012451E+03  0.40028478679E+03  0.14458410644E+04  0.15555971209E+04  0.46999998093E+01 0. -1.
       -5    1    3    3    0  502  0.41131012451E+03 -0.40028478679E+03 -0.40271478776E+02  0.57536754432E+03  0.46999998093E+01 0.  1.
</event>
<event>
 5   0  0.8037548E-05  0.1599012E+04  0.7818609E-02  0.8821155E-01
        2   -1    0    0  501    0  0.00000000000E+00  0.00000000000E+00  0.91585110756E+03  0.91585110756E+03  0.25500000920E-02 0.  1.
       -2   -1    0    0    0  501  0.00000000000E+00  0.00000000000E+00 -0.69794092044E+03  0.69794092045E+03  0.25500000920E-02 0. -1.
    10030    2    1    2    0    0  0.00000000000E+00  0.00000000000E+00  0.21791018711E+03  0.16137920280E+04  0.15990121513E+04 0.  0.
        5    1    3    3  502    0 -0.31805740881E+03 -0.39307225264E+03 -0.51606027374E+03  0.72250024722E+03  0.46999998093E+01 0. -1.
       -5    1    3    3    0  502  0.31805740881E+03  0.39307225264E+03  0.73397046086E+03  0.89129178079E+03  0.46999998093E+01 0.  1.
</event>
<event>
 5   0  0.4256406E-05  0.1601759E+04  0.7818609E-02  0.8819468E-01
       -1   -1    0    0    0  501  0.00000000000E+00  0.00000000000E+00  0.53541100065E+03  0.53541100067E+03  0.50400001928E-02 0. -1.
        1   -1    0    0  501    0  0.00000000000E+00  0.00000000000E+00 -0.11979730556E+04  0.11979730556E+04  0.50400001928E-02 0.  1.
    10030    2    1    2    0    0  0.00000000000E+00  0.00000000000E+00 -0.66256205491E+03  0.17333840562E+04  0.16017589737E+04 0.  0.
        3    1    3    3  502    0 -0.82337803742E+02  0.46340251944E+03  0.36995400550E+03  0.59865464613E+03  0.10100000352E+00 0. -1.
       -3    1    3    3    0  502  0.82337803742E+02 -0.46340251944E+03 -0.10325160604E+04  0.11347294101E+04  0.10100000352E+00 0.  1.
</event>
<event>
 5   0  0.4211419E-05  0.1603163E+04  0.7818609E-02  0.8818607E-01
        1   -1    0    0  501    0  0.00000000000E+00  0.00000000000E+00  0.74894182669E+03  0.74894182671E+03  0.50400001928E-02 0.  1.
       -1   -1    0    0    0  501  0.00000000000E+00  0.00000000000E+00 -0.85792066912E+03  0.85792066913E+03  0.50400001928E-02 0. -1.
    10030    2    1    2    0    0  0.00000000000E+00  0.00000000000E+00 -0.10897884243E+03  0.16068624958E+04  0.16031627155E+04 0.  0.
        2    1    3    3  502    0  0.68172800037E+03  0.22540202495E+03 -0.41164522655E+03  0.82765387203E+03  0.25500000920E-02 0. -1.
       -2    1    3    3    0  502 -0.68172800037E+03 -0.22540202495E+03  0.30266638412E+03  0.77920862381E+03  0.25500000920E-02 0.  1.
</event>
<event>
 5   0  0.7901257E-05  0.1601405E+04  0.7818609E-02  0.8819685E-01
       -2   -1    0    0    0  501  0.00000000000E+00  0.00000000000E+00  0.15365393919E+04  0.15365393919E+04  0.25500000920E-02 0.  1.
        2   -1    0    0  501    0  0.00000000000E+00  0.00000000000E+00 -0.41725242421E+03  0.41725242421E+03  0.25500000920E-02 0. -1.
    10030    2    1    2    0    0  0.00000000000E+00  0.00000000000E+00  0.11192869677E+04  0.19537918161E+04  0.16014053655E+04 0.  0.
        2    1    3    3  502    0  0.31748674828E+03 -0.69237048390E+03  0.25843715747E+03  0.80434102635E+03  0.25500000920E-02 0. -1.
       -2    1    3    3    0  502 -0.31748674828E+03  0.69237048390E+03  0.86084981019E+03  0.11494507897E+04  0.25500000920E-02 0.  1.
</event>
<event>
 5   0  0.7901257E-05  0.1601632E+04  0.7818609E-02  0.8819546E-01
        2   -1    0    0  501    0  0.00000000000E+00  0.00000000000E+00  0.79893806014E+03  0.79893806015E+03  0.25500000920E-02 0. -1.
       -2   -1    0    0    0  501  0.00000000000E+00  0.00000000000E+00 -0.80269854698E+03  0.80269854698E+03  0.25500000920E-02 0.  1.
    10030    2    1    2    0    0  0.00000000000E+00  0.00000000000E+00 -0.37604868354E+01  0.16016366071E+04  0.16016321925E+04 0.  0.
        2    1    3    3  502    0 -0.16888530195E+03 -0.83229282148E+02  0.77649010627E+03  0.79899076576E+03  0.25500000920E-02 0. -1.
       -2    1    3    3    0  502  0.16888530195E+03  0.83229282148E+02 -0.78025059311E+03  0.80264584137E+03  0.25500000920E-02 0.  1.
</event>
<event>
 5   0  0.8620155E-05  0.1601782E+04  0.7818609E-02  0.8819454E-01
        2   -1    0    0  501    0  0.00000000000E+00  0.00000000000E+00  0.13052240620E+04  0.13052240620E+04  0.25500000920E-02 0.  1.
       -2   -1    0    0    0  501  0.00000000000E+00  0.00000000000E+00 -0.49143006282E+03  0.49143006282E+03  0.25500000920E-02 0. -1.
    10030    2    1    2    0    0  0.00000000000E+00  0.00000000000E+00  0.81379399919E+03  0.17966541248E+04  0.16017819362E+04 0.  0.
        4    1    3    3  502    0 -0.27077339006E+03 -0.63901872284E+03 -0.41432433070E+02  0.69525636733E+03  0.12699999809E+01 0.  1.
       -4    1    3    3    0  502  0.27077339006E+03  0.63901872284E+03  0.85522643226E+03  0.11013977575E+04  0.12699999809E+01 0. -1.
</event>
<event>
 5   0  0.8694033E-05  0.1600613E+04  0.7818609E-02  0.8820171E-01
       -2   -1    0    0    0  501  0.00000000000E+00  0.00000000000E+00  0.51941545761E+03  0.51941545762E+03  0.25500000920E-02 0.  1.
        2   -1    0    0  501    0  0.00000000000E+00  0.00000000000E+00 -0.12330990377E+04  0.12330990377E+04  0.25500000920E-02 0. -1.
    10030    2    1    2    0    0  0.00000000000E+00  0.00000000000E+00 -0.71368358007E+03  0.17525144953E+04  0.16006132587E+04 0.  0.
        1    1    3    3  502    0  0.26807259430E+03  0.80368286156E+02 -0.11777763681E+04  0.12105697627E+04  0.50400001928E-02 0. -1.
       -1    1    3    3    0  502 -0.26807259430E+03 -0.80368286156E+02  0.46409278802E+03  0.54194473256E+03  0.50400001928E-02 0.  1.
</event>
<event>
 5   0  0.3042125E-05  0.1600089E+04  0.7818609E-02  0.8820493E-01
        4   -1    0    0  501    0  0.00000000000E+00  0.00000000000E+00  0.12350896063E+04  0.12350902592E+04  0.12699999809E+01 0. -1.
       -4   -1    0    0    0  501  0.00000000000E+00  0.00000000000E+00 -0.51823720918E+03  0.51823876531E+03  0.12699999809E+01 0.  1.
    10030    2    1    2    0    0  0.00000000000E+00  0.00000000000E+00  0.71685239710E+03  0.17533290245E+04  0.16000891566E+04 0.  0.
        4    1    3    3  502    0 -0.41633851438E+03 -0.21139033987E+03 -0.35344131721E+03  0.58561592530E+03  0.12699999809E+01 0.  1.
       -4    1    3    3    0  502  0.41633851438E+03  0.21139033987E+03  0.10702937143E+04  0.11677130992E+04  0.12699999809E+01 0. -1.
</event>
<event>
 5   0  0.7901257E-05  0.1600849E+04  0.7818609E-02  0.8820027E-01
       -2   -1    0    0    0  501  0.00000000000E+00  0.00000000000E+00  0.10423512169E+04  0.10423512169E+04  0.25500000920E-02 0. -1.
        2   -1    0    0  501    0  0.00000000000E+00  0.00000000000E+00 -0.61464812482E+03  0.61464812482E+03  0.25500000920E-02 0.  1.
    10030    2    1    2    0    0  0.00000000000E+00  0.00000000000E+00  0.42770309212E+03  0.16569993418E+04  0.16008488010E+04 0.  0.
        2    1    3    3  502    0 -0.28642369074E+03 -0.61331725739E+03 -0.22831185188E+03  0.71436887568E+03  0.25500000920E-02 0.  1.
       -2    1    3    3    0  502  0.28642369074E+03  0.61331725739E+03  0.65601494400E+03  0.94263046608E+03  0.25500000920E-02 0. -1.
</event>
<event>
 5   0  0.7849690E-05  0.1599298E+04  0.7818609E-02  0.8820980E-01
       -2   -1    0    0    0  501  0.00000000000E+00  0.00000000000E+00  0.63019540208E+03  0.63019540208E+03  0.25500000920E-02 0. -1.
        2   -1    0    0  501    0  0.00000000000E+00  0.00000000000E+00 -0.10146667608E+04  0.10146667608E+04  0.25500000920E-02 0.  1.
    10030    2    1    2    0    0  0.00000000000E+00  0.00000000000E+00 -0.38447135869E+03  0.16448621629E+04  0.15992977550E+04 0.  0.
        3    1    3    3  502    0 -0.30698217286E+03  0.68780107192E+03 -0.46845750592E+03  0.88699538558E+03  0.10100000352E+00 0.  1.
       -3    1    3    3    0  502  0.30698217286E+03 -0.68780107192E+03  0.83986147227E+02  0.75786677728E+03  0.10100000352E+00 0. -1.
</event>
<event>
 5   0  0.3042125E-05  0.1601232E+04  0.7818609E-02  0.8819791E-01
        3   -1    0    0  501    0  0.00000000000E+00  0.00000000000E+00  0.11445270252E+04  0.11445270296E+04  0.10100000352E+00 0.  1.
       -3   -1    0    0    0  501  0.00000000000E+00  0.00000000000E+00 -0.56004447465E+03  0.56004448376E+03  0.10100000352E+00 0. -1.
    10030    2    1    2    0    0  0.00000000000E+00  0.00000000000E+00  0.58448255051E+03  0.17045715134E+04  0.16012320857E+04 0.  0.
        1    1    3    3  502    0  0.51116478398E+03  0.51273242580E+03 -0.71578427207E+02  0.72753518686E+03  0.50400001928E-02 0. -1.
       -1    1    3    3    0  502 -0.51116478398E+03 -0.51273242580E+03  0.65606097772E+03  0.97703632653E+03  0.50400001928E-02 0.  1.
</event>
<event>
 5   0  0.3042125E-05  0.1598422E+04  0.7818609E-02  0.8821518E-01
        3   -1    0    0  501    0  0.00000000000E+00  0.00000000000E+00  0.48400053647E+03  0.48400054701E+03  0.10100000352E+00 0. -1.
       -3   -1    0    0    0  501  0.00000000000E+00  0.00000000000E+00 -0.13197055911E+04  0.13197055950E+04  0.10100000352E+00 0.  1.
    10030    2    1    2    0    0  0.00000000000E+00  0.00000000000E+00 -0.83570505466E+03  0.18037061420E+04  0.15984220057E+04 0.  0.
        1    1    3    3  502    0 -0.36473828594E+03  0.61436544032E+03 -0.82198038931E+03  0.10890962638E+04  0.50400001928E-02 0.  1.
       -1    1    3    3    0  502  0.36473828594E+03 -0.61436544032E+03 -0.13724665350E+02  0.71460987816E+03  0.50400001928E-02 0. -1.
</event>
<event>
 5   0  0.4256406E-05  0.1604856E+04  0.7818609E-02  0.8817571E-01
       -1   -1    0    0    0  501  0.00000000000E+00  0.00000000000E+00  0.34397906525E+03  0.34397906529E+03  0.50400001928E-02 0.  1.
        1   -1    0    0  501    0  0.00000000000E+00  0.00000000000E+00 -0.18718884152E+04  0.18718884152E+04  0.50400001928E-02 0. -1.
    10030    2    1    2    0    0  0.00000000000E+00  0.00000000000E+00 -0.15279093500E+04  0.22158674805E+04  0.16048556662E+04 0.  0.
        3    1    3    3  502    0  0.43722857272E+03 -0.34278570499E+02 -0.16917647385E+04  0.17476875538E+04  0.10100000352E+00 0. -1.
       -3    1    3    3    0  502 -0.43722857272E+03  0.34278570499E+02  0.16385538853E+03  0.46817992668E+03  0.10100000352E+00 0.  1.
</event>
<event>
 5   0  0.8037548E-05  0.1602062E+04  0.7818609E-02  0.8819282E-01
        2   -1    0    0  501    0  0.00000000000E+00  0.00000000000E+00  0.14710432711E+04  0.14710432711E+04  0.25500000920E-02 0. -1.
       -2   -1    0    0    0  501  0.00000000000E+00  0.00000000000E+00 -0.43618768961E+03  0.43618768962E+03  0.25500000920E-02 0.  1.
    10030    2    1    2    0    0  0.00000000000E+00  0.00000000000E+00  0.10348555815E+04  0.19072309607E+04  0.16020623780E+04 0.  0.
        5    1    3    3  502    0  0.24207029577E+03 -0.55905753827E+03  0.11365777861E+04  0.12895636910E+04  0.46999998093E+01 0. -1.
       -5    1    3    3    0  502 -0.24207029577E+03  0.55905753827E+03 -0.10172220463E+03  0.61766726974E+03  0.46999998093E+01 0.  1.
</event>
<event>
 5   0  0.4373026E-05  0.1601234E+04  0.7818609E-02  0.8819790E-01
       -1   -1    0    0    0  501  0.00000000000E+00  0.00000000000E+00  0.58932138691E+03  0.58932138694E+03  0.50400001928E-02 0.  1.
        1   -1    0    0  501    0  0.00000000000E+00  0.00000000000E+00 -0.10876709020E+04  0.10876709021E+04  0.50400001928E-02 0. -1.
    10030    2    1    2    0    0  0.00000000000E+00  0.00000000000E+00 -0.49834951513E+03  0.16769922890E+04  0.16012341797E+04 0.  0.
        4    1    3    3  502    0  0.41738744728E+02 -0.17469534974E+03 -0.10662968822E+04  0.10813192137E+04  0.12699999809E+01 0. -1.
       -4    1    3    3    0  502 -0.41738744728E+02  0.17469534974E+03  0.56794736704E+03  0.59567307532E+03  0.12699999809E+01 0.  1.
</event>
<event>
 5   0  0.8694033E-05  0.1603719E+04  0.7818609E-02  0.8818267E-01
        2   -1    0    0  501    0  0.00000000000E+00  0.00000000000E+00  0.17521003791E+04  0.17521003791E+04  0.25500000920E-02 0. -1.
       -2   -1    0    0    0  501  0.00000000000E+00  0.00000000000E+00 -0.36697593388E+03  0.36697593389E+03  0.25500000920E-02 0.  1.
    10030    2    1    2    0    0  0.00000000000E+00  0.00000000000E+00  0.13851244452E+04  0.21190763130E+04  0.16037190189E+04 0.  0.
        1    1    3    3  502    0 -0.78123252802E+03 -0.13189456787E+03  0.52934332567E+03  0.95285087833E+03  0.50400001928E-02 0. -1.
       -1    1    3    3    0  502  0.78123252802E+03  0.13189456787E+03  0.85578111954E+03  0.11662254347E+04  0.50400001928E-02 0.  1.
</event>
<event>
 5   0  0.7901257E-05  0.1606966E+04  0.7818609E-02  0.8816280E-01
       -2   -1    0    0    0  501  0.00000000000E+00  0.00000000000E+00  0.27479580230E+03  0.27479580231E+03  0.25500000920E-02 0.  1.
        2   -1    0    0  501    0  0.00000000000E+00  0.00000000000E+00 -0.23493255577E+04  0.23493255577E+04  0.25500000920E-02 0. -1.
    10030    2    1    2    0    0  0.00000000000E+00  0.00000000000E+00 -0.20745297554E+04  0.26241213600E+04  0.16069658385E+04 0.  0.
        2    1    3    3  502    0 -0.48822019463E+03 -0.47842261268E+03 -0.34766244052E+03  0.76688742806E+03  0.25500000920E-02 0.  1.
       -2    1    3    3    0  502  0.48822019463E+03  0.47842261268E+03 -0.17268673149E+04  0.18572339320E+04  0.25500000920E-02 0. -1.
</event>
<event>
 5   0  0.4314657E-05  0.1598263E+04  0.7818609E-02  0.8821616E-01
       -1   -1    0    0    0  501  0.00000000000E+00  0.00000000000E+00  0.62646395723E+03  0.62646395725E+03  0.50400001928E-02 0.  1.
        1   -1    0    0  501    0  0.00000000000E+00  0.00000000000E+00 -0.10193897008E+04  0.10193897008E+04  0.50400001928E-02 0. -1.
    10030    2    1    2    0    0  0.00000000000E+00  0.00000000000E+00 -0.39292574358E+03  0.16458536581E+04  0.15982626892E+04 0.  0.
        5    1    3    3  502    0  0.50774571844E+03  0.23289737298E+03  0.39199113404E+03  0.68244123564E+03  0.46999998093E+01 0.  1.
       -5    1    3    3    0  502 -0.50774571844E+03 -0.23289737298E+03 -0.78491687762E+03  0.96341242244E+03  0.46999998093E+01 0. -1.
</event>
<event>
 5   0  0.7901257E-05  0.1596853E+04  0.7818609E-02  0.8822484E-01
       -2   -1    0    0    0  501  0.00000000000E+00  0.00000000000E+00  0.34172751667E+03  0.34172751668E+03  0.25500000920E-02 0. -1.
        2   -1    0    0  501    0  0.00000000000E+00  0.00000000000E+00 -0.18654775522E+04  0.18654775523E+04  0.25500000920E-02 0.  1.
    10030    2    1    2    0    0  0.00000000000E+00  0.00000000000E+00 -0.15237500356E+04  0.22072050689E+04  0.15968531696E+04 0.  0.
        2    1    3    3  502    0  0.43818042501E+03 -0.32744478919E+03  0.42030192322E+02  0.54862438144E+03  0.25500000920E-02 0. -1.
       -2    1    3    3    0  502 -0.43818042501E+03  0.32744478919E+03 -0.15657802279E+04  0.16585806875E+04  0.25500000920E-02 0.  1.
</event>
<event>
 5   0  0.8037548E-05  0.1597095E+04  0.7818609E-02  0.8822335E-01
        2   -1    0    0  501    0  0.00000000000E+00  0.00000000000E+00  0.66679769252E+03  0.66679769252E+03  0.25500000920E-02 0. -1.
       -2   -1    0    0    0  501  0.00000000000E+00  0.00000000000E+00 -0.95632938776E+03  0.95632938777E+03  0.25500000920E-02 0.  1.
    10030    2    1    2    0    0  0.00000000000E+00  0.00000000000E+00 -0.28953169525E+03  0.16231270803E+04  0.15970951494E+04 0.  0.
        5    1    3    3  502    0 -0.54845592066E+03  0.18852077861E+03  0.41310036756E+03  0.71205195355E+03  0.46999998093E+01 0. -1.
       -5    1    3    3    0  502  0.54845592066E+03 -0.18852077861E+03 -0.70263206281E+03  0.91107512674E+03  0.46999998093E+01 0.  1.
</event>
<event>
 5   0  0.4373026E-05  0.1603819E+04  0.7818609E-02  0.8818205E-01
        1   -1    0    0  501    0  0.00000000000E+00  0.00000000000E+00  0.87586458237E+03  0.87586458239E+03  0.50400001928E-02 0. -1.
       -1   -1    0    0    0  501  0.00000000000E+00  0.00000000000E+00 -0.73419901787E+03  0.73419901789E+03  0.50400001928E-02 0.  1.
    10030    2    1    2    0    0  0.00000000000E+00  0.00000000000E+00  0.14166556450E+03  0.16100636003E+04  0.16038190873E+04 0.  0.
        4    1    3    3  502    0 -0.19161301300E+03 -0.66414303911E+02  0.84969560087E+03  0.87356203761E+03  0.12699999809E+01 0. -1.
       -4    1    3    3    0  502  0.19161301300E+03  0.66414303911E+02 -0.70803003636E+03  0.73650156267E+03  0.12699999809E+01 0.  1.
</event>
<event>
 5   0  0.7849690E-05  0.1599498E+04  0.7818609E-02  0.8820856E-01
        2   -1    0    0  501    0  0.00000000000E+00  0.00000000000E+00  0.87826484621E+03  0.87826484621E+03  0.25500000920E-02 0.  1.
       -2   -1    0    0    0  501  0.00000000000E+00  0.00000000000E+00 -0.72825273787E+03  0.72825273787E+03  0.25500000920E-02 0. -1.
    10030    2    1    2    0    0  0.00000000000E+00  0.00000000000E+00  0.15001210834E+03  0.16065175841E+04  0.15994983949E+04 0.  0.
        3    1    3    3  502    0  0.49079066392E+03  0.58305666264E+03  0.31849146649E+03  0.82599477727E+03  0.10100000352E+00 0.  1.
       -3    1    3    3    0  502 -0.49079066392E+03 -0.58305666264E+03 -0.16847935815E+03  0.78052280682E+03  0.10100000352E+00 0. -1.
</event>
<event>
 5   0  0.4314657E-05  0.1601515E+04  0.7818609E-02  0.8819618E-01
       -1   -1    0    0    0  501  0.00000000000E+00  0.00000000000E+00  0.11120418201E+04  0.11120418201E+04  0.50400001928E-02 0. -1.
        1   -1    0    0  501    0  0.00000000000E+00  0.00000000000E+00 -0.57660812518E+03  0.57660812521E+03  0.50400001928E-02 0.  1.
    10030    2    1    2    0    0  0.00000000000E+00  0.00000000000E+00  0.53543369490E+03  0.16886499453E+04  0.16015147193E+04 0.  0.
        5    1    3    3  502    0  0.53319796617E+03  0.27115575241E+03 -0.29356578535E+03  0.66635461544E+03  0.46999998093E+01 0.  1.
       -5    1    3    3    0  502 -0.53319796617E+03 -0.27115575241E+03  0.82899948025E+03  0.10222953299E+04  0.46999998093E+01 0. -1.
</event>
<event>
 5   0  0.4256406E-05  0.1596105E+04  0.7818609E-02  0.8822944E-01
        1   -1    0    0  501    0  0.00000000000E+00  0.00000000000E+00  0.84029567384E+03  0.84029567385E+03  0.50400001928E-02 0. -1.
       -1   -1    0    0    0  501  0.00000000000E+00  0.00000000000E+00 -0.75793315912E+03  0.75793315914E+03  0.50400001928E-02 0.  1.
    10030    2    1    2    0    0  0.00000000000E+00  0.00000000000E+00  0.82362514717E+02  0.15982288330E+04  0.15961052029E+04 0.  0.
        3    1    3    3  502    0  0.58340429292E+03 -0.31822713847E+03 -0.40128772042E+03  0.77631238906E+03  0.10100000352E+00 0.  1.
       -3    1    3    3    0  502 -0.58340429292E+03  0.31822713847E+03  0.48365023514E+03  0.82191644393E+03  0.10100000352E+00 0. -1.
</event>
<event>
 5   0  0.4256406E-05  0.1599351E+04  0.7818609E-02  0.8820947E-01
       -1   -1    0    0    0  501  0.00000000000E+00  0.00000000000E+00  0.22936910752E+04  0.22936910752E+04  0.50400001928E-02 0.  1.
        1   -1    0    0  501    0  0.00000000000E+00  0.00000000000E+00 -0.27879989429E+03  0.27879989434E+03  0.50400001928E-02 0. -1.
    10030    2    1    2    0    0  0.00000000000E+00  0.00000000000E+00  0.20148911809E+04  0.25724909695E+04  0.15993509051E+04 0.  0.
        3    1    3    3  502    0 -0.27088947067E+03  0.69839377225E+03  0.55723251456E+03  0.93361825814E+03  0.10100000352E+00 0. -1.
       -3    1    3    3    0  502  0.27088947067E+03 -0.69839377225E+03  0.14576586663E+04  0.16388727114E+04  0.10100000352E+00 0.  1.
</event>
<event>
 5   0  0.4504463E-05  0.1600567E+04  0.7818609E-02  0.8820200E-01
       -1   -1    0    0    0  501  0.00000000000E+00  0.00000000000E+00  0.98176414849E+03  0.98176414851E+03  0.50400001928E-02 0. -1.
        1   -1    0    0  501    0  0.00000000000E+00  0.00000000000E+00 -0.65234989327E+03  0.65234989329E+03  0.50400001928E-02 0.  1.
    10030    2    1    2    0    0  0.00000000000E+00  0.00000000000E+00  0.32941425523E+03  0.16341140418E+04  0.16005670714E+04 0.  0.
        1    1    3    3  502    0 -0.44794874289E+02  0.43047787243E+02  0.97929843199E+03  0.98126709497E+03  0.50400001928E-02 0. -1.
       -1    1    3    3    0  502  0.44794874289E+02 -0.43047787243E+02 -0.64988417676E+03  0.65284694683E+03  0.50400001928E-02 0.  1.
</event>
<event>
 5   0  0.7849690E-05  0.1601384E+04  0.7818609E-02  0.8819698E-01
        2   -1    0    0  501    0  0.00000000000E+00  0.00000000000E+00  0.95423714048E+03  0.95423714049E+03  0.25500000920E-02 0.  1.
       -2   -1    0    0    0  501  0.00000000000E+00  0.00000000000E+00 -0.67185368201E+03  0.67185368202E+03  0.25500000920E-02 0. -1.
    10030    2    1    2    0    0  0.00000000000E+00  0.00000000000E+00  0.28238345847E+03  0.16260908225E+04  0.16013840718E+04 0.  0.
        3    1    3    3  502    0  0.72504667969E+03 -0.32246595177E+03  0.32627531681E+02  0.79419238463E+03  0.10100000352E+00 0.  1.
       -3    1    3    3    0  502 -0.72504667969E+03  0.32246595177E+03  0.24975592679E+03  0.83189843788E+03  0.10100000352E+00 0. -1.
</event>
<event>
 5   0  0.3042125E-05  0.1599991E+04  0.7818609E-02  0.8820554E-01
        3   -1    0    0  501    0  0.00000000000E+00  0.00000000000E+00  0.29731042659E+04  0.29731042676E+04  0.10100000352E+00 0.  1.
       -3   -1    0    0    0  501  0.00000000000E+00  0.00000000000E+00 -0.21526079930E+03  0.21526082299E+03  0.10100000352E+00 0. -1.
    10030    2    1    2    0    0  0.00000000000E+00  0.00000000000E+00  0.27578434666E+04  0.31883650906E+04  0.15999910514E+04 0.  0.
        2    1    3    3  502    0 -0.65037363380E+03 -0.35208105205E+03  0.77106793265E+03  0.10684066115E+04  0.25500000920E-02 0. -1.
       -2    1    3    3    0  502  0.65037363380E+03  0.35208105205E+03  0.19867755339E+04  0.21199584790E+04  0.25500000920E-02 0.  1.
</event>
<event>
 5   0  0.7849690E-05  0.1598919E+04  0.7818609E-02  0.8821212E-01
        2   -1    0    0  501    0  0.00000000000E+00  0.00000000000E+00  0.93952590496E+03  0.93952590497E+03  0.25500000920E-02 0.  1.
       -2   -1    0    0    0  501  0.00000000000E+00  0.00000000000E+00 -0.68027434895E+03  0.68027434896E+03  0.25500000920E-02 0. -1.
    10030    2    1    2    0    0  0.00000000000E+00  0.00000000000E+00  0.25925155601E+03  0.16198002539E+04  0.15989188514E+04 0.  0.
        3    1    3    3  502    0  0.47915517996E+03 -0.36385082985E+03  0.66295937821E+03  0.89526100118E+03  0.10100000352E+00 0.  1.
       -3    1    3    3    0  502 -0.47915517996E+03  0.36385082985E+03 -0.40370782220E+03  0.72453925275E+03  0.10100000352E+00 0. -1.
</event>
<event>
 5   0  0.8037548E-05  0.1601556E+04  0.7818609E-02  0.8819592E-01
        2   -1    0    0  501    0  0.00000000000E+00  0.00000000000E+00  0.19607827001E+04  0.19607827001E+04  0.25500000920E-02 0. -1.
       -2   -1    0    0    0  501  0.00000000000E+00  0.00000000000E+00 -0.32703559791E+03  0.32703559792E+03  0.25500000920E-02 0.  1.
    10030    2    1    2    0    0  0.00000000000E+00  0.00000000000E+00  0.16337471022E+04  0.22878182981E+04  0.16015564214E+04 0.  0.
        5    1    3    3  502    0 -0.18300159843E+03 -0.55559730274E+03  0.15980480737E+04  0.17017513578E+04  0.46999998093E+01 0. -1.
       -5    1    3    3    0  502  0.18300159843E+03  0.55559730274E+03  0.35699028515E+02  0.58606694027E+03  0.46999998093E+01 0.  1.
</event>
<event>
 5   0  0.4211419E-05  0.1572303E+04  0.7818609E-02  0.8837746E-01
       -1   -1    0    0    0  501  0.00000000000E+00  0.00000000000E+00  0.17858312332E+04  0.17858312332E+04  0.50400001928E-02 0. -1.
        1   -1    0    0  501    0  0.00000000000E+00  0.00000000000E+00 -0.34607653042E+03  0.34607653045E+03  0.50400001928E-02 0.  1.
    10030    2    1    2    0    0  0.00000000000E+00  0.00000000000E+00  0.14397547028E+04  0.21319077636E+04  0.15723031224E+04 0.  0.
        2    1    3    3  502    0  0.36576723426E+03  0.24171123436E+03  0.16046819030E+04  0.16634945146E+04  0.25500000920E-02 0. -1.
       -2    1    3    3    0  502 -0.36576723426E+03 -0.24171123436E+03 -0.16492720021E+03  0.46841324901E+03  0.25500000920E-02 0.  1.
</event>
<event>
 5   0  0.4373026E-05  0.1606878E+04  0.7818609E-02  0.8816334E-01
        1   -1    0    0  501    0  0.00000000000E+00  0.00000000000E+00  0.17236600510E+04  0.17236600510E+04  0.50400001928E-02 0.  1.
       -1   -1    0    0    0  501  0.00000000000E+00  0.00000000000E+00 -0.37450197417E+03  0.37450197421E+03  0.50400001928E-02 0. -1.
    10030    2    1    2    0    0  0.00000000000E+00  0.00000000000E+00  0.13491580768E+04  0.20981620252E+04  0.16068778322E+04 0.  0.
        4    1    3    3  502    0 -0.44489641065E+03 -0.44382224014E+03  0.13282331246E+04  0.14693930187E+04  0.12699999809E+01 0.  1.
       -4    1    3    3    0  502  0.44489641065E+03  0.44382224014E+03  0.20924952193E+02  0.62876900654E+03  0.12699999809E+01 0. -1.
</event>
<event>
 5   0  0.7901257E-05  0.1599465E+04  0.7818609E-02  0.8820877E-01
       -2   -1    0    0    0  501  0.00000000000E+00  0.00000000000E+00  0.41702113266E+03  0.41702113267E+03  0.25500000920E-02 0.  1.
        2   -1    0    0  501    0  0.00000000000E+00  0.00000000000E+00 -0.15336688012E+04  0.15336688012E+04  0.25500000920E-02 0. -1.
    10030    2    1    2    0    0  0.00000000000E+00  0.00000000000E+00 -0.11166476686E+04  0.19506899339E+04  0.15994652864E+04 0.  0.
        2    1    3    3  502    0  0.63112767422E+03 -0.11879969219E+03  0.22918406480E+02  0.64262023108E+03  0.25500000920E-02 0.  1.
       -2    1    3    3    0  502 -0.63112767422E+03  0.11879969219E+03 -0.11395660750E+04  0.13080697028E+04  0.25500000920E-02 0. -1.
</event>
<event>
 5   0  0.7849690E-05  0.1596887E+04  0.7818609E-02  0.8822463E-01
       -2   -1    0    0    0  501  0.00000000000E+00  0.00000000000E+00  0.31584115921E+03  0.31584115922E+03  0.25500000920E-02 0.  1.
        2   -1    0    0  501    0  0.00000000000E+00  0.00000000000E+00 -0.20184574896E+04  0.20184574896E+04  0.25500000920E-02 0. -1.
    10030    2    1    2    0    0  0.00000000000E+00  0.00000000000E+00 -0.17026163304E+04  0.23342986488E+04  0.15968869132E+04 0.  0.
        3    1    3    3  502    0  0.44979287653E+03 -0.56948957629E+03 -0.13380612763E+04  0.15221826430E+04  0.10100000352E+00 0. -1.
       -3    1    3    3    0  502 -0.44979287653E+03  0.56948957629E+03 -0.36455505410E+03  0.81211600584E+03  0.10100000352E+00 0.  1.
</event>
<event>
 5   0  0.4504463E-05  0.1604908E+04  0.7818609E-02  0.8817539E-01
        1   -1    0    0  501    0  0.00000000000E+00  0.00000000000E+00  0.79956848280E+03  0.79956848282E+03  0.50400001928E-02 0.  1.
       -1   -1    0    0    0  501  0.00000000000E+00  0.00000000000E+00 -0.80534977782E+03  0.80534977783E+03  0.50400001928E-02 0. -1.
    10030    2    1    2    0    0  0.00000000000E+00  0.00000000000E+00 -0.57812950128E+01  0.16049182607E+04  0.16049078478E+04 0.  0.
        1    1    3    3  502    0  0.72789907153E+03  0.21684007604E+03 -0.26188194745E+03  0.80339207822E+03  0.50400001928E-02 0. -1.
       -1    1    3    3    0  502 -0.72789907153E+03 -0.21684007604E+03  0.25610065244E+03  0.80152618243E+03  0.50400001928E-02 0.  1.
</event>
<event>
 5   0  0.8037548E-05  0.1598040E+04  0.7818609E-02  0.8821753E-01
        2   -1    0    0  501    0  0.00000000000E+00  0.00000000000E+00  0.49455435945E+03  0.49455435946E+03  0.25500000920E-02 0.  1.
       -2   -1    0    0    0  501  0.00000000000E+00  0.00000000000E+00 -0.12909261119E+04  0.12909261119E+04  0.25500000920E-02 0. -1.
    10030    2    1    2    0    0  0.00000000000E+00  0.00000000000E+00 -0.79637175245E+03  0.17854804714E+04  0.15980402202E+04 0.  0.
        5    1    3    3  502    0  0.76336206428E+02 -0.44103845268E+03 -0.11376866223E+04  0.12225772261E+04  0.46999998093E+01 0. -1.
       -5    1    3    3    0  502 -0.76336206428E+02  0.44103845268E+03  0.34131486986E+03  0.56290324527E+03  0.46999998093E+01 0.  1.
</event>
<event>
 5   0  0.4373026E-05  0.1637698E+04  0.7818609E-02  0.8797718E-01
       -1   -1    0    0    0  501  0.00000000000E+00  0.00000000000E+00  0.13312045848E+04  0.13312045848E+04  0.50400001928E-02 0.  1.
        1   -1    0    0  501    0  0.00000000000E+00  0.00000000000E+00 -0.50368916217E+03  0.50368916220E+03  0.50400001928E-02 0. -1.
    10030    2    1    2    0    0  0.00000000000E+00  0.00000000000E+00  0.82751542262E+03  0.18348937470E+04  0.16376975570E+04 0.  0.
        4    1    3    3  502    0  0.74519268098E+03 -0.27618285468E+03  0.19271398847E+03  0.81775876348E+03  0.12699999809E+01 0. -1.
       -4    1    3    3    0  502 -0.74519268098E+03  0.27618285468E+03  0.63480143415E+03  0.10171349835E+04  0.12699999809E+01 0.  1.
</event>
<event>
 5   0  0.4314657E-05  0.1594990E+04  0.7818609E-02  0.8823632E-01
       -1   -1    0    0    0  501  0.00000000000E+00  0.00000000000E+00  0.70616041008E+03  0.70616041009E+03  0.50400001928E-02 0.  1.
        1   -1    0    0  501    0  0.00000000000E+00  0.00000000000E+00 -0.90064289962E+03  0.90064289963E+03  0.50400001928E-02 0. -1.
    10030    2    1    2    0    0  0.00000000000E+00  0.00000000000E+00 -0.19448248954E+03  0.16068033097E+04  0.15949901057E+04 0.  0.
        5    1    3    3  502    0 -0.57015367462E+03  0.27250732654E+02 -0.65828474593E+03  0.87130862032E+03  0.46999998093E+01 0. -1.
       -5    1    3    3    0  502  0.57015367462E+03 -0.27250732654E+02  0.46380225639E+03  0.73549468941E+03  0.46999998093E+01 0.  1.
</event>
<event>
 5   0  0.7901257E-05  0.1604084E+04  0.7818609E-02  0.8818043E-01
       -2   -1    0    0    0  501  0.00000000000E+00  0.00000000000E+00  0.10584144993E+04  0.10584144993E+04  0.25500000920E-02 0. -1.
        2   -1    0    0  501    0  0.00000000000E+00  0.00000000000E+00 -0.60776921719E+03  0.60776921720E+03  0.25500000920E-02 0.  1.
    10030    2    1    2    0    0  0.00000000000E+00  0.00000000000E+00  0.45064528211E+03  0.16661837165E+04  0.16040844762E+04 0.  0.
        2    1    3    3  502    0  0.82107086916E+02 -0.77206252434E+03  0.16415655936E+02  0.77658971728E+03  0.25500000920E-02 0.  1.
       -2    1    3    3    0  502 -0.82107086916E+02  0.77206252434E+03  0.43422962617E+03  0.88959399923E+03  0.25500000920E-02 0. -1.
</event>
<event>
 5   0  0.4504463E-05  0.1602419E+04  0.7818609E-02  0.8819063E-01
       -1   -1    0    0    0  501  0.00000000000E+00  0.00000000000E+00  0.74396465593E+03  0.74396465595E+03  0.50400001928E-02 0.  1.
        1   -1    0    0  501    0  0.00000000000E+00  0.00000000000E+00 -0.86285902747E+03  0.86285902748E+03  0.50400001928E-02 0. -1.
    10030    2    1    2    0    0  0.00000000000E+00  0.00000000000E+00 -0.11889437154E+03  0.16068236834E+04  0.16024189459E+04 0.  0.
        1    1    3    3  502    0 -0.22976833895E+03  0.25053856096E+03 -0.78695755229E+03  0.85724281814E+03  0.50400001928E-02 0. -1.
       -1    1    3    3    0  502  0.22976833895E+03 -0.25053856096E+03  0.66806318075E+03  0.74958086529E+03  0.50400001928E-02 0.  1.
</event>
<event>
 5   0  0.4211419E-05  0.1595893E+04  0.7818609E-02  0.8823075E-01
       -1   -1    0    0    0  501  0.00000000000E+00  0.00000000000E+00  0.70627597545E+03  0.70627597546E+03  0.50400001928E-02 0. -1.
        1   -1    0    0  501    0  0.00000000000E+00  0.00000000000E+00 -0.90151500093E+03  0.90151500094E+03  0.50400001928E-02 0.  1.
    10030    2    1    2    0    0  0.00000000000E+00  0.00000000000E+00 -0.19523902548E+03  0.16077909764E+04  0.15958927115E+04 0.  0.
        2    1    3    3  502    0  0.13038859646E+03 -0.61195029027E+03 -0.59652269544E+03  0.86447884302E+03  0.25500000920E-02 0.  1.
       -2    1    3    3    0  502 -0.13038859646E+03  0.61195029027E+03  0.40128366996E+03  0.74331213338E+03  0.25500000920E-02 0. -1.
</event>
<event>
 5   0  0.8037548E-05  0.1575010E+04  0.7818609E-02  0.8836049E-01
        2   -1    0    0  501    0  0.00000000000E+00  0.00000000000E+00  0.10662275267E+04  0.10662275267E+04  0.25500000920E-02 0. -1.
       -2   -1    0    0    0  501  0.00000000000E+00  0.00000000000E+00 -0.58164348881E+03  0.58164348882E+03  0.25500000920E-02 0.  1.
    10030    2    1    2    0    0  0.00000000000E+00  0.00000000000E+00  0.48458403790E+03  0.16478710155E+04  0.15750102203E+04 0.  0.
        5    1    3    3  502    0  0.59695136775E+03  0.51269837622E+03  0.21035710253E+03  0.81454451138E+03  0.46999998093E+01 0. -1.
       -5    1    3    3    0  502 -0.59695136775E+03 -0.51269837622E+03  0.27422693536E+03  0.83332650415E+03  0.46999998093E+01 0.  1.
</event>
<event>
 5   0  0.8620155E-05  0.1598668E+04  0.7818609E-02  0.8821367E-01
       -2   -1    0    0    0  501  0.00000000000E+00  0.00000000000E+00  0.39942675655E+03  0.39942675656E+03  0.25500000920E-02 0. -1.
        2   -1    0    0  501    0  0.00000000000E+00  0.00000000000E+00 -0.15996286001E+04  0.15996286001E+04  0.25500000920E-02 0.  1.
    10030    2    1    2    0    0  0.00000000000E+00  0.00000000000E+00 -0.12002018436E+04  0.19990553567E+04  0.15986675245E+04 0.  0.
        4    1    3    3  502    0 -0.20309401388E+03 -0.51073619260E+03 -0.13258304049E+04  0.14352444086E+04  0.12699999809E+01 0.  1.
       -4    1    3    3    0  502  0.20309401388E+03  0.51073619260E+03  0.12562856131E+03  0.56381094812E+03  0.12699999809E+01 0. -1.
</event>
<event>
 5   0  0.4211419E-05  0.1598827E+04  0.7818609E-02  0.8821269E-01
        1   -1    0    0  501    0  0.00000000000E+00  0.00000000000E+00  0.43437954195E+03  0.43437954198E+03  0.50400001928E-02 0.  1.
       -1   -1    0    0    0  501  0.00000000000E+00  0.00000000000E+00 -0.14712061778E+04  0.14712061778E+04  0.50400001928E-02 0. -1.
    10030    2    1    2    0    0  0.00000000000E+00  0.00000000000E+00 -0.10368266358E+04  0.19055857198E+04  0.15988269020E+04 0.  0.
        2    1    3    3  502    0 -0.28711383655E+03 -0.48465999621E+03  0.15762965957E+03  0.58495878201E+03  0.25500000920E-02 0.  1.
       -2    1    3    3    0  502  0.28711383655E+03  0.48465999621E+03 -0.11944562954E+04  0.13206269377E+04  0.25500000920E-02 0. -1.
</event>
<event>
 5   0  0.4256406E-05  0.1599968E+04  0.7818609E-02  0.8820568E-01
        1   -1    0    0  501    0  0.00000000000E+00  0.00000000000E+00  0.57282884527E+03  0.57282884529E+03  0.50400001928E-02 0.  1.
       -1   -1    0    0    0  501  0.00000000000E+00  0.00000000000E+00 -0.11172172607E+04  0.11172172607E+04  0.50400001928E-02 0. -1.
    10030    2    1    2    0    0  0.00000000000E+00  0.00000000000E+00 -0.54438841541E+03  0.16900461060E+04  0.15999678414E+04 0.  0.
        3    1    3    3  502    0  0.10141741621E+03  0.35382993961E+03 -0.10224596339E+04  0.10866944518E+04  0.10100000352E+00 0. -1.
       -3    1    3    3    0  502 -0.10141741621E+03 -0.35382993961E+03  0.47807121846E+03  0.60335165418E+03  0.10100000352E+00 0.  1.
</event>
<event>
 5   0  0.4211419E-05  0.1600943E+04  0.7818609E-02  0.8819969E-01
        1   -1    0    0  501    0  0.00000000000E+00  0.00000000000E+00  0.15937248123E+04  0.15937248123E+04  0.50400001928E-02 0. -1.
       -1   -1    0    0    0  501  0.00000000000E+00  0.00000000000E+00 -0.40204836775E+03  0.40204836778E+03  0.50400001928E-02 0.  1.
    10030    2    1    2    0    0  0.00000000000E+00  0.00000000000E+00  0.11916764445E+04  0.19957731801E+04  0.16009427965E+04 0.  0.
        2    1    3    3  502    0 -0.47778575730E+03  0.14557906410E+03 -0.18395648567E+03  0.53227106103E+03  0.25500000920E-02 0.  1.
       -2    1    3    3    0  502  0.47778575730E+03 -0.14557906410E+03  0.13756329302E+04  0.14635021190E+04  0.25500000920E-02 0. -1.
</event>
<event>
 5   0  0.7849690E-05  0.1600772E+04  0.7818609E-02  0.8820074E-01
       -2   -1    0    0    0  501  0.00000000000E+00  0.00000000000E+00  0.39108555807E+03  0.39108555807E+03  0.25500000920E-02 0.  1.
        2   -1    0    0  501    0  0.00000000000E+00  0.00000000000E+00 -0.16380506314E+04  0.16380506314E+04  0.25500000920E-02 0. -1.
    10030    2    1    2    0    0  0.00000000000E+00  0.00000000000E+00 -0.12469650733E+04  0.20291361894E+04  0.16007722453E+04 0.  0.
        3    1    3    3  502    0 -0.29301153374E+03 -0.37320681022E+03  0.19358153291E+03  0.51245770771E+03  0.10100000352E+00 0.  1.
       -3    1    3    3    0  502  0.29301153374E+03  0.37320681022E+03 -0.14405466062E+04  0.15166784817E+04  0.10100000352E+00 0. -1.
</event>
<event>
 5   0  0.4314657E-05  0.1579055E+04  0.7818609E-02  0.8833520E-01
       -1   -1    0    0    0  501  0.00000000000E+00  0.00000000000E+00  0.35589917044E+03  0.35589917048E+03  0.50400001928E-02 0. -1.
        1   -1    0    0  501    0  0.00000000000E+00  0.00000000000E+00 -0.17514895317E+04  0.17514895317E+04  0.50400001928E-02 0.  1.
    10030    2    1    2    0    0  0.00000000000E+00  0.00000000000E+00 -0.13955903613E+04  0.21073887022E+04  0.15790549977E+04 0.  0.
        5    1    3    3  502    0 -0.21350861355E+03  0.70610250769E+03 -0.32229190473E+03  0.80502226136E+03  0.46999998093E+01 0. -1.
       -5    1    3    3    0  502  0.21350861355E+03 -0.70610250769E+03 -0.10732984565E+04  0.13023664408E+04  0.46999998093E+01 0.  1.
</event>
<event>
 5   0  0.4373026E-05  0.1601867E+04  0.7818609E-02  0.8819402E-01
        1   -1    0    0  501    0  0.00000000000E+00  0.00000000000E+00  0.11514465866E+04  0.11514465866E+04  0.50400001928E-02 0.  1.
       -1   -1    0    0    0  501  0.00000000000E+00  0.00000000000E+00 -0.55712082391E+03  0.55712082393E+03  0.50400001928E-02 0. -1.
    10030    2    1    2    0    0  0.00000000000E+00  0.00000000000E+00  0.59432576269E+03  0.17085674105E+04  0.16018674989E+04 0.  0.
        4    1    3    3  502    0 -0.14307671616E+03 -0.27388874359E+03  0.10853053686E+04  0.11284393411E+04  0.12699999809E+01 0.  1.
       -4    1    3    3    0  502  0.14307671616E+03  0.27388874359E+03 -0.49097960593E+03  0.58012806940E+03  0.12699999809E+01 0. -1.
</event>
<event>
 5   0  0.4256406E-05  0.1601065E+04  0.7818609E-02  0.8819894E-01
        1   -1    0    0  501    0  0.00000000000E+00  0.00000000000E+00  0.10306056509E+04  0.10306056509E+04  0.50400001928E-02 0.  1.
       -1   -1    0    0    0  501  0.00000000000E+00  0.00000000000E+00 -0.62182106487E+03  0.62182106489E+03  0.50400001928E-02 0. -1.
    10030    2    1    2    0    0  0.00000000000E+00  0.00000000000E+00  0.40878458607E+03  0.16524267158E+04  0.16010650247E+04 0.  0.
        3    1    3    3  502    0  0.65051298682E+03  0.28155975248E+03  0.58836097204E+03  0.92120121790E+03  0.10100000352E+00 0.  1.
       -3    1    3    3    0  502 -0.65051298682E+03 -0.28155975248E+03 -0.17957638597E+03  0.73122549794E+03  0.10100000352E+00 0. -1.
</event>
<event>
 5   0  0.8694033E-05  0.1598234E+04  0.7818609E-02  0.8821633E-01
       -2   -1    0    0    0  501  0.00000000000E+00  0.00000000000E+00  0.20007151066E+04  0.20007151066E+04  0.25500000920E-02 0. -1.
        2   -1    0    0  501    0  0.00000000000E+00  0.00000000000E+00 -0.31918002120E+03  0.31918002121E+03  0.25500000920E-02 0.  1.
    10030    2    1    2    0    0  0.00000000000E+00  0.00000000000E+00  0.16815350854E+04  0.23198951278E+04  0.15982343885E+04 0.  0.
        1    1    3    3  502    0 -0.61584580147E+03 -0.50761306652E+03  0.78178418175E+03  0.11171945146E+04  0.50400001928E-02 0.  1.
       -1    1    3    3    0  502  0.61584580147E+03  0.50761306652E+03  0.89975090364E+03  0.12027006133E+04  0.50400001928E-02 0. -1.
</event>
<event>
 5   0  0.4504463E-05  0.1594863E+04  0.7818609E-02  0.8823710E-01
       -1   -1    0    0    0  501  0.00000000000E+00  0.00000000000E+00  0.31106496206E+03  0.31106496210E+03  0.50400001928E-02 0.  1.
        1   -1    0    0  501    0  0.00000000000E+00  0.00000000000E+00 -0.20442572394E+04  0.20442572394E+04  0.50400001928E-02 0. -1.
    10030    2    1    2    0    0  0.00000000000E+00  0.00000000000E+00 -0.17331922773E+04  0.23553222015E+04  0.15948627535E+04 0.  0.
        1    1    3    3  502    0 -0.52878246576E+03 -0.53118456748E+03 -0.12686837296E+04  0.14735421089E+04  0.50400001928E-02 0. -1.
       -1    1    3    3    0  502  0.52878246576E+03  0.53118456748E+03 -0.46450854776E+03  0.88178009265E+03  0.50400001928E-02 0.  1.
</event>
<event>
 5   0  0.7849690E-05  0.1599046E+04  0.7818609E-02  0.8821134E-01
       -2   -1    0    0    0  501  0.00000000000E+00  0.00000000000E+00  0.77477808978E+03  0.77477808978E+03  0.25500000920E-02 0. -1.
        2   -1    0    0  501    0  0.00000000000E+00  0.00000000000E+00 -0.82505859697E+03  0.82505859698E+03  0.25500000920E-02 0.  1.
    10030    2    1    2    0    0  0.00000000000E+00  0.00000000000E+00 -0.50280507196E+02  0.15998366868E+04  0.15990463705E+04 0.  0.
        3    1    3    3  502    0 -0.58463365115E+03  0.32351142671E+03  0.41414527147E+03  0.78611224730E+03  0.10100000352E+00 0. -1.
       -3    1    3    3    0  502  0.58463365115E+03 -0.32351142671E+03 -0.46442577866E+03  0.81372443946E+03  0.10100000352E+00 0.  1.
</event>
<event>
 5   0  0.7849690E-05  0.1602060E+04  0.7818609E-02  0.8819284E-01
       -2   -1    0    0    0  501  0.00000000000E+00  0.00000000000E+00  0.11786871749E+04  0.11786871749E+04  0.25500000920E-02 0. -1.
        2   -1    0    0  501    0  0.00000000000E+00  0.00000000000E+00 -0.54437584985E+03  0.54437584985E+03  0.25500000920E-02 0.  1.
    10030    2    1    2    0    0  0.00000000000E+00  0.00000000000E+00  0.63431132510E+03  0.17230630248E+04  0.16020597150E+04 0.  0.
        3    1    3    3  502    0  0.49151255901E+03 -0.62572475525E+03  0.41650550019E+03  0.89810517584E+03  0.10100000352E+00 0. -1.
       -3    1    3    3    0  502 -0.49151255901E+03  0.62572475525E+03  0.21780582491E+03  0.82495784896E+03  0.10100000352E+00 0.  1.
</event>
<event>
 5   0  0.8620155E-05  0.1599976E+04  0.7818609E-02  0.8820563E-01
       -2   -1    0    0    0  501  0.00000000000E+00  0.00000000000E+00  0.34721095369E+03  0.34721095370E+03  0.25500000920E-02 0. -1.
        2   -1    0    0  501    0  0.00000000000E+00  0.00000000000E+00 -0.18432035780E+04  0.18432035780E+04  0.25500000920E-02 0.  1.
    10030    2    1    2    0    0  0.00000000000E+00  0.00000000000E+00 -0.14959926243E+04  0.21904145317E+04  0.15999755900E+04 0.  0.
        4    1    3    3  502    0 -0.36546832895E+03 -0.54082957700E+03 -0.11480681144E+03  0.66275632602E+03  0.12699999809E+01 0. -1.
       -4    1    3    3    0  502  0.36546832895E+03  0.54082957700E+03 -0.13811858129E+04  0.15276582057E+04  0.12699999809E+01 0.  1.
</event>
<event>
 5   0  0.4256406E-05  0.1599839E+04  0.7818609E-02  0.8820647E-01
        1   -1    0    0  501    0  0.00000000000E+00  0.00000000000E+00  0.15777529014E+04  0.15777529015E+04  0.50400001928E-02 0. -1.
       -1   -1    0    0    0  501  0.00000000000E+00  0.00000000000E+00 -0.40555878552E+03  0.40555878555E+03  0.50400001928E-02 0.  1.
    10030    2    1    2    0    0  0.00000000000E+00  0.00000000000E+00  0.11721941159E+04  0.19833116870E+04  0.15998394302E+04 0.  0.
        3    1    3    3  502    0 -0.10789045862E+03  0.77038103462E+03  0.35502041446E+03  0.85508291671E+03  0.10100000352E+00 0. -1.
       -3    1    3    3    0  502  0.10789045862E+03 -0.77038103462E+03  0.81717370147E+03  0.11282287703E+04  0.10100000352E+00 0.  1.
</event>
<event>
 5   0  0.8620155E-05  0.1601652E+04  0.7818609E-02  0.8819534E-01
        2   -1    0    0  501    0  0.00000000000E+00  0.00000000000E+00  0.14101311913E+04  0.14101311913E+04  0.25500000920E-02 0.  1.
       -2   -1    0    0    0  501  0.00000000000E+00  0.00000000000E+00 -0.45479628843E+03  0.45479628844E+03  0.25500000920E-02 0. -1.
    10030    2    1    2    0    0  0.00000000000E+00  0.00000000000E+00  0.95533490282E+03  0.18649274797E+04  0.16016521870E+04 0.  0.
        4    1    3    3  502    0  0.33452465674E+03  0.55437019122E+03  0.10263941017E+04  0.12135565581E+04  0.12699999809E+01 0.  1.
       -4    1    3    3    0  502 -0.33452465674E+03 -0.55437019122E+03 -0.71059198828E+02  0.65137092161E+03  0.12699999809E+01 0. -1.
</event>
<event>
 5   0  0.4314657E-05  0.1602951E+04  0.7818609E-02  0.8818737E-01
       -1   -1    0    0    0  501  0.00000000000E+00  0.00000000000E+00  0.65992771227E+03  0.65992771229E+03  0.50400001928E-02 0. -1.
        1   -1    0    0  501    0  0.00000000000E+00  0.00000000000E+00 -0.97338362821E+03  0.97338362822E+03  0.50400001928E-02 0.  1.
    10030    2    1    2    0    0  0.00000000000E+00  0.00000000000E+00 -0.31345591594E+03  0.16333113405E+04  0.16029508176E+04 0.  0.
        5    1    3    3  502    0  0.25510905382E+03 -0.74852104174E+03 -0.23966782291E+02  0.79117689294E+03  0.46999998093E+01 0. -1.
       -5    1    3    3    0  502 -0.25510905382E+03  0.74852104174E+03 -0.28948913365E+03  0.84213444756E+03  0.46999998093E+01 0.  1.
</event>
<event>
 5   0  0.8694033E-05  0.1599655E+04  0.7818609E-02  0.8820760E-01
       -2   -1    0    0    0  501  0.00000000000E+00  0.00000000000E+00  0.38828101551E+03  0.38828101552E+03  0.25500000920E-02 0.  1.
        2   -1    0    0  501    0  0.00000000000E+00  0.00000000000E+00 -0.16475794984E+04  0.16475794984E+04  0.25500000920E-02 0. -1.
    10030    2    1    2    0    0  0.00000000000E+00  0.00000000000E+00 -0.12592984829E+04  0.20358605139E+04  0.15996547637E+04 0.  0.
        1    1    3    3  502    0 -0.48472935965E+03 -0.55545158893E+03 -0.10244589985E+04  0.12621431216E+04  0.50400001928E-02 0. -1.
       -1    1    3    3    0  502  0.48472935965E+03  0.55545158893E+03 -0.23483948441E+03  0.77371739234E+03  0.50400001928E-02 0.  1.
</event>
<event>
 5   0  0.4211419E-05  0.1598391E+04  0.7818609E-02  0.8821537E-01
       -1   -1    0    0    0  501  0.00000000000E+00  0.00000000000E+00  0.50136781340E+03  0.50136781342E+03  0.50400001928E-02 0. -1.
        1   -1    0    0  501    0  0.00000000000E+00  0.00000000000E+00 -0.12739417892E+04  0.12739417892E+04  0.50400001928E-02 0.  1.
    10030    2    1    2    0    0  0.00000000000E+00  0.00000000000E+00 -0.77257397583E+03  0.17753096027E+04  0.15983909525E+04 0.  0.
        2    1    3    3  502    0 -0.52825581167E+03  0.40445945467E+03 -0.87809840797E+03  0.11016798388E+04  0.25500000920E-02 0.  1.
       -2    1    3    3    0  502  0.52825581167E+03 -0.40445945467E+03  0.10552443214E+03  0.67362976391E+03  0.25500000920E-02 0. -1.
</event>
<event>
 5   0  0.8037548E-05  0.1595018E+04  0.7818609E-02  0.8823614E-01
       -2   -1    0    0    0  501  0.00000000000E+00  0.00000000000E+00  0.73121660703E+03  0.73121660703E+03  0.25500000920E-02 0.  1.
        2   -1    0    0  501    0  0.00000000000E+00  0.00000000000E+00 -0.86981178420E+03  0.86981178421E+03  0.25500000920E-02 0. -1.
    10030    2    1    2    0    0  0.00000000000E+00  0.00000000000E+00 -0.13859517717E+03  0.16010283912E+04  0.15950182715E+04 0.  0.
        5    1    3    3  502    0 -0.27952622227E+03  0.51671346223E+03 -0.61065439111E+03  0.84737747573E+03  0.46999998093E+01 0. -1.
       -5    1    3    3    0  502  0.27952622227E+03 -0.51671346223E+03  0.47205921394E+03  0.75365091551E+03  0.46999998093E+01 0.  1.
</event>
<event>
 5   0  0.4256406E-05  0.1600224E+04  0.7818609E-02  0.8820410E-01
       -1   -1    0    0    0  501  0.00000000000E+00  0.00000000000E+00  0.58771268733E+03  0.58771268735E+03  0.50400001928E-02 0. -1.
        1   -1    0    0  501    0  0.00000000000E+00  0.00000000000E+00 -0.10892730420E+04  0.10892730420E+04  0.50400001928E-02 0.  1.
    10030    2    1    2    0    0  0.00000000000E+00  0.00000000000E+00 -0.50156035466E+03  0.16769857294E+04  0.16002244677E+04 0.  0.
        3    1    3    3  502    0  0.73992497225E+03 -0.25984181185E+03 -0.41705045027E+03  0.88822171782E+03  0.10100000352E+00 0.  1.
       -3    1    3    3    0  502 -0.73992497225E+03  0.25984181185E+03 -0.84509904386E+02  0.78876401153E+03  0.10100000352E+00 0. -1.
</event>
<event>
 5   0  0.4256406E-05  0.1599473E+04  0.7818609E-02  0.8820872E-01
       -1   -1    0    0    0  501  0.00000000000E+00  0.00000000000E+00  0.31635097276E+03  0.31635097280E+03  0.50400001928E-02 0.  1.
        1   -1    0    0  501    0  0.00000000000E+00  0.00000000000E+00 -0.20217363077E+04  0.20217363077E+04  0.50400001928E-02 0. -1.
    10030    2    1    2    0    0  0.00000000000E+00  0.00000000000E+00 -0.17053853350E+04  0.23380872805E+04  0.15994727227E+04 0.  0.
        3    1    3    3  502    0  0.44605638183E+03  0.26654748113E+03 -0.17413389639E+04  0.18172163473E+04  0.10100000352E+00 0. -1.
       -3    1    3    3    0  502 -0.44605638183E+03 -0.26654748113E+03  0.35953628920E+02  0.52087093325E+03  0.10100000352E+00 0.  1.
</event>
<event>
 5   0  0.3042125E-05  0.1600220E+04  0.7818609E-02  0.8820413E-01
        3   -1    0    0  501    0  0.00000000000E+00  0.00000000000E+00  0.79972593963E+03  0.79972594601E+03  0.10100000352E+00 0. -1.
       -3   -1    0    0    0  501  0.00000000000E+00  0.00000000000E+00 -0.80049470694E+03  0.80049471331E+03  0.10100000352E+00 0.  1.
    10030    2    1    2    0    0  0.00000000000E+00  0.00000000000E+00 -0.76876730769E+00  0.16002206593E+04  0.16002204747E+04 0.  0.
        4    1    3    3  502    0  0.16898518774E+03 -0.61798138329E+03 -0.47967328215E+03  0.80034058642E+03  0.12699999809E+01 0.  1.
       -4    1    3    3    0  502 -0.16898518774E+03  0.61798138329E+03  0.47890451484E+03  0.79988007289E+03  0.12699999809E+01 0. -1.
</event>
<event>
 5   0  0.4504463E-05  0.1602662E+04  0.7818609E-02  0.8818914E-01
        1   -1    0    0  501    0  0.00000000000E+00  0.00000000000E+00  0.16889110806E+04  0.16889110806E+04  0.50400001928E-02 0. -1.
       -1   -1    0    0    0  501  0.00000000000E+00  0.00000000000E+00 -0.38020447060E+03  0.38020447064E+03  0.50400001928E-02 0.  1.
    10030    2    1    2    0    0  0.00000000000E+00  0.00000000000E+00  0.13087066100E+04  0.20691155512E+04  0.16026622144E+04 0.  0.
        1    1    3    3  502    0  0.65911961090E+03  0.32145422523E+03  0.10714242280E+04  0.12983533251E+04  0.50400001928E-02 0. -1.
       -1    1    3    3    0  502 -0.65911961090E+03 -0.32145422523E+03  0.23728238195E+03  0.77076222611E+03  0.50400001928E-02 0.  1.
</event>
<event>
 5   0  0.4211419E-05  0.1602501E+04  0.7818609E-02  0.8819013E-01
       -1   -1    0    0    0  501  0.00000000000E+00  0.00000000000E+00  0.49942553401E+03  0.49942553404E+03  0.50400001928E-02 0. -1.
        1   -1    0    0  501    0  0.00000000000E+00  0.00000000000E+00 -0.12854816233E+04  0.12854816233E+04  0.50400001928E-02 0.  1.
    10030    2    1    2    0    0  0.00000000000E+00  0.00000000000E+00 -0.78605608929E+03  0.17849071574E+04  0.16025009781E+04 0.  0.
        2    1    3    3  502    0 -0.20609887055E+03 -0.63398955947E+03 -0.88812692002E+03  0.11104904016E+04  0.25500000920E-02 0.  1.
       -2    1    3    3    0  502  0.20609887055E+03  0.63398955947E+03  0.10207083073E+03  0.67441675576E+03  0.25500000920E-02 0. -1.
</event>
<event>
 5   0  0.4314657E-05  0.1598343E+04  0.7818609E-02  0.8821566E-01
       -1   -1    0    0    0  501  0.00000000000E+00  0.00000000000E+00  0.68261690947E+03  0.68261690949E+03  0.50400001928E-02 0.  1.
        1   -1    0    0  501    0  0.00000000000E+00  0.00000000000E+00 -0.93562781066E+03  0.93562781068E+03  0.50400001928E-02 0. -1.
    10030    2    1    2    0    0  0.00000000000E+00  0.00000000000E+00 -0.25301090120E+03  0.16182447202E+04  0.15983433480E+04 0.  0.
        5    1    3    3  502    0  0.50398175779E+03  0.44045526870E+03 -0.56858254574E+03  0.87824066020E+03  0.46999998093E+01 0. -1.
       -5    1    3    3    0  502 -0.50398175779E+03 -0.44045526870E+03  0.31557164454E+03  0.74000405996E+03  0.46999998093E+01 0.  1.
</event>
<event>
 5   0  0.8037548E-05  0.1600009E+04  0.7818609E-02  0.8820543E-01
       -2   -1    0    0    0  501  0.00000000000E+00  0.00000000000E+00  0.39524626084E+03  0.39524626085E+03  0.25500000920E-02 0.  1.
        2   -1    0    0  501    0  0.00000000000E+00  0.00000000000E+00 -0.16192612319E+04  0.16192612319E+04  0.25500000920E-02 0. -1.
    10030    2    1    2    0    0  0.00000000000E+00  0.00000000000E+00 -0.12240149710E+04  0.20145074927E+04  0.16000086840E+04 0.  0.
        5    1    3    3  502    0  0.39451437764E+03 -0.32994768631E+03 -0.13835123562E+04  0.14760201895E+04  0.46999998093E+01 0. -1.
       -5    1    3    3    0  502 -0.39451437764E+03  0.32994768631E+03  0.15949738522E+03  0.53848730324E+03  0.46999998093E+01 0.  1.
</event>
<event>
 5   0  0.4314657E-05  0.1596140E+04  0.7818609E-02  0.8822923E-01
        1   -1    0    0  501    0  0.00000000000E+00  0.00000000000E+00  0.95396371522E+03  0.95396371524E+03  0.50400001928E-02 0. -1.
       -1   -1    0    0    0  501  0.00000000000E+00  0.00000000000E+00 -0.66765184578E+03  0.66765184579E+03  0.50400001928E-02 0.  1.
    10030    2    1    2    0    0  0.00000000000E+00  0.00000000000E+00  0.28631186945E+03  0.16216155610E+04  0.15961398877E+04 0.  0.
        5    1    3    3  502    0 -0.40286587150E+03 -0.22436266500E+03  0.80489982506E+03  0.92764504756E+03  0.46999998093E+01 0. -1.
       -5    1    3    3    0  502  0.40286587150E+03  0.22436266500E+03 -0.51858795562E+03  0.69397051348E+03  0.46999998093E+01 0.  1.
</event>
<event>
 5   0  0.8694033E-05  0.1592293E+04  0.7818609E-02  0.8825297E-01
       -2   -1    0    0    0  501  0.00000000000E+00  0.00000000000E+00  0.43204656423E+03  0.43204656424E+03  0.25500000920E-02 0.  1.
        2   -1    0    0  501    0  0.00000000000E+00  0.00000000000E+00 -0.14670853957E+04  0.14670853957E+04  0.25500000920E-02 0. -1.
    10030    2    1    2    0    0  0.00000000000E+00  0.00000000000E+00 -0.10350388314E+04  0.18991319599E+04  0.15922929437E+04 0.  0.
        1    1    3    3  502    0 -0.15336655526E+03 -0.27764565321E+03 -0.13884706837E+04  0.14242398845E+04  0.50400001928E-02 0. -1.
       -1    1    3    3    0  502  0.15336655526E+03  0.27764565321E+03  0.35343185231E+03  0.47489207539E+03  0.50400001928E-02 0.  1.
</event>
<event>
 5   0  0.4504463E-05  0.1596400E+04  0.7818609E-02  0.8822762E-01
        1   -1    0    0  501    0  0.00000000000E+00  0.00000000000E+00  0.13608959001E+04  0.13608959001E+04  0.50400001928E-02 0.  1.
       -1   -1    0    0    0  501  0.00000000000E+00  0.00000000000E+00 -0.46816480761E+03  0.46816480763E+03  0.50400001928E-02 0. -1.
    10030    2    1    2    0    0  0.00000000000E+00  0.00000000000E+00  0.89273109245E+03  0.18290607077E+04  0.15964004100E+04 0.  0.
        1    1    3    3  502    0  0.60833129478E+03 -0.20178948440E+03 -0.98719979091E+02  0.64848407422E+03  0.50400001928E-02 0. -1.
       -1    1    3    3    0  502 -0.60833129478E+03  0.20178948440E+03  0.99145107154E+03  0.11805766335E+04  0.50400001928E-02 0.  1.
</event>
<event>
 5   0  0.8620155E-05  0.1599630E+04  0.7818609E-02  0.8820775E-01
       -2   -1    0    0    0  501  0.00000000000E+00  0.00000000000E+00  0.10958180296E+04  0.10958180296E+04  0.25500000920E-02 0. -1.
        2   -1    0    0  501    0  0.00000000000E+00  0.00000000000E+00 -0.58376877453E+03  0.58376877454E+03  0.25500000920E-02 0.  1.
    10030    2    1    2    0    0  0.00000000000E+00  0.00000000000E+00  0.51204925510E+03  0.16795868042E+04  0.15996303926E+04 0.  0.
        4    1    3    3  502    0  0.31133487936E+03  0.60569635621E+03 -0.18434992048E+03  0.70553808481E+03  0.12699999809E+01 0.  1.
       -4    1    3    3    0  502 -0.31133487936E+03 -0.60569635621E+03  0.69639917558E+03  0.97404871936E+03  0.12699999809E+01 0. -1.
</event>
<event>
 5   0  0.7849690E-05  0.1604458E+04  0.7818609E-02  0.8817814E-01
       -2   -1    0    0    0  501  0.00000000000E+00  0.00000000000E+00  0.53957537622E+03  0.53957537623E+03  0.25500000920E-02 0. -1.
        2   -1    0    0  501    0  0.00000000000E+00  0.00000000000E+00 -0.11927372722E+04  0.11927372722E+04  0.25500000920E-02 0.  1.
    10030    2    1    2    0    0  0.00000000000E+00  0.00000000000E+00 -0.65316189596E+03  0.17323126484E+04  0.16044583664E+04 0.  0.
        3    1    3    3  502    0  0.14507792020E+03  0.48913911189E+03  0.34183765076E+03  0.61413163360E+03  0.10100000352E+00 0. -1.
       -3    1    3    3    0  502 -0.14507792020E+03 -0.48913911189E+03 -0.99499954672E+03  0.11181810148E+04  0.10100000352E+00 0.  1.
</event>
<event>
 5   0  0.4256406E-05  0.1608758E+04  0.7818609E-02  0.8815186E-01
       -1   -1    0    0    0  501  0.00000000000E+00  0.00000000000E+00  0.44037648758E+03  0.44037648761E+03  0.50400001928E-02 0. -1.
        1   -1    0    0  501    0  0.00000000000E+00  0.00000000000E+00 -0.14692555278E+04  0.14692555278E+04  0.50400001928E-02 0.  1.
    10030    2    1    2    0    0  0.00000000000E+00  0.00000000000E+00 -0.10288790402E+04  0.19096320154E+04  0.16087580163E+04 0.  0.
        3    1    3    3  502    0 -0.34682150247E+03  0.71642600477E+03 -0.65222724099E+03  0.10290538173E+04  0.10100000352E+00 0.  1.
       -3    1    3    3    0  502  0.34682150247E+03 -0.71642600477E+03 -0.37665179925E+03  0.88057819810E+03  0.10100000352E+00 0. -1.
</event>
<event>
 5   0  0.4314657E-05  0.1599437E+04  0.7818609E-02  0.8820894E-01
       -1   -1    0    0    0  501  0.00000000000E+00  0.00000000000E+00  0.36564499497E+03  0.36564499501E+03  0.50400001928E-02 0.  1.
        1   -1    0    0  501    0  0.00000000000E+00  0.00000000000E+00 -0.17491002654E+04  0.17491002654E+04  0.50400001928E-02 0. -1.
    10030    2    1    2    0    0  0.00000000000E+00  0.00000000000E+00 -0.13834552704E+04  0.21147452604E+04  0.15994370982E+04 0.  0.
        5    1    3    3  502    0 -0.37828545898E+03  0.57776988271E+03 -0.15855951274E+03  0.70857683770E+03  0.46999998093E+01 0.  1.
       -5    1    3    3    0  502  0.37828545898E+03 -0.57776988271E+03 -0.12248957577E+04  0.14061684227E+04  0.46999998093E+01 0. -1.
</event>
<event>
 5   0  0.3042125E-05  0.1602059E+04  0.7818609E-02  0.8819284E-01
        3   -1    0    0  501    0  0.00000000000E+00  0.00000000000E+00  0.62511353359E+03  0.62511354175E+03  0.10100000352E+00 0. -1.
       -3   -1    0    0    0  501  0.00000000000E+00  0.00000000000E+00 -0.10264512779E+04  0.10264512829E+04  0.10100000352E+00 0.  1.
    10030    2    1    2    0    0  0.00000000000E+00  0.00000000000E+00 -0.40133774433E+03  0.16515648246E+04  0.16020594199E+04 0.  0.
        3    1    3    3  502    0 -0.98374389411E+01 -0.36355810810E+03  0.53509219557E+03  0.64698913525E+03  0.10100000352E+00 0. -1.
       -3    1    3    3    0  502  0.98374389411E+01  0.36355810810E+03 -0.93642993990E+03  0.10045756894E+04  0.10100000352E+00 0.  1.
</event>
<event>
 5   0  0.4211419E-05  0.1597536E+04  0.7818609E-02  0.8822063E-01
       -1   -1    0    0    0  501  0.00000000000E+00  0.00000000000E+00  0.45297635699E+03  0.45297635702E+03  0.50400001928E-02 0.  1.
        1   -1    0    0  501    0  0.00000000000E+00  0.00000000000E+00 -0.14085288489E+04  0.14085288489E+04  0.50400001928E-02 0. -1.
    10030    2    1    2    0    0  0.00000000000E+00  0.00000000000E+00 -0.95555249188E+03  0.18615052059E+04  0.15975359360E+04 0.  0.
        2    1    3    3  502    0 -0.26602934583E+03  0.13589833965E+03 -0.13409869761E+04  0.13738580864E+04  0.25500000920E-02 0. -1.
       -2    1    3    3    0  502  0.26602934583E+03 -0.13589833965E+03  0.38543448419E+03  0.48764711951E+03  0.25500000920E-02 0.  1.
</event>
<event>
 5   0  0.8037548E-05  0.1598496E+04  0.7818609E-02  0.8821473E-01
       -2   -1    0    0    0  501  0.00000000000E+00  0.00000000000E+00  0.54657517005E+03  0.54657517005E+03  0.25500000920E-02 0. -1.
        2   -1    0    0  501    0  0.00000000000E+00  0.00000000000E+00 -0.11687273322E+04  0.11687273322E+04  0.25500000920E-02 0.  1.
    10030    2    1    2    0    0  0.00000000000E+00  0.00000000000E+00 -0.62215216220E+03  0.17153025023E+04  0.15984959686E+04 0.  0.
        5    1    3    3  502    0 -0.12906133964E+03 -0.54977638850E+03 -0.91796902913E+03  0.10777755495E+04  0.46999998093E+01 0.  1.
       -5    1    3    3    0  502  0.12906133964E+03  0.54977638850E+03  0.29581686693E+03  0.63752695276E+03  0.46999998093E+01 0. -1.
</event>
<event>
 5   0  0.7901257E-05  0.1598955E+04  0.7818609E-02  0.8821190E-01
       -2   -1    0    0    0  501  0.00000000000E+00  0.00000000000E+00  0.12450391709E+04  0.12450391709E+04  0.25500000920E-02 0. -1.
        2   -1    0    0  501    0  0.00000000000E+00  0.00000000000E+00 -0.51336870038E+03  0.51336870039E+03  0.25500000920E-02 0.  1.
    10030    2    1    2    0    0  0.00000000000E+00  0.00000000000E+00  0.73167047047E+03  0.17584078712E+04  0.15989548350E+04 0.  0.
        2    1    3    3  502    0 -0.58159424112E+03  0.54390114967E+03  0.28742396872E+03  0.84657714340E+03  0.25500000920E-02 0. -1.
       -2    1    3    3    0  502  0.58159424112E+03 -0.54390114967E+03  0.44424650176E+03  0.91183072785E+03  0.25500000920E-02 0.  1.
</event>
<event>
 5   0  0.7849690E-05  0.1602301E+04  0.7818609E-02  0.8819135E-01
       -2   -1    0    0    0  501  0.00000000000E+00  0.00000000000E+00  0.26148581335E+03  0.26148581336E+03  0.25500000920E-02 0. -1.
        2   -1    0    0  501    0  0.00000000000E+00  0.00000000000E+00 -0.24545977342E+04  0.24545977342E+04  0.25500000920E-02 0.  1.
    10030    2    1    2    0    0  0.00000000000E+00  0.00000000000E+00 -0.21931119209E+04  0.27160835476E+04  0.16023014510E+04 0.  0.
        3    1    3    3  502    0 -0.19812067529E+03  0.72777798294E+03 -0.15543305158E+04  0.17276735678E+04  0.10100000352E+00 0.  1.
       -3    1    3    3    0  502  0.19812067529E+03 -0.72777798294E+03 -0.63878140513E+03  0.98840997980E+03  0.10100000352E+00 0. -1.
</event>
<event>
 5   0  0.7901257E-05  0.1599461E+04  0.7818609E-02  0.8820879E-01
       -2   -1    0    0    0  501  0.00000000000E+00  0.00000000000E+00  0.59607275503E+03  0.59607275504E+03  0.25500000920E-02 0. -1.
        2   -1    0    0  501    0  0.00000000000E+00  0.00000000000E+00 -0.10729711428E+04  0.10729711428E+04  0.25500000920E-02 0.  1.
    10030    2    1    2    0    0  0.00000000000E+00  0.00000000000E+00 -0.47689838776E+03  0.16690438978E+04  0.15994609907E+04 0.  0.
        2    1    3    3  502    0  0.17681633875E+03 -0.28951966276E+03 -0.99416743083E+03  0.10504544413E+04  0.25500000920E-02 0.  1.
       -2    1    3    3    0  502 -0.17681633875E+03  0.28951966276E+03  0.51726904307E+03  0.61858945651E+03  0.25500000920E-02 0. -1.
</event>
<event>
 5   0  0.7849690E-05  0.1598802E+04  0.7818609E-02  0.8821284E-01
        2   -1    0    0  501    0  0.00000000000E+00  0.00000000000E+00  0.85939643629E+03  0.85939643630E+03  0.25500000920E-02 0. -1.
       -2   -1    0    0    0  501  0.00000000000E+00  0.00000000000E+00 -0.74359383718E+03  0.74359383719E+03  0.25500000920E-02 0.  1.
    10030    2    1    2    0    0  0.00000000000E+00  0.00000000000E+00  0.11580259911E+03  0.16029902735E+04  0.15988019186E+04 0.  0.
        3    1    3    3  502    0 -0.23161617231E+03  0.24064796797E+03 -0.67028253161E+03  0.74888996398E+03  0.10100000352E+00 0.  1.
       -3    1    3    3    0  502  0.23161617231E+03 -0.24064796797E+03  0.78608513072E+03  0.85410030951E+03  0.10100000352E+00 0. -1.
</event>
<event>
 5   0  0.8037548E-05  0.1599633E+04  0.7818609E-02  0.8820774E-01
        2   -1    0    0  501    0  0.00000000000E+00  0.00000000000E+00  0.11573440562E+04  0.11573440562E+04  0.25500000920E-02 0.  1.
       -2   -1    0    0    0  501  0.00000000000E+00  0.00000000000E+00 -0.55273635888E+03  0.55273635889E+03  0.25500000920E-02 0. -1.
    10030    2    1    2    0    0  0.00000000000E+00  0.00000000000E+00  0.60460769730E+03  0.17100804151E+04  0.15996326323E+04 0.  0.
        5    1    3    3  502    0  0.23815062308E+03  0.51545739112E+03  0.90446420064E+03  0.10679370869E+04  0.46999998093E+01 0.  1.
       -5    1    3    3    0  502 -0.23815062308E+03 -0.51545739112E+03 -0.29985650334E+03  0.64214332818E+03  0.46999998093E+01 0. -1.
</event>
<event>
 5   0  0.8620155E-05  0.1599721E+04  0.7818609E-02  0.8820719E-01
        2   -1    0    0  501    0  0.00000000000E+00  0.00000000000E+00  0.22336935039E+04  0.22336935039E+04  0.25500000920E-02 0. -1.
       -2   -1    0    0    0  501  0.00000000000E+00  0.00000000000E+00 -0.28642103649E+03  0.28642103650E+03  0.25500000920E-02 0.  1.
    10030    2    1    2    0    0  0.00000000000E+00  0.00000000000E+00  0.19472724674E+04  0.25201145404E+04  0.15997209864E+04 0.  0.
        4    1    3    3  502    0 -0.40680005751E+03 -0.57042402595E+03  0.15815348761E+04  0.17297757176E+04  0.12699999809E+01 0. -1.
       -4    1    3    3    0  502  0.40680005751E+03  0.57042402595E+03  0.36573759136E+03  0.79033882279E+03  0.12699999809E+01 0.  1.
</event>
<event>
 5   0  0.8620155E-05  0.1596696E+04  0.7818609E-02  0.8822580E-01
       -2   -1    0    0    0  501  0.00000000000E+00  0.00000000000E+00  0.40737537080E+03  0.40737537081E+03  0.25500000920E-02 0.  1.
        2   -1    0    0  501    0  0.00000000000E+00  0.00000000000E+00 -0.15645508379E+04  0.15645508379E+04  0.25500000920E-02 0. -1.
    10030    2    1    2    0    0  0.00000000000E+00  0.00000000000E+00 -0.11571754671E+04  0.19719262087E+04  0.15966959357E+04 0.  0.
        4    1    3    3  502    0 -0.42495027799E+03  0.36846753930E+03  0.12113430798E+03  0.57534876358E+03  0.12699999809E+01 0.  1.
       -4    1    3    3    0  502  0.42495027799E+03 -0.36846753930E+03 -0.12783097751E+04  0.13965774451E+04  0.12699999809E+01 0. -1.
</event>
<event>
 5   0  0.4504463E-05  0.1597476E+04  0.7818609E-02  0.8822100E-01
        1   -1    0    0  501    0  0.00000000000E+00  0.00000000000E+00  0.10187935807E+04  0.10187935807E+04  0.50400001928E-02 0. -1.
       -1   -1    0    0    0  501  0.00000000000E+00  0.00000000000E+00 -0.62621337261E+03  0.62621337263E+03  0.50400001928E-02 0.  1.
    10030    2    1    2    0    0  0.00000000000E+00  0.00000000000E+00  0.39258020804E+03  0.16450069533E+04  0.15974757139E+04 0.  0.
        1    1    3    3  502    0  0.21557103634E+03 -0.70777257464E+03  0.50619177595E+03  0.89646137852E+03  0.50400001928E-02 0.  1.
       -1    1    3    3    0  502 -0.21557103634E+03  0.70777257464E+03 -0.11361156791E+03  0.74854557477E+03  0.50400001928E-02 0. -1.
</event>
<event>
 5   0  0.7901257E-05  0.1601160E+04  0.7818609E-02  0.8819836E-01
        2   -1    0    0  501    0  0.00000000000E+00  0.00000000000E+00  0.19865915033E+04  0.19865915033E+04  0.25500000920E-02 0.  1.
       -2   -1    0    0    0  501  0.00000000000E+00  0.00000000000E+00 -0.32262702098E+03  0.32262702099E+03  0.25500000920E-02 0. -1.
    10030    2    1    2    0    0  0.00000000000E+00  0.00000000000E+00  0.16639644823E+04  0.23092185243E+04  0.16011597030E+04 0.  0.
        2    1    3    3  502    0  0.27167342079E+03  0.62536776145E+03  0.14370891773E+04  0.15906340208E+04  0.25500000920E-02 0.  1.
       -2    1    3    3    0  502 -0.27167342079E+03 -0.62536776145E+03  0.22687530503E+03  0.71858450350E+03  0.25500000920E-02 0. -1.
</event>
<event>
 5   0  0.4314657E-05  0.1597896E+04  0.7818609E-02  0.8821842E-01
       -1   -1    0    0    0  501  0.00000000000E+00  0.00000000000E+00  0.53910823046E+03  0.53910823049E+03  0.50400001928E-02 0. -1.
        1   -1    0    0  501    0  0.00000000000E+00  0.00000000000E+00 -0.11840249995E+04  0.11840249995E+04  0.50400001928E-02 0.  1.
    10030    2    1    2    0    0  0.00000000000E+00  0.00000000000E+00 -0.64491676903E+03  0.17231332300E+04  0.15978956441E+04 0.  0.
        5    1    3    3  502    0  0.15041160764E+03  0.68304533988E+03  0.93969466191E+02  0.70571023701E+03  0.46999998093E+01 0. -1.
       -5    1    3    3    0  502 -0.15041160764E+03 -0.68304533988E+03 -0.73888623522E+03  0.10174229930E+04  0.46999998093E+01 0.  1.
</event>
<event>
 5   0  0.4373026E-05  0.1593317E+04  0.7818609E-02  0.8824664E-01
        1   -1    0    0  501    0  0.00000000000E+00  0.00000000000E+00  0.10849783214E+04  0.10849783214E+04  0.50400001928E-02 0.  1.
       -1   -1    0    0    0  501  0.00000000000E+00  0.00000000000E+00 -0.58495637353E+03  0.58495637356E+03  0.50400001928E-02 0. -1.
    10030    2    1    2    0    0  0.00000000000E+00  0.00000000000E+00  0.50002194789E+03  0.16699346950E+04  0.15933172745E+04 0.  0.
        4    1    3    3  502    0  0.53322225973E+03 -0.32093909031E+03  0.77125422498E+03  0.99104115475E+03  0.12699999809E+01 0.  1.
       -4    1    3    3    0  502 -0.53322225973E+03  0.32093909031E+03 -0.27123227708E+03  0.67889354025E+03  0.12699999809E+01 0. -1.
</event>
<event>
 5   0  0.4314657E-05  0.1599511E+04  0.7818609E-02  0.8820849E-01
        1   -1    0    0  501    0  0.00000000000E+00  0.00000000000E+00  0.20050768772E+04  0.20050768772E+04  0.50400001928E-02 0.  1.
       -1   -1    0    0    0  501  0.00000000000E+00  0.00000000000E+00 -0.31899462017E+03  0.31899462021E+03  0.50400001928E-02 0. -1.
    10030    2    1    2    0    0  0.00000000000E+00  0.00000000000E+00  0.16860822570E+04  0.23240714974E+04  0.15995108464E+04 0.  0.
        5    1    3    3  502    0  0.71147038020E+03 -0.33401046560E+03  0.62834485267E+03  0.10062765211E+04  0.46999998093E+01 0.  1.
       -5    1    3    3    0  502 -0.71147038020E+03  0.33401046560E+03  0.10577374043E+04  0.13177949763E+04  0.46999998093E+01 0. -1.
</event>
<event>
 5   0  0.8694033E-05  0.1598917E+04  0.7818609E-02  0.8821214E-01
        2   -1    0    0  501    0  0.00000000000E+00  0.00000000000E+00  0.49424027581E+03  0.49424027582E+03  0.25500000920E-02 0. -1.
       -2   -1    0    0    0  501  0.00000000000E+00  0.00000000000E+00 -0.12931645810E+04  0.12931645810E+04  0.25500000920E-02 0.  1.
    10030    2    1    2    0    0  0.00000000000E+00  0.00000000000E+00 -0.79892430517E+03  0.17874048568E+04  0.15989171576E+04 0.  0.
        1    1    3    3  502    0  0.25008933174E+03 -0.63333665640E+03  0.68815453810E+02  0.68439430221E+03  0.50400001928E-02 0. -1.
       -1    1    3    3    0  502 -0.25008933174E+03  0.63333665640E+03 -0.86773975898E+03  0.11030105546E+04  0.50400001928E-02 0.  1.
</event>
<event>
 5   0  0.7849690E-05  0.1604979E+04  0.7818609E-02  0.8817495E-01
        2   -1    0    0  501    0  0.00000000000E+00  0.00000000000E+00  0.15374775223E+04  0.15374775223E+04  0.25500000920E-02 0. -1.
       -2   -1    0    0    0  501  0.00000000000E+00  0.00000000000E+00 -0.41886100023E+03  0.41886100024E+03  0.25500000920E-02 0.  1.
    10030    2    1    2    0    0  0.00000000000E+00  0.00000000000E+00  0.11186165220E+04  0.19563385225E+04  0.16049789691E+04 0.  0.
        3    1    3    3  502    0 -0.55064047501E+03 -0.20016262955E+03 -0.10912083951E+03  0.59596759879E+03  0.10100000352E+00 0.  1.
       -3    1    3    3    0  502  0.55064047501E+03  0.20016262955E+03  0.12277373615E+04  0.13603709237E+04  0.10100000352E+00 0. -1.
</event>
<event>
 5   0  0.8037548E-05  0.1597459E+04  0.7818609E-02  0.8822111E-01
        2   -1    0    0  501    0  0.00000000000E+00  0.00000000000E+00  0.31207775242E+04  0.31207775242E+04  0.25500000920E-02 0. -1.
       -2   -1    0    0    0  501  0.00000000000E+00  0.00000000000E+00 -0.20442626202E+03  0.20442626203E+03  0.25500000920E-02 0.  1.
    10030    2    1    2    0    0  0.00000000000E+00  0.00000000000E+00  0.29163512622E+04  0.33252037862E+04  0.15974590873E+04 0.  0.
        5    1    3    3  502    0  0.62957471039E+03 -0.47603899367E+03  0.17128528260E+04  0.18859650932E+04  0.46999998093E+01 0. -1.
       -5    1    3    3    0  502 -0.62957471039E+03  0.47603899367E+03  0.12034984362E+04  0.14392386930E+04  0.46999998093E+01 0.  1.
</event>
<event>
 5   0  0.4314657E-05  0.1599017E+04  0.7818609E-02  0.8821152E-01
       -1   -1    0    0    0  501  0.00000000000E+00  0.00000000000E+00  0.98987267443E+03  0.98987267444E+03  0.50400001928E-02 0.  1.
        1   -1    0    0  501    0  0.00000000000E+00  0.00000000000E+00 -0.64575342739E+03  0.64575342741E+03  0.50400001928E-02 0. -1.
    10030    2    1    2    0    0  0.00000000000E+00  0.00000000000E+00  0.34411924704E+03  0.16356261019E+04  0.15990167882E+04 0.  0.
        5    1    3    3  502    0 -0.12855625788E+03 -0.23386828004E+03  0.94295226143E+03  0.98000109244E+03  0.46999998093E+01 0.  1.
       -5    1    3    3    0  502  0.12855625788E+03  0.23386828004E+03 -0.59883301439E+03  0.65562500941E+03  0.46999998093E+01 0. -1.
</event>
<event>
 5   0  0.7849690E-05  0.1600271E+04  0.7818609E-02  0.8820381E-01
        2   -1    0    0  501    0  0.00000000000E+00  0.00000000000E+00  0.86446239823E+03  0.86446239823E+03  0.25500000920E-02 0.  1.
       -2   -1    0    0    0  501  0.00000000000E+00  0.00000000000E+00 -0.74059562577E+03  0.74059562578E+03  0.25500000920E-02 0. -1.
    10030    2    1    2    0    0  0.00000000000E+00  0.00000000000E+00  0.12386677245E+03  0.16050580240E+04  0.16002713155E+04 0.  0.
        3    1    3    3  502    0  0.79566223282E+03 -0.66903277453E+02  0.10178425775E+02  0.79853493838E+03  0.10100000352E+00 0. -1.
       -3    1    3    3    0  502 -0.79566223282E+03  0.66903277453E+02  0.11368834668E+03  0.80652308562E+03  0.10100000352E+00 0.  1.
</event>
<event>
 5   0  0.8620155E-05  0.1598893E+04  0.7818609E-02  0.8821228E-01
       -2   -1    0    0    0  501  0.00000000000E+00  0.00000000000E+00  0.44995625386E+03  0.44995625386E+03  0.25500000920E-02 0. -1.
        2   -1    0    0  501    0  0.00000000000E+00  0.00000000000E+00 -0.14203928436E+04  0.14203928436E+04  0.25500000920E-02 0.  1.
    10030    2    1    2    0    0  0.00000000000E+00  0.00000000000E+00 -0.97043658971E+03  0.18703490974E+04  0.15988929206E+04 0.  0.
        4    1    3    3  502    0 -0.26217035265E+03 -0.28890512796E+03 -0.13014796407E+04  0.13586943493E+04  0.12699999809E+01 0.  1.
       -4    1    3    3    0  502  0.26217035265E+03  0.28890512796E+03  0.33104305099E+03  0.51165474813E+03  0.12699999809E+01 0. -1.
</event>
<event>
 5   0  0.8037548E-05  0.1595027E+04  0.7818609E-02  0.8823609E-01
       -2   -1    0    0    0  501  0.00000000000E+00  0.00000000000E+00  0.28658278861E+03  0.28658278862E+03  0.25500000920E-02 0.  1.
        2   -1    0    0  501    0  0.00000000000E+00  0.00000000000E+00 -0.22193511754E+04  0.22193511754E+04  0.25500000920E-02 0. -1.
    10030    2    1    2    0    0  0.00000000000E+00  0.00000000000E+00 -0.19327683868E+04  0.25059339640E+04  0.15950270829E+04 0.  0.
        5    1    3    3  502    0  0.50305659582E+03 -0.61686298355E+03 -0.88909861717E+03  0.11933584206E+04  0.46999998093E+01 0. -1.
       -5    1    3    3    0  502 -0.50305659582E+03  0.61686298355E+03 -0.10436697696E+04  0.13125755434E+04  0.46999998093E+01 0.  1.
</event>
<event>
 5   0  0.4314657E-05  0.1614640E+04  0.7818609E-02  0.8811604E-01
       -1   -1    0    0    0  501  0.00000000000E+00  0.00000000000E+00  0.14424096638E+04  0.14424096638E+04  0.50400001928E-02 0.  1.
        1   -1    0    0  501    0  0.00000000000E+00  0.00000000000E+00 -0.45185863998E+03  0.45185864001E+03  0.50400001928E-02 0. -1.
    10030    2    1    2    0    0  0.00000000000E+00  0.00000000000E+00  0.99055102384E+03  0.18942683038E+04  0.16146396118E+04 0.  0.
        5    1    3    3  502    0  0.44945615541E+03 -0.63302497232E+03  0.23554923140E+03  0.81131805208E+03  0.46999998093E+01 0.  1.
       -5    1    3    3    0  502 -0.44945615541E+03  0.63302497232E+03  0.75500179245E+03  0.10829502518E+04  0.46999998093E+01 0. -1.
</event>
<event>
 5   0  0.7849690E-05  0.1588348E+04  0.7818609E-02  0.8827738E-01
        2   -1    0    0  501    0  0.00000000000E+00  0.00000000000E+00  0.79182797715E+03  0.79182797716E+03  0.25500000920E-02 0.  1.
       -2   -1    0    0    0  501  0.00000000000E+00  0.00000000000E+00 -0.79652733357E+03  0.79652733358E+03  0.25500000920E-02 0. -1.
    10030    2    1    2    0    0  0.00000000000E+00  0.00000000000E+00 -0.46993564187E+01  0.15883553107E+04  0.15883483589E+04 0.  0.
        3    1    3    3  502    0  0.52192931471E+03  0.15783070171E+03 -0.57975317275E+03  0.79588597894E+03  0.10100000352E+00 0. -1.
       -3    1    3    3    0  502 -0.52192931471E+03 -0.15783070171E+03  0.57505381633E+03  0.79246933179E+03  0.10100000352E+00 0.  1.
</event>
<event>
 5   0  0.8694033E-05  0.1613619E+04  0.7818609E-02  0.8812225E-01
       -2   -1    0    0    0  501  0.00000000000E+00  0.00000000000E+00  0.52198567442E+03  0.52198567443E+03  0.25500000920E-02 0. -1.
        2   -1    0    0  501    0  0.00000000000E+00  0.00000000000E+00 -0.12470488083E+04  0.12470488083E+04  0.25500000920E-02 0.  1.
    10030    2    1    2    0    0  0.00000000000E+00  0.00000000000E+00 -0.72506313390E+03  0.17690344828E+04  0.16136190545E+04 0.  0.
        1    1    3    3  502    0  0.12764925927E+03  0.10747302925E+03 -0.12279239233E+04  0.12392102110E+04  0.50400001928E-02 0.  1.
       -1    1    3    3    0  502 -0.12764925927E+03 -0.10747302925E+03  0.50286078944E+03  0.52982427180E+03  0.50400001928E-02 0. -1.
</event>
<event>
 5   0  0.8620155E-05  0.1596706E+04  0.7818609E-02  0.8822574E-01
       -2   -1    0    0    0  501  0.00000000000E+00  0.00000000000E+00  0.17611608953E+04  0.17611608953E+04  0.25500000920E-02 0.  1.
        2   -1    0    0  501    0  0.00000000000E+00  0.00000000000E+00 -0.36190184076E+03  0.36190184076E+03  0.25500000920E-02 0. -1.
    10030    2    1    2    0    0  0.00000000000E+00  0.00000000000E+00  0.13992590546E+04  0.21230627361E+04  0.15967058212E+04 0.  0.
        4    1    3    3  502    0  0.70063568564E+03  0.35960150386E+03  0.87381975382E+03  0.11763359132E+04  0.12699999809E+01 0.  1.
       -4    1    3    3    0  502 -0.70063568564E+03 -0.35960150386E+03  0.52543930076E+03  0.94672682293E+03  0.12699999809E+01 0. -1.
</event>
<event>
 5   0  0.8694033E-05  0.1618704E+04  0.7818609E-02  0.8809139E-01
       -2   -1    0    0    0  501  0.00000000000E+00  0.00000000000E+00  0.32611638015E+03  0.32611638016E+03  0.25500000920E-02 0. -1.
        2   -1    0    0  501    0  0.00000000000E+00  0.00000000000E+00 -0.20086409121E+04  0.20086409121E+04  0.25500000920E-02 0.  1.
    10030    2    1    2    0    0  0.00000000000E+00  0.00000000000E+00 -0.16825245320E+04  0.23347572923E+04  0.16187040536E+04 0.  0.
        1    1    3    3  502    0  0.54652520811E+03 -0.85719496237E+02  0.10846691194E+02  0.55331300895E+03  0.50400001928E-02 0. -1.
       -1    1    3    3    0  502 -0.54652520811E+03  0.85719496237E+02 -0.16933712232E+04  0.17814442833E+04  0.50400001928E-02 0.  1.
</event>
<event>
 5   0  0.7849690E-05  0.1607159E+04  0.7818609E-02  0.8816162E-01
        2   -1    0    0  501    0  0.00000000000E+00  0.00000000000E+00  0.18457403137E+04  0.18457403137E+04  0.25500000920E-02 0.  1.
       -2   -1    0    0    0  501  0.00000000000E+00  0.00000000000E+00 -0.34985410926E+03  0.34985410927E+03  0.25500000920E-02 0. -1.
    10030    2    1    2    0    0  0.00000000000E+00  0.00000000000E+00  0.14958862044E+04  0.21955944230E+04  0.16071587767E+04 0.  0.
        3    1    3    3  502    0 -0.37596021339E+03 -0.18104836187E+03 -0.19023922159E+03  0.45860174772E+03  0.10100000352E+00 0. -1.
       -3    1    3    3    0  502  0.37596021339E+03  0.18104836187E+03  0.16861254260E+04  0.17369926752E+04  0.10100000352E+00 0.  1.
</event>
<event>
 5   0  0.7901257E-05  0.1595745E+04  0.7818609E-02  0.8823166E-01
        2   -1    0    0  501    0  0.00000000000E+00  0.00000000000E+00  0.64864630512E+03  0.64864630513E+03  0.25500000920E-02 0.  1.
       -2   -1    0    0    0  501  0.00000000000E+00  0.00000000000E+00 -0.98142947914E+03  0.98142947914E+03  0.25500000920E-02 0. -1.
    10030    2    1    2    0    0  0.00000000000E+00  0.00000000000E+00 -0.33278317401E+03  0.16300757843E+04  0.15957450992E+04 0.  0.
        2    1    3    3  502    0 -0.32988810708E+03  0.65207832216E+03  0.16076138016E+03  0.74824897112E+03  0.25500000920E-02 0. -1.
       -2    1    3    3    0  502  0.32988810708E+03 -0.65207832216E+03 -0.49354455417E+03  0.88182681315E+03  0.25500000920E-02 0.  1.
</event>
<event>
 5   0  0.8694033E-05  0.1598262E+04  0.7818609E-02  0.8821616E-01
       -2   -1    0    0    0  501  0.00000000000E+00  0.00000000000E+00  0.23990886616E+03  0.23990886618E+03  0.25500000920E-02 0.  1.
        2   -1    0    0  501    0  0.00000000000E+00  0.00000000000E+00 -0.26618877772E+04  0.26618877772E+04  0.25500000920E-02 0. -1.
    10030    2    1    2    0    0  0.00000000000E+00  0.00000000000E+00 -0.24219789110E+04  0.29017966434E+04  0.15982621543E+04 0.  0.
        1    1    3    3  502    0  0.69828770970E+03  0.36458118218E+03 -0.14551536582E+04  0.16546894974E+04  0.50400001928E-02 0. -1.
       -1    1    3    3    0  502 -0.69828770970E+03 -0.36458118218E+03 -0.96682525284E+03  0.12471071459E+04  0.50400001928E-02 0.  1.
</event>
<event>
 5   0  0.7901257E-05  0.1602738E+04  0.7818609E-02  0.8818868E-01
       -2   -1    0    0    0  501  0.00000000000E+00  0.00000000000E+00  0.37475179285E+03  0.37475179286E+03  0.25500000920E-02 0.  1.
        2   -1    0    0  501    0  0.00000000000E+00  0.00000000000E+00 -0.17136459164E+04  0.17136459164E+04  0.25500000920E-02 0. -1.
    10030    2    1    2    0    0  0.00000000000E+00  0.00000000000E+00 -0.13388941236E+04  0.20883977093E+04  0.16027375075E+04 0.  0.
        2    1    3    3  502    0 -0.24281779876E+03 -0.11463188160E+03  0.31438930668E+03  0.41345082880E+03  0.25500000920E-02 0.  1.
       -2    1    3    3    0  502  0.24281779876E+03  0.11463188160E+03 -0.16532834302E+04  0.16749468805E+04  0.25500000920E-02 0. -1.
</event>
<event>
 5   0  0.4504463E-05  0.1596756E+04  0.7818609E-02  0.8822544E-01
       -1   -1    0    0    0  501  0.00000000000E+00  0.00000000000E+00  0.55825597330E+03  0.55825597332E+03  0.50400001928E-02 0. -1.
        1   -1    0    0  501    0  0.00000000000E+00  0.00000000000E+00 -0.11417831690E+04  0.11417831690E+04  0.50400001928E-02 0.  1.
    10030    2    1    2    0    0  0.00000000000E+00  0.00000000000E+00 -0.58352719571E+03  0.17000391423E+04  0.15967558039E+04 0.  0.
        1    1    3    3  502    0 -0.14205043453E+03 -0.72530464447E+03  0.29696911211E+02  0.73968037679E+03  0.50400001928E-02 0. -1.
       -1    1    3    3    0  502  0.14205043453E+03  0.72530464447E+03 -0.61322410692E+03  0.96035876555E+03  0.50400001928E-02 0.  1.
</event>
<event>
 5   0  0.4211419E-05  0.1600417E+04  0.7818609E-02  0.8820292E-01
       -1   -1    0    0    0  501  0.00000000000E+00  0.00000000000E+00  0.14927224122E+04  0.14927224122E+04  0.50400001928E-02 0. -1.
        1   -1    0    0  501    0  0.00000000000E+00  0.00000000000E+00 -0.42897029309E+03  0.42897029312E+03  0.50400001928E-02 0.  1.
    10030    2    1    2    0    0  0.00000000000E+00  0.00000000000E+00  0.10637521191E+04  0.19216927053E+04  0.16004169090E+04 0.  0.
        2    1    3    3  502    0  0.66839434027E+03 -0.36559592085E+03  0.23794553990E+03  0.79814124779E+03  0.25500000920E-02 0.  1.
       -2    1    3    3    0  502 -0.66839434027E+03  0.36559592085E+03  0.82580657916E+03  0.11235514575E+04  0.25500000920E-02 0. -1.
</event>
<event>
 5   0  0.4373026E-05  0.1598258E+04  0.7818609E-02  0.8821619E-01
       -1   -1    0    0    0  501  0.00000000000E+00  0.00000000000E+00  0.95676320496E+03  0.95676320498E+03  0.50400001928E-02 0.  1.
        1   -1    0    0  501    0  0.00000000000E+00  0.00000000000E+00 -0.66746657535E+03  0.66746657537E+03  0.50400001928E-02 0. -1.
    10030    2    1    2    0    0  0.00000000000E+00  0.00000000000E+00  0.28929662962E+03  0.16242297803E+04  0.15982583769E+04 0.  0.
        4    1    3    3  502    0  0.16838371318E+03  0.12433474235E+03 -0.63911266710E+03  0.67251677836E+03  0.12699999809E+01 0. -1.
       -4    1    3    3    0  502 -0.16838371318E+03 -0.12433474235E+03  0.92840929672E+03  0.95171300199E+03  0.12699999809E+01 0.  1.
</event>
<event>
 5   0  0.4314657E-05  0.1599988E+04  0.7818609E-02  0.8820555E-01
        1   -1    0    0  501    0  0.00000000000E+00  0.00000000000E+00  0.10544905231E+04  0.10544905231E+04  0.50400001928E-02 0. -1.
       -1   -1    0    0    0  501  0.00000000000E+00  0.00000000000E+00 -0.60691903144E+03  0.60691903146E+03  0.50400001928E-02 0.  1.
    10030    2    1    2    0    0  0.00000000000E+00  0.00000000000E+00  0.44757149167E+03  0.16614095546E+04  0.15999879587E+04 0.  0.
        5    1    3    3  502    0  0.23685497922E+03  0.40734586034E+03 -0.44751260411E+03  0.64986194838E+03  0.46999998093E+01 0.  1.
       -5    1    3    3    0  502 -0.23685497922E+03 -0.40734586034E+03  0.89508409577E+03  0.10115476062E+04  0.46999998093E+01 0. -1.
</event>
<event>
 5   0  0.7849690E-05  0.1600679E+04  0.7818609E-02  0.8820131E-01
       -2   -1    0    0    0  501  0.00000000000E+00  0.00000000000E+00  0.33756476675E+03  0.33756476676E+03  0.25500000920E-02 0. -1.
        2   -1    0    0  501    0  0.00000000000E+00  0.00000000000E+00 -0.18975429830E+04  0.18975429830E+04  0.25500000920E-02 0.  1.
    10030    2    1    2    0    0  0.00000000000E+00  0.00000000000E+00 -0.15599782163E+04  0.22351077498E+04  0.16006794238E+04 0.  0.
        3    1    3    3  502    0 -0.53564064371E+03  0.57178283745E+03 -0.10081422246E+04  0.12767917871E+04  0.10100000352E+00 0.  1.
       -3    1    3    3    0  502  0.53564064371E+03 -0.57178283745E+03 -0.55183599167E+03  0.95831596266E+03  0.10100000352E+00 0. -1.
</event>
<event>
 5   0  0.3042125E-05  0.1597138E+04  0.7818609E-02  0.8822308E-01
        3   -1    0    0  501    0  0.00000000000E+00  0.00000000000E+00  0.80718713432E+03  0.80718714064E+03  0.10100000352E+00 0. -1.
       -3   -1    0    0    0  501  0.00000000000E+00  0.00000000000E+00 -0.79004260927E+03  0.79004261572E+03  0.10100000352E+00 0.  1.
    10030    2    1    2    0    0  0.00000000000E+00  0.00000000000E+00  0.17144525058E+02  0.15972297564E+04  0.15971377398E+04 0.  0.
        5    1    3    3  502    0 -0.72484513306E+03  0.33509305926E+03  0.10097043333E+02  0.79863124505E+03  0.46999998093E+01 0. -1.
       -5    1    3    3    0  502  0.72484513306E+03 -0.33509305926E+03  0.70474817246E+01  0.79859851132E+03  0.46999998093E+01 0.  1.
</event>
<event>
 5   0  0.7849690E-05  0.1601352E+04  0.7818609E-02  0.8819718E-01
       -2   -1    0    0    0  501  0.00000000000E+00  0.00000000000E+00  0.92575713719E+03  0.92575713719E+03  0.25500000920E-02 0. -1.
        2   -1    0    0  501    0  0.00000000000E+00  0.00000000000E+00 -0.69249487391E+03  0.69249487391E+03  0.25500000920E-02 0.  1.
    10030    2    1    2    0    0  0.00000000000E+00  0.00000000000E+00  0.23326226328E+03  0.16182520111E+04  0.16013520188E+04 0.  0.
        3    1    3    3  502    0 -0.93571651155E+02  0.51764354443E+03 -0.49337132641E+03  0.72119745487E+03  0.10100000352E+00 0.  1.
       -3    1    3    3    0  502  0.93571651155E+02 -0.51764354443E+03  0.72663358969E+03  0.89705455623E+03  0.10100000352E+00 0. -1.
</event>
<event>
 5   0  0.4256406E-05  0.1601147E+04  0.7818609E-02  0.8819843E-01
       -1   -1    0    0    0  501  0.00000000000E+00  0.00000000000E+00  0.32875097552E+03  0.32875097556E+03  0.50400001928E-02 0. -1.
        1   -1    0    0  501    0  0.00000000000E+00  0.00000000000E+00 -0.19495553641E+04  0.19495553641E+04  0.50400001928E-02 0.  1.
    10030    2    1    2    0    0  0.00000000000E+00  0.00000000000E+00 -0.16208043886E+04  0.22783063396E+04  0.16011473734E+04 0.  0.
        3    1    3    3  502    0 -0.61156755560E+03  0.42359370159E+03 -0.12312398967E+04  0.14385402993E+04  0.10100000352E+00 0. -1.
       -3    1    3    3    0  502  0.61156755560E+03 -0.42359370159E+03 -0.38956449183E+03  0.83976604038E+03  0.10100000352E+00 0.  1.
</event>
<event>
 5   0  0.4373026E-05  0.1591690E+04  0.7818609E-02  0.8825669E-01
        1   -1    0    0  501    0  0.00000000000E+00  0.00000000000E+00  0.12650409961E+04  0.12650409961E+04  0.50400001928E-02 0.  1.
       -1   -1    0    0    0  501  0.00000000000E+00  0.00000000000E+00 -0.50067100188E+03  0.50067100190E+03  0.50400001928E-02 0. -1.
    10030    2    1    2    0    0  0.00000000000E+00  0.00000000000E+00  0.76436999424E+03  0.17657119980E+04  0.15916900992E+04 0.  0.
        4    1    3    3  502    0  0.69713187270E+03  0.32051884082E+03  0.61657326708E+03  0.98432178775E+03  0.12699999809E+01 0.  1.
       -4    1    3    3    0  502 -0.69713187270E+03 -0.32051884082E+03  0.14779672716E+03  0.78139021028E+03  0.12699999809E+01 0. -1.
</event>
<event>
 5   0  0.4314657E-05  0.1600391E+04  0.7818609E-02  0.8820308E-01
       -1   -1    0    0    0  501  0.00000000000E+00  0.00000000000E+00  0.53780620944E+03  0.53780620946E+03  0.50400001928E-02 0. -1.
        1   -1    0    0  501    0  0.00000000000E+00  0.00000000000E+00 -0.11906010612E+04  0.11906010612E+04  0.50400001928E-02 0.  1.
    10030    2    1    2    0    0  0.00000000000E+00  0.00000000000E+00 -0.65279485174E+03  0.17284072707E+04  0.16003907569E+04 0.  0.
        5    1    3    3  502    0  0.20788930440E+03  0.35568764423E+03  0.41444704114E+03  0.58439721342E+03  0.46999998093E+01 0. -1.
       -5    1    3    3    0  502 -0.20788930440E+03 -0.35568764423E+03 -0.10672418929E+04  0.11440100572E+04  0.46999998093E+01 0.  1.
</event>
<event>
 5   0  0.8620155E-05  0.1608328E+04  0.7818609E-02  0.8815448E-01
       -2   -1    0    0    0  501  0.00000000000E+00  0.00000000000E+00  0.38593748630E+03  0.38593748631E+03  0.25500000920E-02 0. -1.
        2   -1    0    0  501    0  0.00000000000E+00  0.00000000000E+00 -0.16756080555E+04  0.16756080555E+04  0.25500000920E-02 0.  1.
    10030    2    1    2    0    0  0.00000000000E+00  0.00000000000E+00 -0.12896705692E+04  0.20615455418E+04  0.16083282761E+04 0.  0.
        4    1    3    3  502    0 -0.71075807376E+02  0.34489698600E+03 -0.15715223947E+04  0.16104936980E+04  0.12699999809E+01 0.  1.
       -4    1    3    3    0  502  0.71075807376E+02 -0.34489698600E+03  0.28185182552E+03  0.45105184380E+03  0.12699999809E+01 0. -1.
</event>
<event>
 5   0  0.8620155E-05  0.1599530E+04  0.7818609E-02  0.8820837E-01
        2   -1    0    0  501    0  0.00000000000E+00  0.00000000000E+00  0.65591310605E+03  0.65591310606E+03  0.25500000920E-02 0. -1.
       -2   -1    0    0    0  501  0.00000000000E+00  0.00000000000E+00 -0.97516539959E+03  0.97516539959E+03  0.25500000920E-02 0.  1.
    10030    2    1    2    0    0  0.00000000000E+00  0.00000000000E+00 -0.31925229354E+03  0.16310785057E+04  0.15995296386E+04 0.  0.
        4    1    3    3  502    0 -0.78816497953E+03 -0.14971618449E+02 -0.22080674899E+02  0.78861736819E+03  0.12699999809E+01 0. -1.
       -4    1    3    3    0  502  0.78816497953E+03  0.14971618449E+02 -0.29717161864E+03  0.84246113746E+03  0.12699999809E+01 0.  1.
</event>
<event>
 5   0  0.7849690E-05  0.1581888E+04  0.7818609E-02  0.8831753E-01
       -2   -1    0    0    0  501  0.00000000000E+00  0.00000000000E+00  0.56409379654E+03  0.56409379654E+03  0.25500000920E-02 0.  1.
        2   -1    0    0  501    0  0.00000000000E+00  0.00000000000E+00 -0.11090219423E+04  0.11090219423E+04  0.25500000920E-02 0. -1.
    10030    2    1    2    0    0  0.00000000000E+00  0.00000000000E+00 -0.54492814579E+03  0.16731157389E+04  0.15818879833E+04 0.  0.
        3    1    3    3  502    0 -0.70719406943E+03 -0.28091424538E+03 -0.50067616863E+03  0.91088577831E+03  0.10100000352E+00 0. -1.
       -3    1    3    3    0  502  0.70719406943E+03  0.28091424538E+03 -0.44251977161E+02  0.76222996056E+03  0.10100000352E+00 0.  1.
</event>
<event>
 5   0  0.4504463E-05  0.1598508E+04  0.7818609E-02  0.8821465E-01
       -1   -1    0    0    0  501  0.00000000000E+00  0.00000000000E+00  0.76243330787E+03  0.76243330788E+03  0.50400001928E-02 0.  1.
        1   -1    0    0  501    0  0.00000000000E+00  0.00000000000E+00 -0.83785303502E+03  0.83785303504E+03  0.50400001928E-02 0. -1.
    10030    2    1    2    0    0  0.00000000000E+00  0.00000000000E+00 -0.75419727156E+02  0.16002863429E+04  0.15985081308E+04 0.  0.
        1    1    3    3  502    0 -0.15685022168E+03  0.76061524519E+03 -0.22678371381E+03  0.80905401311E+03  0.50400001928E-02 0. -1.
       -1    1    3    3    0  502  0.15685022168E+03 -0.76061524519E+03  0.15136398665E+03  0.79123232981E+03  0.50400001928E-02 0.  1.
</event>
<event>
 5   0  0.8620155E-05  0.1600279E+04  0.7818609E-02  0.8820376E-01
       -2   -1    0    0    0  501  0.00000000000E+00  0.00000000000E+00  0.13247574801E+04  0.13247574801E+04  0.25500000920E-02 0.  1.
        2   -1    0    0  501    0  0.00000000000E+00  0.00000000000E+00 -0.48327601125E+03  0.48327601126E+03  0.25500000920E-02 0. -1.
    10030    2    1    2    0    0  0.00000000000E+00  0.00000000000E+00  0.84148146882E+03  0.18080334913E+04  0.16002793642E+04 0.  0.
        4    1    3    3  502    0  0.59403921931E+03  0.65759511978E+02  0.10217973556E+04  0.11837560375E+04  0.12699999809E+01 0.  1.
       -4    1    3    3    0  502 -0.59403921931E+03 -0.65759511978E+02 -0.18031588675E+03  0.62427745387E+03  0.12699999809E+01 0. -1.
</event>
<event>
 5   0  0.4373026E-05  0.1589333E+04  0.7818609E-02  0.8827128E-01
       -1   -1    0    0    0  501  0.00000000000E+00  0.00000000000E+00  0.70825633416E+03  0.70825633417E+03  0.50400001928E-02 0.  1.
        1   -1    0    0  501    0  0.00000000000E+00  0.00000000000E+00 -0.89161900033E+03  0.89161900034E+03  0.50400001928E-02 0. -1.
    10030    2    1    2    0    0  0.00000000000E+00  0.00000000000E+00 -0.18336266617E+03  0.15998753345E+04  0.15893329477E+04 0.  0.
        4    1    3    3  502    0  0.17818019128E+03  0.67090699771E+03  0.29770335499E+03  0.75531005595E+03  0.12699999809E+01 0.  1.
       -4    1    3    3    0  502 -0.17818019128E+03 -0.67090699771E+03 -0.48106602116E+03  0.84456527857E+03  0.12699999809E+01 0. -1.
</event>
<event>
 5   0  0.8694033E-05  0.1599732E+04  0.7818609E-02  0.8820713E-01
       -2   -1    0    0    0  501  0.00000000000E+00  0.00000000000E+00  0.50939316723E+03  0.50939316724E+03  0.25500000920E-02 0.  1.
        2   -1    0    0  501    0  0.00000000000E+00  0.00000000000E+00 -0.12559756144E+04  0.12559756144E+04  0.25500000920E-02 0. -1.
    10030    2    1    2    0    0  0.00000000000E+00  0.00000000000E+00 -0.74658244721E+03  0.17653687817E+04  0.15997317228E+04 0.  0.
        1    1    3    3  502    0 -0.23778959247E+03  0.75761057652E+03 -0.26705448164E+03  0.83775639188E+03  0.50400001928E-02 0.  1.
       -1    1    3    3    0  502  0.23778959247E+03 -0.75761057652E+03 -0.47952796557E+03  0.92761238981E+03  0.50400001928E-02 0. -1.
</event>
<event>
 5   0  0.8037548E-05  0.1596605E+04  0.7818609E-02  0.8822637E-01
        2   -1    0    0  501    0  0.00000000000E+00  0.00000000000E+00  0.80495744900E+03  0.80495744900E+03  0.25500000920E-02 0. -1.
       -2   -1    0    0    0  501  0.00000000000E+00  0.00000000000E+00 -0.79170221660E+03  0.79170221661E+03  0.25500000920E-02 0.  1.
    10030    2    1    2    0    0  0.00000000000E+00  0.00000000000E+00  0.13255232397E+02  0.15966596656E+04  0.15966046432E+04 0.  0.
        5    1    3    3  502    0  0.29387750348E+03  0.54847885440E+03  0.50671631051E+03  0.80248149518E+03  0.46999998093E+01 0. -1.
       -5    1    3    3    0  502 -0.29387750348E+03 -0.54847885440E+03 -0.49346107811E+03  0.79417817043E+03  0.46999998093E+01 0.  1.
</event>
<event>
 5   0  0.4373026E-05  0.1602339E+04  0.7818609E-02  0.8819112E-01
        1   -1    0    0  501    0  0.00000000000E+00  0.00000000000E+00  0.11339735871E+04  0.11339735871E+04  0.50400001928E-02 0. -1.
       -1   -1    0    0    0  501  0.00000000000E+00  0.00000000000E+00 -0.56603828993E+03  0.56603828995E+03  0.50400001928E-02 0.  1.
    10030    2    1    2    0    0  0.00000000000E+00  0.00000000000E+00  0.56793529715E+03  0.17000118770E+04  0.16023388781E+04 0.  0.
        4    1    3    3  502    0  0.56467361029E+03 -0.17875555537E+03 -0.28841915250E+03  0.65878452863E+03  0.12699999809E+01 0.  1.
       -4    1    3    3    0  502 -0.56467361029E+03  0.17875555537E+03  0.85635444965E+03  0.10412273484E+04  0.12699999809E+01 0. -1.
</event>
<event>
 5   0  0.4504463E-05  0.1599918E+04  0.7818609E-02  0.8820599E-01
       -1   -1    0    0    0  501  0.00000000000E+00  0.00000000000E+00  0.26537404816E+03  0.26537404821E+03  0.50400001928E-02 0. -1.
        1   -1    0    0  501    0  0.00000000000E+00  0.00000000000E+00 -0.24114424627E+04  0.24114424627E+04  0.50400001928E-02 0.  1.
    10030    2    1    2    0    0  0.00000000000E+00  0.00000000000E+00 -0.21460684146E+04  0.26768165110E+04  0.15999178083E+04 0.  0.
        1    1    3    3  502    0  0.24397913824E+03 -0.57155620190E+03 -0.23026531480E+03  0.66274009012E+03  0.50400001928E-02 0. -1.
       -1    1    3    3    0  502 -0.24397913824E+03  0.57155620190E+03 -0.19158030998E+04  0.20140764208E+04  0.50400001928E-02 0.  1.
</event>
<event>
 5   0  0.4373026E-05  0.1596590E+04  0.7818609E-02  0.8822646E-01
        1   -1    0    0  501    0  0.00000000000E+00  0.00000000000E+00  0.15934513334E+04  0.15934513334E+04  0.50400001928E-02 0. -1.
       -1   -1    0    0    0  501  0.00000000000E+00  0.00000000000E+00 -0.39993370149E+03  0.39993370152E+03  0.50400001928E-02 0.  1.
    10030    2    1    2    0    0  0.00000000000E+00  0.00000000000E+00  0.11935176319E+04  0.19933850350E+04  0.15965899786E+04 0.  0.
        4    1    3    3  502    0  0.79527627475E+02 -0.41121626640E+03  0.14452516560E+04  0.15047183868E+04  0.12699999809E+01 0. -1.
       -4    1    3    3    0  502 -0.79527627475E+02  0.41121626640E+03 -0.25173402409E+03  0.48866664820E+03  0.12699999809E+01 0.  1.
</event>
<event>
 5   0  0.8620155E-05  0.1599159E+04  0.7818609E-02  0.8821065E-01
        2   -1    0    0  501    0  0.00000000000E+00  0.00000000000E+00  0.71802371772E+03  0.71802371773E+03  0.25500000920E-02 0. -1.
       -2   -1    0    0    0  501  0.00000000000E+00  0.00000000000E+00 -0.89039868083E+03  0.89039868083E+03  0.25500000920E-02 0.  1.
    10030    2    1    2    0    0  0.00000000000E+00  0.00000000000E+00 -0.17237496310E+03  0.16084223986E+04  0.15991589928E+04 0.  0.
        4    1    3    3  502    0 -0.55455258939E+02 -0.77267006427E+03 -0.28540412371E+03  0.82556128827E+03  0.12699999809E+01 0.  1.
       -4    1    3    3    0  502  0.55455258939E+02  0.77267006427E+03  0.11302916060E+03  0.78286111029E+03  0.12699999809E+01 0. -1.
</event>
<event>
 5   0  0.4504463E-05  0.1597426E+04  0.7818609E-02  0.8822131E-01
        1   -1    0    0  501    0  0.00000000000E+00  0.00000000000E+00  0.10636378221E+04  0.10636378221E+04  0.50400001928E-02 0.  1.
       -1   -1    0    0    0  501  0.00000000000E+00  0.00000000000E+00 -0.59977376122E+03  0.59977376124E+03  0.50400001928E-02 0. -1.
    10030    2    1    2    0    0  0.00000000000E+00  0.00000000000E+00  0.46386406091E+03  0.16634115834E+04  0.15974255002E+04 0.  0.
        1    1    3    3  502    0  0.48966241300E+03  0.62222228009E+03  0.12265814076E+03  0.80123333933E+03  0.50400001928E-02 0. -1.
       -1    1    3    3    0  502 -0.48966241300E+03 -0.62222228009E+03  0.34120592015E+03  0.86217824405E+03  0.50400001928E-02 0.  1.
</event>
<event>
 5   0  0.8694033E-05  0.1590981E+04  0.7818609E-02  0.8826108E-01
       -2   -1    0    0    0  501  0.00000000000E+00  0.00000000000E+00  0.66191169257E+03  0.66191169257E+03  0.25500000920E-02 0.  1.
        2   -1    0    0  501    0  0.00000000000E+00  0.00000000000E+00 -0.95602671532E+03  0.95602671533E+03  0.25500000920E-02 0. -1.
    10030    2    1    2    0    0  0.00000000000E+00  0.00000000000E+00 -0.29411502275E+03  0.16179384079E+04  0.15909811580E+04 0.  0.
        1    1    3    3  502    0 -0.59207241727E+03  0.43139074530E+03  0.16828942629E+03  0.75164423330E+03  0.50400001928E-02 0.  1.
       -1    1    3    3    0  502  0.59207241727E+03 -0.43139074530E+03 -0.46240444904E+03  0.86629417460E+03  0.50400001928E-02 0. -1.
</event>
<event>
 5   0  0.3042125E-05  0.1598347E+04  0.7818609E-02  0.8821564E-01
       -3   -1    0    0    0  501  0.00000000000E+00  0.00000000000E+00  0.65196472757E+03  0.65196473539E+03  0.10100000352E+00 0. -1.
        3   -1    0    0  501    0  0.00000000000E+00  0.00000000000E+00 -0.97962107974E+03  0.97962108494E+03  0.10100000352E+00 0.  1.
    10030    2    1    2    0    0  0.00000000000E+00  0.00000000000E+00 -0.32765635217E+03  0.16315858203E+04  0.15983471475E+04 0.  0.
        1    1    3    3  502    0  0.11297454516E+03  0.71702808954E+03 -0.50512501930E+03  0.88433241159E+03  0.50400001928E-02 0. -1.
       -1    1    3    3    0  502 -0.11297454516E+03 -0.71702808954E+03  0.17746866713E+03  0.74725340874E+03  0.50400001928E-02 0.  1.
</event>
<event>
 5   0  0.4314657E-05  0.1606326E+04  0.7818609E-02  0.8816671E-01
       -1   -1    0    0    0  501  0.00000000000E+00  0.00000000000E+00  0.45084550111E+03  0.45084550114E+03  0.50400001928E-02 0. -1.
        1   -1    0    0  501    0  0.00000000000E+00  0.00000000000E+00 -0.14308029827E+04  0.14308029828E+04  0.50400001928E-02 0.  1.
    10030    2    1    2    0    0  0.00000000000E+00  0.00000000000E+00 -0.97995748163E+03  0.18816484839E+04  0.16063263526E+04 0.  0.
        5    1    3    3  502    0  0.11810192977E+02 -0.40469951820E+03  0.32254291359E+03  0.51766514446E+03  0.46999998093E+01 0. -1.
       -5    1    3    3    0  502 -0.11810192977E+02  0.40469951820E+03 -0.13025003952E+04  0.13639833394E+04  0.46999998093E+01 0.  1.
</event>
<event>
 5   0  0.7849690E-05  0.1601880E+04  0.7818609E-02  0.8819394E-01
        2   -1    0    0  501    0  0.00000000000E+00  0.00000000000E+00  0.12218209006E+04  0.12218209006E+04  0.25500000920E-02 0. -1.
       -2   -1    0    0    0  501  0.00000000000E+00  0.00000000000E+00 -0.52504006174E+03  0.52504006175E+03  0.25500000920E-02 0.  1.
    10030    2    1    2    0    0  0.00000000000E+00  0.00000000000E+00  0.69678083884E+03  0.17468609623E+04  0.16018800468E+04 0.  0.
        3    1    3    3  502    0 -0.26229022531E+03  0.26675700611E+03  0.11206889817E+04  0.11814818096E+04  0.10100000352E+00 0. -1.
       -3    1    3    3    0  502  0.26229022531E+03 -0.26675700611E+03 -0.42390814281E+03  0.56537915273E+03  0.10100000352E+00 0.  1.
</event>
<event>
 5   0  0.4504463E-05  0.1600086E+04  0.7818609E-02  0.8820495E-01
        1   -1    0    0  501    0  0.00000000000E+00  0.00000000000E+00  0.17768728802E+04  0.17768728803E+04  0.50400001928E-02 0.  1.
       -1   -1    0    0    0  501  0.00000000000E+00  0.00000000000E+00 -0.36022223801E+03  0.36022223805E+03  0.50400001928E-02 0. -1.
    10030    2    1    2    0    0  0.00000000000E+00  0.00000000000E+00  0.14166506422E+04  0.21370951183E+04  0.16000864047E+04 0.  0.
        1    1    3    3  502    0 -0.22753240855E+03  0.63012724497E+03  0.12923985062E+04  0.14557215533E+04  0.50400001928E-02 0.  1.
       -1    1    3    3    0  502  0.22753240855E+03 -0.63012724497E+03  0.12425213603E+03  0.68137356503E+03  0.50400001928E-02 0. -1.
</event>
<event>
 5   0  0.4314657E-05  0.1602757E+04  0.7818609E-02  0.8818856E-01
       -1   -1    0    0    0  501  0.00000000000E+00  0.00000000000E+00  0.47611096030E+03  0.47611096032E+03  0.50400001928E-02 0.  1.
        1   -1    0    0  501    0  0.00000000000E+00  0.00000000000E+00 -0.13488606810E+04  0.13488606810E+04  0.50400001928E-02 0. -1.
    10030    2    1    2    0    0  0.00000000000E+00  0.00000000000E+00 -0.87274972068E+03  0.18249716413E+04  0.16027568177E+04 0.  0.
        5    1    3    3  502    0 -0.74338328522E+03 -0.21176038936E+03 -0.19557332157E+03  0.79732815412E+03  0.46999998093E+01 0.  1.
       -5    1    3    3    0  502  0.74338328522E+03  0.21176038936E+03 -0.67717639911E+03  0.10276434872E+04  0.46999998093E+01 0. -1.
</event>
<event>
 5   0  0.8037548E-05  0.1599789E+04  0.7818609E-02  0.8820677E-01
        2   -1    0    0  501    0  0.00000000000E+00  0.00000000000E+00  0.79370547003E+03  0.79370547003E+03  0.25500000920E-02 0.  1.
       -2   -1    0    0    0  501  0.00000000000E+00  0.00000000000E+00 -0.80613215652E+03  0.80613215653E+03  0.25500000920E-02 0. -1.
    10030    2    1    2    0    0  0.00000000000E+00  0.00000000000E+00 -0.12426686496E+02  0.15998376266E+04  0.15997893639E+04 0.  0.
        5    1    3    3  502    0  0.51101337203E+03 -0.28357379107E+03  0.53993558062E+03  0.79567661936E+03  0.46999998093E+01 0.  1.
       -5    1    3    3    0  502 -0.51101337203E+03  0.28357379107E+03 -0.55236226712E+03  0.80416100720E+03  0.46999998093E+01 0. -1.
</event>
<event>
 5   0  0.4504463E-05  0.1598671E+04  0.7818609E-02  0.8821365E-01
       -1   -1    0    0    0  501  0.00000000000E+00  0.00000000000E+00  0.53101411264E+03  0.53101411266E+03  0.50400001928E-02 0. -1.
        1   -1    0    0  501    0  0.00000000000E+00  0.00000000000E+00 -0.12032401167E+04  0.12032401168E+04  0.50400001928E-02 0.  1.
    10030    2    1    2    0    0  0.00000000000E+00  0.00000000000E+00 -0.67222600411E+03  0.17342542294E+04  0.15986713019E+04 0.  0.
        1    1    3    3  502    0  0.19751286777E+02 -0.49058285637E+02 -0.12013401924E+04  0.12025036742E+04  0.50400001928E-02 0.  1.
       -1    1    3    3    0  502 -0.19751286777E+02  0.49058285637E+02  0.52911418825E+03  0.53175055519E+03  0.50400001928E-02 0. -1.
</event>
<event>
 5   0  0.4314657E-05  0.1599326E+04  0.7818609E-02  0.8820962E-01
       -1   -1    0    0    0  501  0.00000000000E+00  0.00000000000E+00  0.26146055620E+03  0.26146055625E+03  0.50400001928E-02 0. -1.
        1   -1    0    0  501    0  0.00000000000E+00  0.00000000000E+00 -0.24457275675E+04  0.24457275675E+04  0.50400001928E-02 0.  1.
    10030    2    1    2    0    0  0.00000000000E+00  0.00000000000E+00 -0.21842670113E+04  0.27071881237E+04  0.15993264710E+04 0.  0.
        5    1    3    3  502    0  0.74803182061E+03  0.20159643173E+03 -0.75679638231E+03  0.10830307383E+04  0.46999998093E+01 0. -1.
       -5    1    3    3    0  502 -0.74803182061E+03 -0.20159643173E+03 -0.14274706290E+04  0.16241573854E+04  0.46999998093E+01 0.  1.
</event>
<event>
 5   0  0.4256406E-05  0.1575584E+04  0.7818609E-02  0.8835690E-01
       -1   -1    0    0    0  501  0.00000000000E+00  0.00000000000E+00  0.91959521437E+03  0.91959521439E+03  0.50400001928E-02 0. -1.
        1   -1    0    0  501    0  0.00000000000E+00  0.00000000000E+00 -0.67487952461E+03  0.67487952463E+03  0.50400001928E-02 0.  1.
    10030    2    1    2    0    0  0.00000000000E+00  0.00000000000E+00  0.24471568976E+03  0.15944747390E+04  0.15755836774E+04 0.  0.
        3    1    3    3  502    0 -0.25438664402E+03 -0.73661710595E+03  0.23906026833E+03  0.81514854323E+03  0.10100000352E+00 0. -1.
       -3    1    3    3    0  502  0.25438664402E+03  0.73661710595E+03  0.56554214267E+01  0.77932619578E+03  0.10100000352E+00 0.  1.
</event>
<event>
 5   0  0.8620155E-05  0.1601271E+04  0.7818609E-02  0.8819768E-01
       -2   -1    0    0    0  501  0.00000000000E+00  0.00000000000E+00  0.58244468686E+03  0.58244468686E+03  0.25500000920E-02 0. -1.
        2   -1    0    0  501    0  0.00000000000E+00  0.00000000000E+00 -0.11005629869E+04  0.11005629869E+04  0.25500000920E-02 0.  1.
    10030    2    1    2    0    0  0.00000000000E+00  0.00000000000E+00 -0.51811830009E+03  0.16830076738E+04  0.16012708257E+04 0.  0.
        4    1    3    3  502    0  0.21800654267E+03 -0.62157223722E+03  0.21929514431E+03  0.69424122029E+03  0.12699999809E+01 0. -1.
       -4    1    3    3    0  502 -0.21800654267E+03  0.62157223722E+03 -0.73741344440E+03  0.98876645352E+03  0.12699999809E+01 0.  1.
</event>
<event>
 5   0  0.4211419E-05  0.1582077E+04  0.7818609E-02  0.8831635E-01
        1   -1    0    0  501    0  0.00000000000E+00  0.00000000000E+00  0.10775667833E+04  0.10775667833E+04  0.50400001928E-02 0.  1.
       -1   -1    0    0    0  501  0.00000000000E+00  0.00000000000E+00 -0.58069866117E+03  0.58069866119E+03  0.50400001928E-02 0. -1.
    10030    2    1    2    0    0  0.00000000000E+00  0.00000000000E+00  0.49686812211E+03  0.16582654445E+04  0.15820765954E+04 0.  0.
        2    1    3    3  502    0  0.34620804485E+03 -0.22688437995E+02  0.99356038136E+03  0.10523958414E+04  0.25500000920E-02 0.  1.
       -2    1    3    3    0  502 -0.34620804485E+03  0.22688437995E+02 -0.49669225926E+03  0.60586960309E+03  0.25500000920E-02 0. -1.
</event>
<event>
 5   0  0.3042125E-05  0.1601506E+04  0.7818609E-02  0.8819623E-01
       -3   -1    0    0    0  501  0.00000000000E+00  0.00000000000E+00  0.67272672330E+03  0.67272673088E+03  0.10100000352E+00 0. -1.
        3   -1    0    0  501    0  0.00000000000E+00  0.00000000000E+00 -0.95314442886E+03  0.95314443421E+03  0.10100000352E+00 0.  1.
    10030    2    1    2    0    0  0.00000000000E+00  0.00000000000E+00 -0.28041770556E+03  0.16258711651E+04  0.16015064645E+04 0.  0.
        4    1    3    3  502    0  0.14499059389E+03 -0.24668084119E+03 -0.89947082952E+03  0.94388722620E+03  0.12699999809E+01 0.  1.
       -4    1    3    3    0  502 -0.14499059389E+03  0.24668084119E+03  0.61905312395E+03  0.68198393889E+03  0.12699999809E+01 0. -1.
</event>
<event>
 5   0  0.8694033E-05  0.1602092E+04  0.7818609E-02  0.8819264E-01
        2   -1    0    0  501    0  0.00000000000E+00  0.00000000000E+00  0.64677904498E+03  0.64677904499E+03  0.25500000920E-02 0. -1.
       -2   -1    0    0    0  501  0.00000000000E+00  0.00000000000E+00 -0.99210804259E+03  0.99210804259E+03  0.25500000920E-02 0.  1.
    10030    2    1    2    0    0  0.00000000000E+00  0.00000000000E+00 -0.34532899761E+03  0.16388870876E+04  0.16020919977E+04 0.  0.
        1    1    3    3  502    0 -0.59883882605E+02  0.59072531501E+03 -0.72272419431E+03  0.93534631996E+03  0.50400001928E-02 0.  1.
       -1    1    3    3    0  502  0.59883882605E+02 -0.59072531501E+03  0.37739519670E+03  0.70354076762E+03  0.50400001928E-02 0. -1.
</event>
<event>
 5   0  0.8620155E-05  0.1599282E+04  0.7818609E-02  0.8820989E-01
       -2   -1    0    0    0  501  0.00000000000E+00  0.00000000000E+00  0.38588624080E+03  0.38588624080E+03  0.25500000920E-02 0.  1.
        2   -1    0    0  501    0  0.00000000000E+00  0.00000000000E+00 -0.16570326576E+04  0.16570326576E+04  0.25500000920E-02 0. -1.
    10030    2    1    2    0    0  0.00000000000E+00  0.00000000000E+00 -0.12711464168E+04  0.20429188984E+04  0.15992824680E+04 0.  0.
        4    1    3    3  502    0 -0.60852790495E+03 -0.51859186891E+03 -0.65274708069E+03  0.10321453879E+04  0.12699999809E+01 0.  1.
       -4    1    3    3    0  502  0.60852790495E+03  0.51859186891E+03 -0.61839933607E+03  0.10107735104E+04  0.12699999809E+01 0. -1.
</event>
<event>
 5   0  0.8620155E-05  0.1597801E+04  0.7818609E-02  0.8821900E-01
        2   -1    0    0  501    0  0.00000000000E+00  0.00000000000E+00  0.15847503913E+04  0.15847503913E+04  0.25500000920E-02 0.  1.
       -2   -1    0    0    0  501  0.00000000000E+00  0.00000000000E+00 -0.40273965314E+03  0.40273965315E+03  0.25500000920E-02 0. -1.
    10030    2    1    2    0    0  0.00000000000E+00  0.00000000000E+00  0.11820107382E+04  0.19874900444E+04  0.15978007672E+04 0.  0.
        4    1    3    3  502    0 -0.12194586873E+03  0.75357452892E+03  0.88403305528E+03  0.11680160193E+04  0.12699999809E+01 0.  1.
       -4    1    3    3    0  502  0.12194586873E+03 -0.75357452892E+03  0.29797768288E+03  0.81947402518E+03  0.12699999809E+01 0. -1.
</event>
<event>
 5   0  0.7901257E-05  0.1597260E+04  0.7818609E-02  0.8822233E-01
       -2   -1    0    0    0  501  0.00000000000E+00  0.00000000000E+00  0.25558958476E+03  0.25558958477E+03  0.25500000920E-02 0.  1.
        2   -1    0    0  501    0  0.00000000000E+00  0.00000000000E+00 -0.24954448475E+04  0.24954448475E+04  0.25500000920E-02 0. -1.
    10030    2    1    2    0    0  0.00000000000E+00  0.00000000000E+00 -0.22398552628E+04  0.27510344323E+04  0.15972597940E+04 0.  0.
        2    1    3    3  502    0 -0.10498837784E+03  0.19890441449E+03 -0.24397711191E+04  0.24501160460E+04  0.25500000920E-02 0. -1.
       -2    1    3    3    0  502  0.10498837784E+03 -0.19890441449E+03  0.19991585630E+03  0.30091838626E+03  0.25500000920E-02 0.  1.
</event>
<event>
 5   0  0.7849690E-05  0.1594648E+04  0.7818609E-02  0.8823843E-01
       -2   -1    0    0    0  501  0.00000000000E+00  0.00000000000E+00  0.71333545237E+03  0.71333545237E+03  0.25500000920E-02 0.  1.
        2   -1    0    0  501    0  0.00000000000E+00  0.00000000000E+00 -0.89120118854E+03  0.89120118854E+03  0.25500000920E-02 0. -1.
    10030    2    1    2    0    0  0.00000000000E+00  0.00000000000E+00 -0.17786573617E+03  0.16045366409E+04  0.15946478018E+04 0.  0.
        3    1    3    3  502    0 -0.28045310638E+03 -0.32194019344E+03 -0.76647772177E+03  0.87737537075E+03  0.10100000352E+00 0. -1.
       -3    1    3    3    0  502  0.28045310638E+03  0.32194019344E+03  0.58861198560E+03  0.72716127016E+03  0.10100000352E+00 0.  1.
</event>
<event>
 5   0  0.4256406E-05  0.1602047E+04  0.7818609E-02  0.8819292E-01
       -1   -1    0    0    0  501  0.00000000000E+00  0.00000000000E+00  0.77913053913E+03  0.77913053914E+03  0.50400001928E-02 0.  1.
        1   -1    0    0  501    0  0.00000000000E+00  0.00000000000E+00 -0.82353152929E+03  0.82353152930E+03  0.50400001928E-02 0. -1.
    10030    2    1    2    0    0  0.00000000000E+00  0.00000000000E+00 -0.44400990162E+02  0.16026620684E+04  0.16020468962E+04 0.  0.
        3    1    3    3  502    0 -0.22283188853E+03  0.19028094037E+03 -0.76799173735E+03  0.82199282579E+03  0.10100000352E+00 0. -1.
       -3    1    3    3    0  502  0.22283188853E+03 -0.19028094037E+03  0.72359074719E+03  0.78066924266E+03  0.10100000352E+00 0.  1.
</event>
<event>
 5   0  0.4373026E-05  0.1599490E+04  0.7818609E-02  0.8820862E-01
       -1   -1    0    0    0  501  0.00000000000E+00  0.00000000000E+00  0.56264503876E+03  0.56264503878E+03  0.50400001928E-02 0. -1.
        1   -1    0    0  501    0  0.00000000000E+00  0.00000000000E+00 -0.11367588060E+04  0.11367588060E+04  0.50400001928E-02 0.  1.
    10030    2    1    2    0    0  0.00000000000E+00  0.00000000000E+00 -0.57411376722E+03  0.16994038448E+04  0.15994895467E+04 0.  0.
        4    1    3    3  502    0  0.75088745376E+03 -0.11137305802E+03 -0.19631412089E+02  0.75935691971E+03  0.12699999809E+01 0. -1.
       -4    1    3    3    0  502 -0.75088745376E+03  0.11137305802E+03 -0.55448235513E+03  0.94004692506E+03  0.12699999809E+01 0.  1.
</event>
<event>
 5   0  0.7849690E-05  0.1596998E+04  0.7818609E-02  0.8822394E-01
       -2   -1    0    0    0  501  0.00000000000E+00  0.00000000000E+00  0.10612534227E+04  0.10612534227E+04  0.25500000920E-02 0. -1.
        2   -1    0    0  501    0  0.00000000000E+00  0.00000000000E+00 -0.60079967612E+03  0.60079967613E+03  0.25500000920E-02 0.  1.
    10030    2    1    2    0    0  0.00000000000E+00  0.00000000000E+00  0.46045374654E+03  0.16620530988E+04  0.15969980747E+04 0.  0.
        3    1    3    3  502    0 -0.37782472451E+03  0.27568640431E+03 -0.44331993832E+03  0.64442772588E+03  0.10100000352E+00 0.  1.
       -3    1    3    3    0  502  0.37782472451E+03 -0.27568640431E+03  0.90377368486E+03  0.10176253729E+04  0.10100000352E+00 0. -1.
</event>
<event>
 5   0  0.7901257E-05  0.1602330E+04  0.7818609E-02  0.8819118E-01
       -2   -1    0    0    0  501  0.00000000000E+00  0.00000000000E+00  0.35791209514E+03  0.35791209515E+03  0.25500000920E-02 0.  1.
        2   -1    0    0  501    0  0.00000000000E+00  0.00000000000E+00 -0.17933606306E+04  0.17933606306E+04  0.25500000920E-02 0. -1.
    10030    2    1    2    0    0  0.00000000000E+00  0.00000000000E+00 -0.14354485355E+04  0.21512727258E+04  0.16023301291E+04 0.  0.
        2    1    3    3  502    0  0.47243095207E+02  0.70041779191E+03 -0.19939321286E+03  0.72977712119E+03  0.25500000920E-02 0.  1.
       -2    1    3    3    0  502 -0.47243095207E+02 -0.70041779191E+03 -0.12360553227E+04  0.14214956046E+04  0.25500000920E-02 0. -1.
</event>
<event>
 5   0  0.4504463E-05  0.1602699E+04  0.7818609E-02  0.8818891E-01
       -1   -1    0    0    0  501  0.00000000000E+00  0.00000000000E+00  0.41507567321E+03  0.41507567324E+03  0.50400001928E-02 0. -1.
        1   -1    0    0  501    0  0.00000000000E+00  0.00000000000E+00 -0.15470944639E+04  0.15470944639E+04  0.50400001928E-02 0.  1.
    10030    2    1    2    0    0  0.00000000000E+00  0.00000000000E+00 -0.11320187907E+04  0.19621701371E+04  0.16026993182E+04 0.  0.
        1    1    3    3  502    0 -0.14248443364E+03 -0.31558961416E+03  0.31875797312E+03  0.47064345725E+03  0.50400001928E-02 0. -1.
       -1    1    3    3    0  502  0.14248443364E+03  0.31558961416E+03 -0.14507767638E+04  0.14915266799E+04  0.50400001928E-02 0.  1.
</event>
<event>
 5   0  0.8694033E-05  0.1598614E+04  0.7818609E-02  0.8821400E-01
       -2   -1    0    0    0  501  0.00000000000E+00  0.00000000000E+00  0.19445861383E+04  0.19445861383E+04  0.25500000920E-02 0.  1.
        2   -1    0    0  501    0  0.00000000000E+00  0.00000000000E+00 -0.32854891365E+03  0.32854891366E+03  0.25500000920E-02 0. -1.
    10030    2    1    2    0    0  0.00000000000E+00  0.00000000000E+00  0.16160372247E+04  0.22731350520E+04  0.15986139787E+04 0.  0.
        1    1    3    3  502    0  0.11377514715E+03  0.24907104608E+03 -0.25977352988E+03  0.37744331622E+03  0.50400001928E-02 0. -1.
       -1    1    3    3    0  502 -0.11377514715E+03 -0.24907104608E+03  0.18758107546E+04  0.18956917358E+04  0.50400001928E-02 0.  1.
</event>
<event>
 5   0  0.4211419E-05  0.1606177E+04  0.7818609E-02  0.8816762E-01
       -1   -1    0    0    0  501  0.00000000000E+00  0.00000000000E+00  0.37895243652E+03  0.37895243655E+03  0.50400001928E-02 0.  1.
        1   -1    0    0  501    0  0.00000000000E+00  0.00000000000E+00 -0.17019320600E+04  0.17019320600E+04  0.50400001928E-02 0. -1.
    10030    2    1    2    0    0  0.00000000000E+00  0.00000000000E+00 -0.13229796235E+04  0.20808844965E+04  0.16061772019E+04 0.  0.
        2    1    3    3  502    0 -0.76379187812E+03  0.23028358878E+03 -0.78123360877E+03  0.11165726648E+04  0.25500000920E-02 0. -1.
       -2    1    3    3    0  502  0.76379187812E+03 -0.23028358878E+03 -0.54174601470E+03  0.96431183172E+03  0.25500000920E-02 0.  1.
</event>
<event>
 5   0  0.8037548E-05  0.1593958E+04  0.7818609E-02  0.8824269E-01
        2   -1    0    0  501    0  0.00000000000E+00  0.00000000000E+00  0.19510178135E+04  0.19510178135E+04  0.25500000920E-02 0. -1.
       -2   -1    0    0    0  501  0.00000000000E+00  0.00000000000E+00 -0.32556091152E+03  0.32556091153E+03  0.25500000920E-02 0.  1.
    10030    2    1    2    0    0  0.00000000000E+00  0.00000000000E+00  0.16254569020E+04  0.22765787250E+04  0.15939575123E+04 0.  0.
        5    1    3    3  502    0 -0.56242713905E+03  0.41519544249E+03  0.26616822443E+03  0.74805023621E+03  0.46999998093E+01 0.  1.
       -5    1    3    3    0  502  0.56242713905E+03 -0.41519544249E+03  0.13592886776E+04  0.15285284888E+04  0.46999998093E+01 0. -1.
</event>
<event>
 5   0  0.4211419E-05  0.1598717E+04  0.7818609E-02  0.8821336E-01
        1   -1    0    0  501    0  0.00000000000E+00  0.00000000000E+00  0.79407712603E+03  0.79407712604E+03  0.50400001928E-02 0. -1.
       -1   -1    0    0    0  501  0.00000000000E+00  0.00000000000E+00 -0.80467534640E+03  0.80467534641E+03  0.50400001928E-02 0.  1.
    10030    2    1    2    0    0  0.00000000000E+00  0.00000000000E+00 -0.10598220371E+02  0.15987524725E+04  0.15987173440E+04 0.  0.
        2    1    3    3  502    0  0.70625036161E+03  0.23171343897E+03  0.28880528704E+03  0.79742660158E+03  0.25500000920E-02 0. -1.
       -2    1    3    3    0  502 -0.70625036161E+03 -0.23171343897E+03 -0.29940350741E+03  0.80132587087E+03  0.25500000920E-02 0.  1.
</event>
<event>
 5   0  0.4256406E-05  0.1611143E+04  0.7818609E-02  0.8813732E-01
        1   -1    0    0  501    0  0.00000000000E+00  0.00000000000E+00  0.16586469706E+04  0.16586469706E+04  0.50400001928E-02 0. -1.
       -1   -1    0    0    0  501  0.00000000000E+00  0.00000000000E+00 -0.39124968400E+03  0.39124968403E+03  0.50400001928E-02 0.  1.
    10030    2    1    2    0    0  0.00000000000E+00  0.00000000000E+00  0.12673972866E+04  0.20498966546E+04  0.16111425798E+04 0.  0.
        3    1    3    3  502    0 -0.35738823669E+03 -0.60083129692E+03  0.12441817077E+03  0.71007358105E+03  0.10100000352E+00 0.  1.
       -3    1    3    3    0  502  0.35738823669E+03  0.60083129692E+03  0.11429791158E+04  0.13398230736E+04  0.10100000352E+00 0. -1.
</event>
<event>
 5   0  0.4314657E-05  0.1601840E+04  0.7818609E-02  0.8819418E-01
        1   -1    0    0  501    0  0.00000000000E+00  0.00000000000E+00  0.86464274434E+03  0.86464274435E+03  0.50400001928E-02 0. -1.
       -1   -1    0    0    0  501  0.00000000000E+00  0.00000000000E+00 -0.74189374775E+03  0.74189374777E+03  0.50400001928E-02 0.  1.
    10030    2    1    2    0    0  0.00000000000E+00  0.00000000000E+00  0.12274899658E+03  0.16065364921E+04  0.16018402493E+04 0.  0.
        5    1    3    3  502    0  0.18582035803E+03  0.54346037656E+03  0.62119783838E+03  0.84604209751E+03  0.46999998093E+01 0. -1.
       -5    1    3    3    0  502 -0.18582035803E+03 -0.54346037656E+03 -0.49844884180E+03  0.76049439461E+03  0.46999998093E+01 0.  1.
</event>
<event>
 5   0  0.8694033E-05  0.1600915E+04  0.7818609E-02  0.8819986E-01
        2   -1    0    0  501    0  0.00000000000E+00  0.00000000000E+00  0.10346281935E+04  0.10346281935E+04  0.25500000920E-02 0. -1.
       -2   -1    0    0    0  501  0.00000000000E+00  0.00000000000E+00 -0.61928776260E+03  0.61928776261E+03  0.25500000920E-02 0.  1.
    10030    2    1    2    0    0  0.00000000000E+00  0.00000000000E+00  0.41534043093E+03  0.16539159561E+04  0.16009154620E+04 0.  0.
        1    1    3    3  502    0  0.28499670487E+03 -0.65831359289E+03 -0.15923918065E+03  0.73481768150E+03  0.50400001928E-02 0.  1.
       -1    1    3    3    0  502 -0.28499670487E+03  0.65831359289E+03  0.57457961158E+03  0.91909827463E+03  0.50400001928E-02 0. -1.
</event>
<event>
 5   0  0.4256406E-05  0.1599824E+04  0.7818609E-02  0.8820656E-01
       -1   -1    0    0    0  501  0.00000000000E+00  0.00000000000E+00  0.59257250234E+03  0.59257250237E+03  0.50400001928E-02 0. -1.
        1   -1    0    0  501    0  0.00000000000E+00  0.00000000000E+00 -0.10797987610E+04  0.10797987610E+04  0.50400001928E-02 0.  1.
    10030    2    1    2    0    0  0.00000000000E+00  0.00000000000E+00 -0.48722625863E+03  0.16723712634E+04  0.15998238076E+04 0.  0.
        3    1    3    3  502    0  0.30146838780E+03 -0.32189622499E+03  0.45400137112E+03  0.63294361810E+03  0.10100000352E+00 0. -1.
       -3    1    3    3    0  502 -0.30146838780E+03  0.32189622499E+03 -0.94122762975E+03  0.10394276453E+04  0.10100000352E+00 0.  1.
</event>
<event>
 5   0  0.7901257E-05  0.1600256E+04  0.7818609E-02  0.8820391E-01
       -2   -1    0    0    0  501  0.00000000000E+00  0.00000000000E+00  0.30350449104E+03  0.30350449105E+03  0.25500000920E-02 0. -1.
        2   -1    0    0  501    0  0.00000000000E+00  0.00000000000E+00 -0.21093751775E+04  0.21093751775E+04  0.25500000920E-02 0.  1.
    10030    2    1    2    0    0  0.00000000000E+00  0.00000000000E+00 -0.18058706864E+04  0.24128796685E+04  0.16002560291E+04 0.  0.
        2    1    3    3  502    0  0.43053762666E+03  0.29104440052E+03  0.14396508422E+02  0.51988147736E+03  0.25500000920E-02 0. -1.
       -2    1    3    3    0  502 -0.43053762666E+03 -0.29104440052E+03 -0.18202671949E+04  0.18929981912E+04  0.25500000920E-02 0.  1.
</event>
<event>
 5   0  0.4373026E-05  0.1599868E+04  0.7818609E-02  0.8820629E-01
       -1   -1    0    0    0  501  0.00000000000E+00  0.00000000000E+00  0.70885798193E+03  0.70885798195E+03  0.50400001928E-02 0.  1.
        1   -1    0    0  501    0  0.00000000000E+00  0.00000000000E+00 -0.90271136685E+03  0.90271136686E+03  0.50400001928E-02 0. -1.
    10030    2    1    2    0    0  0.00000000000E+00  0.00000000000E+00 -0.19385338491E+03  0.16115693488E+04  0.15998676918E+04 0.  0.
        4    1    3    3  502    0 -0.59449437337E+03 -0.40872721505E+03  0.25115981270E+03  0.76391384377E+03  0.12699999809E+01 0.  1.
       -4    1    3    3    0  502  0.59449437337E+03  0.40872721505E+03 -0.44501319761E+03  0.84765550505E+03  0.12699999809E+01 0. -1.
</event>
<event>
 5   0  0.4314657E-05  0.1591623E+04  0.7818609E-02  0.8825711E-01
       -1   -1    0    0    0  501  0.00000000000E+00  0.00000000000E+00  0.91130448251E+03  0.91130448253E+03  0.50400001928E-02 0. -1.
        1   -1    0    0  501    0  0.00000000000E+00  0.00000000000E+00 -0.69495569061E+03  0.69495569063E+03  0.50400001928E-02 0.  1.
    10030    2    1    2    0    0  0.00000000000E+00  0.00000000000E+00  0.21634879191E+03  0.16062601732E+04  0.15916233675E+04 0.  0.
        5    1    3    3  502    0 -0.73106156263E+03  0.56899208247E+02 -0.20387064898E+03  0.76110042686E+03  0.46999998093E+01 0.  1.
       -5    1    3    3    0  502  0.73106156263E+03 -0.56899208247E+02  0.42021944088E+03  0.84515974629E+03  0.46999998093E+01 0. -1.
</event>
<event>
 5   0  0.8037548E-05  0.1600037E+04  0.7818609E-02  0.8820525E-01
       -2   -1    0    0    0  501  0.00000000000E+00  0.00000000000E+00  0.89728292263E+03  0.89728292263E+03  0.25500000920E-02 0.  1.
        2   -1    0    0  501    0  0.00000000000E+00  0.00000000000E+00 -0.71329752084E+03  0.71329752085E+03  0.25500000920E-02 0. -1.
    10030    2    1    2    0    0  0.00000000000E+00  0.00000000000E+00  0.18398540178E+03  0.16105804435E+04  0.16000371048E+04 0.  0.
        5    1    3    3  502    0  0.38091301254E+03 -0.16362550155E+02  0.79993724581E+03  0.88616259422E+03  0.46999998093E+01 0.  1.
       -5    1    3    3    0  502 -0.38091301254E+03  0.16362550155E+02 -0.61595184403E+03  0.72441784926E+03  0.46999998093E+01 0. -1.
</event>
<event>
 5   0  0.4314657E-05  0.1601778E+04  0.7818609E-02  0.8819456E-01
       -1   -1    0    0    0  501  0.00000000000E+00  0.00000000000E+00  0.36384861340E+03  0.36384861343E+03  0.50400001928E-02 0.  1.
        1   -1    0    0  501    0  0.00000000000E+00  0.00000000000E+00 -0.17628852653E+04  0.17628852653E+04  0.50400001928E-02 0. -1.
    10030    2    1    2    0    0  0.00000000000E+00  0.00000000000E+00 -0.13990366519E+04  0.21267338787E+04  0.16017782111E+04 0.  0.
        5    1    3    3  502    0  0.75108383834E+03  0.12840766300E+03 -0.10268679671E+04  0.12787084781E+04  0.46999998093E+01 0. -1.
       -5    1    3    3    0  502 -0.75108383834E+03 -0.12840766300E+03 -0.37216868476E+03  0.84802540059E+03  0.46999998093E+01 0.  1.
</event>
<event>
 5   0  0.4211419E-05  0.1599648E+04  0.7818609E-02  0.8820764E-01
        1   -1    0    0  501    0  0.00000000000E+00  0.00000000000E+00  0.18038720656E+04  0.18038720656E+04  0.50400001928E-02 0. -1.
       -1   -1    0    0    0  501  0.00000000000E+00  0.00000000000E+00 -0.35463636728E+03  0.35463636732E+03  0.50400001928E-02 0.  1.
    10030    2    1    2    0    0  0.00000000000E+00  0.00000000000E+00  0.14492356983E+04  0.21585084329E+04  0.15996482569E+04 0.  0.
        2    1    3    3  502    0 -0.43017367112E+03  0.11257803697E+03  0.16217122466E+04  0.16815688545E+04  0.25500000920E-02 0. -1.
       -2    1    3    3    0  502  0.43017367112E+03 -0.11257803697E+03 -0.17247654827E+03  0.47693957840E+03  0.25500000920E-02 0.  1.
</event>
<event>
 5   0  0.8694033E-05  0.1601024E+04  0.7818609E-02  0.8819919E-01
       -2   -1    0    0    0  501  0.00000000000E+00  0.00000000000E+00  0.71513973236E+03  0.71513973237E+03  0.25500000920E-02 0.  1.
        2   -1    0    0  501    0  0.00000000000E+00  0.00000000000E+00 -0.89607543899E+03  0.89607543899E+03  0.25500000920E-02 0. -1.
    10030    2    1    2    0    0  0.00000000000E+00  0.00000000000E+00 -0.18093570663E+03  0.16112151714E+04  0.16010236096E+04 0.  0.
        1    1    3    3  502    0 -0.52097461816E+03 -0.43122646105E+03  0.34056730403E+03  0.75720334262E+03  0.50400001928E-02 0.  1.
       -1    1    3    3    0  502  0.52097461816E+03  0.43122646105E+03 -0.52150301066E+03  0.85401182874E+03  0.50400001928E-02 0. -1.
</event>
<event>
 5   0  0.4373026E-05  0.1591700E+04  0.7818609E-02  0.8825663E-01
       -1   -1    0    0    0  501  0.00000000000E+00  0.00000000000E+00  0.78701990675E+03  0.78701990677E+03  0.50400001928E-02 0. -1.
        1   -1    0    0  501    0  0.00000000000E+00  0.00000000000E+00 -0.80477900822E+03  0.80477900824E+03  0.50400001928E-02 0.  1.
    10030    2    1    2    0    0  0.00000000000E+00  0.00000000000E+00 -0.17759101471E+02  0.15917989150E+04  0.15916998461E+04 0.  0.
        4    1    3    3  502    0  0.75533916401E+03 -0.13357135244E+03 -0.22101754763E+03  0.79826620130E+03  0.12699999809E+01 0. -1.
       -4    1    3    3    0  502 -0.75533916401E+03  0.13357135244E+03  0.20325844616E+03  0.79353271370E+03  0.12699999809E+01 0.  1.
</event>
<event>
 5   0  0.8694033E-05  0.1598768E+04  0.7818609E-02  0.8821306E-01
        2   -1    0    0  501    0  0.00000000000E+00  0.00000000000E+00  0.26411733410E+04  0.26411733410E+04  0.25500000920E-02 0. -1.
       -2   -1    0    0    0  501  0.00000000000E+00  0.00000000000E+00 -0.24194337095E+03  0.24194337096E+03  0.25500000920E-02 0.  1.
    10030    2    1    2    0    0  0.00000000000E+00  0.00000000000E+00  0.23992299701E+04  0.28831167120E+04  0.15987675021E+04 0.  0.
        1    1    3    3  502    0  0.37765497146E+03 -0.70390573365E+03  0.12539496850E+04  0.14867738133E+04  0.50400001928E-02 0. -1.
       -1    1    3    3    0  502 -0.37765497146E+03  0.70390573365E+03  0.11452802851E+04  0.13963428987E+04  0.50400001928E-02 0.  1.
</event>
<event>
 5   0  0.8694033E-05  0.1598038E+04  0.7818609E-02  0.8821754E-01
        2   -1    0    0  501    0  0.00000000000E+00  0.00000000000E+00  0.13665039854E+04  0.13665039854E+04  0.25500000920E-02 0.  1.
       -2   -1    0    0    0  501  0.00000000000E+00  0.00000000000E+00 -0.46720040094E+03  0.46720040095E+03  0.25500000920E-02 0. -1.
    10030    2    1    2    0    0  0.00000000000E+00  0.00000000000E+00  0.89930358447E+03  0.18337043864E+04  0.15980378092E+04 0.  0.
        1    1    3    3  502    0  0.21217360801E+03  0.58305873703E+03 -0.12803658456E+03  0.63353650074E+03  0.50400001928E-02 0. -1.
       -1    1    3    3    0  502 -0.21217360801E+03 -0.58305873703E+03  0.10273401690E+04  0.12001678856E+04  0.50400001928E-02 0.  1.
</event>
<event>
 5   0  0.4373026E-05  0.1600071E+04  0.7818609E-02  0.8820504E-01
        1   -1    0    0  501    0  0.00000000000E+00  0.00000000000E+00  0.67656296010E+03  0.67656296012E+03  0.50400001928E-02 0.  1.
       -1   -1    0    0    0  501  0.00000000000E+00  0.00000000000E+00 -0.94604201688E+03  0.94604201689E+03  0.50400001928E-02 0. -1.
    10030    2    1    2    0    0  0.00000000000E+00  0.00000000000E+00 -0.26947905678E+03  0.16226049770E+04  0.16000712326E+04 0.  0.
        4    1    3    3  502    0 -0.18419413433E+03 -0.20540502061E+03 -0.89627240176E+03  0.93777637669E+03  0.12699999809E+01 0. -1.
       -4    1    3    3    0  502  0.18419413433E+03  0.20540502061E+03  0.62679334498E+03  0.68482860033E+03  0.12699999809E+01 0.  1.
</event>
<event>
 5   0  0.4256406E-05  0.1601208E+04  0.7818609E-02  0.8819806E-01
        1   -1    0    0  501    0  0.00000000000E+00  0.00000000000E+00  0.45930219327E+03  0.45930219330E+03  0.50400001928E-02 0.  1.
       -1   -1    0    0    0  501  0.00000000000E+00  0.00000000000E+00 -0.13955226339E+04  0.13955226339E+04  0.50400001928E-02 0. -1.
    10030    2    1    2    0    0  0.00000000000E+00  0.00000000000E+00 -0.93622044063E+03  0.18548248272E+04  0.16012078023E+04 0.  0.
        3    1    3    3  502    0  0.33863214406E+03 -0.70963768831E+03 -0.64267486907E+03  0.10155236950E+04  0.10100000352E+00 0. -1.
       -3    1    3    3    0  502 -0.33863214406E+03  0.70963768831E+03 -0.29354557156E+03  0.83930113216E+03  0.10100000352E+00 0.  1.
</event>
<event>
 5   0  0.8620155E-05  0.1607686E+04  0.7818609E-02  0.8815840E-01
       -2   -1    0    0    0  501  0.00000000000E+00  0.00000000000E+00  0.77159940674E+03  0.77159940674E+03  0.25500000920E-02 0.  1.
        2   -1    0    0  501    0  0.00000000000E+00  0.00000000000E+00 -0.83743406088E+03  0.83743406088E+03  0.25500000920E-02 0. -1.
    10030    2    1    2    0    0  0.00000000000E+00  0.00000000000E+00 -0.65834654138E+02  0.16090334676E+04  0.16076860696E+04 0.  0.
        4    1    3    3  502    0 -0.25240861670E+03 -0.33414696536E+03  0.65380473250E+03  0.77641905269E+03  0.12699999809E+01 0.  1.
       -4    1    3    3    0  502  0.25240861670E+03  0.33414696536E+03 -0.71963938664E+03  0.83261441493E+03  0.12699999809E+01 0. -1.
</event>
<event>
 5   0  0.4373026E-05  0.1600722E+04  0.7818609E-02  0.8820105E-01
        1   -1    0    0  501    0  0.00000000000E+00  0.00000000000E+00  0.74623052461E+03  0.74623052463E+03  0.50400001928E-02 0.  1.
       -1   -1    0    0    0  501  0.00000000000E+00  0.00000000000E+00 -0.85841770949E+03  0.85841770950E+03  0.50400001928E-02 0. -1.
    10030    2    1    2    0    0  0.00000000000E+00  0.00000000000E+00 -0.11218718488E+03  0.16046482341E+04  0.16007217094E+04 0.  0.
        4    1    3    3  502    0 -0.25701821244E+03 -0.16360980376E+02 -0.81574517963E+03  0.85543430735E+03  0.12699999809E+01 0. -1.
       -4    1    3    3    0  502  0.25701821244E+03  0.16360980376E+02  0.70355799475E+03  0.74921392678E+03  0.12699999809E+01 0.  1.
</event>
<event>
 5   0  0.4504463E-05  0.1598895E+04  0.7818609E-02  0.8821227E-01
       -1   -1    0    0    0  501  0.00000000000E+00  0.00000000000E+00  0.72614712118E+03  0.72614712119E+03  0.50400001928E-02 0.  1.
        1   -1    0    0  501    0  0.00000000000E+00  0.00000000000E+00 -0.88014767719E+03  0.88014767720E+03  0.50400001928E-02 0. -1.
    10030    2    1    2    0    0  0.00000000000E+00  0.00000000000E+00 -0.15400055601E+03  0.16062947984E+04  0.15988954963E+04 0.  0.
        1    1    3    3  502    0 -0.73432944336E+02  0.20359739256E+03  0.69615357334E+03  0.72902269736E+03  0.50400001928E-02 0.  1.
       -1    1    3    3    0  502  0.73432944336E+02 -0.20359739256E+03 -0.85015412935E+03  0.87727210103E+03  0.50400001928E-02 0. -1.
</event>
<event>
 5   0  0.4314657E-05  0.1599354E+04  0.7818609E-02  0.8820945E-01
        1   -1    0    0  501    0  0.00000000000E+00  0.00000000000E+00  0.59814778649E+03  0.59814778651E+03  0.50400001928E-02 0. -1.
       -1   -1    0    0    0  501  0.00000000000E+00  0.00000000000E+00 -0.10691063666E+04  0.10691063666E+04  0.50400001928E-02 0.  1.
    10030    2    1    2    0    0  0.00000000000E+00  0.00000000000E+00 -0.47095858012E+03  0.16672541531E+04  0.15993543782E+04 0.  0.
        5    1    3    3  502    0 -0.39202976846E+02  0.68336774894E+03  0.19551376192E+03  0.71188206522E+03  0.46999998093E+01 0. -1.
       -5    1    3    3    0  502  0.39202976846E+02 -0.68336774894E+03 -0.66647234204E+03  0.95537208792E+03  0.46999998093E+01 0.  1.
</event>
<event>
 5   0  0.8620155E-05  0.1602489E+04  0.7818609E-02  0.8819020E-01
       -2   -1    0    0    0  501  0.00000000000E+00  0.00000000000E+00  0.62032469893E+03  0.62032469894E+03  0.25500000920E-02 0. -1.
        2   -1    0    0  501    0  0.00000000000E+00  0.00000000000E+00 -0.10349300763E+04  0.10349300763E+04  0.25500000920E-02 0.  1.
    10030    2    1    2    0    0  0.00000000000E+00  0.00000000000E+00 -0.41460537732E+03  0.16552547752E+04  0.16024889241E+04 0.  0.
        4    1    3    3  502    0  0.63189597015E+02 -0.15907891988E+03  0.60121762260E+03  0.62511060665E+03  0.12699999809E+01 0. -1.
       -4    1    3    3    0  502 -0.63189597015E+02  0.15907891988E+03 -0.10158229999E+04  0.10301441685E+04  0.12699999809E+01 0.  1.
</event>
<event>
 5   0  0.7901257E-05  0.1615572E+04  0.7818609E-02  0.8811038E-01
        2   -1    0    0  501    0  0.00000000000E+00  0.00000000000E+00  0.16107088154E+04  0.16107088154E+04  0.25500000920E-02 0.  1.
       -2   -1    0    0    0  501  0.00000000000E+00  0.00000000000E+00 -0.40511253515E+03  0.40511253516E+03  0.25500000920E-02 0. -1.
    10030    2    1    2    0    0  0.00000000000E+00  0.00000000000E+00  0.12055962802E+04  0.20158213505E+04  0.16155721359E+04 0.  0.
        2    1    3    3  502    0  0.21231579014E+03 -0.44158620504E+03  0.14041202165E+04  0.14871549865E+04  0.25500000920E-02 0.  1.
       -2    1    3    3    0  502 -0.21231579014E+03  0.44158620504E+03 -0.19852393631E+03  0.52866636409E+03  0.25500000920E-02 0. -1.
</event>
<event>
 5   0  0.4314657E-05  0.1600108E+04  0.7818609E-02  0.8820482E-01
       -1   -1    0    0    0  501  0.00000000000E+00  0.00000000000E+00  0.18632993425E+04  0.18632993425E+04  0.50400001928E-02 0. -1.
        1   -1    0    0  501    0  0.00000000000E+00  0.00000000000E+00 -0.34352291752E+03  0.34352291756E+03  0.50400001928E-02 0.  1.
    10030    2    1    2    0    0  0.00000000000E+00  0.00000000000E+00  0.15197764250E+04  0.22068222600E+04  0.16001075294E+04 0.  0.
        5    1    3    3  502    0 -0.31929785381E+03  0.44253057603E+03  0.15667676268E+04  0.16590862897E+04  0.46999998093E+01 0. -1.
       -5    1    3    3    0  502  0.31929785381E+03 -0.44253057603E+03 -0.46991201865E+02  0.54773597035E+03  0.46999998093E+01 0.  1.
</event>
<event>
 5   0  0.4504463E-05  0.1599959E+04  0.7818609E-02  0.8820573E-01
        1   -1    0    0  501    0  0.00000000000E+00  0.00000000000E+00  0.57625102336E+03  0.57625102338E+03  0.50400001928E-02 0.  1.
       -1   -1    0    0    0  501  0.00000000000E+00  0.00000000000E+00 -0.11105697549E+04  0.11105697549E+04  0.50400001928E-02 0. -1.
    10030    2    1    2    0    0  0.00000000000E+00  0.00000000000E+00 -0.53431873157E+03  0.16868207783E+04  0.15999586967E+04 0.  0.
        1    1    3    3  502    0  0.61105699845E+03  0.41544211902E+03  0.56052633328E+02  0.74102949154E+03  0.50400001928E-02 0.  1.
       -1    1    3    3    0  502 -0.61105699845E+03 -0.41544211902E+03 -0.59037136489E+03  0.94579128677E+03  0.50400001928E-02 0. -1.
</event>
<event>
 5   0  0.7849690E-05  0.1601626E+04  0.7818609E-02  0.8819550E-01
       -2   -1    0    0    0  501  0.00000000000E+00  0.00000000000E+00  0.16072768593E+04  0.16072768594E+04  0.25500000920E-02 0.  1.
        2   -1    0    0  501    0  0.00000000000E+00  0.00000000000E+00 -0.39899889944E+03  0.39899889945E+03  0.25500000920E-02 0. -1.
    10030    2    1    2    0    0  0.00000000000E+00  0.00000000000E+00  0.12082779599E+04  0.20062757588E+04  0.16016262960E+04 0.  0.
        3    1    3    3  502    0  0.28589761482E+03  0.29036330577E+03 -0.25942008599E+03  0.48306012743E+03  0.10100000352E+00 0. -1.
       -3    1    3    3    0  502 -0.28589761482E+03 -0.29036330577E+03  0.14676980459E+04  0.15232156314E+04  0.10100000352E+00 0.  1.
</event>
<event>
 5   0  0.8620155E-05  0.1601512E+04  0.7818609E-02  0.8819620E-01
        2   -1    0    0  501    0  0.00000000000E+00  0.00000000000E+00  0.19073001087E+04  0.19073001087E+04  0.25500000920E-02 0.  1.
       -2   -1    0    0    0  501  0.00000000000E+00  0.00000000000E+00 -0.33618725795E+03  0.33618725796E+03  0.25500000920E-02 0. -1.
    10030    2    1    2    0    0  0.00000000000E+00  0.00000000000E+00  0.15711128507E+04  0.22434873666E+04  0.16015117778E+04 0.  0.
        4    1    3    3  502    0  0.26740841588E+03 -0.57462352121E+03  0.14711304359E+04  0.16018507497E+04  0.12699999809E+01 0.  1.
       -4    1    3    3    0  502 -0.26740841588E+03  0.57462352121E+03  0.99982414845E+02  0.64163661694E+03  0.12699999809E+01 0. -1.
</event>
<event>
 5   0  0.8620155E-05  0.1601197E+04  0.7818609E-02  0.8819813E-01
       -2   -1    0    0    0  501  0.00000000000E+00  0.00000000000E+00  0.43672039332E+03  0.43672039332E+03  0.25500000920E-02 0.  1.
        2   -1    0    0  501    0  0.00000000000E+00  0.00000000000E+00 -0.14676613286E+04  0.14676613286E+04  0.25500000920E-02 0. -1.
    10030    2    1    2    0    0  0.00000000000E+00  0.00000000000E+00 -0.10309409353E+04  0.19043817220E+04  0.16011965934E+04 0.  0.
        4    1    3    3  502    0  0.18030893801E+03 -0.19298576533E+03 -0.14143549911E+04  0.14388038339E+04  0.12699999809E+01 0. -1.
       -4    1    3    3    0  502 -0.18030893801E+03  0.19298576533E+03  0.38341405579E+03  0.46557788803E+03  0.12699999809E+01 0.  1.
</event>
<event>
 5   0  0.4256406E-05  0.1599998E+04  0.7818609E-02  0.8820549E-01
       -1   -1    0    0    0  501  0.00000000000E+00  0.00000000000E+00  0.53656485416E+03  0.53656485418E+03  0.50400001928E-02 0.  1.
        1   -1    0    0  501    0  0.00000000000E+00  0.00000000000E+00 -0.11927702467E+04  0.11927702468E+04  0.50400001928E-02 0. -1.
    10030    2    1    2    0    0  0.00000000000E+00  0.00000000000E+00 -0.65620539259E+03  0.17293351009E+04  0.15999982419E+04 0.  0.
        3    1    3    3  502    0 -0.14159420569E+03 -0.80356610961E+02 -0.11746754223E+04  0.11859040695E+04  0.10100000352E+00 0. -1.
       -3    1    3    3    0  502  0.14159420569E+03  0.80356610961E+02  0.51847002973E+03  0.54343103145E+03  0.10100000352E+00 0.  1.
</event>
<event>
 5   0  0.4256406E-05  0.1600623E+04  0.7818609E-02  0.8820165E-01
        1   -1    0    0  501    0  0.00000000000E+00  0.00000000000E+00  0.12136953036E+04  0.12136953036E+04  0.50400001928E-02 0. -1.
       -1   -1    0    0    0  501  0.00000000000E+00  0.00000000000E+00 -0.52772605046E+03  0.52772605048E+03  0.50400001928E-02 0.  1.
    10030    2    1    2    0    0  0.00000000000E+00  0.00000000000E+00  0.68596925311E+03  0.17414213541E+04  0.16006231649E+04 0.  0.
        3    1    3    3  502    0 -0.51359970896E+03  0.45547971520E+03 -0.10460695762E+03  0.69439834229E+03  0.10100000352E+00 0.  1.
       -3    1    3    3    0  502  0.51359970896E+03 -0.45547971520E+03  0.79057621073E+03  0.10470230118E+04  0.10100000352E+00 0. -1.
</event>
<event>
 5   0  0.4504463E-05  0.1600767E+04  0.7818609E-02  0.8820077E-01
       -1   -1    0    0    0  501  0.00000000000E+00  0.00000000000E+00  0.91855494411E+03  0.91855494413E+03  0.50400001928E-02 0.  1.
        1   -1    0    0  501    0  0.00000000000E+00  0.00000000000E+00 -0.69741464074E+03  0.69741464076E+03  0.50400001928E-02 0. -1.
    10030    2    1    2    0    0  0.00000000000E+00  0.00000000000E+00  0.22114030337E+03  0.16159695849E+04  0.16007668992E+04 0.  0.
        1    1    3    3  502    0  0.71215951080E+03  0.49138652739E+02  0.47598564854E+03  0.85799074217E+03  0.50400001928E-02 0.  1.
       -1    1    3    3    0  502 -0.71215951080E+03 -0.49138652739E+02 -0.25484534516E+03  0.75797884271E+03  0.50400001928E-02 0. -1.
</event>
<event>
 5   0  0.4211419E-05  0.1601215E+04  0.7818609E-02  0.8819802E-01
        1   -1    0    0  501    0  0.00000000000E+00  0.00000000000E+00  0.95660382905E+03  0.95660382906E+03  0.50400001928E-02 0.  1.
       -1   -1    0    0    0  501  0.00000000000E+00  0.00000000000E+00 -0.67004960787E+03  0.67004960789E+03  0.50400001928E-02 0. -1.
    10030    2    1    2    0    0  0.00000000000E+00  0.00000000000E+00  0.28655422117E+03  0.16266534370E+04  0.16012145647E+04 0.  0.
        2    1    3    3  502    0 -0.31469620927E+03 -0.48287061841E+02  0.88952679491E+03  0.94478741701E+03  0.25500000920E-02 0.  1.
       -2    1    3    3    0  502  0.31469620927E+03  0.48287061841E+02 -0.60297257374E+03  0.68186601994E+03  0.25500000920E-02 0. -1.
</event>
<event>
 5   0  0.7849690E-05  0.1597697E+04  0.7818609E-02  0.8821964E-01
       -2   -1    0    0    0  501  0.00000000000E+00  0.00000000000E+00  0.34152933293E+03  0.34152933294E+03  0.25500000920E-02 0. -1.
        2   -1    0    0  501    0  0.00000000000E+00  0.00000000000E+00 -0.18685343071E+04  0.18685343071E+04  0.25500000920E-02 0.  1.
    10030    2    1    2    0    0  0.00000000000E+00  0.00000000000E+00 -0.15270049742E+04  0.22100636401E+04  0.15976974376E+04 0.  0.
        3    1    3    3  502    0 -0.58567870177E+03  0.38235509989E+02 -0.15131304482E+04  0.16229742017E+04  0.10100000352E+00 0.  1.
       -3    1    3    3    0  502  0.58567870177E+03 -0.38235509989E+02 -0.13874525958E+02  0.58708943833E+03  0.10100000352E+00 0. -1.
</event>
<event>
 5   0  0.7849690E-05  0.1596253E+04  0.7818609E-02  0.8822854E-01
       -2   -1    0    0    0  501  0.00000000000E+00  0.00000000000E+00  0.42802794927E+03  0.42802794927E+03  0.25500000920E-02 0. -1.
        2   -1    0    0  501    0  0.00000000000E+00  0.00000000000E+00 -0.14882335508E+04  0.14882335508E+04  0.25500000920E-02 0.  1.
    10030    2    1    2    0    0  0.00000000000E+00  0.00000000000E+00 -0.10602056015E+04  0.19162615001E+04  0.15962525549E+04 0.  0.
        3    1    3    3  502    0 -0.66939411041E+03 -0.28872580324E+03 -0.92012695543E+03  0.11739185188E+04  0.10100000352E+00 0. -1.
       -3    1    3    3    0  502  0.66939411041E+03  0.28872580324E+03 -0.14007864608E+03  0.74234298124E+03  0.10100000352E+00 0.  1.
</event>
<event>
 5   0  0.4256406E-05  0.1596727E+04  0.7818609E-02  0.8822561E-01
       -1   -1    0    0    0  501  0.00000000000E+00  0.00000000000E+00  0.61704492992E+03  0.61704492994E+03  0.50400001928E-02 0. -1.
        1   -1    0    0  501    0  0.00000000000E+00  0.00000000000E+00 -0.10329630550E+04  0.10329630551E+04  0.50400001928E-02 0.  1.
    10030    2    1    2    0    0  0.00000000000E+00  0.00000000000E+00 -0.41591812512E+03  0.16500079850E+04  0.15967274231E+04 0.  0.
        3    1    3    3  502    0  0.21280505310E+03 -0.32943133631E+03 -0.92655797852E+03  0.10061414879E+04  0.10100000352E+00 0.  1.
       -3    1    3    3    0  502 -0.21280505310E+03  0.32943133631E+03  0.51063985340E+03  0.64386649707E+03  0.10100000352E+00 0. -1.
</event>
<event>
 5   0  0.7901257E-05  0.1598833E+04  0.7818609E-02  0.8821266E-01
       -2   -1    0    0    0  501  0.00000000000E+00  0.00000000000E+00  0.13987644923E+04  0.13987644923E+04  0.25500000920E-02 0. -1.
        2   -1    0    0  501    0  0.00000000000E+00  0.00000000000E+00 -0.45687918010E+03  0.45687918011E+03  0.25500000920E-02 0.  1.
    10030    2    1    2    0    0  0.00000000000E+00  0.00000000000E+00  0.94188531221E+03  0.18556436724E+04  0.15988325421E+04 0.  0.
        2    1    3    3  502    0  0.89690388329E+02 -0.78931857323E+03  0.36714496392E+03  0.87513633244E+03  0.25500000920E-02 0.  1.
       -2    1    3    3    0  502 -0.89690388329E+02  0.78931857323E+03  0.57474034829E+03  0.98050733998E+03  0.25500000920E-02 0. -1.
</event>
<event>
 5   0  0.8694033E-05  0.1598674E+04  0.7818609E-02  0.8821363E-01
       -2   -1    0    0    0  501  0.00000000000E+00  0.00000000000E+00  0.59984338996E+03  0.59984338997E+03  0.25500000920E-02 0. -1.
        2   -1    0    0  501    0  0.00000000000E+00  0.00000000000E+00 -0.10651776511E+04  0.10651776511E+04  0.25500000920E-02 0.  1.
    10030    2    1    2    0    0  0.00000000000E+00  0.00000000000E+00 -0.46533426117E+03  0.16650210411E+04  0.15986741671E+04 0.  0.
        1    1    3    3  502    0 -0.25294144433E+03 -0.50061036917E+03  0.36048554048E+03  0.66673828516E+03  0.50400001928E-02 0. -1.
       -1    1    3    3    0  502  0.25294144433E+03  0.50061036917E+03 -0.82581980165E+03  0.99828275593E+03  0.50400001928E-02 0.  1.
</event>
<event>
 5   0  0.8620155E-05  0.1601109E+04  0.7818609E-02  0.8819867E-01
        2   -1    0    0  501    0  0.00000000000E+00  0.00000000000E+00  0.10203143924E+04  0.10203143924E+04  0.25500000920E-02 0.  1.
       -2   -1    0    0    0  501  0.00000000000E+00  0.00000000000E+00 -0.62812715622E+03  0.62812715622E+03  0.25500000920E-02 0. -1.
    10030    2    1    2    0    0  0.00000000000E+00  0.00000000000E+00  0.39218723617E+03  0.16484415486E+04  0.16011085881E+04 0.  0.
        4    1    3    3  502    0  0.50513902744E+03 -0.35807765455E+03 -0.32635287870E+03  0.69992346586E+03  0.12699999809E+01 0. -1.
       -4    1    3    3    0  502 -0.50513902744E+03  0.35807765455E+03  0.71854011487E+03  0.94851808275E+03  0.12699999809E+01 0.  1.
</event>
<event>
 5   0  0.4314657E-05  0.1596848E+04  0.7818609E-02  0.8822487E-01
        1   -1    0    0  501    0  0.00000000000E+00  0.00000000000E+00  0.18944992011E+04  0.18944992011E+04  0.50400001928E-02 0. -1.
       -1   -1    0    0    0  501  0.00000000000E+00  0.00000000000E+00 -0.33649028064E+03  0.33649028068E+03  0.50400001928E-02 0.  1.
    10030    2    1    2    0    0  0.00000000000E+00  0.00000000000E+00  0.15580089204E+04  0.22309894818E+04  0.15968476044E+04 0.  0.
        5    1    3    3  502    0  0.12642574512E+02  0.74782477556E+03  0.38866785631E+03  0.84290362567E+03  0.46999998093E+01 0.  1.
       -5    1    3    3    0  502 -0.12642574512E+02 -0.74782477556E+03  0.11693410641E+04  0.13880858561E+04  0.46999998093E+01 0. -1.
</event>
<event>
 5   0  0.8694033E-05  0.1599407E+04  0.7818609E-02  0.8820912E-01
       -2   -1    0    0    0  501  0.00000000000E+00  0.00000000000E+00  0.59493548044E+03  0.59493548045E+03  0.25500000920E-02 0.  1.
        2   -1    0    0  501    0  0.00000000000E+00  0.00000000000E+00 -0.10749494931E+04  0.10749494931E+04  0.25500000920E-02 0. -1.
    10030    2    1    2    0    0  0.00000000000E+00  0.00000000000E+00 -0.48001401265E+03  0.16698849735E+04  0.15994068815E+04 0.  0.
        1    1    3    3  502    0 -0.40964909278E+03 -0.68229657261E+03 -0.32211462109E+03  0.85854459486E+03  0.50400001928E-02 0.  1.
       -1    1    3    3    0  502  0.40964909278E+03  0.68229657261E+03 -0.15789939156E+03  0.81134037869E+03  0.50400001928E-02 0. -1.
</event>
<event>
 5   0  0.7849690E-05  0.1600323E+04  0.7818609E-02  0.8820350E-01
       -2   -1    0    0    0  501  0.00000000000E+00  0.00000000000E+00  0.10715327997E+04  0.10715327997E+04  0.25500000920E-02 0. -1.
        2   -1    0    0  501    0  0.00000000000E+00  0.00000000000E+00 -0.59751609020E+03  0.59751609020E+03  0.25500000920E-02 0.  1.
    10030    2    1    2    0    0  0.00000000000E+00  0.00000000000E+00  0.47401670947E+03  0.16690488899E+04  0.16003225787E+04 0.  0.
        3    1    3    3  502    0  0.31264540491E+03 -0.72525008125E+03  0.37107145312E+03  0.87259891306E+03  0.10100000352E+00 0. -1.
       -3    1    3    3    0  502 -0.31264540491E+03  0.72525008125E+03  0.10294525635E+03  0.79644997681E+03  0.10100000352E+00 0.  1.
</event>
<event>
 5   0  0.4373026E-05  0.1593377E+04  0.7818609E-02  0.8824627E-01
        1   -1    0    0  501    0  0.00000000000E+00  0.00000000000E+00  0.76469986313E+03  0.76469986315E+03  0.50400001928E-02 0.  1.
       -1   -1    0    0    0  501  0.00000000000E+00  0.00000000000E+00 -0.83001540218E+03  0.83001540219E+03  0.50400001928E-02 0. -1.
    10030    2    1    2    0    0  0.00000000000E+00  0.00000000000E+00 -0.65315539049E+02  0.15947152653E+04  0.15933771236E+04 0.  0.
        4    1    3    3  502    0 -0.51000161908E+03  0.50326423857E+03  0.31596579379E+03  0.78307888558E+03  0.12699999809E+01 0. -1.
       -4    1    3    3    0  502  0.51000161908E+03 -0.50326423857E+03 -0.38128133284E+03  0.81163637977E+03  0.12699999809E+01 0.  1.
</event>
<event>
 5   0  0.8037548E-05  0.1615273E+04  0.7818609E-02  0.8811220E-01
       -2   -1    0    0    0  501  0.00000000000E+00  0.00000000000E+00  0.82695801256E+03  0.82695801257E+03  0.25500000920E-02 0. -1.
        2   -1    0    0  501    0  0.00000000000E+00  0.00000000000E+00 -0.78876652458E+03  0.78876652458E+03  0.25500000920E-02 0.  1.
    10030    2    1    2    0    0  0.00000000000E+00  0.00000000000E+00  0.38191487981E+02  0.16157245371E+04  0.16152731008E+04 0.  0.
        5    1    3    3  502    0  0.41868097695E+03  0.20825043433E+02 -0.67140672628E+03  0.79154060223E+03  0.46999998093E+01 0.  1.
       -5    1    3    3    0  502 -0.41868097695E+03 -0.20825043433E+02  0.70959821426E+03  0.82418393492E+03  0.46999998093E+01 0. -1.
</event>
<event>
 5   0  0.7901257E-05  0.1600165E+04  0.7818609E-02  0.8820446E-01
        2   -1    0    0  501    0  0.00000000000E+00  0.00000000000E+00  0.83101621813E+03  0.83101621813E+03  0.25500000920E-02 0. -1.
       -2   -1    0    0    0  501  0.00000000000E+00  0.00000000000E+00 -0.77030054531E+03  0.77030054532E+03  0.25500000920E-02 0.  1.
    10030    2    1    2    0    0  0.00000000000E+00  0.00000000000E+00  0.60715672812E+02  0.16013167634E+04  0.16001652990E+04 0.  0.
        2    1    3    3  502    0  0.48746887518E+03  0.63172192477E+03  0.88998223991E+02  0.80288179602E+03  0.25500000920E-02 0. -1.
       -2    1    3    3    0  502 -0.48746887518E+03 -0.63172192477E+03 -0.28282551179E+02  0.79843496743E+03  0.25500000920E-02 0.  1.
</event>
<event>
 5   0  0.7901257E-05  0.1602458E+04  0.7818609E-02  0.8819039E-01
       -2   -1    0    0    0  501  0.00000000000E+00  0.00000000000E+00  0.69014415559E+03  0.69014415559E+03  0.25500000920E-02 0. -1.
        2   -1    0    0  501    0  0.00000000000E+00  0.00000000000E+00 -0.93019451153E+03  0.93019451153E+03  0.25500000920E-02 0.  1.
    10030    2    1    2    0    0  0.00000000000E+00  0.00000000000E+00 -0.24005035594E+03  0.16203386671E+04  0.16024584933E+04 0.  0.
        2    1    3    3  502    0  0.23833874651E+03 -0.53232093167E+02 -0.89164490959E+03  0.92448345504E+03  0.25500000920E-02 0.  1.
       -2    1    3    3    0  502 -0.23833874651E+03  0.53232093167E+02  0.65159455365E+03  0.69585521209E+03  0.25500000920E-02 0. -1.
</event>
<event>
 5   0  0.4256406E-05  0.1594337E+04  0.7818609E-02  0.8824035E-01
       -1   -1    0    0    0  501  0.00000000000E+00  0.00000000000E+00  0.69329028924E+03  0.69329028926E+03  0.50400001928E-02 0.  1.
        1   -1    0    0  501    0  0.00000000000E+00  0.00000000000E+00 -0.91661122615E+03  0.91661122616E+03  0.50400001928E-02 0. -1.
    10030    2    1    2    0    0  0.00000000000E+00  0.00000000000E+00 -0.22332093690E+03  0.16099015154E+04  0.15943370561E+04 0.  0.
        3    1    3    3  502    0 -0.44858121034E+03  0.58695742036E+03 -0.41414039620E+03  0.84690990876E+03  0.10100000352E+00 0.  1.
       -3    1    3    3    0  502  0.44858121034E+03 -0.58695742036E+03  0.19081945930E+03  0.76299160666E+03  0.10100000352E+00 0. -1.
</event>
<event>
 5   0  0.4211419E-05  0.1599609E+04  0.7818609E-02  0.8820788E-01
       -1   -1    0    0    0  501  0.00000000000E+00  0.00000000000E+00  0.45601494949E+03  0.45601494952E+03  0.50400001928E-02 0. -1.
        1   -1    0    0  501    0  0.00000000000E+00  0.00000000000E+00 -0.14027777051E+04  0.14027777051E+04  0.50400001928E-02 0.  1.
    10030    2    1    2    0    0  0.00000000000E+00  0.00000000000E+00 -0.94676275556E+03  0.18587926546E+04  0.15996094578E+04 0.  0.
        2    1    3    3  502    0 -0.13683173799E+03 -0.35814864843E+01  0.44230330170E+03  0.46299887934E+03  0.25500000920E-02 0. -1.
       -2    1    3    3    0  502  0.13683173799E+03  0.35814864843E+01 -0.13890660573E+04  0.13957937752E+04  0.25500000920E-02 0.  1.
</event>
<event>
 5   0  0.8694033E-05  0.1644281E+04  0.7818609E-02  0.8793797E-01
       -2   -1    0    0    0  501  0.00000000000E+00  0.00000000000E+00  0.35882173240E+03  0.35882173241E+03  0.25500000920E-02 0.  1.
        2   -1    0    0  501    0  0.00000000000E+00  0.00000000000E+00 -0.18837079941E+04  0.18837079941E+04  0.25500000920E-02 0. -1.
    10030    2    1    2    0    0  0.00000000000E+00  0.00000000000E+00 -0.15248862617E+04  0.22425297265E+04  0.16442814428E+04 0.  0.
        1    1    3    3  502    0 -0.10344585490E+03  0.81242507594E+03 -0.86059967416E+03  0.11880098266E+04  0.50400001928E-02 0. -1.
       -1    1    3    3    0  502  0.10344585490E+03 -0.81242507594E+03 -0.66428658755E+03  0.10545198999E+04  0.50400001928E-02 0.  1.
</event>
<event>
 5   0  0.3042125E-05  0.1602051E+04  0.7818609E-02  0.8819289E-01
       -4   -1    0    0    0  501  0.00000000000E+00  0.00000000000E+00  0.48951048751E+03  0.48951213497E+03  0.12699999809E+01 0. -1.
        4   -1    0    0  501    0  0.00000000000E+00  0.00000000000E+00 -0.13107789857E+04  0.13107796009E+04  0.12699999809E+01 0.  1.
    10030    2    1    2    0    0  0.00000000000E+00  0.00000000000E+00 -0.82126849817E+03  0.18002917359E+04  0.16020513064E+04 0.  0.
        5    1    3    3  502    0 -0.30076068553E+03 -0.13676850953E+03  0.40935639600E+03  0.52607733662E+03  0.46999998093E+01 0. -1.
       -5    1    3    3    0  502  0.30076068553E+03  0.13676850953E+03 -0.12306248942E+04  0.12742143993E+04  0.46999998093E+01 0.  1.
</event>
<event>
 5   0  0.4314657E-05  0.1598002E+04  0.7818609E-02  0.8821776E-01
        1   -1    0    0  501    0  0.00000000000E+00  0.00000000000E+00  0.65197102346E+03  0.65197102348E+03  0.50400001928E-02 0. -1.
       -1   -1    0    0    0  501  0.00000000000E+00  0.00000000000E+00 -0.97918901109E+03  0.97918901111E+03  0.50400001928E-02 0.  1.
    10030    2    1    2    0    0  0.00000000000E+00  0.00000000000E+00 -0.32721798763E+03  0.16311600346E+04  0.15980023301E+04 0.  0.
        5    1    3    3  502    0  0.68917371811E+03 -0.36740657688E+02 -0.57454209524E+03  0.89801503265E+03  0.46999998093E+01 0.  1.
       -5    1    3    3    0  502 -0.68917371811E+03  0.36740657688E+02  0.24732410760E+03  0.73314500194E+03  0.46999998093E+01 0. -1.
</event>
<event>
 5   0  0.8037548E-05  0.1597261E+04  0.7818609E-02  0.8822233E-01
       -2   -1    0    0    0  501  0.00000000000E+00  0.00000000000E+00  0.54131594863E+03  0.54131594864E+03  0.25500000920E-02 0. -1.
        2   -1    0    0  501    0  0.00000000000E+00  0.00000000000E+00 -0.11782593284E+04  0.11782593284E+04  0.25500000920E-02 0.  1.
    10030    2    1    2    0    0  0.00000000000E+00  0.00000000000E+00 -0.63694337975E+03  0.17195752770E+04  0.15972608630E+04 0.  0.
        5    1    3    3  502    0 -0.64801171005E+03 -0.30177352793E+03 -0.70183315674E+03  0.10017875565E+04  0.46999998093E+01 0.  1.
       -5    1    3    3    0  502  0.64801171005E+03  0.30177352793E+03  0.64889776993E+02  0.71778772049E+03  0.46999998093E+01 0. -1.
</event>
<event>
 5   0  0.4211419E-05  0.1593886E+04  0.7818609E-02  0.8824313E-01
       -1   -1    0    0    0  501  0.00000000000E+00  0.00000000000E+00  0.42192518133E+03  0.42192518136E+03  0.50400001928E-02 0. -1.
        1   -1    0    0  501    0  0.00000000000E+00  0.00000000000E+00 -0.15052863057E+04  0.15052863057E+04  0.50400001928E-02 0.  1.
    10030    2    1    2    0    0  0.00000000000E+00  0.00000000000E+00 -0.10833611244E+04  0.19272114871E+04  0.15938860656E+04 0.  0.
        2    1    3    3  502    0  0.20907640184E+02 -0.13569799264E+03  0.40751697203E+03  0.43002460061E+03  0.25500000920E-02 0. -1.
       -2    1    3    3    0  502 -0.20907640184E+02  0.13569799264E+03 -0.14908780964E+04  0.14971868865E+04  0.25500000920E-02 0.  1.
</event>
<event>
 5   0  0.4256406E-05  0.1599233E+04  0.7818609E-02  0.8821019E-01
        1   -1    0    0  501    0  0.00000000000E+00  0.00000000000E+00  0.16433707319E+04  0.16433707319E+04  0.50400001928E-02 0.  1.
       -1   -1    0    0    0  501  0.00000000000E+00  0.00000000000E+00 -0.38907021440E+03  0.38907021444E+03  0.50400001928E-02 0. -1.
    10030    2    1    2    0    0  0.00000000000E+00  0.00000000000E+00  0.12543005175E+04  0.20324409464E+04  0.15992330700E+04 0.  0.
        3    1    3    3  502    0 -0.62927148609E+03  0.24974410812E+03  0.86416239972E+02  0.68251190427E+03  0.10100000352E+00 0.  1.
       -3    1    3    3    0  502  0.62927148609E+03 -0.24974410812E+03  0.11678842775E+04  0.13499290421E+04  0.10100000352E+00 0. -1.
</event>
<event>
 5   0  0.4314657E-05  0.1601116E+04  0.7818609E-02  0.8819863E-01
       -1   -1    0    0    0  501  0.00000000000E+00  0.00000000000E+00  0.41021938608E+03  0.41021938611E+03  0.50400001928E-02 0.  1.
        1   -1    0    0  501    0  0.00000000000E+00  0.00000000000E+00 -0.15623175650E+04  0.15623175650E+04  0.50400001928E-02 0. -1.
    10030    2    1    2    0    0  0.00000000000E+00  0.00000000000E+00 -0.11520981790E+04  0.19725369512E+04  0.16011158015E+04 0.  0.
        5    1    3    3  502    0 -0.79024038817E+02 -0.71210464190E+03 -0.10160096681E+04  0.12432359211E+04  0.46999998093E+01 0. -1.
       -5    1    3    3    0  502  0.79024038817E+02  0.71210464190E+03 -0.13608851085E+03  0.72930103010E+03  0.46999998093E+01 0.  1.
</event>
<event>
 5   0  0.7901257E-05  0.1596468E+04  0.7818609E-02  0.8822721E-01
        2   -1    0    0  501    0  0.00000000000E+00  0.00000000000E+00  0.89160879439E+03  0.89160879439E+03  0.25500000920E-02 0.  1.
       -2   -1    0    0    0  501  0.00000000000E+00  0.00000000000E+00 -0.71463762131E+03  0.71463762131E+03  0.25500000920E-02 0. -1.
    10030    2    1    2    0    0  0.00000000000E+00  0.00000000000E+00  0.17697117308E+03  0.16062464157E+04  0.15964675856E+04 0.  0.
        2    1    3    3  502    0  0.27541689817E+03  0.70059238892E+03 -0.17864593594E+03  0.77369149772E+03  0.25500000920E-02 0.  1.
       -2    1    3    3    0  502 -0.27541689817E+03 -0.70059238892E+03  0.35561710902E+03  0.83255491798E+03  0.25500000920E-02 0. -1.
</event>
<event>
 5   0  0.7849690E-05  0.1607667E+04  0.7818609E-02  0.8815852E-01
        2   -1    0    0  501    0  0.00000000000E+00  0.00000000000E+00  0.22571484010E+04  0.22571484010E+04  0.25500000920E-02 0. -1.
       -2   -1    0    0    0  501  0.00000000000E+00  0.00000000000E+00 -0.28626747025E+03  0.28626747026E+03  0.25500000920E-02 0.  1.
    10030    2    1    2    0    0  0.00000000000E+00  0.00000000000E+00  0.19708809308E+04  0.25434158713E+04  0.16076668346E+04 0.  0.
        3    1    3    3  502    0  0.36843108000E+03 -0.47950591933E+03  0.18233031834E+04  0.19209637935E+04  0.10100000352E+00 0. -1.
       -3    1    3    3    0  502 -0.36843108000E+03  0.47950591933E+03  0.14757774741E+03  0.62245207776E+03  0.10100000352E+00 0.  1.
</event>
<event>
 5   0  0.4256406E-05  0.1599072E+04  0.7818609E-02  0.8821118E-01
        1   -1    0    0  501    0  0.00000000000E+00  0.00000000000E+00  0.12344902222E+04  0.12344902223E+04  0.50400001928E-02 0.  1.
       -1   -1    0    0    0  501  0.00000000000E+00  0.00000000000E+00 -0.51783128046E+03  0.51783128049E+03  0.50400001928E-02 0. -1.
    10030    2    1    2    0    0  0.00000000000E+00  0.00000000000E+00  0.71665894179E+03  0.17523215027E+04  0.15990717964E+04 0.  0.
        3    1    3    3  502    0 -0.25464719811E+03  0.37669848562E+03 -0.36235348914E+03  0.58141809902E+03  0.10100000352E+00 0. -1.
       -3    1    3    3    0  502  0.25464719811E+03 -0.37669848562E+03  0.10790124309E+04  0.11709034037E+04  0.10100000352E+00 0.  1.
</event>
<event>
 5   0  0.8694033E-05  0.1615157E+04  0.7818609E-02  0.8811290E-01
       -2   -1    0    0    0  501  0.00000000000E+00  0.00000000000E+00  0.10210330757E+04  0.10210330757E+04  0.25500000920E-02 0. -1.
        2   -1    0    0  501    0  0.00000000000E+00  0.00000000000E+00 -0.63874822492E+03  0.63874822493E+03  0.25500000920E-02 0.  1.
    10030    2    1    2    0    0  0.00000000000E+00  0.00000000000E+00  0.38228485076E+03  0.16597813006E+04  0.16151570384E+04 0.  0.
        1    1    3    3  502    0  0.61329148050E+03  0.42987696118E+03 -0.11930074525E+03  0.75838862705E+03  0.50400001928E-02 0.  1.
       -1    1    3    3    0  502 -0.61329148050E+03 -0.42987696118E+03  0.50158559601E+03  0.90139267356E+03  0.50400001928E-02 0. -1.
</event>
<event>
 5   0  0.8694033E-05  0.1601056E+04  0.7818609E-02  0.8819899E-01
       -2   -1    0    0    0  501  0.00000000000E+00  0.00000000000E+00  0.71628743702E+03  0.71628743703E+03  0.25500000920E-02 0. -1.
        2   -1    0    0  501    0  0.00000000000E+00  0.00000000000E+00 -0.89467592808E+03  0.89467592809E+03  0.25500000920E-02 0.  1.
    10030    2    1    2    0    0  0.00000000000E+00  0.00000000000E+00 -0.17838849106E+03  0.16109633651E+04  0.16010560609E+04 0.  0.
        1    1    3    3  502    0 -0.43881877128E+03  0.26317620098E+03 -0.70865107971E+03  0.87407664401E+03  0.50400001928E-02 0.  1.
       -1    1    3    3    0  502  0.43881877128E+03 -0.26317620098E+03  0.53026258865E+03  0.73688672111E+03  0.50400001928E-02 0. -1.
</event>
<event>
 5   0  0.8037548E-05  0.1596901E+04  0.7818609E-02  0.8822454E-01
        2   -1    0    0  501    0  0.00000000000E+00  0.00000000000E+00  0.83066082592E+03  0.83066082593E+03  0.25500000920E-02 0. -1.
       -2   -1    0    0    0  501  0.00000000000E+00  0.00000000000E+00 -0.76748900707E+03  0.76748900707E+03  0.25500000920E-02 0.  1.
    10030    2    1    2    0    0  0.00000000000E+00  0.00000000000E+00  0.63171818857E+02  0.15981498330E+04  0.15969008141E+04 0.  0.
        5    1    3    3  502    0 -0.32524284979E+02 -0.27578159911E+03  0.78076185823E+03  0.82868841478E+03  0.46999998093E+01 0. -1.
       -5    1    3    3    0  502  0.32524284979E+02  0.27578159911E+03 -0.71759003937E+03  0.76946141822E+03  0.46999998093E+01 0.  1.
</event>
<event>
 5   0  0.7849690E-05  0.1605834E+04  0.7818609E-02  0.8816972E-01
        2   -1    0    0  501    0  0.00000000000E+00  0.00000000000E+00  0.75965571094E+03  0.75965571094E+03  0.25500000920E-02 0. -1.
       -2   -1    0    0    0  501  0.00000000000E+00  0.00000000000E+00 -0.84864159755E+03  0.84864159756E+03  0.25500000920E-02 0.  1.
    10030    2    1    2    0    0  0.00000000000E+00  0.00000000000E+00 -0.88985886614E+02  0.16082973085E+04  0.16058336603E+04 0.  0.
        3    1    3    3  502    0 -0.24273493315E+02 -0.35268317626E+03  0.67751582375E+03  0.76420044944E+03  0.10100000352E+00 0. -1.
       -3    1    3    3    0  502  0.24273493315E+02  0.35268317626E+03 -0.76650171036E+03  0.84409685906E+03  0.10100000352E+00 0.  1.
</event>
<event>
 5   0  0.4504463E-05  0.1599389E+04  0.7818609E-02  0.8820923E-01
        1   -1    0    0  501    0  0.00000000000E+00  0.00000000000E+00  0.99947911830E+03  0.99947911831E+03  0.50400001928E-02 0.  1.
       -1   -1    0    0    0  501  0.00000000000E+00  0.00000000000E+00 -0.63984454830E+03  0.63984454832E+03  0.50400001928E-02 0. -1.
    10030    2    1    2    0    0  0.00000000000E+00  0.00000000000E+00  0.35963457001E+03  0.16393236666E+04  0.15993889646E+04 0.  0.
        1    1    3    3  502    0  0.49941419955E+03  0.43677633364E+03  0.63742094756E+03  0.92005085335E+03  0.50400001928E-02 0.  1.
       -1    1    3    3    0  502 -0.49941419955E+03 -0.43677633364E+03 -0.27778637755E+03  0.71927281328E+03  0.50400001928E-02 0. -1.
</event>
<event>
 5   0  0.4504463E-05  0.1602259E+04  0.7818609E-02  0.8819161E-01
       -1   -1    0    0    0  501  0.00000000000E+00  0.00000000000E+00  0.90402674920E+03  0.90402674921E+03  0.50400001928E-02 0. -1.
        1   -1    0    0  501    0  0.00000000000E+00  0.00000000000E+00 -0.70994404368E+03  0.70994404369E+03  0.50400001928E-02 0.  1.
    10030    2    1    2    0    0  0.00000000000E+00  0.00000000000E+00  0.19408270553E+03  0.16139707929E+04  0.16022589128E+04 0.  0.
        1    1    3    3  502    0 -0.40347692852E+03  0.25171446905E+03  0.74646675321E+03  0.88507989439E+03  0.50400001928E-02 0. -1.
       -1    1    3    3    0  502  0.40347692852E+03 -0.25171446905E+03 -0.55238404769E+03  0.72889089852E+03  0.50400001928E-02 0.  1.
</event>
<event>
 5   0  0.4504463E-05  0.1598594E+04  0.7818609E-02  0.8821412E-01
       -1   -1    0    0    0  501  0.00000000000E+00  0.00000000000E+00  0.46708610820E+03  0.46708610823E+03  0.50400001928E-02 0.  1.
        1   -1    0    0  501    0  0.00000000000E+00  0.00000000000E+00 -0.13677902255E+04  0.13677902255E+04  0.50400001928E-02 0. -1.
    10030    2    1    2    0    0  0.00000000000E+00  0.00000000000E+00 -0.90070411730E+03  0.18348763337E+04  0.15985941490E+04 0.  0.
        1    1    3    3  502    0  0.34587343191E+03 -0.71998129956E+03 -0.48429124794E+03  0.93409823652E+03  0.50400001928E-02 0. -1.
       -1    1    3    3    0  502 -0.34587343191E+03  0.71998129956E+03 -0.41641286936E+03  0.90077809721E+03  0.50400001928E-02 0.  1.
</event>
<event>
 5   0  0.8037548E-05  0.1606784E+04  0.7818609E-02  0.8816391E-01
        2   -1    0    0  501    0  0.00000000000E+00  0.00000000000E+00  0.49910891909E+03  0.49910891910E+03  0.25500000920E-02 0.  1.
       -2   -1    0    0    0  501  0.00000000000E+00  0.00000000000E+00 -0.12931822768E+04  0.12931822768E+04  0.25500000920E-02 0. -1.
    10030    2    1    2    0    0  0.00000000000E+00  0.00000000000E+00 -0.79407335770E+03  0.17922911959E+04  0.16067841278E+04 0.  0.
        5    1    3    3  502    0 -0.39944566211E+03  0.55371149474E+03 -0.86931382269E+03  0.11053876554E+04  0.46999998093E+01 0. -1.
       -5    1    3    3    0  502  0.39944566211E+03 -0.55371149474E+03  0.75240464991E+02  0.68690354050E+03  0.46999998093E+01 0.  1.
</event>
<event>
 5   0  0.8694033E-05  0.1600587E+04  0.7818609E-02  0.8820187E-01
        2   -1    0    0  501    0  0.00000000000E+00  0.00000000000E+00  0.17070838244E+04  0.17070838244E+04  0.25500000920E-02 0.  1.
       -2   -1    0    0    0  501  0.00000000000E+00  0.00000000000E+00 -0.37518373397E+03  0.37518373397E+03  0.25500000920E-02 0. -1.
    10030    2    1    2    0    0  0.00000000000E+00  0.00000000000E+00  0.13319000905E+04  0.20822675584E+04  0.16005874965E+04 0.  0.
        1    1    3    3  502    0 -0.77255538860E+03 -0.10706233076E+03  0.43262838947E+03  0.89189208682E+03  0.50400001928E-02 0. -1.
       -1    1    3    3    0  502  0.77255538860E+03  0.10706233076E+03  0.89927170100E+03  0.11903754716E+04  0.50400001928E-02 0.  1.
</event>
<event>
 5   0  0.4314657E-05  0.1600016E+04  0.7818609E-02  0.8820538E-01
        1   -1    0    0  501    0  0.00000000000E+00  0.00000000000E+00  0.21597125865E+04  0.21597125865E+04  0.50400001928E-02 0.  1.
       -1   -1    0    0    0  501  0.00000000000E+00  0.00000000000E+00 -0.29634176411E+03  0.29634176415E+03  0.50400001928E-02 0. -1.
    10030    2    1    2    0    0  0.00000000000E+00  0.00000000000E+00  0.18633708224E+04  0.24560543507E+04  0.16000162973E+04 0.  0.
        5    1    3    3  502    0 -0.59286387139E+03 -0.52754464211E+03  0.10867148802E+04  0.13456456593E+04  0.46999998093E+01 0.  1.
       -5    1    3    3    0  502  0.59286387139E+03  0.52754464211E+03  0.77665594217E+03  0.11104086914E+04  0.46999998093E+01 0. -1.
</event>
<event>
 5   0  0.4256406E-05  0.1610140E+04  0.7818609E-02  0.8814343E-01
        1   -1    0    0  501    0  0.00000000000E+00  0.00000000000E+00  0.82661021935E+03  0.82661021937E+03  0.50400001928E-02 0. -1.
       -1   -1    0    0    0  501  0.00000000000E+00  0.00000000000E+00 -0.78409134307E+03  0.78409134309E+03  0.50400001928E-02 0.  1.
    10030    2    1    2    0    0  0.00000000000E+00  0.00000000000E+00  0.42518876278E+02  0.16107015625E+04  0.16101402636E+04 0.  0.
        3    1    3    3  502    0  0.13176270001E+03 -0.74315419794E+03  0.30153265279E+03  0.81274935984E+03  0.10100000352E+00 0. -1.
       -3    1    3    3    0  502 -0.13176270001E+03  0.74315419794E+03 -0.25901377652E+03  0.79795220261E+03  0.10100000352E+00 0.  1.
</event>
<event>
 5   0  0.8694033E-05  0.1601773E+04  0.7818609E-02  0.8819460E-01
       -2   -1    0    0    0  501  0.00000000000E+00  0.00000000000E+00  0.84605594569E+03  0.84605594570E+03  0.25500000920E-02 0.  1.
        2   -1    0    0  501    0  0.00000000000E+00  0.00000000000E+00 -0.75812841917E+03  0.75812841918E+03  0.25500000920E-02 0. -1.
    10030    2    1    2    0    0  0.00000000000E+00  0.00000000000E+00  0.87927526519E+02  0.16041843649E+04  0.16017728386E+04 0.  0.
        1    1    3    3  502    0  0.45131734946E+03 -0.65658583691E+03  0.12549114570E+03  0.80656080913E+03  0.50400001928E-02 0.  1.
       -1    1    3    3    0  502 -0.45131734946E+03  0.65658583691E+03 -0.37563619184E+02  0.79762355574E+03  0.50400001928E-02 0. -1.
</event>
<event>
 5   0  0.4504463E-05  0.1620222E+04  0.7818609E-02  0.8808220E-01
       -1   -1    0    0    0  501  0.00000000000E+00  0.00000000000E+00  0.88426745514E+03  0.88426745516E+03  0.50400001928E-02 0. -1.
        1   -1    0    0  501    0  0.00000000000E+00  0.00000000000E+00 -0.74217343759E+03  0.74217343760E+03  0.50400001928E-02 0.  1.
    10030    2    1    2    0    0  0.00000000000E+00  0.00000000000E+00  0.14209401756E+03  0.16264408928E+04  0.16202219810E+04 0.  0.
        1    1    3    3  502    0  0.43522717581E+03  0.63926314255E+03  0.31321924419E+03  0.83437782506E+03  0.50400001928E-02 0. -1.
       -1    1    3    3    0  502 -0.43522717581E+03 -0.63926314255E+03 -0.17112522664E+03  0.79206306770E+03  0.50400001928E-02 0.  1.
</event>
<event>
 5   0  0.4211419E-05  0.1597734E+04  0.7818609E-02  0.8821942E-01
        1   -1    0    0  501    0  0.00000000000E+00  0.00000000000E+00  0.41949268721E+03  0.41949268724E+03  0.50400001928E-02 0. -1.
       -1   -1    0    0    0  501  0.00000000000E+00  0.00000000000E+00 -0.15213333435E+04  0.15213333435E+04  0.50400001928E-02 0.  1.
    10030    2    1    2    0    0  0.00000000000E+00  0.00000000000E+00 -0.11018406563E+04  0.19408260307E+04  0.15977336605E+04 0.  0.
        2    1    3    3  502    0  0.20521950204E+03 -0.16209862453E+03 -0.14678634151E+04  0.14909775362E+04  0.25500000920E-02 0.  1.
       -2    1    3    3    0  502 -0.20521950204E+03  0.16209862453E+03  0.36602275879E+03  0.44984849455E+03  0.25500000920E-02 0. -1.
</event>
<event>
 5   0  0.4373026E-05  0.1596953E+04  0.7818609E-02  0.8822422E-01
        1   -1    0    0  501    0  0.00000000000E+00  0.00000000000E+00  0.91352183591E+03  0.91352183592E+03  0.50400001928E-02 0.  1.
       -1   -1    0    0    0  501  0.00000000000E+00  0.00000000000E+00 -0.69791911081E+03  0.69791911083E+03  0.50400001928E-02 0. -1.
    10030    2    1    2    0    0  0.00000000000E+00  0.00000000000E+00  0.21560272509E+03  0.16114409468E+04  0.15969525321E+04 0.  0.
        4    1    3    3  502    0 -0.26109157322E+03 -0.61076811391E+03  0.55494261270E+03  0.86554573240E+03  0.12699999809E+01 0.  1.
       -4    1    3    3    0  502  0.26109157322E+03  0.61076811391E+03 -0.33933988760E+03  0.74589521436E+03  0.12699999809E+01 0. -1.
</event>
<event>
 5   0  0.4373026E-05  0.1602322E+04  0.7818609E-02  0.8819123E-01
       -1   -1    0    0    0  501  0.00000000000E+00  0.00000000000E+00  0.64599588286E+03  0.64599588288E+03  0.50400001928E-02 0.  1.
        1   -1    0    0  501    0  0.00000000000E+00  0.00000000000E+00 -0.99359586365E+03  0.99359586367E+03  0.50400001928E-02 0. -1.
    10030    2    1    2    0    0  0.00000000000E+00  0.00000000000E+00 -0.34759998080E+03  0.16395917465E+04  0.16023218618E+04 0.  0.
        4    1    3    3  502    0  0.18124042835E+03 -0.73642823608E+03  0.90436125767E+02  0.76377676419E+03  0.12699999809E+01 0.  1.
       -4    1    3    3    0  502 -0.18124042835E+03  0.73642823608E+03 -0.43803610656E+03  0.87581498236E+03  0.12699999809E+01 0. -1.
</event>
<event>
 5   0  0.4504463E-05  0.1599075E+04  0.7818609E-02  0.8821117E-01
        1   -1    0    0  501    0  0.00000000000E+00  0.00000000000E+00  0.65381849997E+03  0.65381849999E+03  0.50400001928E-02 0. -1.
       -1   -1    0    0    0  501  0.00000000000E+00  0.00000000000E+00 -0.97773336384E+03  0.97773336385E+03  0.50400001928E-02 0.  1.
    10030    2    1    2    0    0  0.00000000000E+00  0.00000000000E+00 -0.32391486386E+03  0.16315518638E+04  0.15990749343E+04 0.  0.
        1    1    3    3  502    0 -0.78068676128E+03  0.15461570918E+03 -0.83703429535E+02  0.80024002706E+03  0.50400001928E-02 0. -1.
       -1    1    3    3    0  502  0.78068676128E+03 -0.15461570918E+03 -0.24021143433E+03  0.83131183678E+03  0.50400001928E-02 0.  1.
</event>
<event>
 5   0  0.4256406E-05  0.1598700E+04  0.7818609E-02  0.8821347E-01
        1   -1    0    0  501    0  0.00000000000E+00  0.00000000000E+00  0.79931122717E+03  0.79931122719E+03  0.50400001928E-02 0.  1.
       -1   -1    0    0    0  501  0.00000000000E+00  0.00000000000E+00 -0.79938904502E+03  0.79938904504E+03  0.50400001928E-02 0. -1.
    10030    2    1    2    0    0  0.00000000000E+00  0.00000000000E+00 -0.77817848540E-01  0.15987002722E+04  0.15987002703E+04 0.  0.
        3    1    3    3  502    0  0.31462291125E+03 -0.77827296881E+02  0.73065662632E+03  0.79931456900E+03  0.10100000352E+00 0.  1.
       -3    1    3    3    0  502 -0.31462291125E+03  0.77827296881E+02 -0.73073444417E+03  0.79938570323E+03  0.10100000352E+00 0. -1.
</event>
<event>
 5   0  0.4373026E-05  0.1600352E+04  0.7818609E-02  0.8820332E-01
        1   -1    0    0  501    0  0.00000000000E+00  0.00000000000E+00  0.66754787504E+03  0.66754787506E+03  0.50400001928E-02 0. -1.
       -1   -1    0    0    0  501  0.00000000000E+00  0.00000000000E+00 -0.95915507003E+03  0.95915507004E+03  0.50400001928E-02 0.  1.
    10030    2    1    2    0    0  0.00000000000E+00  0.00000000000E+00 -0.29160719499E+03  0.16267029451E+04  0.16003523723E+04 0.  0.
        4    1    3    3  502    0  0.62209896861E+03 -0.50267215357E+03 -0.17057482662E+03  0.81779203047E+03  0.12699999809E+01 0. -1.
       -4    1    3    3    0  502 -0.62209896861E+03  0.50267215357E+03 -0.12103236837E+03  0.80891091463E+03  0.12699999809E+01 0.  1.
</event>
<event>
 5   0  0.8037548E-05  0.1593194E+04  0.7818609E-02  0.8824740E-01
        2   -1    0    0  501    0  0.00000000000E+00  0.00000000000E+00  0.49193946022E+03  0.49193946023E+03  0.25500000920E-02 0.  1.
       -2   -1    0    0    0  501  0.00000000000E+00  0.00000000000E+00 -0.12899294015E+04  0.12899294015E+04  0.25500000920E-02 0. -1.
    10030    2    1    2    0    0  0.00000000000E+00  0.00000000000E+00 -0.79798994128E+03  0.17818688617E+04  0.15931944935E+04 0.  0.
        5    1    3    3  502    0 -0.60783366128E+03 -0.24592004716E+03  0.10690752133E+03  0.66437168625E+03  0.46999998093E+01 0.  1.
       -5    1    3    3    0  502  0.60783366128E+03  0.24592004716E+03 -0.90489746260E+03  0.11174971755E+04  0.46999998093E+01 0. -1.
</event>
<event>
 5   0  0.4211419E-05  0.1596907E+04  0.7818609E-02  0.8822450E-01
        1   -1    0    0  501    0  0.00000000000E+00  0.00000000000E+00  0.14602786198E+04  0.14602786199E+04  0.50400001928E-02 0. -1.
       -1   -1    0    0    0  501  0.00000000000E+00  0.00000000000E+00 -0.43657993445E+03  0.43657993448E+03  0.50400001928E-02 0.  1.
    10030    2    1    2    0    0  0.00000000000E+00  0.00000000000E+00  0.10236986854E+04  0.18968585543E+04  0.15969074415E+04 0.  0.
        2    1    3    3  502    0  0.48217905533E+03 -0.34802352015E+03  0.11447660595E+04  0.12900024585E+04  0.25500000920E-02 0. -1.
       -2    1    3    3    0  502 -0.48217905533E+03  0.34802352015E+03 -0.12106737409E+03  0.60685609583E+03  0.25500000920E-02 0.  1.
</event>
<event>
 5   0  0.4256406E-05  0.1602115E+04  0.7818609E-02  0.8819250E-01
       -1   -1    0    0    0  501  0.00000000000E+00  0.00000000000E+00  0.37029247498E+03  0.37029247502E+03  0.50400001928E-02 0. -1.
        1   -1    0    0  501    0  0.00000000000E+00  0.00000000000E+00 -0.17329350055E+04  0.17329350055E+04  0.50400001928E-02 0.  1.
    10030    2    1    2    0    0  0.00000000000E+00  0.00000000000E+00 -0.13626425306E+04  0.21032274806E+04  0.16021145929E+04 0.  0.
        3    1    3    3  502    0 -0.68750631599E+02  0.69533305922E+03 -0.16702208135E+03  0.71840872659E+03  0.10100000352E+00 0. -1.
       -3    1    3    3    0  502  0.68750631599E+02 -0.69533305922E+03 -0.11956204492E+04  0.13848187540E+04  0.10100000352E+00 0.  1.
</event>
<event>
 5   0  0.4211419E-05  0.1601995E+04  0.7818609E-02  0.8819323E-01
        1   -1    0    0  501    0  0.00000000000E+00  0.00000000000E+00  0.73013685738E+03  0.73013685739E+03  0.50400001928E-02 0.  1.
       -1   -1    0    0    0  501  0.00000000000E+00  0.00000000000E+00 -0.87873543394E+03  0.87873543396E+03  0.50400001928E-02 0. -1.
    10030    2    1    2    0    0  0.00000000000E+00  0.00000000000E+00 -0.14859857657E+03  0.16088722914E+04  0.16019951663E+04 0.  0.
        2    1    3    3  502    0  0.18304392534E+03 -0.49467291032E+03 -0.67970611207E+03  0.86035269837E+03  0.25500000920E-02 0. -1.
       -2    1    3    3    0  502 -0.18304392534E+03  0.49467291032E+03  0.53110753550E+03  0.74851959298E+03  0.25500000920E-02 0.  1.
</event>
<event>
 5   0  0.8694033E-05  0.1599046E+04  0.7818609E-02  0.8821134E-01
       -2   -1    0    0    0  501  0.00000000000E+00  0.00000000000E+00  0.26977737968E+03  0.26977737969E+03  0.25500000920E-02 0. -1.
        2   -1    0    0  501    0  0.00000000000E+00  0.00000000000E+00 -0.23694978533E+04  0.23694978533E+04  0.25500000920E-02 0.  1.
    10030    2    1    2    0    0  0.00000000000E+00  0.00000000000E+00 -0.20997204736E+04  0.26392752330E+04  0.15990458681E+04 0.  0.
        1    1    3    3  502    0 -0.26827218753E+03 -0.71457025086E+03 -0.14427293724E+04  0.16321913650E+04  0.50400001928E-02 0.  1.
       -1    1    3    3    0  502  0.26827218753E+03  0.71457025086E+03 -0.65699110118E+03  0.10070838679E+04  0.50400001928E-02 0. -1.
</event>
<event>
 5   0  0.4504463E-05  0.1618723E+04  0.7818609E-02  0.8809128E-01
       -1   -1    0    0    0  501  0.00000000000E+00  0.00000000000E+00  0.38888653007E+03  0.38888653010E+03  0.50400001928E-02 0.  1.
        1   -1    0    0  501    0  0.00000000000E+00  0.00000000000E+00 -0.16844652743E+04  0.16844652743E+04  0.50400001928E-02 0. -1.
    10030    2    1    2    0    0  0.00000000000E+00  0.00000000000E+00 -0.12955787442E+04  0.20733518044E+04  0.16187227750E+04 0.  0.
        1    1    3    3  502    0 -0.46661990664E+03 -0.27474556923E+03 -0.14182718459E+04  0.15181285499E+04  0.50400001928E-02 0. -1.
       -1    1    3    3    0  502  0.46661990664E+03  0.27474556923E+03  0.12269310172E+03  0.55522325448E+03  0.50400001928E-02 0.  1.
</event>
<event>
 5   0  0.7901257E-05  0.1572094E+04  0.7818609E-02  0.8837877E-01
       -2   -1    0    0    0  501  0.00000000000E+00  0.00000000000E+00  0.91557879488E+03  0.91557879488E+03  0.25500000920E-02 0. -1.
        2   -1    0    0  501    0  0.00000000000E+00  0.00000000000E+00 -0.67484103432E+03  0.67484103432E+03  0.25500000920E-02 0.  1.
    10030    2    1    2    0    0  0.00000000000E+00  0.00000000000E+00  0.24073776056E+03  0.15904198292E+04  0.15720943241E+04 0.  0.
        2    1    3    3  502    0 -0.22698173264E+03  0.68003869983E+03 -0.20571870846E+03  0.74585087467E+03  0.25500000920E-02 0.  1.
       -2    1    3    3    0  502  0.22698173264E+03 -0.68003869983E+03  0.44645646902E+03  0.84456895453E+03  0.25500000920E-02 0. -1.
</event>
<event>
 5   0  0.4314657E-05  0.1603178E+04  0.7818609E-02  0.8818598E-01
       -1   -1    0    0    0  501  0.00000000000E+00  0.00000000000E+00  0.11331912299E+04  0.11331912299E+04  0.50400001928E-02 0. -1.
        1   -1    0    0  501    0  0.00000000000E+00  0.00000000000E+00 -0.56702271529E+03  0.56702271532E+03  0.50400001928E-02 0.  1.
    10030    2    1    2    0    0  0.00000000000E+00  0.00000000000E+00  0.56616851462E+03  0.17002139452E+04  0.16031783034E+04 0.  0.
        5    1    3    3  502    0  0.74930689137E+03  0.56329862538E+02 -0.12894395569E+02  0.75154655631E+03  0.46999998093E+01 0.  1.
       -5    1    3    3    0  502 -0.74930689137E+03 -0.56329862538E+02  0.57906291019E+03  0.94866738893E+03  0.46999998093E+01 0. -1.
</event>
<event>
 5   0  0.4373026E-05  0.1601463E+04  0.7818609E-02  0.8819649E-01
       -1   -1    0    0    0  501  0.00000000000E+00  0.00000000000E+00  0.44315058763E+03  0.44315058766E+03  0.50400001928E-02 0. -1.
        1   -1    0    0  501    0  0.00000000000E+00  0.00000000000E+00 -0.14468474356E+04  0.14468474357E+04  0.50400001928E-02 0.  1.
    10030    2    1    2    0    0  0.00000000000E+00  0.00000000000E+00 -0.10036968480E+04  0.18899980233E+04  0.16014634449E+04 0.  0.
        4    1    3    3  502    0  0.64346206331E+03  0.31478565304E+03 -0.79558437789E+02  0.72073892097E+03  0.12699999809E+01 0. -1.
       -4    1    3    3    0  502 -0.64346206331E+03 -0.31478565304E+03 -0.92413841022E+03  0.11692591023E+04  0.12699999809E+01 0.  1.
</event>
<event>
 5   0  0.4256406E-05  0.1599119E+04  0.7818609E-02  0.8821089E-01
       -1   -1    0    0    0  501  0.00000000000E+00  0.00000000000E+00  0.34899962720E+03  0.34899962724E+03  0.50400001928E-02 0.  1.
        1   -1    0    0  501    0  0.00000000000E+00  0.00000000000E+00 -0.18317942374E+04  0.18317942374E+04  0.50400001928E-02 0. -1.
    10030    2    1    2    0    0  0.00000000000E+00  0.00000000000E+00 -0.14827946102E+04  0.21807938646E+04  0.15991191400E+04 0.  0.
        3    1    3    3  502    0 -0.73576581445E+03 -0.49924297671E+02 -0.32006409759E+03  0.80391840754E+03  0.10100000352E+00 0.  1.
       -3    1    3    3    0  502  0.73576581445E+03  0.49924297671E+02 -0.11627305126E+04  0.13768754571E+04  0.10100000352E+00 0. -1.
</event>
<event>
 5   0  0.3042125E-05  0.1603396E+04  0.7818609E-02  0.8818465E-01
       -3   -1    0    0    0  501  0.00000000000E+00  0.00000000000E+00  0.13331552760E+04  0.13331552798E+04  0.10100000352E+00 0. -1.
        3   -1    0    0  501    0  0.00000000000E+00  0.00000000000E+00 -0.48210390474E+03  0.48210391532E+03  0.10100000352E+00 0.  1.
    10030    2    1    2    0    0  0.00000000000E+00  0.00000000000E+00  0.85105137126E+03  0.18152591951E+04  0.16033956184E+04 0.  0.
        5    1    3    3  502    0 -0.75769103993E+03  0.15964832503E+02  0.12954952920E+03  0.76886654133E+03  0.46999998093E+01 0.  1.
       -5    1    3    3    0  502  0.75769103993E+03 -0.15964832503E+02  0.72150184206E+03  0.10463926538E+04  0.46999998093E+01 0. -1.
</event>
<event>
 5   0  0.7849690E-05  0.1603381E+04  0.7818609E-02  0.8818474E-01
        2   -1    0    0  501    0  0.00000000000E+00  0.00000000000E+00  0.95501929549E+03  0.95501929549E+03  0.25500000920E-02 0. -1.
       -2   -1    0    0    0  501  0.00000000000E+00  0.00000000000E+00 -0.67297878126E+03  0.67297878126E+03  0.25500000920E-02 0.  1.
    10030    2    1    2    0    0  0.00000000000E+00  0.00000000000E+00  0.28204051423E+03  0.16279980768E+04  0.16033810795E+04 0.  0.
        3    1    3    3  502    0 -0.72769042981E+03 -0.17018349958E+03  0.43566855297E+03  0.86504501814E+03  0.10100000352E+00 0. -1.
       -3    1    3    3    0  502  0.72769042981E+03  0.17018349958E+03 -0.15362803874E+03  0.76295305861E+03  0.10100000352E+00 0.  1.
</event>
<event>
 5   0  0.8620155E-05  0.1602377E+04  0.7818609E-02  0.8819089E-01
       -2   -1    0    0    0  501  0.00000000000E+00  0.00000000000E+00  0.23024113446E+03  0.23024113447E+03  0.25500000920E-02 0.  1.
        2   -1    0    0  501    0  0.00000000000E+00  0.00000000000E+00 -0.27879611693E+04  0.27879611693E+04  0.25500000920E-02 0. -1.
    10030    2    1    2    0    0  0.00000000000E+00  0.00000000000E+00 -0.25577200349E+04  0.30182023038E+04  0.16023774118E+04 0.  0.
        4    1    3    3  502    0 -0.52915590397E+03 -0.26217736235E+03 -0.25901308965E+03  0.64485062887E+03  0.12699999809E+01 0.  1.
       -4    1    3    3    0  502  0.52915590397E+03  0.26217736235E+03 -0.22987069452E+04  0.23733516749E+04  0.12699999809E+01 0. -1.
</event>
<event>
 5   0  0.4373026E-05  0.1597258E+04  0.7818609E-02  0.8822235E-01
       -1   -1    0    0    0  501  0.00000000000E+00  0.00000000000E+00  0.51160678886E+03  0.51160678889E+03  0.50400001928E-02 0. -1.
        1   -1    0    0  501    0  0.00000000000E+00  0.00000000000E+00 -0.12466760680E+04  0.12466760680E+04  0.50400001928E-02 0.  1.
    10030    2    1    2    0    0  0.00000000000E+00  0.00000000000E+00 -0.73506927917E+03  0.17582828569E+04  0.15972575747E+04 0.  0.
        4    1    3    3  502    0 -0.61513888364E+03  0.20341602369E+03 -0.88154787906E+03  0.10940302559E+04  0.12699999809E+01 0.  1.
       -4    1    3    3    0  502  0.61513888364E+03 -0.20341602369E+03  0.14647859989E+03  0.66425260103E+03  0.12699999809E+01 0. -1.
</event>
<event>
 5   0  0.4314657E-05  0.1600142E+04  0.7818609E-02  0.8820460E-01
       -1   -1    0    0    0  501  0.00000000000E+00  0.00000000000E+00  0.11277894804E+04  0.11277894804E+04  0.50400001928E-02 0. -1.
        1   -1    0    0  501    0  0.00000000000E+00  0.00000000000E+00 -0.56758286447E+03  0.56758286449E+03  0.50400001928E-02 0.  1.
    10030    2    1    2    0    0  0.00000000000E+00  0.00000000000E+00  0.56020661596E+03  0.16953723449E+04  0.16001424735E+04 0.  0.
        5    1    3    3  502    0 -0.21340965413E+03  0.19551464625E+03 -0.51015605703E+03  0.58655856476E+03  0.46999998093E+01 0.  1.
       -5    1    3    3    0  502  0.21340965413E+03 -0.19551464625E+03  0.10703626730E+04  0.11088137802E+04  0.46999998093E+01 0. -1.
</event>
<event>
 5   0  0.7849690E-05  0.1597316E+04  0.7818609E-02  0.8822199E-01
       -2   -1    0    0    0  501  0.00000000000E+00  0.00000000000E+00  0.10574775184E+04  0.10574775184E+04  0.25500000920E-02 0. -1.
        2   -1    0    0  501    0  0.00000000000E+00  0.00000000000E+00 -0.60318478951E+03  0.60318478952E+03  0.25500000920E-02 0.  1.
    10030    2    1    2    0    0  0.00000000000E+00  0.00000000000E+00  0.45429272886E+03  0.16606623079E+04  0.15973156912E+04 0.  0.
        3    1    3    3  502    0  0.11997826266E+02 -0.30821304551E+03 -0.53876150038E+03  0.62080850006E+03  0.10100000352E+00 0.  1.
       -3    1    3    3    0  502 -0.11997826266E+02  0.30821304551E+03  0.99305422924E+03  0.10398538078E+04  0.10100000352E+00 0. -1.
</event>
<event>
 5   0  0.4373026E-05  0.1600277E+04  0.7818609E-02  0.8820378E-01
        1   -1    0    0  501    0  0.00000000000E+00  0.00000000000E+00  0.15551755835E+04  0.15551755836E+04  0.50400001928E-02 0.  1.
       -1   -1    0    0    0  501  0.00000000000E+00  0.00000000000E+00 -0.41167161550E+03  0.41167161553E+03  0.50400001928E-02 0. -1.
    10030    2    1    2    0    0  0.00000000000E+00  0.00000000000E+00  0.11435039681E+04  0.19668471991E+04  0.16002770321E+04 0.  0.
        4    1    3    3  502    0 -0.18933227417E+03 -0.43100275920E+02  0.15257767069E+04  0.15380833905E+04  0.12699999809E+01 0.  1.
       -4    1    3    3    0  502  0.18933227417E+03  0.43100275920E+02 -0.38227273884E+03  0.42876380862E+03  0.12699999809E+01 0. -1.
</event>
<event>
 5   0  0.7849690E-05  0.1597799E+04  0.7818609E-02  0.8821901E-01
       -2   -1    0    0    0  501  0.00000000000E+00  0.00000000000E+00  0.12238058748E+04  0.12238058748E+04  0.25500000920E-02 0.  1.
        2   -1    0    0  501    0  0.00000000000E+00  0.00000000000E+00 -0.52152094313E+03  0.52152094314E+03  0.25500000920E-02 0. -1.
    10030    2    1    2    0    0  0.00000000000E+00  0.00000000000E+00  0.70228493162E+03  0.17453268179E+04  0.15977989786E+04 0.  0.
        3    1    3    3  502    0  0.59483942159E+01 -0.78569578974E+03  0.19327451550E+03  0.80914047355E+03  0.10100000352E+00 0. -1.
       -3    1    3    3    0  502 -0.59483942159E+01  0.78569578974E+03  0.50901041613E+03  0.93618634434E+03  0.10100000352E+00 0.  1.
</event>
<event>
 5   0  0.4314657E-05  0.1600352E+04  0.7818609E-02  0.8820332E-01
       -1   -1    0    0    0  501  0.00000000000E+00  0.00000000000E+00  0.27483392700E+03  0.27483392705E+03  0.50400001928E-02 0.  1.
        1   -1    0    0  501    0  0.00000000000E+00  0.00000000000E+00 -0.23297034865E+04  0.23297034865E+04  0.50400001928E-02 0. -1.
    10030    2    1    2    0    0  0.00000000000E+00  0.00000000000E+00 -0.20548695595E+04  0.26045374136E+04  0.16003519088E+04 0.  0.
        5    1    3    3  502    0 -0.28180883666E+03  0.22645681165E+03 -0.21891856629E+04  0.22188408832E+04  0.46999998093E+01 0. -1.
       -5    1    3    3    0  502  0.28180883666E+03 -0.22645681165E+03  0.13431610341E+03  0.38569653044E+03  0.46999998093E+01 0.  1.
</event>
<event>
 5   0  0.4211419E-05  0.1626805E+04  0.7818609E-02  0.8804248E-01
        1   -1    0    0  501    0  0.00000000000E+00  0.00000000000E+00  0.87121471255E+03  0.87121471257E+03  0.50400001928E-02 0. -1.
       -1   -1    0    0    0  501  0.00000000000E+00  0.00000000000E+00 -0.75942673893E+03  0.75942673895E+03  0.50400001928E-02 0.  1.
    10030    2    1    2    0    0  0.00000000000E+00  0.00000000000E+00  0.11178797362E+03  0.16306414515E+04  0.16268051489E+04 0.  0.
        2    1    3    3  502    0  0.70403416338E+03  0.39216710212E+03  0.16644736426E+03  0.82289966841E+03  0.25500000920E-02 0. -1.
       -2    1    3    3    0  502 -0.70403416338E+03 -0.39216710212E+03 -0.54659390641E+02  0.80774178311E+03  0.25500000920E-02 0.  1.
</event>
<event>
 5   0  0.8037548E-05  0.1598458E+04  0.7818609E-02  0.8821496E-01
       -2   -1    0    0    0  501  0.00000000000E+00  0.00000000000E+00  0.77502790336E+03  0.77502790336E+03  0.25500000920E-02 0. -1.
        2   -1    0    0  501    0  0.00000000000E+00  0.00000000000E+00 -0.82418630891E+03  0.82418630892E+03  0.25500000920E-02 0.  1.
    10030    2    1    2    0    0  0.00000000000E+00  0.00000000000E+00 -0.49158405553E+02  0.15992142123E+04  0.15984584911E+04 0.  0.
        5    1    3    3  502    0  0.51455904061E+03  0.51899698251E+03 -0.34817674231E+03  0.80955420326E+03  0.46999998093E+01 0. -1.
       -5    1    3    3    0  502 -0.51455904061E+03 -0.51899698251E+03  0.29901833676E+03  0.78966000902E+03  0.46999998093E+01 0.  1.
</event>
<event>
 5   0  0.4504463E-05  0.1597889E+04  0.7818609E-02  0.8821846E-01
        1   -1    0    0  501    0  0.00000000000E+00  0.00000000000E+00  0.18063048091E+04  0.18063048091E+04  0.50400001928E-02 0. -1.
       -1   -1    0    0    0  501  0.00000000000E+00  0.00000000000E+00 -0.35338014130E+03  0.35338014134E+03  0.50400001928E-02 0.  1.
    10030    2    1    2    0    0  0.00000000000E+00  0.00000000000E+00  0.14529246678E+04  0.21596849505E+04  0.15978889182E+04 0.  0.
        1    1    3    3  502    0 -0.76166704455E+03 -0.70300990377E+02  0.41461958851E+03  0.87005075668E+03  0.50400001928E-02 0. -1.
       -1    1    3    3    0  502  0.76166704455E+03  0.70300990377E+02  0.10383050793E+04  0.12896341938E+04  0.50400001928E-02 0.  1.
</event>
<event>
 5   0  0.4504463E-05  0.1604432E+04  0.7818609E-02  0.8817830E-01
        1   -1    0    0  501    0  0.00000000000E+00  0.00000000000E+00  0.11510462373E+04  0.11510462373E+04  0.50400001928E-02 0. -1.
       -1   -1    0    0    0  501  0.00000000000E+00  0.00000000000E+00 -0.55910075806E+03  0.55910075808E+03  0.50400001928E-02 0.  1.
    10030    2    1    2    0    0  0.00000000000E+00  0.00000000000E+00  0.59194547928E+03  0.17101469954E+04  0.16044323904E+04 0.  0.
        1    1    3    3  502    0  0.47057648272E+03  0.32055503923E+03 -0.30637538811E+03  0.64657840803E+03  0.50400001928E-02 0. -1.
       -1    1    3    3    0  502 -0.47057648272E+03 -0.32055503923E+03  0.89832086739E+03  0.10635685874E+04  0.50400001928E-02 0.  1.
</event>
<event>
 5   0  0.7849690E-05  0.1602604E+04  0.7818609E-02  0.8818950E-01
        2   -1    0    0  501    0  0.00000000000E+00  0.00000000000E+00  0.67665040405E+03  0.67665040406E+03  0.25500000920E-02 0.  1.
       -2   -1    0    0    0  501  0.00000000000E+00  0.00000000000E+00 -0.94891717510E+03  0.94891717510E+03  0.25500000920E-02 0. -1.
    10030    2    1    2    0    0  0.00000000000E+00  0.00000000000E+00 -0.27226677105E+03  0.16255675792E+04  0.16026043678E+04 0.  0.
        3    1    3    3  502    0 -0.51290928039E+02  0.76669060446E+03  0.94366949436E+02  0.77417722365E+03  0.10100000352E+00 0.  1.
       -3    1    3    3    0  502  0.51290928039E+02 -0.76669060446E+03 -0.36663372048E+03  0.85139035551E+03  0.10100000352E+00 0. -1.
</event>
<event>
 5   0  0.4373026E-05  0.1600940E+04  0.7818609E-02  0.8819971E-01
       -1   -1    0    0    0  501  0.00000000000E+00  0.00000000000E+00  0.64267320739E+03  0.64267320741E+03  0.50400001928E-02 0.  1.
        1   -1    0    0  501    0  0.00000000000E+00  0.00000000000E+00 -0.99701111887E+03  0.99701111888E+03  0.50400001928E-02 0. -1.
    10030    2    1    2    0    0  0.00000000000E+00  0.00000000000E+00 -0.35433791147E+03  0.16396843263E+04  0.16009401408E+04 0.  0.
        4    1    3    3  502    0  0.72217077183E+03  0.24531353707E+03 -0.42603368395E+03  0.87362215398E+03  0.12699999809E+01 0. -1.
       -4    1    3    3    0  502 -0.72217077183E+03 -0.24531353707E+03  0.71695772474E+02  0.76606217232E+03  0.12699999809E+01 0.  1.
</event>
<event>
 5   0  0.4504463E-05  0.1599892E+04  0.7818609E-02  0.8820614E-01
       -1   -1    0    0    0  501  0.00000000000E+00  0.00000000000E+00  0.66090238405E+03  0.66090238407E+03  0.50400001928E-02 0.  1.
        1   -1    0    0  501    0  0.00000000000E+00  0.00000000000E+00 -0.96824238123E+03  0.96824238124E+03  0.50400001928E-02 0. -1.
    10030    2    1    2    0    0  0.00000000000E+00  0.00000000000E+00 -0.30733999718E+03  0.16291447653E+04  0.15998921190E+04 0.  0.
        1    1    3    3  502    0  0.30682665628E+03  0.23556397003E+03  0.55933304632E+03  0.68006355417E+03  0.50400001928E-02 0.  1.
       -1    1    3    3    0  502 -0.30682665628E+03 -0.23556397003E+03 -0.86667304350E+03  0.94908121114E+03  0.50400001928E-02 0. -1.
</event>
<event>
 5   0  0.8037548E-05  0.1598542E+04  0.7818609E-02  0.8821444E-01
       -2   -1    0    0    0  501  0.00000000000E+00  0.00000000000E+00  0.51371706417E+03  0.51371706418E+03  0.25500000920E-02 0.  1.
        2   -1    0    0  501    0  0.00000000000E+00  0.00000000000E+00 -0.12435521297E+04  0.12435521297E+04  0.25500000920E-02 0. -1.
    10030    2    1    2    0    0  0.00000000000E+00  0.00000000000E+00 -0.72983506556E+03  0.17572691939E+04  0.15985417720E+04 0.  0.
        5    1    3    3  502    0  0.57105022466E+03  0.33164611237E+03 -0.85987430545E+03  0.10842017405E+04  0.46999998093E+01 0. -1.
       -5    1    3    3    0  502 -0.57105022466E+03 -0.33164611237E+03  0.13003923988E+03  0.67306745341E+03  0.46999998093E+01 0.  1.
</event>
<event>
 5   0  0.4314657E-05  0.1601550E+04  0.7818609E-02  0.8819596E-01
       -1   -1    0    0    0  501  0.00000000000E+00  0.00000000000E+00  0.45869180323E+03  0.45869180325E+03  0.50400001928E-02 0.  1.
        1   -1    0    0  501    0  0.00000000000E+00  0.00000000000E+00 -0.13979777671E+04  0.13979777671E+04  0.50400001928E-02 0. -1.
    10030    2    1    2    0    0  0.00000000000E+00  0.00000000000E+00 -0.93928596391E+03  0.18566695704E+04  0.16015504274E+04 0.  0.
        5    1    3    3  502    0 -0.71903454078E+03  0.10384547139E+01 -0.87821368263E+03  0.11350300047E+04  0.46999998093E+01 0. -1.
       -5    1    3    3    0  502  0.71903454078E+03 -0.10384547139E+01 -0.61072281273E+02  0.72163956569E+03  0.46999998093E+01 0.  1.
</event>
<event>
 5   0  0.7849690E-05  0.1594206E+04  0.7818609E-02  0.8824115E-01
        2   -1    0    0  501    0  0.00000000000E+00  0.00000000000E+00  0.20660202926E+04  0.20660202926E+04  0.25500000920E-02 0.  1.
       -2   -1    0    0    0  501  0.00000000000E+00  0.00000000000E+00 -0.30753499234E+03  0.30753499235E+03  0.25500000920E-02 0. -1.
    10030    2    1    2    0    0  0.00000000000E+00  0.00000000000E+00  0.17584853002E+04  0.23735552849E+04  0.15942064294E+04 0.  0.
        3    1    3    3  502    0 -0.42683697296E+03 -0.55386676098E+03  0.30954021323E+03  0.76470474316E+03  0.10100000352E+00 0. -1.
       -3    1    3    3    0  502  0.42683697296E+03  0.55386676098E+03  0.14489450870E+04  0.16088505418E+04  0.10100000352E+00 0.  1.
</event>
<event>
 5   0  0.4211419E-05  0.1600258E+04  0.7818609E-02  0.8820389E-01
        1   -1    0    0  501    0  0.00000000000E+00  0.00000000000E+00  0.18935144569E+04  0.18935144569E+04  0.50400001928E-02 0.  1.
       -1   -1    0    0    0  501  0.00000000000E+00  0.00000000000E+00 -0.33810497359E+03  0.33810497362E+03  0.50400001928E-02 0. -1.
    10030    2    1    2    0    0  0.00000000000E+00  0.00000000000E+00  0.15554094833E+04  0.22316194305E+04  0.16002582985E+04 0.  0.
        2    1    3    3  502    0 -0.82862008840E+02  0.67342228974E+03  0.13690985458E+04  0.15280034427E+04  0.25500000920E-02 0.  1.
       -2    1    3    3    0  502  0.82862008840E+02 -0.67342228974E+03  0.18631093746E+03  0.70361598777E+03  0.25500000920E-02 0. -1.
</event>
<event>
 5   0  0.4373026E-05  0.1600080E+04  0.7818609E-02  0.8820499E-01
       -1   -1    0    0    0  501  0.00000000000E+00  0.00000000000E+00  0.90819420736E+03  0.90819420738E+03  0.50400001928E-02 0. -1.
        1   -1    0    0  501    0  0.00000000000E+00  0.00000000000E+00 -0.70476533253E+03  0.70476533254E+03  0.50400001928E-02 0.  1.
    10030    2    1    2    0    0  0.00000000000E+00  0.00000000000E+00  0.20342887484E+03  0.16129595399E+04  0.16000797387E+04 0.  0.
        4    1    3    3  502    0  0.47984331842E+03 -0.20109297717E+03 -0.51093934200E+03  0.72921095700E+03  0.12699999809E+01 0.  1.
       -4    1    3    3    0  502 -0.47984331842E+03  0.20109297717E+03  0.71436821683E+03  0.88374858293E+03  0.12699999809E+01 0. -1.
</event>
<event>
 5   0  0.4504463E-05  0.1606696E+04  0.7818609E-02  0.8816445E-01
       -1   -1    0    0    0  501  0.00000000000E+00  0.00000000000E+00  0.67203230953E+03  0.67203230955E+03  0.50400001928E-02 0. -1.
        1   -1    0    0  501    0  0.00000000000E+00  0.00000000000E+00 -0.96032286743E+03  0.96032286745E+03  0.50400001928E-02 0.  1.
    10030    2    1    2    0    0  0.00000000000E+00  0.00000000000E+00 -0.28829055790E+03  0.16323551770E+04  0.16066959819E+04 0.  0.
        1    1    3    3  502    0  0.29550444276E+03  0.13403320948E+03 -0.89078327695E+03  0.94804146716E+03  0.50400001928E-02 0.  1.
       -1    1    3    3    0  502 -0.29550444276E+03 -0.13403320948E+03  0.60249271905E+03  0.68431370984E+03  0.50400001928E-02 0. -1.
</event>
<event>
 5   0  0.4373026E-05  0.1601993E+04  0.7818609E-02  0.8819325E-01
        1   -1    0    0  501    0  0.00000000000E+00  0.00000000000E+00  0.87367180857E+03  0.87367180858E+03  0.50400001928E-02 0.  1.
       -1   -1    0    0    0  501  0.00000000000E+00  0.00000000000E+00 -0.73436623071E+03  0.73436623073E+03  0.50400001928E-02 0. -1.
    10030    2    1    2    0    0  0.00000000000E+00  0.00000000000E+00  0.13930557786E+03  0.16080380393E+04  0.16019926004E+04 0.  0.
        4    1    3    3  502    0  0.11041645689E+03 -0.76139666656E+03  0.29337677111E+03  0.82340040110E+03  0.12699999809E+01 0.  1.
       -4    1    3    3    0  502 -0.11041645689E+03  0.76139666656E+03 -0.15407119325E+03  0.78463763821E+03  0.12699999809E+01 0. -1.
</event>
<event>
 5   0  0.7901257E-05  0.1594538E+04  0.7818609E-02  0.8823910E-01
       -2   -1    0    0    0  501  0.00000000000E+00  0.00000000000E+00  0.33646128961E+03  0.33646128962E+03  0.25500000920E-02 0.  1.
        2   -1    0    0  501    0  0.00000000000E+00  0.00000000000E+00 -0.18891863091E+04  0.18891863091E+04  0.25500000920E-02 0. -1.
    10030    2    1    2    0    0  0.00000000000E+00  0.00000000000E+00 -0.15527250195E+04  0.22256475987E+04  0.15945382553E+04 0.  0.
        2    1    3    3  502    0  0.73972915612E+03 -0.17762343874E+03 -0.11092785029E+04  0.13450829370E+04  0.25500000920E-02 0.  1.
       -2    1    3    3    0  502 -0.73972915612E+03  0.17762343874E+03 -0.44344651663E+03  0.88056466175E+03  0.25500000920E-02 0. -1.
</event>
<event>
 5   0  0.8694033E-05  0.1587022E+04  0.7818609E-02  0.8828561E-01
       -2   -1    0    0    0  501  0.00000000000E+00  0.00000000000E+00  0.34040227330E+03  0.34040227331E+03  0.25500000920E-02 0.  1.
        2   -1    0    0  501    0  0.00000000000E+00  0.00000000000E+00 -0.18497514213E+04  0.18497514213E+04  0.25500000920E-02 0. -1.
    10030    2    1    2    0    0  0.00000000000E+00  0.00000000000E+00 -0.15093491480E+04  0.21901536946E+04  0.15870218510E+04 0.  0.
        1    1    3    3  502    0 -0.75166124897E+03  0.18927357714E+03 -0.52030952652E+03  0.93356366876E+03  0.50400001928E-02 0.  1.
       -1    1    3    3    0  502  0.75166124897E+03 -0.18927357714E+03 -0.98903962150E+03  0.12565900259E+04  0.50400001928E-02 0. -1.
</event>
<event>
 5   0  0.7849690E-05  0.1600862E+04  0.7818609E-02  0.8820019E-01
       -2   -1    0    0    0  501  0.00000000000E+00  0.00000000000E+00  0.40584036790E+03  0.40584036791E+03  0.25500000920E-02 0. -1.
        2   -1    0    0  501    0  0.00000000000E+00  0.00000000000E+00 -0.15786743654E+04  0.15786743654E+04  0.25500000920E-02 0.  1.
    10030    2    1    2    0    0  0.00000000000E+00  0.00000000000E+00 -0.11728339975E+04  0.19845147333E+04  0.16008619994E+04 0.  0.
        3    1    3    3  502    0  0.79407477552E+03  0.68432541671E+02 -0.49488374944E+03  0.93816187172E+03  0.10100000352E+00 0.  1.
       -3    1    3    3    0  502 -0.79407477552E+03 -0.68432541671E+02 -0.67795024803E+03  0.10463528616E+04  0.10100000352E+00 0. -1.
</event>
<event>
 5   0  0.8694033E-05  0.1599761E+04  0.7818609E-02  0.8820695E-01
       -2   -1    0    0    0  501  0.00000000000E+00  0.00000000000E+00  0.12111770659E+04  0.12111770660E+04  0.25500000920E-02 0. -1.
        2   -1    0    0  501    0  0.00000000000E+00  0.00000000000E+00 -0.52825402595E+03  0.52825402596E+03  0.25500000920E-02 0.  1.
    10030    2    1    2    0    0  0.00000000000E+00  0.00000000000E+00  0.68292304000E+03  0.17394310919E+04  0.15997614338E+04 0.  0.
        1    1    3    3  502    0 -0.49369774235E+03  0.11636497148E+03  0.10139506417E+04  0.11337434327E+04  0.50400001928E-02 0. -1.
       -1    1    3    3    0  502  0.49369774235E+03 -0.11636497148E+03 -0.33102760171E+03  0.60568765920E+03  0.50400001928E-02 0.  1.
</event>
<event>
 5   0  0.8620155E-05  0.1597837E+04  0.7818609E-02  0.8821878E-01
        2   -1    0    0  501    0  0.00000000000E+00  0.00000000000E+00  0.84613678748E+03  0.84613678748E+03  0.25500000920E-02 0. -1.
       -2   -1    0    0    0  501  0.00000000000E+00  0.00000000000E+00 -0.75433549316E+03  0.75433549317E+03  0.25500000920E-02 0.  1.
    10030    2    1    2    0    0  0.00000000000E+00  0.00000000000E+00  0.91801294318E+02  0.16004722807E+04  0.15978373019E+04 0.  0.
        4    1    3    3  502    0  0.22605851215E+01 -0.23763936188E+03  0.80991128754E+03  0.84405893345E+03  0.12699999809E+01 0. -1.
       -4    1    3    3    0  502 -0.22605851215E+01  0.23763936188E+03 -0.71810999322E+03  0.75641334720E+03  0.12699999809E+01 0.  1.
</event>
<event>
 5   0  0.4256406E-05  0.1600338E+04  0.7818609E-02  0.8820341E-01
        1   -1    0    0  501    0  0.00000000000E+00  0.00000000000E+00  0.15386157277E+04  0.15386157277E+04  0.50400001928E-02 0.  1.
       -1   -1    0    0    0  501  0.00000000000E+00  0.00000000000E+00 -0.41613383725E+03  0.41613383728E+03  0.50400001928E-02 0. -1.
    10030    2    1    2    0    0  0.00000000000E+00  0.00000000000E+00  0.11224818904E+04  0.19547495650E+04  0.16003375480E+04 0.  0.
        3    1    3    3  502    0 -0.78160918482E+03  0.13303132354E+03  0.42934689981E+03  0.90163685673E+03  0.10100000352E+00 0. -1.
       -3    1    3    3    0  502  0.78160918482E+03 -0.13303132354E+03  0.69313499062E+03  0.10531127082E+04  0.10100000352E+00 0.  1.
</event>
<event>
 5   0  0.4504463E-05  0.1599350E+04  0.7818609E-02  0.8820948E-01
       -1   -1    0    0    0  501  0.00000000000E+00  0.00000000000E+00  0.99395581756E+03  0.99395581757E+03  0.50400001928E-02 0. -1.
        1   -1    0    0  501    0  0.00000000000E+00  0.00000000000E+00 -0.64336846442E+03  0.64336846444E+03  0.50400001928E-02 0.  1.
    10030    2    1    2    0    0  0.00000000000E+00  0.00000000000E+00  0.35058735314E+03  0.16373242820E+04  0.15993496529E+04 0.  0.
        1    1    3    3  502    0  0.79513498946E+02  0.39984587718E+03 -0.52899496161E+03  0.66785836181E+03  0.50400001928E-02 0.  1.
       -1    1    3    3    0  502 -0.79513498946E+02 -0.39984587718E+03  0.87958231474E+03  0.96946592021E+03  0.50400001928E-02 0. -1.
</event>
<event>
 5   0  0.4314657E-05  0.1603256E+04  0.7818609E-02  0.8818550E-01
       -1   -1    0    0    0  501  0.00000000000E+00  0.00000000000E+00  0.60124871119E+03  0.60124871121E+03  0.50400001928E-02 0.  1.
        1   -1    0    0  501    0  0.00000000000E+00  0.00000000000E+00 -0.10687880467E+04  0.10687880467E+04  0.50400001928E-02 0. -1.
    10030    2    1    2    0    0  0.00000000000E+00  0.00000000000E+00 -0.46753933551E+03  0.16700367579E+04  0.16032559816E+04 0.  0.
        5    1    3    3  502    0 -0.15506454741E+03  0.65206192060E+03 -0.69180767872E+03  0.96324956086E+03  0.46999998093E+01 0. -1.
       -5    1    3    3    0  502  0.15506454741E+03 -0.65206192060E+03  0.22426834321E+03  0.70678719706E+03  0.46999998093E+01 0.  1.
</event>
<event>
 5   0  0.4504463E-05  0.1594582E+04  0.7818609E-02  0.8823884E-01
       -1   -1    0    0    0  501  0.00000000000E+00  0.00000000000E+00  0.62898061080E+03  0.62898061082E+03  0.50400001928E-02 0. -1.
        1   -1    0    0  501    0  0.00000000000E+00  0.00000000000E+00 -0.10106394901E+04  0.10106394902E+04  0.50400001928E-02 0.  1.
    10030    2    1    2    0    0  0.00000000000E+00  0.00000000000E+00 -0.38165887934E+03  0.16396201010E+04  0.15945816302E+04 0.  0.
        1    1    3    3  502    0  0.38755374778E+03  0.63394464054E+02  0.52263892975E+03  0.65373405633E+03  0.50400001928E-02 0. -1.
       -1    1    3    3    0  502 -0.38755374778E+03 -0.63394464054E+02 -0.90429780909E+03  0.98588604465E+03  0.50400001928E-02 0.  1.
</event>
<event>
 5   0  0.4373026E-05  0.1601340E+04  0.7818609E-02  0.8819725E-01
       -1   -1    0    0    0  501  0.00000000000E+00  0.00000000000E+00  0.58360266295E+03  0.58360266297E+03  0.50400001928E-02 0. -1.
        1   -1    0    0  501    0  0.00000000000E+00  0.00000000000E+00 -0.10984747337E+04  0.10984747337E+04  0.50400001928E-02 0.  1.
    10030    2    1    2    0    0  0.00000000000E+00  0.00000000000E+00 -0.51487207071E+03  0.16820773966E+04  0.16013404132E+04 0.  0.
        4    1    3    3  502    0  0.71943516538E+03  0.35075721094E+03 -0.23506462276E+03  0.83419096614E+03  0.12699999809E+01 0. -1.
       -4    1    3    3    0  502 -0.71943516538E+03 -0.35075721094E+03 -0.27980744795E+03  0.84788643051E+03  0.12699999809E+01 0.  1.
</event>
<event>
 5   0  0.4256406E-05  0.1600496E+04  0.7818609E-02  0.8820244E-01
        1   -1    0    0  501    0  0.00000000000E+00  0.00000000000E+00  0.15101362906E+04  0.15101362906E+04  0.50400001928E-02 0.  1.
       -1   -1    0    0    0  501  0.00000000000E+00  0.00000000000E+00 -0.42406538614E+03  0.42406538617E+03  0.50400001928E-02 0. -1.
    10030    2    1    2    0    0  0.00000000000E+00  0.00000000000E+00  0.10860709045E+04  0.19342016768E+04  0.16004955848E+04 0.  0.
        3    1    3    3  502    0 -0.48656900912E+03  0.37050601236E+03 -0.80687746750E+02  0.61687488886E+03  0.10100000352E+00 0.  1.
       -3    1    3    3    0  502  0.48656900912E+03 -0.37050601236E+03  0.11667586512E+04  0.13173267879E+04  0.10100000352E+00 0. -1.
</event>
<event>
 5   0  0.8620155E-05  0.1598653E+04  0.7818609E-02  0.8821376E-01
        2   -1    0    0  501    0  0.00000000000E+00  0.00000000000E+00  0.18210207297E+04  0.18210207297E+04  0.25500000920E-02 0.  1.
       -2   -1    0    0    0  501  0.00000000000E+00  0.00000000000E+00 -0.35085993738E+03  0.35085993739E+03  0.25500000920E-02 0. -1.
    10030    2    1    2    0    0  0.00000000000E+00  0.00000000000E+00  0.14701607923E+04  0.21718806671E+04  0.15986534574E+04 0.  0.
        4    1    3    3  502    0 -0.50943351642E+03 -0.27525292631E+03 -0.13532820673E+02  0.57919895651E+03  0.12699999809E+01 0. -1.
       -4    1    3    3    0  502  0.50943351642E+03  0.27525292631E+03  0.14836936130E+04  0.15926817106E+04  0.12699999809E+01 0.  1.
</event>
<event>
 5   0  0.4211419E-05  0.1599888E+04  0.7818609E-02  0.8820617E-01
       -1   -1    0    0    0  501  0.00000000000E+00  0.00000000000E+00  0.89649197346E+03  0.89649197347E+03  0.50400001928E-02 0.  1.
        1   -1    0    0  501    0  0.00000000000E+00  0.00000000000E+00 -0.71379376037E+03  0.71379376039E+03  0.50400001928E-02 0. -1.
    10030    2    1    2    0    0  0.00000000000E+00  0.00000000000E+00  0.18269821309E+03  0.16102857339E+04  0.15998879672E+04 0.  0.
        2    1    3    3  502    0 -0.69244995040E+03  0.75319669614E+02 -0.30459077612E+03  0.76022070962E+03  0.25500000920E-02 0. -1.
       -2    1    3    3    0  502  0.69244995040E+03 -0.75319669614E+02  0.48728898920E+03  0.85006502424E+03  0.25500000920E-02 0.  1.
</event>
<event>
 5   0  0.4256406E-05  0.1587468E+04  0.7818609E-02  0.8828284E-01
        1   -1    0    0  501    0  0.00000000000E+00  0.00000000000E+00  0.23387666251E+04  0.23387666251E+04  0.50400001928E-02 0.  1.
       -1   -1    0    0    0  501  0.00000000000E+00  0.00000000000E+00 -0.26937871685E+03  0.26937871690E+03  0.50400001928E-02 0. -1.
    10030    2    1    2    0    0  0.00000000000E+00  0.00000000000E+00  0.20693879083E+04  0.26081453420E+04  0.15874683651E+04 0.  0.
        3    1    3    3  502    0 -0.56592384747E+02  0.51665285983E+03  0.49081439075E+02  0.52205543139E+03  0.10100000352E+00 0. -1.
       -3    1    3    3    0  502  0.56592384747E+02 -0.51665285983E+03  0.20203064692E+04  0.20860899106E+04  0.10100000352E+00 0.  1.
</event>
<event>
 5   0  0.8037548E-05  0.1603985E+04  0.7818609E-02  0.8818104E-01
       -2   -1    0    0    0  501  0.00000000000E+00  0.00000000000E+00  0.91703188716E+03  0.91703188716E+03  0.25500000920E-02 0. -1.
        2   -1    0    0  501    0  0.00000000000E+00  0.00000000000E+00 -0.70138424912E+03  0.70138424912E+03  0.25500000920E-02 0.  1.
    10030    2    1    2    0    0  0.00000000000E+00  0.00000000000E+00  0.21564763804E+03  0.16184161363E+04  0.16039846902E+04 0.  0.
        5    1    3    3  502    0 -0.34982519580E+03  0.69105486248E+03  0.31762523799E+03  0.83716328896E+03  0.46999998093E+01 0. -1.
       -5    1    3    3    0  502  0.34982519580E+03 -0.69105486248E+03 -0.10197759995E+03  0.78125284733E+03  0.46999998093E+01 0.  1.
</event>
<event>
 5   0  0.4211419E-05  0.1600050E+04  0.7818609E-02  0.8820517E-01
       -1   -1    0    0    0  501  0.00000000000E+00  0.00000000000E+00  0.75953712865E+03  0.75953712866E+03  0.50400001928E-02 0. -1.
        1   -1    0    0  501    0  0.00000000000E+00  0.00000000000E+00 -0.84267154310E+03  0.84267154312E+03  0.50400001928E-02 0.  1.
    10030    2    1    2    0    0  0.00000000000E+00  0.00000000000E+00 -0.83134414454E+02  0.16022086718E+04  0.16000504045E+04 0.  0.
        2    1    3    3  502    0  0.75356857003E+02  0.19342360024E+03  0.73209970037E+03  0.76096078500E+03  0.25500000920E-02 0. -1.
       -2    1    3    3    0  502 -0.75356857003E+02 -0.19342360024E+03 -0.81523411482E+03  0.84124788678E+03  0.25500000920E-02 0.  1.
</event>
<event>
 5   0  0.4314657E-05  0.1600329E+04  0.7818609E-02  0.8820346E-01
        1   -1    0    0  501    0  0.00000000000E+00  0.00000000000E+00  0.18746012734E+04  0.18746012734E+04  0.50400001928E-02 0.  1.
       -1   -1    0    0    0  501  0.00000000000E+00  0.00000000000E+00 -0.34154633356E+03  0.34154633360E+03  0.50400001928E-02 0. -1.
    10030    2    1    2    0    0  0.00000000000E+00  0.00000000000E+00  0.15330549398E+04  0.22161476070E+04  0.16003289560E+04 0.  0.
        5    1    3    3  502    0 -0.18424113732E+03  0.59350700125E+02  0.18416713901E+04  0.18518215090E+04  0.46999998093E+01 0.  1.
       -5    1    3    3    0  502  0.18424113732E+03 -0.59350700125E+02 -0.30861645026E+03  0.36432609796E+03  0.46999998093E+01 0. -1.
</event>
<event>
 5   0  0.4314657E-05  0.1595915E+04  0.7818609E-02  0.8823061E-01
        1   -1    0    0  501    0  0.00000000000E+00  0.00000000000E+00  0.12199626416E+04  0.12199626417E+04  0.50400001928E-02 0. -1.
       -1   -1    0    0    0  501  0.00000000000E+00  0.00000000000E+00 -0.52193092764E+03  0.52193092766E+03  0.50400001928E-02 0.  1.
    10030    2    1    2    0    0  0.00000000000E+00  0.00000000000E+00  0.69803171400E+03  0.17418935693E+04  0.15959150770E+04 0.  0.
        5    1    3    3  502    0  0.33466412741E+03 -0.64889033300E+03  0.70042075123E+03  0.10117658134E+04  0.46999998093E+01 0. -1.
       -5    1    3    3    0  502 -0.33466412741E+03  0.64889033300E+03 -0.23890372302E+01  0.73012775590E+03  0.46999998093E+01 0.  1.
</event>
<event>
 5   0  0.7901257E-05  0.1600500E+04  0.7818609E-02  0.8820241E-01
        2   -1    0    0  501    0  0.00000000000E+00  0.00000000000E+00  0.12008386645E+04  0.12008386645E+04  0.25500000920E-02 0.  1.
       -2   -1    0    0    0  501  0.00000000000E+00  0.00000000000E+00 -0.53329425891E+03  0.53329425891E+03  0.25500000920E-02 0. -1.
    10030    2    1    2    0    0  0.00000000000E+00  0.00000000000E+00  0.66754440558E+03  0.17341329234E+04  0.16005003788E+04 0.  0.
        2    1    3    3  502    0  0.41771949583E+03 -0.51228269190E+03 -0.15497525666E+03  0.67892596342E+03  0.25500000920E-02 0. -1.
       -2    1    3    3    0  502 -0.41771949583E+03  0.51228269190E+03  0.82251966224E+03  0.10552069600E+04  0.25500000920E-02 0.  1.
</event>
<event>
 5   0  0.7901257E-05  0.1599233E+04  0.7818609E-02  0.8821019E-01
        2   -1    0    0  501    0  0.00000000000E+00  0.00000000000E+00  0.13952319294E+04  0.13952319294E+04  0.25500000920E-02 0.  1.
       -2   -1    0    0    0  501  0.00000000000E+00  0.00000000000E+00 -0.45826544651E+03  0.45826544652E+03  0.25500000920E-02 0. -1.
    10030    2    1    2    0    0  0.00000000000E+00  0.00000000000E+00  0.93696648289E+03  0.18534973759E+04  0.15992330451E+04 0.  0.
        2    1    3    3  502    0 -0.29511569571E+03  0.74067781826E+03  0.53888354006E+03  0.96233693376E+03  0.25500000920E-02 0.  1.
       -2    1    3    3    0  502  0.29511569571E+03 -0.74067781826E+03  0.39808294283E+03  0.89116044217E+03  0.25500000920E-02 0. -1.
</event>
<event>
 5   0  0.8037548E-05  0.1602010E+04  0.7818609E-02  0.8819314E-01
        2   -1    0    0  501    0  0.00000000000E+00  0.00000000000E+00  0.81529557271E+03  0.81529557271E+03  0.25500000920E-02 0. -1.
       -2   -1    0    0    0  501  0.00000000000E+00  0.00000000000E+00 -0.78696451597E+03  0.78696451598E+03  0.25500000920E-02 0.  1.
    10030    2    1    2    0    0  0.00000000000E+00  0.00000000000E+00  0.28331056735E+02  0.16022600887E+04  0.16020095952E+04 0.  0.
        5    1    3    3  502    0 -0.57685174253E+03  0.14340720396E+03  0.55115080805E+03  0.81062498248E+03  0.46999998093E+01 0. -1.
       -5    1    3    3    0  502  0.57685174253E+03 -0.14340720396E+03 -0.52281975132E+03  0.79163510621E+03  0.46999998093E+01 0.  1.
</event>
<event>
 5   0  0.8620155E-05  0.1597734E+04  0.7818609E-02  0.8821941E-01
        2   -1    0    0  501    0  0.00000000000E+00  0.00000000000E+00  0.74291280408E+03  0.74291280409E+03  0.25500000920E-02 0. -1.
       -2   -1    0    0    0  501  0.00000000000E+00  0.00000000000E+00 -0.85903551121E+03  0.85903551122E+03  0.25500000920E-02 0.  1.
    10030    2    1    2    0    0  0.00000000000E+00  0.00000000000E+00 -0.11612270713E+03  0.16019483153E+04  0.15977339959E+04 0.  0.
        4    1    3    3  502    0  0.37263145603E+03  0.63516293103E+03 -0.36855659602E+03  0.82348146813E+03  0.12699999809E+01 0.  1.
       -4    1    3    3    0  502 -0.37263145603E+03 -0.63516293103E+03  0.25243388889E+03  0.77846684717E+03  0.12699999809E+01 0. -1.
</event>
<event>
 5   0  0.4504463E-05  0.1639804E+04  0.7818609E-02  0.8796461E-01
        1   -1    0    0  501    0  0.00000000000E+00  0.00000000000E+00  0.19079410122E+04  0.19079410122E+04  0.50400001928E-02 0. -1.
       -1   -1    0    0    0  501  0.00000000000E+00  0.00000000000E+00 -0.35233752560E+03  0.35233752563E+03  0.50400001928E-02 0.  1.
    10030    2    1    2    0    0  0.00000000000E+00  0.00000000000E+00  0.15556034866E+04  0.22602785379E+04  0.16398039093E+04 0.  0.
        1    1    3    3  502    0 -0.20481782834E+03  0.50950312175E+03  0.16170272336E+04  0.17077238794E+04  0.50400001928E-02 0. -1.
       -1    1    3    3    0  502  0.20481782834E+03 -0.50950312175E+03 -0.61423747008E+02  0.55255465848E+03  0.50400001928E-02 0.  1.
</event>
<event>
 5   0  0.8620155E-05  0.1597768E+04  0.7818609E-02  0.8821921E-01
        2   -1    0    0  501    0  0.00000000000E+00  0.00000000000E+00  0.93663984137E+03  0.93663984137E+03  0.25500000920E-02 0. -1.
       -2   -1    0    0    0  501  0.00000000000E+00  0.00000000000E+00 -0.68138836320E+03  0.68138836320E+03  0.25500000920E-02 0.  1.
    10030    2    1    2    0    0  0.00000000000E+00  0.00000000000E+00  0.25525147817E+03  0.16180282046E+04  0.15977678034E+04 0.  0.
        4    1    3    3  502    0 -0.73892406493E+02  0.58747412555E+03 -0.41548445862E+03  0.72333594144E+03  0.12699999809E+01 0.  1.
       -4    1    3    3    0  502  0.73892406493E+02 -0.58747412555E+03  0.67073593678E+03  0.89469226314E+03  0.12699999809E+01 0. -1.
</event>
<event>
 5   0  0.4373026E-05  0.1602671E+04  0.7818609E-02  0.8818909E-01
        1   -1    0    0  501    0  0.00000000000E+00  0.00000000000E+00  0.62900746598E+03  0.62900746600E+03  0.50400001928E-02 0. -1.
       -1   -1    0    0    0  501  0.00000000000E+00  0.00000000000E+00 -0.10208763830E+04  0.10208763830E+04  0.50400001928E-02 0.  1.
    10030    2    1    2    0    0  0.00000000000E+00  0.00000000000E+00 -0.39186891702E+03  0.16498838490E+04  0.16026713534E+04 0.  0.
        4    1    3    3  502    0  0.47703722467E+03 -0.60593015475E+03  0.28245108626E+02  0.77169635558E+03  0.12699999809E+01 0. -1.
       -4    1    3    3    0  502 -0.47703722467E+03  0.60593015475E+03 -0.42011402564E+03  0.87818749342E+03  0.12699999809E+01 0.  1.
</event>
<event>
 5   0  0.8694033E-05  0.1600563E+04  0.7818609E-02  0.8820202E-01
       -2   -1    0    0    0  501  0.00000000000E+00  0.00000000000E+00  0.81556912429E+03  0.81556912429E+03  0.25500000920E-02 0. -1.
        2   -1    0    0  501    0  0.00000000000E+00  0.00000000000E+00 -0.78528021895E+03  0.78528021895E+03  0.25500000920E-02 0.  1.
    10030    2    1    2    0    0  0.00000000000E+00  0.00000000000E+00  0.30288905338E+02  0.16008493432E+04  0.16005627766E+04 0.  0.
        1    1    3    3  502    0 -0.31737405852E+03 -0.69459769618E+03 -0.22418492882E+03  0.79589643478E+03  0.50400001928E-02 0.  1.
       -1    1    3    3    0  502  0.31737405852E+03  0.69459769618E+03  0.25447383415E+03  0.80495290847E+03  0.50400001928E-02 0. -1.
</event>
<event>
 5   0  0.4256406E-05  0.1602982E+04  0.7818609E-02  0.8818718E-01
        1   -1    0    0  501    0  0.00000000000E+00  0.00000000000E+00  0.37962462543E+03  0.37962462546E+03  0.50400001928E-02 0. -1.
       -1   -1    0    0    0  501  0.00000000000E+00  0.00000000000E+00 -0.16921667997E+04  0.16921667997E+04  0.50400001928E-02 0.  1.
    10030    2    1    2    0    0  0.00000000000E+00  0.00000000000E+00 -0.13125421743E+04  0.20717914252E+04  0.16029824547E+04 0.  0.
        3    1    3    3  502    0  0.17400848763E+03 -0.59390239333E+03  0.19824216881E+01  0.61887231863E+03  0.10100000352E+00 0. -1.
       -3    1    3    3    0  502 -0.17400848763E+03  0.59390239333E+03 -0.13145245960E+04  0.14529191065E+04  0.10100000352E+00 0.  1.
</event>
<event>
 5   0  0.7849690E-05  0.1593779E+04  0.7818609E-02  0.8824379E-01
        2   -1    0    0  501    0  0.00000000000E+00  0.00000000000E+00  0.10247470308E+04  0.10247470308E+04  0.25500000920E-02 0. -1.
       -2   -1    0    0    0  501  0.00000000000E+00  0.00000000000E+00 -0.61969735624E+03  0.61969735624E+03  0.25500000920E-02 0.  1.
    10030    2    1    2    0    0  0.00000000000E+00  0.00000000000E+00  0.40504967461E+03  0.16444443871E+04  0.15937791890E+04 0.  0.
        3    1    3    3  502    0  0.55442820486E+03 -0.82892158007E+02  0.78689599395E+03  0.96616099057E+03  0.10100000352E+00 0. -1.
       -3    1    3    3    0  502 -0.55442820486E+03  0.82892158007E+02 -0.38184631934E+03  0.67828339652E+03  0.10100000352E+00 0.  1.
</event>
<event>
 5   0  0.4314657E-05  0.1608852E+04  0.7818609E-02  0.8815128E-01
       -1   -1    0    0    0  501  0.00000000000E+00  0.00000000000E+00  0.66025240076E+03  0.66025240078E+03  0.50400001928E-02 0.  1.
        1   -1    0    0  501    0  0.00000000000E+00  0.00000000000E+00 -0.98008210326E+03  0.98008210327E+03  0.50400001928E-02 0. -1.
    10030    2    1    2    0    0  0.00000000000E+00  0.00000000000E+00 -0.31982970250E+03  0.16403345041E+04  0.16088524627E+04 0.  0.
        5    1    3    3  502    0  0.16314025302E+02  0.37317369601E+03 -0.88628440929E+03  0.96179358439E+03  0.46999998093E+01 0. -1.
       -5    1    3    3    0  502 -0.16314025302E+02 -0.37317369601E+03  0.56645470680E+03  0.67854091967E+03  0.46999998093E+01 0.  1.
</event>
<event>
 5   0  0.8694033E-05  0.1601840E+04  0.7818609E-02  0.8819419E-01
        2   -1    0    0  501    0  0.00000000000E+00  0.00000000000E+00  0.12411950723E+04  0.12411950723E+04  0.25500000920E-02 0. -1.
       -2   -1    0    0    0  501  0.00000000000E+00  0.00000000000E+00 -0.51681854815E+03  0.51681854815E+03  0.25500000920E-02 0.  1.
    10030    2    1    2    0    0  0.00000000000E+00  0.00000000000E+00  0.72437652412E+03  0.17580136204E+04  0.16018397363E+04 0.  0.
        1    1    3    3  502    0 -0.13362189291E+03 -0.15583249242E+03  0.12118335476E+04  0.12290968730E+04  0.50400001928E-02 0. -1.
       -1    1    3    3    0  502  0.13362189291E+03  0.15583249242E+03 -0.48745702350E+03  0.52891674746E+03  0.50400001928E-02 0.  1.
</event>
<event>
 5   0  0.7849690E-05  0.1603671E+04  0.7818609E-02  0.8818296E-01
       -2   -1    0    0    0  501  0.00000000000E+00  0.00000000000E+00  0.48405414819E+03  0.48405414820E+03  0.25500000920E-02 0. -1.
        2   -1    0    0  501    0  0.00000000000E+00  0.00000000000E+00 -0.13282395422E+04  0.13282395422E+04  0.25500000920E-02 0.  1.
    10030    2    1    2    0    0  0.00000000000E+00  0.00000000000E+00 -0.84418539403E+03  0.18122936904E+04  0.16036706148E+04 0.  0.
        3    1    3    3  502    0 -0.57739613433E+03  0.15852698730E+03 -0.10247848977E+04  0.11868871886E+04  0.10100000352E+00 0.  1.
       -3    1    3    3    0  502  0.57739613433E+03 -0.15852698730E+03  0.18059950366E+03  0.62540650186E+03  0.10100000352E+00 0. -1.
</event>
<event>
 5   0  0.4314657E-05  0.1601176E+04  0.7818609E-02  0.8819826E-01
        1   -1    0    0  501    0  0.00000000000E+00  0.00000000000E+00  0.11219436556E+04  0.11219436556E+04  0.50400001928E-02 0. -1.
       -1   -1    0    0    0  501  0.00000000000E+00  0.00000000000E+00 -0.57127758185E+03  0.57127758188E+03  0.50400001928E-02 0.  1.
    10030    2    1    2    0    0  0.00000000000E+00  0.00000000000E+00  0.55066607371E+03  0.16932212375E+04  0.16011761409E+04 0.  0.
        5    1    3    3  502    0 -0.10375790585E+03  0.46529757043E+03  0.95546309749E+03  0.10678011766E+04  0.46999998093E+01 0. -1.
       -5    1    3    3    0  502  0.10375790585E+03 -0.46529757043E+03 -0.40479702377E+03  0.62542006086E+03  0.46999998093E+01 0.  1.
</event>
<event>
 5   0  0.4373026E-05  0.1598981E+04  0.7818609E-02  0.8821174E-01
        1   -1    0    0  501    0  0.00000000000E+00  0.00000000000E+00  0.97528312100E+03  0.97528312101E+03  0.50400001928E-02 0.  1.
       -1   -1    0    0    0  501  0.00000000000E+00  0.00000000000E+00 -0.65538412495E+03  0.65538412497E+03  0.50400001928E-02 0. -1.
    10030    2    1    2    0    0  0.00000000000E+00  0.00000000000E+00  0.31989899605E+03  0.16306672460E+04  0.15989810191E+04 0.  0.
        4    1    3    3  502    0  0.16277294267E+03  0.38290531793E+03  0.85617274759E+03  0.95191643540E+03  0.12699999809E+01 0.  1.
       -4    1    3    3    0  502 -0.16277294267E+03 -0.38290531793E+03 -0.53627375155E+03  0.67875081058E+03  0.12699999809E+01 0. -1.
</event>
<event>
 5   0  0.4211419E-05  0.1600147E+04  0.7818609E-02  0.8820457E-01
       -1   -1    0    0    0  501  0.00000000000E+00  0.00000000000E+00  0.52330548054E+03  0.52330548057E+03  0.50400001928E-02 0.  1.
        1   -1    0    0  501    0  0.00000000000E+00  0.00000000000E+00 -0.12232204714E+04  0.12232204715E+04  0.50400001928E-02 0. -1.
    10030    2    1    2    0    0  0.00000000000E+00  0.00000000000E+00 -0.69991499091E+03  0.17465259520E+04  0.16001474640E+04 0.  0.
        2    1    3    3  502    0 -0.11344922219E+03 -0.47055345946E+03  0.34536349474E+03  0.59461519299E+03  0.25500000920E-02 0.  1.
       -2    1    3    3    0  502  0.11344922219E+03  0.47055345946E+03 -0.10452784856E+04  0.11519107590E+04  0.25500000920E-02 0. -1.
</event>
<event>
 5   0  0.8620155E-05  0.1599002E+04  0.7818609E-02  0.8821161E-01
        2   -1    0    0  501    0  0.00000000000E+00  0.00000000000E+00  0.92651242009E+03  0.92651242010E+03  0.25500000920E-02 0. -1.
       -2   -1    0    0    0  501  0.00000000000E+00  0.00000000000E+00 -0.68990122797E+03  0.68990122798E+03  0.25500000920E-02 0.  1.
    10030    2    1    2    0    0  0.00000000000E+00  0.00000000000E+00  0.23661119212E+03  0.16164136481E+04  0.15990022594E+04 0.  0.
        4    1    3    3  502    0 -0.30170718517E+02  0.54583050170E+03  0.70806136867E+03  0.89453547919E+03  0.12699999809E+01 0. -1.
       -4    1    3    3    0  502  0.30170718517E+02 -0.54583050170E+03 -0.47145017654E+03  0.72187816888E+03  0.12699999809E+01 0.  1.
</event>
<event>
 5   0  0.8694033E-05  0.1598968E+04  0.7818609E-02  0.8821182E-01
       -2   -1    0    0    0  501  0.00000000000E+00  0.00000000000E+00  0.76374679544E+03  0.76374679544E+03  0.25500000920E-02 0.  1.
        2   -1    0    0  501    0  0.00000000000E+00  0.00000000000E+00 -0.83689393565E+03  0.83689393565E+03  0.25500000920E-02 0. -1.
    10030    2    1    2    0    0  0.00000000000E+00  0.00000000000E+00 -0.73147140209E+02  0.16006407311E+04  0.15989684944E+04 0.  0.
        1    1    3    3  502    0 -0.68962426795E+03 -0.18070683579E+03  0.32565907605E+03  0.78376681818E+03  0.50400001928E-02 0.  1.
       -1    1    3    3    0  502  0.68962426795E+03  0.18070683579E+03 -0.39880621625E+03  0.81687391291E+03  0.50400001928E-02 0. -1.
</event>
<event>
 5   0  0.4504463E-05  0.1600058E+04  0.7818609E-02  0.8820512E-01
       -1   -1    0    0    0  501  0.00000000000E+00  0.00000000000E+00  0.42556434903E+03  0.42556434906E+03  0.50400001928E-02 0. -1.
        1   -1    0    0  501    0  0.00000000000E+00  0.00000000000E+00 -0.15039945681E+04  0.15039945681E+04  0.50400001928E-02 0.  1.
    10030    2    1    2    0    0  0.00000000000E+00  0.00000000000E+00 -0.10784302191E+04  0.19295589172E+04  0.16000580856E+04 0.  0.
        1    1    3    3  502    0 -0.30218749092E+03 -0.20250796729E+03  0.32006410769E+03  0.48452841974E+03  0.50400001928E-02 0. -1.
       -1    1    3    3    0  502  0.30218749092E+03  0.20250796729E+03 -0.13984943267E+04  0.14450304974E+04  0.50400001928E-02 0.  1.
</event>
<event>
 5   0  0.8037548E-05  0.1589500E+04  0.7818609E-02  0.8827025E-01
       -2   -1    0    0    0  501  0.00000000000E+00  0.00000000000E+00  0.57717897130E+03  0.57717897131E+03  0.25500000920E-02 0. -1.
        2   -1    0    0  501    0  0.00000000000E+00  0.00000000000E+00 -0.10943356371E+04  0.10943356372E+04  0.25500000920E-02 0.  1.
    10030    2    1    2    0    0  0.00000000000E+00  0.00000000000E+00 -0.51715666584E+03  0.16715146085E+04  0.15894999431E+04 0.  0.
        5    1    3    3  502    0  0.52399326999E+03  0.34520646590E+03 -0.77146163679E+03  0.99444034418E+03  0.46999998093E+01 0.  1.
       -5    1    3    3    0  502 -0.52399326999E+03 -0.34520646590E+03  0.25430497095E+03  0.67707426428E+03  0.46999998093E+01 0. -1.
</event>
<event>
 5   0  0.4373026E-05  0.1611713E+04  0.7818609E-02  0.8813385E-01
       -1   -1    0    0    0  501  0.00000000000E+00  0.00000000000E+00  0.34258497328E+03  0.34258497331E+03  0.50400001928E-02 0.  1.
        1   -1    0    0  501    0  0.00000000000E+00  0.00000000000E+00 -0.18956010158E+04  0.18956010158E+04  0.50400001928E-02 0. -1.
    10030    2    1    2    0    0  0.00000000000E+00  0.00000000000E+00 -0.15530160425E+04  0.22381859891E+04  0.16117126585E+04 0.  0.
        4    1    3    3  502    0  0.18891708276E+03 -0.13184681774E+03  0.29587943614E+03  0.37499266811E+03  0.12699999809E+01 0.  1.
       -4    1    3    3    0  502 -0.18891708276E+03  0.13184681774E+03 -0.18488954787E+04  0.18631933210E+04  0.12699999809E+01 0. -1.
</event>
<event>
 5   0  0.4256406E-05  0.1598422E+04  0.7818609E-02  0.8821518E-01
       -1   -1    0    0    0  501  0.00000000000E+00  0.00000000000E+00  0.49121491138E+03  0.49121491141E+03  0.50400001928E-02 0. -1.
        1   -1    0    0  501    0  0.00000000000E+00  0.00000000000E+00 -0.13003238259E+04  0.13003238259E+04  0.50400001928E-02 0.  1.
    10030    2    1    2    0    0  0.00000000000E+00  0.00000000000E+00 -0.80910891451E+03  0.17915387373E+04  0.15984222883E+04 0.  0.
        3    1    3    3  502    0 -0.22815830485E+03 -0.54097443616E+03  0.20320213552E+03  0.62128952247E+03  0.10100000352E+00 0. -1.
       -3    1    3    3    0  502  0.22815830485E+03  0.54097443616E+03 -0.10123110500E+04  0.11702492148E+04  0.10100000352E+00 0.  1.
</event>
<event>
 5   0  0.4211419E-05  0.1601718E+04  0.7818609E-02  0.8819493E-01
       -1   -1    0    0    0  501  0.00000000000E+00  0.00000000000E+00  0.56844637641E+03  0.56844637644E+03  0.50400001928E-02 0. -1.
        1   -1    0    0  501    0  0.00000000000E+00  0.00000000000E+00 -0.11282948446E+04  0.11282948446E+04  0.50400001928E-02 0.  1.
    10030    2    1    2    0    0  0.00000000000E+00  0.00000000000E+00 -0.55984846817E+03  0.16967412210E+04  0.16017179726E+04 0.  0.
        2    1    3    3  502    0  0.10770428988E+03  0.25687093309E+03  0.51548220700E+03  0.58592217578E+03  0.25500000920E-02 0. -1.
       -2    1    3    3    0  502 -0.10770428988E+03 -0.25687093309E+03 -0.10753306752E+04  0.11108190453E+04  0.25500000920E-02 0.  1.
</event>
<event>
 5   0  0.8620155E-05  0.1592737E+04  0.7818609E-02  0.8825022E-01
       -2   -1    0    0    0  501  0.00000000000E+00  0.00000000000E+00  0.44750887796E+03  0.44750887797E+03  0.25500000920E-02 0.  1.
        2   -1    0    0  501    0  0.00000000000E+00  0.00000000000E+00 -0.14171846992E+04  0.14171846992E+04  0.25500000920E-02 0. -1.
    10030    2    1    2    0    0  0.00000000000E+00  0.00000000000E+00 -0.96967582125E+03  0.18646935772E+04  0.15927369332E+04 0.  0.
        4    1    3    3  502    0  0.10398858440E+03 -0.38216794002E+03  0.32402540155E+03  0.51172261413E+03  0.12699999809E+01 0.  1.
       -4    1    3    3    0  502 -0.10398858440E+03  0.38216794002E+03 -0.12937012228E+04  0.13529709630E+04  0.12699999809E+01 0. -1.
</event>
<event>
 5   0  0.4504463E-05  0.1601730E+04  0.7818609E-02  0.8819486E-01
       -1   -1    0    0    0  501  0.00000000000E+00  0.00000000000E+00  0.84622210620E+03  0.84622210622E+03  0.50400001928E-02 0. -1.
        1   -1    0    0  501    0  0.00000000000E+00  0.00000000000E+00 -0.75793872020E+03  0.75793872021E+03  0.50400001928E-02 0.  1.
    10030    2    1    2    0    0  0.00000000000E+00  0.00000000000E+00  0.88283386003E+02  0.16041608264E+04  0.16017296903E+04 0.  0.
        1    1    3    3  502    0 -0.73190358207E+03  0.78165459907E+01  0.36965894019E+03  0.81999492921E+03  0.50400001928E-02 0. -1.
       -1    1    3    3    0  502  0.73190358207E+03 -0.78165459907E+01 -0.28137555419E+03  0.78416589722E+03  0.50400001928E-02 0.  1.
</event>
<event>
 5   0  0.4256406E-05  0.1594367E+04  0.7818609E-02  0.8824016E-01
       -1   -1    0    0    0  501  0.00000000000E+00  0.00000000000E+00  0.74397406144E+03  0.74397406145E+03  0.50400001928E-02 0.  1.
        1   -1    0    0  501    0  0.00000000000E+00  0.00000000000E+00 -0.85419866813E+03  0.85419866814E+03  0.50400001928E-02 0. -1.
    10030    2    1    2    0    0  0.00000000000E+00  0.00000000000E+00 -0.11022460669E+03  0.15981727296E+04  0.15943671502E+04 0.  0.
        3    1    3    3  502    0 -0.17848363112E+03 -0.77671683636E+03 -0.36194212309E+02  0.79778160023E+03  0.10100000352E+00 0.  1.
       -3    1    3    3    0  502  0.17848363112E+03  0.77671683636E+03 -0.74030394378E+02  0.80039112936E+03  0.10100000352E+00 0. -1.
</event>
<event>
 5   0  0.7901257E-05  0.1600338E+04  0.7818609E-02  0.8820341E-01
        2   -1    0    0  501    0  0.00000000000E+00  0.00000000000E+00  0.12399058190E+04  0.12399058190E+04  0.25500000920E-02 0.  1.
       -2   -1    0    0    0  501  0.00000000000E+00  0.00000000000E+00 -0.51638619147E+03  0.51638619147E+03  0.25500000920E-02 0. -1.
    10030    2    1    2    0    0  0.00000000000E+00  0.00000000000E+00  0.72351962751E+03  0.17562920105E+04  0.16003377689E+04 0.  0.
        2    1    3    3  502    0  0.71332870029E+02 -0.25856977316E+03  0.11890976617E+04  0.12189749608E+04  0.25500000920E-02 0.  1.
       -2    1    3    3    0  502 -0.71332870029E+02  0.25856977316E+03 -0.46557803419E+03  0.53731704967E+03  0.25500000920E-02 0. -1.
</event>
<event>
 5   0  0.8620155E-05  0.1593956E+04  0.7818609E-02  0.8824270E-01
        2   -1    0    0  501    0  0.00000000000E+00  0.00000000000E+00  0.60518809900E+03  0.60518809900E+03  0.25500000920E-02 0. -1.
       -2   -1    0    0    0  501  0.00000000000E+00  0.00000000000E+00 -0.10495476589E+04  0.10495476589E+04  0.25500000920E-02 0.  1.
    10030    2    1    2    0    0  0.00000000000E+00  0.00000000000E+00 -0.44435955994E+03  0.16547357579E+04  0.15939557742E+04 0.  0.
        4    1    3    3  502    0 -0.50051531626E+03 -0.59010864451E+03 -0.24039803120E+02  0.77415975042E+03  0.12699999809E+01 0.  1.
       -4    1    3    3    0  502  0.50051531626E+03  0.59010864451E+03 -0.42031975682E+03  0.88057600752E+03  0.12699999809E+01 0. -1.
</event>
<event>
 5   0  0.4314657E-05  0.1598153E+04  0.7818609E-02  0.8821684E-01
        1   -1    0    0  501    0  0.00000000000E+00  0.00000000000E+00  0.10277729161E+04  0.10277729161E+04  0.50400001928E-02 0. -1.
       -1   -1    0    0    0  501  0.00000000000E+00  0.00000000000E+00 -0.62126861733E+03  0.62126861735E+03  0.50400001928E-02 0.  1.
    10030    2    1    2    0    0  0.00000000000E+00  0.00000000000E+00  0.40650429876E+03  0.16490415334E+04  0.15981527568E+04 0.  0.
        5    1    3    3  502    0 -0.19190254486E+03 -0.77469067348E+03  0.24359628708E+03  0.83446597736E+03  0.46999998093E+01 0.  1.
       -5    1    3    3    0  502  0.19190254486E+03  0.77469067348E+03  0.16290801168E+03  0.81457555608E+03  0.46999998093E+01 0. -1.
</event>
<event>
 5   0  0.8620155E-05  0.1601827E+04  0.7818609E-02  0.8819426E-01
       -2   -1    0    0    0  501  0.00000000000E+00  0.00000000000E+00  0.31619131233E+03  0.31619131234E+03  0.25500000920E-02 0. -1.
        2   -1    0    0  501    0  0.00000000000E+00  0.00000000000E+00 -0.20287174230E+04  0.20287174230E+04  0.25500000920E-02 0.  1.
    10030    2    1    2    0    0  0.00000000000E+00  0.00000000000E+00 -0.17125261107E+04  0.23449087354E+04  0.16018274868E+04 0.  0.
        4    1    3    3  502    0  0.48416279792E+03 -0.63793853247E+03 -0.84300486615E+03  0.11627716901E+04  0.12699999809E+01 0. -1.
       -4    1    3    3    0  502 -0.48416279792E+03  0.63793853247E+03 -0.86952124455E+03  0.11821370452E+04  0.12699999809E+01 0.  1.
</event>
<event>
 5   0  0.4211419E-05  0.1598020E+04  0.7818609E-02  0.8821766E-01
        1   -1    0    0  501    0  0.00000000000E+00  0.00000000000E+00  0.11951796480E+04  0.11951796481E+04  0.50400001928E-02 0. -1.
       -1   -1    0    0    0  501  0.00000000000E+00  0.00000000000E+00 -0.53415963969E+03  0.53415963972E+03  0.50400001928E-02 0.  1.
    10030    2    1    2    0    0  0.00000000000E+00  0.00000000000E+00  0.66102000835E+03  0.17293392878E+04  0.15980196872E+04 0.  0.
        2    1    3    3  502    0 -0.13334984965E+03 -0.73629853463E+03  0.27309312158E+02  0.74877467441E+03  0.25500000920E-02 0. -1.
       -2    1    3    3    0  502  0.13334984965E+03  0.73629853463E+03  0.63371069620E+03  0.98056461336E+03  0.25500000920E-02 0.  1.
</event>
<event>
 5   0  0.8037548E-05  0.1612862E+04  0.7818609E-02  0.8812685E-01
        2   -1    0    0  501    0  0.00000000000E+00  0.00000000000E+00  0.10641552591E+04  0.10641552591E+04  0.25500000920E-02 0. -1.
       -2   -1    0    0    0  501  0.00000000000E+00  0.00000000000E+00 -0.61112393693E+03  0.61112393694E+03  0.25500000920E-02 0.  1.
    10030    2    1    2    0    0  0.00000000000E+00  0.00000000000E+00  0.45303132213E+03  0.16752791960E+04  0.16128617441E+04 0.  0.
        5    1    3    3  502    0  0.52026549785E+03  0.41965656931E+03  0.69510725605E+03  0.96435678659E+03  0.46999998093E+01 0. -1.
       -5    1    3    3    0  502 -0.52026549785E+03 -0.41965656931E+03 -0.24207593392E+03  0.71092240941E+03  0.46999998093E+01 0.  1.
</event>
<event>
 5   0  0.4211419E-05  0.1600336E+04  0.7818609E-02  0.8820342E-01
        1   -1    0    0  501    0  0.00000000000E+00  0.00000000000E+00  0.65238126330E+03  0.65238126332E+03  0.50400001928E-02 0. -1.
       -1   -1    0    0    0  501  0.00000000000E+00  0.00000000000E+00 -0.98143310069E+03  0.98143310071E+03  0.50400001928E-02 0.  1.
    10030    2    1    2    0    0  0.00000000000E+00  0.00000000000E+00 -0.32905183739E+03  0.16338143640E+04  0.16003356724E+04 0.  0.
        2    1    3    3  502    0  0.43742381882E+03 -0.68278264942E+02 -0.84500326958E+03  0.95395599707E+03  0.25500000920E-02 0.  1.
       -2    1    3    3    0  502 -0.43742381882E+03  0.68278264942E+02  0.51595143219E+03  0.67985836695E+03  0.25500000920E-02 0. -1.
</event>
<event>
 5   0  0.7849690E-05  0.1596567E+04  0.7818609E-02  0.8822660E-01
       -2   -1    0    0    0  501  0.00000000000E+00  0.00000000000E+00  0.55503420925E+03  0.55503420926E+03  0.25500000920E-02 0. -1.
        2   -1    0    0  501    0  0.00000000000E+00  0.00000000000E+00 -0.11481388577E+04  0.11481388577E+04  0.25500000920E-02 0.  1.
    10030    2    1    2    0    0  0.00000000000E+00  0.00000000000E+00 -0.59310464848E+03  0.17031730670E+04  0.15965667453E+04 0.  0.
        3    1    3    3  502    0  0.48608355140E+03  0.20920814604E+03 -0.93413154345E+03  0.10736139986E+04  0.10100000352E+00 0.  1.
       -3    1    3    3    0  502 -0.48608355140E+03 -0.20920814604E+03  0.34102689497E+03  0.62955906840E+03  0.10100000352E+00 0. -1.
</event>
<event>
 5   0  0.3042125E-05  0.1600256E+04  0.7818609E-02  0.8820391E-01
       -4   -1    0    0    0  501  0.00000000000E+00  0.00000000000E+00  0.16077329576E+04  0.16077334592E+04  0.12699999809E+01 0. -1.
        4   -1    0    0  501    0  0.00000000000E+00  0.00000000000E+00 -0.39820166091E+03  0.39820368613E+03  0.12699999809E+01 0.  1.
    10030    2    1    2    0    0  0.00000000000E+00  0.00000000000E+00  0.12095312967E+04  0.20059371453E+04  0.16002555650E+04 0.  0.
        1    1    3    3  502    0  0.31585666890E+03 -0.20618539442E+03 -0.27976043728E+03  0.46962086245E+03  0.50400001928E-02 0.  1.
       -1    1    3    3    0  502 -0.31585666890E+03  0.20618539442E+03  0.14892917339E+04  0.15363162828E+04  0.50400001928E-02 0. -1.
</event>
<event>
 5   0  0.7901257E-05  0.1600182E+04  0.7818609E-02  0.8820436E-01
        2   -1    0    0  501    0  0.00000000000E+00  0.00000000000E+00  0.20600000386E+04  0.20600000386E+04  0.25500000920E-02 0. -1.
       -2   -1    0    0    0  501  0.00000000000E+00  0.00000000000E+00 -0.31075016812E+03  0.31075016813E+03  0.25500000920E-02 0.  1.
    10030    2    1    2    0    0  0.00000000000E+00  0.00000000000E+00  0.17492498705E+04  0.23707502067E+04  0.16001816876E+04 0.  0.
        2    1    3    3  502    0  0.56329561642E+03 -0.27931828391E+03  0.16076926944E+04  0.17262666233E+04  0.25500000920E-02 0. -1.
       -2    1    3    3    0  502 -0.56329561642E+03  0.27931828391E+03  0.14155717612E+03  0.64448358344E+03  0.25500000920E-02 0.  1.
</event>
<event>
 5   0  0.3042125E-05  0.1599211E+04  0.7818609E-02  0.8821033E-01
        3   -1    0    0  501    0  0.00000000000E+00  0.00000000000E+00  0.31900795183E+03  0.31900796782E+03  0.10100000352E+00 0. -1.
       -3   -1    0    0    0  501  0.00000000000E+00  0.00000000000E+00 -0.20042404361E+04  0.20042404386E+04  0.10100000352E+00 0.  1.
    10030    2    1    2    0    0  0.00000000000E+00  0.00000000000E+00 -0.16852324842E+04  0.23232484064E+04  0.15992106278E+04 0.  0.
        4    1    3    3  502    0  0.89517090718E+02  0.28909546239E+03 -0.19178232714E+04  0.19415553582E+04  0.12699999809E+01 0.  1.
       -4    1    3    3    0  502 -0.89517090718E+02 -0.28909546239E+03  0.23259078713E+03  0.38169304822E+03  0.12699999809E+01 0. -1.
</event>
<event>
 5   0  0.8620155E-05  0.1598214E+04  0.7818609E-02  0.8821646E-01
       -2   -1    0    0    0  501  0.00000000000E+00  0.00000000000E+00  0.92882269920E+03  0.92882269920E+03  0.25500000920E-02 0.  1.
        2   -1    0    0  501    0  0.00000000000E+00  0.00000000000E+00 -0.68750697580E+03  0.68750697581E+03  0.25500000920E-02 0. -1.
    10030    2    1    2    0    0  0.00000000000E+00  0.00000000000E+00  0.24131572340E+03  0.16163296750E+04  0.15982141096E+04 0.  0.
        4    1    3    3  502    0 -0.74183767176E+03 -0.17425726328E+03 -0.12265541166E+03  0.77183851158E+03  0.12699999809E+01 0. -1.
       -4    1    3    3    0  502  0.74183767176E+03  0.17425726328E+03  0.36397113506E+03  0.84449116343E+03  0.12699999809E+01 0.  1.
</event>
<event>
 5   0  0.8037548E-05  0.1587694E+04  0.7818609E-02  0.8828144E-01
        2   -1    0    0  501    0  0.00000000000E+00  0.00000000000E+00  0.18963396899E+04  0.18963396899E+04  0.25500000920E-02 0. -1.
       -2   -1    0    0    0  501  0.00000000000E+00  0.00000000000E+00 -0.33232055766E+03  0.33232055767E+03  0.25500000920E-02 0.  1.
    10030    2    1    2    0    0  0.00000000000E+00  0.00000000000E+00  0.15640191322E+04  0.22286602476E+04  0.15876935010E+04 0.  0.
        5    1    3    3  502    0 -0.54744974903E+03  0.22275577016E+03  0.38110857551E+02  0.59228024475E+03  0.46999998093E+01 0.  1.
       -5    1    3    3    0  502  0.54744974903E+03 -0.22275577016E+03  0.15259082747E+04  0.16363800028E+04  0.46999998093E+01 0. -1.
</event>
<event>
 5   0  0.4373026E-05  0.1611567E+04  0.7818609E-02  0.8813473E-01
       -1   -1    0    0    0  501  0.00000000000E+00  0.00000000000E+00  0.36025120129E+03  0.36025120133E+03  0.50400001928E-02 0.  1.
        1   -1    0    0  501    0  0.00000000000E+00  0.00000000000E+00 -0.18023185561E+04  0.18023185561E+04  0.50400001928E-02 0. -1.
    10030    2    1    2    0    0  0.00000000000E+00  0.00000000000E+00 -0.14420673548E+04  0.21625697574E+04  0.16115674668E+04 0.  0.
        4    1    3    3  502    0  0.62385672173E+03 -0.26823494472E+03 -0.13030840983E+04  0.14694138202E+04  0.12699999809E+01 0. -1.
       -4    1    3    3    0  502 -0.62385672173E+03  0.26823494472E+03 -0.13898325647E+03  0.69315593721E+03  0.12699999809E+01 0.  1.
</event>
<event>
 5   0  0.3042125E-05  0.1601919E+04  0.7818609E-02  0.8819370E-01
        4   -1    0    0  501    0  0.00000000000E+00  0.00000000000E+00  0.27433674214E+03  0.27433968176E+03  0.12699999809E+01 0.  1.
       -4   -1    0    0    0  501  0.00000000000E+00  0.00000000000E+00 -0.23384840424E+04  0.23384843872E+04  0.12699999809E+01 0. -1.
    10030    2    1    2    0    0  0.00000000000E+00  0.00000000000E+00 -0.20641473002E+04  0.26128240690E+04  0.16019193296E+04 0.  0.
        5    1    3    3  502    0 -0.65364706582E+03  0.45379560051E+03 -0.11809327425E+04  0.14240116453E+04  0.46999998093E+01 0. -1.
       -5    1    3    3    0  502  0.65364706582E+03 -0.45379560051E+03 -0.88321455777E+03  0.11888124237E+04  0.46999998093E+01 0.  1.
</event>
<event>
 5   0  0.8037548E-05  0.1600809E+04  0.7818609E-02  0.8820051E-01
        2   -1    0    0  501    0  0.00000000000E+00  0.00000000000E+00  0.76873372243E+03  0.76873372243E+03  0.25500000920E-02 0. -1.
       -2   -1    0    0    0  501  0.00000000000E+00  0.00000000000E+00 -0.83338009280E+03  0.83338009281E+03  0.25500000920E-02 0.  1.
    10030    2    1    2    0    0  0.00000000000E+00  0.00000000000E+00 -0.64646370376E+02  0.16021138152E+04  0.16008090216E+04 0.  0.
        5    1    3    3  502    0 -0.51702236654E+03  0.98449145814E+02 -0.63582458022E+03  0.82540859495E+03  0.46999998093E+01 0.  1.
       -5    1    3    3    0  502  0.51702236654E+03 -0.98449145814E+02  0.57117820984E+03  0.77670522028E+03  0.46999998093E+01 0. -1.
</event>
<event>
 5   0  0.4256406E-05  0.1597187E+04  0.7818609E-02  0.8822278E-01
       -1   -1    0    0    0  501  0.00000000000E+00  0.00000000000E+00  0.26527477102E+03  0.26527477107E+03  0.50400001928E-02 0. -1.
        1   -1    0    0  501    0  0.00000000000E+00  0.00000000000E+00 -0.24041167191E+04  0.24041167191E+04  0.50400001928E-02 0.  1.
    10030    2    1    2    0    0  0.00000000000E+00  0.00000000000E+00 -0.21388419481E+04  0.26693914902E+04  0.15971869174E+04 0.  0.
        3    1    3    3  502    0  0.25637104044E+03  0.70890671533E+03 -0.62889046044E+03  0.98172198857E+03  0.10100000352E+00 0.  1.
       -3    1    3    3    0  502 -0.25637104044E+03 -0.70890671533E+03 -0.15099514876E+04  0.16876695016E+04  0.10100000352E+00 0. -1.
</event>
<event>
 5   0  0.8694033E-05  0.1598779E+04  0.7818609E-02  0.8821298E-01
       -2   -1    0    0    0  501  0.00000000000E+00  0.00000000000E+00  0.23526713452E+03  0.23526713453E+03  0.25500000920E-02 0. -1.
        2   -1    0    0  501    0  0.00000000000E+00  0.00000000000E+00 -0.27161622186E+04  0.27161622186E+04  0.25500000920E-02 0.  1.
    10030    2    1    2    0    0  0.00000000000E+00  0.00000000000E+00 -0.24808950841E+04  0.29514293532E+04  0.15987791618E+04 0.  0.
        1    1    3    3  502    0  0.57472364156E+03  0.30598666365E+03 -0.38429212475E+03  0.75605260377E+03  0.50400001928E-02 0. -1.
       -1    1    3    3    0  502 -0.57472364156E+03 -0.30598666365E+03 -0.20966029594E+04  0.21953767494E+04  0.50400001928E-02 0.  1.
</event>
<event>
 5   0  0.4504463E-05  0.1598816E+04  0.7818609E-02  0.8821276E-01
        1   -1    0    0  501    0  0.00000000000E+00  0.00000000000E+00  0.86005517189E+03  0.86005517191E+03  0.50400001928E-02 0.  1.
       -1   -1    0    0    0  501  0.00000000000E+00  0.00000000000E+00 -0.74303765746E+03  0.74303765747E+03  0.50400001928E-02 0. -1.
    10030    2    1    2    0    0  0.00000000000E+00  0.00000000000E+00  0.11701751444E+03  0.16030928294E+04  0.15988162874E+04 0.  0.
        1    1    3    3  502    0  0.36429357945E+03 -0.55379413991E+03 -0.38951482695E+03  0.76884300210E+03  0.50400001928E-02 0. -1.
       -1    1    3    3    0  502 -0.36429357945E+03  0.55379413991E+03  0.50653234139E+03  0.83424982729E+03  0.50400001928E-02 0.  1.
</event>
<event>
 5   0  0.8694033E-05  0.1600527E+04  0.7818609E-02  0.8820225E-01
       -2   -1    0    0    0  501  0.00000000000E+00  0.00000000000E+00  0.50003188321E+03  0.50003188322E+03  0.25500000920E-02 0.  1.
        2   -1    0    0  501    0  0.00000000000E+00  0.00000000000E+00 -0.12807609495E+04  0.12807609495E+04  0.25500000920E-02 0. -1.
    10030    2    1    2    0    0  0.00000000000E+00  0.00000000000E+00 -0.78072906632E+03  0.17807928327E+04  0.16005265503E+04 0.  0.
        1    1    3    3  502    0  0.50239995411E+03  0.31074300768E+03  0.21030528223E+03  0.62705282272E+03  0.50400001928E-02 0.  1.
       -1    1    3    3    0  502 -0.50239995411E+03 -0.31074300768E+03 -0.99103434855E+03  0.11537400100E+04  0.50400001928E-02 0. -1.
</event>
<event>
 5   0  0.8694033E-05  0.1600340E+04  0.7818609E-02  0.8820339E-01
       -2   -1    0    0    0  501  0.00000000000E+00  0.00000000000E+00  0.28306809876E+03  0.28306809878E+03  0.25500000920E-02 0.  1.
        2   -1    0    0  501    0  0.00000000000E+00  0.00000000000E+00 -0.22619022865E+04  0.22619022865E+04  0.25500000920E-02 0. -1.
    10030    2    1    2    0    0  0.00000000000E+00  0.00000000000E+00 -0.19788341878E+04  0.25449703853E+04  0.16003404386E+04 0.  0.
        1    1    3    3  502    0 -0.16237499705E+03  0.77287538135E+03 -0.11941259606E+04  0.14316559658E+04  0.50400001928E-02 0.  1.
       -1    1    3    3    0  502  0.16237499705E+03 -0.77287538135E+03 -0.78470822720E+03  0.11133144195E+04  0.50400001928E-02 0. -1.
</event>
<event>
 5   0  0.8037548E-05  0.1608159E+04  0.7818609E-02  0.8815551E-01
        2   -1    0    0  501    0  0.00000000000E+00  0.00000000000E+00  0.11648677179E+04  0.11648677179E+04  0.25500000920E-02 0.  1.
       -2   -1    0    0    0  501  0.00000000000E+00  0.00000000000E+00 -0.55503599922E+03  0.55503599922E+03  0.25500000920E-02 0. -1.
    10030    2    1    2    0    0  0.00000000000E+00  0.00000000000E+00  0.60983171867E+03  0.17199037171E+04  0.16081585964E+04 0.  0.
        5    1    3    3  502    0  0.80222163676E+02 -0.68822457289E+03  0.74122536870E+03  0.10146555058E+04  0.46999998093E+01 0.  1.
       -5    1    3    3    0  502 -0.80222163676E+02  0.68822457289E+03 -0.13139365003E+03  0.70524821130E+03  0.46999998093E+01 0. -1.
</event>
<event>
 5   0  0.7849690E-05  0.1597157E+04  0.7818609E-02  0.8822296E-01
       -2   -1    0    0    0  501  0.00000000000E+00  0.00000000000E+00  0.46686585640E+03  0.46686585640E+03  0.25500000920E-02 0. -1.
        2   -1    0    0  501    0  0.00000000000E+00  0.00000000000E+00 -0.13659768033E+04  0.13659768033E+04  0.25500000920E-02 0.  1.
    10030    2    1    2    0    0  0.00000000000E+00  0.00000000000E+00 -0.89911094686E+03  0.18328426597E+04  0.15971573875E+04 0.  0.
        3    1    3    3  502    0  0.21047502507E+02 -0.18854874379E+03  0.44062866497E+03  0.47973665353E+03  0.10100000352E+00 0. -1.
       -3    1    3    3    0  502 -0.21047502507E+02  0.18854874379E+03 -0.13397396118E+04  0.13531060061E+04  0.10100000352E+00 0.  1.
</event>
<event>
 5   0  0.4211419E-05  0.1601189E+04  0.7818609E-02  0.8819818E-01
        1   -1    0    0  501    0  0.00000000000E+00  0.00000000000E+00  0.71151648804E+03  0.71151648805E+03  0.50400001928E-02 0. -1.
       -1   -1    0    0    0  501  0.00000000000E+00  0.00000000000E+00 -0.90082432233E+03  0.90082432234E+03  0.50400001928E-02 0.  1.
    10030    2    1    2    0    0  0.00000000000E+00  0.00000000000E+00 -0.18930783429E+03  0.16123408104E+04  0.16011887561E+04 0.  0.
        2    1    3    3  502    0 -0.82693066590E+02  0.16218541626E+03 -0.87970499813E+03  0.89834466451E+03  0.25500000920E-02 0.  1.
       -2    1    3    3    0  502  0.82693066590E+02 -0.16218541626E+03  0.69039716383E+03  0.71399614589E+03  0.25500000920E-02 0. -1.
</event>
<event>
 5   0  0.4256406E-05  0.1598546E+04  0.7818609E-02  0.8821442E-01
       -1   -1    0    0    0  501  0.00000000000E+00  0.00000000000E+00  0.93444028992E+03  0.93444028993E+03  0.50400001928E-02 0. -1.
        1   -1    0    0  501    0  0.00000000000E+00  0.00000000000E+00 -0.68365775109E+03  0.68365775111E+03  0.50400001928E-02 0.  1.
    10030    2    1    2    0    0  0.00000000000E+00  0.00000000000E+00  0.25078253883E+03  0.16180980410E+04  0.15985460233E+04 0.  0.
        3    1    3    3  502    0 -0.63877462622E+03  0.45931738207E+03  0.26793934939E+03  0.83114197688E+03  0.10100000352E+00 0.  1.
       -3    1    3    3    0  502  0.63877462622E+03 -0.45931738207E+03 -0.17156810554E+02  0.78695606416E+03  0.10100000352E+00 0. -1.
</event>
<event>
 5   0  0.3042125E-05  0.1615510E+04  0.7818609E-02  0.8811076E-01
        3   -1    0    0  501    0  0.00000000000E+00  0.00000000000E+00  0.86130504722E+03  0.86130505314E+03  0.10100000352E+00 0.  1.
       -3   -1    0    0    0  501  0.00000000000E+00  0.00000000000E+00 -0.75753413786E+03  0.75753414459E+03  0.10100000352E+00 0. -1.
    10030    2    1    2    0    0  0.00000000000E+00  0.00000000000E+00  0.10377090936E+03  0.16188391977E+04  0.16155098101E+04 0.  0.
        1    1    3    3  502    0 -0.38273502553E+03 -0.12118625747E+03  0.75425492823E+03  0.85444292118E+03  0.50400001928E-02 0.  1.
       -1    1    3    3    0  502  0.38273502553E+03  0.12118625747E+03 -0.65048401887E+03  0.76439627655E+03  0.50400001928E-02 0. -1.
</event>
<event>
 5   0  0.4211419E-05  0.1598917E+04  0.7818609E-02  0.8821214E-01
        1   -1    0    0  501    0  0.00000000000E+00  0.00000000000E+00  0.91963463039E+03  0.91963463040E+03  0.50400001928E-02 0.  1.
       -1   -1    0    0    0  501  0.00000000000E+00  0.00000000000E+00 -0.69498668911E+03  0.69498668913E+03  0.50400001928E-02 0. -1.
    10030    2    1    2    0    0  0.00000000000E+00  0.00000000000E+00  0.22464794128E+03  0.16146213195E+04  0.15989169172E+04 0.  0.
        2    1    3    3  502    0  0.58058820267E+03  0.54826025789E+03  0.73714218639E+02  0.80193874922E+03  0.25500000920E-02 0. -1.
       -2    1    3    3    0  502 -0.58058820267E+03 -0.54826025789E+03  0.15093372264E+03  0.81268257032E+03  0.25500000920E-02 0.  1.
</event>
<event>
 5   0  0.4504463E-05  0.1599374E+04  0.7818609E-02  0.8820933E-01
       -1   -1    0    0    0  501  0.00000000000E+00  0.00000000000E+00  0.38299747788E+03  0.38299747791E+03  0.50400001928E-02 0.  1.
        1   -1    0    0  501    0  0.00000000000E+00  0.00000000000E+00 -0.16697218696E+04  0.16697218696E+04  0.50400001928E-02 0. -1.
    10030    2    1    2    0    0  0.00000000000E+00  0.00000000000E+00 -0.12867243917E+04  0.20527193475E+04  0.15993739586E+04 0.  0.
        1    1    3    3  502    0  0.26213840889E+03 -0.50023102653E+03 -0.13700176816E+04  0.14818556182E+04  0.50400001928E-02 0. -1.
       -1    1    3    3    0  502 -0.26213840889E+03  0.50023102653E+03  0.83293289839E+02  0.57086372934E+03  0.50400001928E-02 0.  1.
</event>
<event>
 5   0  0.8694033E-05  0.1601629E+04  0.7818609E-02  0.8819548E-01
        2   -1    0    0  501    0  0.00000000000E+00  0.00000000000E+00  0.20461303307E+04  0.20461303307E+04  0.25500000920E-02 0. -1.
       -2   -1    0    0    0  501  0.00000000000E+00  0.00000000000E+00 -0.31342274108E+03  0.31342274109E+03  0.25500000920E-02 0.  1.
    10030    2    1    2    0    0  0.00000000000E+00  0.00000000000E+00  0.17327075897E+04  0.23595530718E+04  0.16016288919E+04 0.  0.
        1    1    3    3  502    0 -0.76038740631E+03  0.25121712388E+03  0.86955643409E+03  0.11821283530E+04  0.50400001928E-02 0.  1.
       -1    1    3    3    0  502  0.76038740631E+03 -0.25121712388E+03  0.86315115557E+03  0.11774247188E+04  0.50400001928E-02 0. -1.
</event>
<event>
 5   0  0.4256406E-05  0.1621705E+04  0.7818609E-02  0.8807323E-01
        1   -1    0    0  501    0  0.00000000000E+00  0.00000000000E+00  0.97603383492E+03  0.97603383493E+03  0.50400001928E-02 0. -1.
       -1   -1    0    0    0  501  0.00000000000E+00  0.00000000000E+00 -0.67362627517E+03  0.67362627518E+03  0.50400001928E-02 0.  1.
    10030    2    1    2    0    0  0.00000000000E+00  0.00000000000E+00  0.30240755976E+03  0.16496601101E+04  0.16217053206E+04 0.  0.
        3    1    3    3  502    0 -0.48662539211E+03  0.64712807386E+03  0.10682829655E+03  0.81669536020E+03  0.10100000352E+00 0. -1.
       -3    1    3    3    0  502  0.48662539211E+03 -0.64712807386E+03  0.19557926320E+03  0.83296474992E+03  0.10100000352E+00 0.  1.
</event>
<event>
 5   0  0.7901257E-05  0.1596874E+04  0.7818609E-02  0.8822471E-01
        2   -1    0    0  501    0  0.00000000000E+00  0.00000000000E+00  0.93931865986E+03  0.93931865986E+03  0.25500000920E-02 0.  1.
       -2   -1    0    0    0  501  0.00000000000E+00  0.00000000000E+00 -0.67868488344E+03  0.67868488345E+03  0.25500000920E-02 0. -1.
    10030    2    1    2    0    0  0.00000000000E+00  0.00000000000E+00  0.26063377642E+03  0.16180035433E+04  0.15968736646E+04 0.  0.
        2    1    3    3  502    0 -0.11390329267E+03 -0.63446197508E+03  0.60770448641E+03  0.88590106711E+03  0.25500000920E-02 0.  1.
       -2    1    3    3    0  502  0.11390329267E+03  0.63446197508E+03 -0.34707070999E+03  0.73210247619E+03  0.25500000920E-02 0. -1.
</event>
<event>
 5   0  0.4314657E-05  0.1601372E+04  0.7818609E-02  0.8819706E-01
        1   -1    0    0  501    0  0.00000000000E+00  0.00000000000E+00  0.46928968755E+03  0.46928968757E+03  0.50400001928E-02 0.  1.
       -1   -1    0    0    0  501  0.00000000000E+00  0.00000000000E+00 -0.13661029933E+04  0.13661029933E+04  0.50400001928E-02 0. -1.
    10030    2    1    2    0    0  0.00000000000E+00  0.00000000000E+00 -0.89681330571E+03  0.18353926808E+04  0.16013719704E+04 0.  0.
        5    1    3    3  502    0  0.52055053824E+03  0.74213670441E+02  0.24365116718E+03  0.57954164044E+03  0.46999998093E+01 0.  1.
       -5    1    3    3    0  502 -0.52055053824E+03 -0.74213670441E+02 -0.11404644729E+04  0.12558510404E+04  0.46999998093E+01 0. -1.
</event>
<event>
 5   0  0.8620155E-05  0.1597370E+04  0.7818609E-02  0.8822165E-01
       -2   -1    0    0    0  501  0.00000000000E+00  0.00000000000E+00  0.63140572116E+03  0.63140572117E+03  0.25500000920E-02 0. -1.
        2   -1    0    0  501    0  0.00000000000E+00  0.00000000000E+00 -0.10102815592E+04  0.10102815592E+04  0.25500000920E-02 0.  1.
    10030    2    1    2    0    0  0.00000000000E+00  0.00000000000E+00 -0.37887583801E+03  0.16416872803E+04  0.15973697837E+04 0.  0.
        4    1    3    3  502    0  0.45387359535E+03 -0.38302185255E+03  0.35940912026E+03  0.69417829749E+03  0.12699999809E+01 0. -1.
       -4    1    3    3    0  502 -0.45387359535E+03  0.38302185255E+03 -0.73828495827E+03  0.94750898286E+03  0.12699999809E+01 0.  1.
</event>
<event>
 5   0  0.8694033E-05  0.1583584E+04  0.7818609E-02  0.8830697E-01
       -2   -1    0    0    0  501  0.00000000000E+00  0.00000000000E+00  0.84110813966E+03  0.84110813967E+03  0.25500000920E-02 0. -1.
        2   -1    0    0  501    0  0.00000000000E+00  0.00000000000E+00 -0.74536728872E+03  0.74536728873E+03  0.25500000920E-02 0.  1.
    10030    2    1    2    0    0  0.00000000000E+00  0.00000000000E+00  0.95740850941E+02  0.15864754284E+04  0.15835839019E+04 0.  0.
        1    1    3    3  502    0 -0.90110194220E+02 -0.58196054297E+03  0.57811615254E+03  0.82523706080E+03  0.50400001928E-02 0. -1.
       -1    1    3    3    0  502  0.90110194220E+02  0.58196054297E+03 -0.48237530160E+03  0.76123836759E+03  0.50400001928E-02 0.  1.
</event>
<event>
 5   0  0.8694033E-05  0.1602001E+04  0.7818609E-02  0.8819320E-01
        2   -1    0    0  501    0  0.00000000000E+00  0.00000000000E+00  0.11536310758E+04  0.11536310758E+04  0.25500000920E-02 0.  1.
       -2   -1    0    0    0  501  0.00000000000E+00  0.00000000000E+00 -0.55615865542E+03  0.55615865542E+03  0.25500000920E-02 0. -1.
    10030    2    1    2    0    0  0.00000000000E+00  0.00000000000E+00  0.59747242039E+03  0.17097897312E+04  0.16020011335E+04 0.  0.
        1    1    3    3  502    0  0.50705054369E+02  0.61048750312E+03  0.84953725032E+03  0.10473679075E+04  0.50400001928E-02 0.  1.
       -1    1    3    3    0  502 -0.50705054369E+02 -0.61048750312E+03 -0.25206482993E+03  0.66242182370E+03  0.50400001928E-02 0. -1.
</event>
<event>
 5   0  0.4373026E-05  0.1599054E+04  0.7818609E-02  0.8821130E-01
       -1   -1    0    0    0  501  0.00000000000E+00  0.00000000000E+00  0.95383146376E+03  0.95383146377E+03  0.50400001928E-02 0.  1.
        1   -1    0    0  501    0  0.00000000000E+00  0.00000000000E+00 -0.67018450298E+03  0.67018450300E+03  0.50400001928E-02 0. -1.
    10030    2    1    2    0    0  0.00000000000E+00  0.00000000000E+00  0.28364696077E+03  0.16240159668E+04  0.15990535519E+04 0.  0.
        4    1    3    3  502    0 -0.42057110427E+03  0.13510867323E+03  0.81864026091E+03  0.93021927362E+03  0.12699999809E+01 0.  1.
       -4    1    3    3    0  502  0.42057110427E+03 -0.13510867323E+03 -0.53499330014E+03  0.69379669315E+03  0.12699999809E+01 0. -1.
</event>
<event>
 5   0  0.8620155E-05  0.1598766E+04  0.7818609E-02  0.8821306E-01
       -2   -1    0    0    0  501  0.00000000000E+00  0.00000000000E+00  0.46033947653E+03  0.46033947654E+03  0.25500000920E-02 0. -1.
        2   -1    0    0  501    0  0.00000000000E+00  0.00000000000E+00 -0.13881348953E+04  0.13881348953E+04  0.25500000920E-02 0.  1.
    10030    2    1    2    0    0  0.00000000000E+00  0.00000000000E+00 -0.92779541879E+03  0.18484743719E+04  0.15987661381E+04 0.  0.
        4    1    3    3  502    0  0.24803542935E+03  0.70714540219E+03 -0.14216256639E+03  0.76275028825E+03  0.12699999809E+01 0. -1.
       -4    1    3    3    0  502 -0.24803542935E+03 -0.70714540219E+03 -0.78563285240E+03  0.10857240836E+04  0.12699999809E+01 0.  1.
</event>
<event>
 5   0  0.8620155E-05  0.1600306E+04  0.7818609E-02  0.8820360E-01
       -2   -1    0    0    0  501  0.00000000000E+00  0.00000000000E+00  0.90246942181E+03  0.90246942182E+03  0.25500000920E-02 0.  1.
        2   -1    0    0  501    0  0.00000000000E+00  0.00000000000E+00 -0.70943685368E+03  0.70943685369E+03  0.25500000920E-02 0. -1.
    10030    2    1    2    0    0  0.00000000000E+00  0.00000000000E+00  0.19303256813E+03  0.16119062755E+04  0.16003063046E+04 0.  0.
        4    1    3    3  502    0 -0.50572796212E+03  0.20918891769E+03 -0.49142937875E+03  0.73554416737E+03  0.12699999809E+01 0. -1.
       -4    1    3    3    0  502  0.50572796212E+03 -0.20918891769E+03  0.68446194688E+03  0.87636210814E+03  0.12699999809E+01 0.  1.
</event>
<event>
 5   0  0.4211419E-05  0.1608027E+04  0.7818609E-02  0.8815632E-01
       -1   -1    0    0    0  501  0.00000000000E+00  0.00000000000E+00  0.96913370347E+03  0.96913370348E+03  0.50400001928E-02 0.  1.
        1   -1    0    0  501    0  0.00000000000E+00  0.00000000000E+00 -0.66702630518E+03  0.66702630519E+03  0.50400001928E-02 0. -1.
    10030    2    1    2    0    0  0.00000000000E+00  0.00000000000E+00  0.30210739829E+03  0.16361600087E+04  0.16080269568E+04 0.  0.
        2    1    3    3  502    0 -0.46370120892E+03 -0.61077214629E+03  0.39689256072E+03  0.86347271561E+03  0.25500000920E-02 0.  1.
       -2    1    3    3    0  502  0.46370120892E+03  0.61077214629E+03 -0.94785162429E+02  0.77268729306E+03  0.25500000920E-02 0. -1.
</event>
<event>
 5   0  0.8694033E-05  0.1599527E+04  0.7818609E-02  0.8820839E-01
        2   -1    0    0  501    0  0.00000000000E+00  0.00000000000E+00  0.12404279192E+04  0.12404279192E+04  0.25500000920E-02 0. -1.
       -2   -1    0    0    0  501  0.00000000000E+00  0.00000000000E+00 -0.51564599720E+03  0.51564599721E+03  0.25500000920E-02 0.  1.
    10030    2    1    2    0    0  0.00000000000E+00  0.00000000000E+00  0.72478192200E+03  0.17560739164E+04  0.15995270443E+04 0.  0.
        1    1    3    3  502    0  0.19604550408E+03  0.53252093245E+03 -0.25633425467E+03  0.62267136863E+03  0.50400001928E-02 0.  1.
       -1    1    3    3    0  502 -0.19604550408E+03 -0.53252093245E+03  0.98111617668E+03  0.11334025478E+04  0.50400001928E-02 0. -1.
</event>
<event>
 5   0  0.4314657E-05  0.1596181E+04  0.7818609E-02  0.8822897E-01
        1   -1    0    0  501    0  0.00000000000E+00  0.00000000000E+00  0.13401391220E+04  0.13401391220E+04  0.50400001928E-02 0.  1.
       -1   -1    0    0    0  501  0.00000000000E+00  0.00000000000E+00 -0.47528544448E+03  0.47528544450E+03  0.50400001928E-02 0. -1.
    10030    2    1    2    0    0  0.00000000000E+00  0.00000000000E+00  0.86485367754E+03  0.18154245665E+04  0.15961812157E+04 0.  0.
        5    1    3    3  502    0  0.56393027825E+03  0.27927647991E+03  0.99067444190E+03  0.11736569562E+04  0.46999998093E+01 0.  1.
       -5    1    3    3    0  502 -0.56393027825E+03 -0.27927647991E+03 -0.12582076436E+03  0.64176761035E+03  0.46999998093E+01 0. -1.
</event>
<event>
 5   0  0.4314657E-05  0.1600101E+04  0.7818609E-02  0.8820486E-01
        1   -1    0    0  501    0  0.00000000000E+00  0.00000000000E+00  0.12454752289E+04  0.12454752289E+04  0.50400001928E-02 0. -1.
       -1   -1    0    0    0  501  0.00000000000E+00  0.00000000000E+00 -0.51392491405E+03  0.51392491408E+03  0.50400001928E-02 0.  1.
    10030    2    1    2    0    0  0.00000000000E+00  0.00000000000E+00  0.73155031484E+03  0.17594001430E+04  0.16001009343E+04 0.  0.
        5    1    3    3  502    0  0.24481006646E+03 -0.28096080082E+03 -0.41265106034E+03  0.55603410672E+03  0.46999998093E+01 0.  1.
       -5    1    3    3    0  502 -0.24481006646E+03  0.28096080082E+03  0.11442013752E+04  0.12033660362E+04  0.46999998093E+01 0. -1.
</event>
<event>
 5   0  0.4314657E-05  0.1601862E+04  0.7818609E-02  0.8819405E-01
       -1   -1    0    0    0  501  0.00000000000E+00  0.00000000000E+00  0.10981577243E+04  0.10981577243E+04  0.50400001928E-02 0.  1.
        1   -1    0    0  501    0  0.00000000000E+00  0.00000000000E+00 -0.58415154938E+03  0.58415154941E+03  0.50400001928E-02 0. -1.
    10030    2    1    2    0    0  0.00000000000E+00  0.00000000000E+00  0.51400617495E+03  0.16823092738E+04  0.16018620867E+04 0.  0.
        5    1    3    3  502    0  0.48818867662E+01  0.65915420902E+03 -0.22077286093E+03  0.69517684816E+03  0.46999998093E+01 0. -1.
       -5    1    3    3    0  502 -0.48818867662E+01 -0.65915420902E+03  0.73477903588E+03  0.98713242559E+03  0.46999998093E+01 0.  1.
</event>
<event>
 5   0  0.4211419E-05  0.1590610E+04  0.7818609E-02  0.8826338E-01
       -1   -1    0    0    0  501  0.00000000000E+00  0.00000000000E+00  0.72201170007E+03  0.72201170009E+03  0.50400001928E-02 0.  1.
        1   -1    0    0  501    0  0.00000000000E+00  0.00000000000E+00 -0.87603813261E+03  0.87603813262E+03  0.50400001928E-02 0. -1.
    10030    2    1    2    0    0  0.00000000000E+00  0.00000000000E+00 -0.15402643253E+03  0.15980498327E+04  0.15906096711E+04 0.  0.
        2    1    3    3  502    0 -0.35915466851E+03 -0.30338027152E+03  0.56745287363E+03  0.73690869777E+03  0.25500000920E-02 0.  1.
       -2    1    3    3    0  502  0.35915466851E+03  0.30338027152E+03 -0.72147930616E+03  0.86114113494E+03  0.25500000920E-02 0. -1.
</event>
<event>
 5   0  0.7849690E-05  0.1599016E+04  0.7818609E-02  0.8821153E-01
        2   -1    0    0  501    0  0.00000000000E+00  0.00000000000E+00  0.29159783229E+04  0.29159783229E+04  0.25500000920E-02 0. -1.
       -2   -1    0    0    0  501  0.00000000000E+00  0.00000000000E+00 -0.21921054926E+03  0.21921054927E+03  0.25500000920E-02 0.  1.
    10030    2    1    2    0    0  0.00000000000E+00  0.00000000000E+00  0.26967677736E+04  0.31351888722E+04  0.15990162098E+04 0.  0.
        3    1    3    3  502    0 -0.28123936189E+03  0.45352019639E+03  0.25156782833E+04  0.25716557667E+04  0.10100000352E+00 0. -1.
       -3    1    3    3    0  502  0.28123936189E+03 -0.45352019639E+03  0.18108949032E+03  0.56353310544E+03  0.10100000352E+00 0.  1.
</event>
<event>
 5   0  0.8037548E-05  0.1596066E+04  0.7818609E-02  0.8822968E-01
        2   -1    0    0  501    0  0.00000000000E+00  0.00000000000E+00  0.88473323508E+03  0.88473323509E+03  0.25500000920E-02 0.  1.
       -2   -1    0    0    0  501  0.00000000000E+00  0.00000000000E+00 -0.71982934597E+03  0.71982934598E+03  0.25500000920E-02 0. -1.
    10030    2    1    2    0    0  0.00000000000E+00  0.00000000000E+00  0.16490388911E+03  0.16045625811E+04  0.15960663470E+04 0.  0.
        5    1    3    3  502    0 -0.15263193369E+03 -0.62579887581E+03 -0.39113332291E+03  0.75361004932E+03  0.46999998093E+01 0. -1.
       -5    1    3    3    0  502  0.15263193369E+03  0.62579887581E+03  0.55603721202E+03  0.85095253175E+03  0.46999998093E+01 0.  1.
</event>
<event>
 5   0  0.7901257E-05  0.1598680E+04  0.7818609E-02  0.8821359E-01
        2   -1    0    0  501    0  0.00000000000E+00  0.00000000000E+00  0.19366116960E+04  0.19366116960E+04  0.25500000920E-02 0. -1.
       -2   -1    0    0    0  501  0.00000000000E+00  0.00000000000E+00 -0.32992914318E+03  0.32992914319E+03  0.25500000920E-02 0.  1.
    10030    2    1    2    0    0  0.00000000000E+00  0.00000000000E+00  0.16066825528E+04  0.22665408392E+04  0.15986802526E+04 0.  0.
        2    1    3    3  502    0 -0.47117018281E+03  0.64190411367E+03  0.90260865212E+03  0.12036380732E+04  0.25500000920E-02 0. -1.
       -2    1    3    3    0  502  0.47117018281E+03 -0.64190411367E+03  0.70407390070E+03  0.10629027660E+04  0.25500000920E-02 0.  1.
</event>
<event>
 5   0  0.4211419E-05  0.1597734E+04  0.7818609E-02  0.8821941E-01
       -1   -1    0    0    0  501  0.00000000000E+00  0.00000000000E+00  0.68781885652E+03  0.68781885654E+03  0.50400001928E-02 0. -1.
        1   -1    0    0  501    0  0.00000000000E+00  0.00000000000E+00 -0.92784364711E+03  0.92784364712E+03  0.50400001928E-02 0.  1.
    10030    2    1    2    0    0  0.00000000000E+00  0.00000000000E+00 -0.24002479059E+03  0.16156625037E+04  0.15977338407E+04 0.  0.
        2    1    3    3  502    0  0.29089291144E+02  0.27911712043E+03  0.63633504341E+03  0.69546735456E+03  0.25500000920E-02 0. -1.
       -2    1    3    3    0  502 -0.29089291144E+02 -0.27911712043E+03 -0.87635983400E+03  0.92019514910E+03  0.25500000920E-02 0.  1.
</event>
<event>
 5   0  0.8694033E-05  0.1603483E+04  0.7818609E-02  0.8818411E-01
        2   -1    0    0  501    0  0.00000000000E+00  0.00000000000E+00  0.11988713765E+04  0.11988713765E+04  0.25500000920E-02 0. -1.
       -2   -1    0    0    0  501  0.00000000000E+00  0.00000000000E+00 -0.53616198839E+03  0.53616198840E+03  0.25500000920E-02 0.  1.
    10030    2    1    2    0    0  0.00000000000E+00  0.00000000000E+00  0.66270938813E+03  0.17350333649E+04  0.16034827858E+04 0.  0.
        1    1    3    3  502    0 -0.64227878882E+03  0.43194302386E+03  0.10517860452E+03  0.78112697899E+03  0.50400001928E-02 0.  1.
       -1    1    3    3    0  502  0.64227878882E+03 -0.43194302386E+03  0.55753078361E+03  0.95390638593E+03  0.50400001928E-02 0. -1.
</event>
<event>
 5   0  0.3042125E-05  0.1600381E+04  0.7818609E-02  0.8820314E-01
        3   -1    0    0  501    0  0.00000000000E+00  0.00000000000E+00  0.13377157729E+04  0.13377157768E+04  0.10100000352E+00 0. -1.
       -3   -1    0    0    0  501  0.00000000000E+00  0.00000000000E+00 -0.47865564419E+03  0.47865565485E+03  0.10100000352E+00 0.  1.
    10030    2    1    2    0    0  0.00000000000E+00  0.00000000000E+00  0.85906012875E+03  0.18163714316E+04  0.16003814773E+04 0.  0.
        3    1    3    3  502    0  0.15556870819E+03  0.32852870691E+03 -0.37954108466E+03  0.52553228195E+03  0.10100000352E+00 0.  1.
       -3    1    3    3    0  502 -0.15556870819E+03 -0.32852870691E+03  0.12386012134E+04  0.12908391497E+04  0.10100000352E+00 0. -1.
</event>
<event>
 5   0  0.3042125E-05  0.1597050E+04  0.7818609E-02  0.8822363E-01
        4   -1    0    0  501    0  0.00000000000E+00  0.00000000000E+00  0.10384475506E+04  0.10384483272E+04  0.12699999809E+01 0. -1.
       -4   -1    0    0    0  501  0.00000000000E+00  0.00000000000E+00 -0.61403211674E+03  0.61403343011E+03  0.12699999809E+01 0.  1.
    10030    2    1    2    0    0  0.00000000000E+00  0.00000000000E+00  0.42441543384E+03  0.16524817573E+04  0.15970496228E+04 0.  0.
        5    1    3    3  502    0 -0.41033537133E+03  0.62458029707E+02 -0.49363049297E+03  0.64495680167E+03  0.46999998093E+01 0.  1.
       -5    1    3    3    0  502  0.41033537133E+03 -0.62458029707E+02  0.91804592681E+03  0.10075249556E+04  0.46999998093E+01 0. -1.
</event>
<event>
 5   0  0.4504463E-05  0.1599296E+04  0.7818609E-02  0.8820981E-01
        1   -1    0    0  501    0  0.00000000000E+00  0.00000000000E+00  0.90610086810E+03  0.90610086811E+03  0.50400001928E-02 0.  1.
       -1   -1    0    0    0  501  0.00000000000E+00  0.00000000000E+00 -0.70570178693E+03  0.70570178694E+03  0.50400001928E-02 0. -1.
    10030    2    1    2    0    0  0.00000000000E+00  0.00000000000E+00  0.20039908117E+03  0.16118026551E+04  0.15992960974E+04 0.  0.
        1    1    3    3  502    0  0.75473769813E+03  0.25724133747E+03  0.39437911919E+02  0.79834669637E+03  0.50400001928E-02 0. -1.
       -1    1    3    3    0  502 -0.75473769813E+03 -0.25724133747E+03  0.16096116925E+03  0.81345595868E+03  0.50400001928E-02 0.  1.
</event>
<event>
 5   0  0.4256406E-05  0.1610041E+04  0.7818609E-02  0.8814403E-01
       -1   -1    0    0    0  501  0.00000000000E+00  0.00000000000E+00  0.60433891097E+03  0.60433891099E+03  0.50400001928E-02 0. -1.
        1   -1    0    0  501    0  0.00000000000E+00  0.00000000000E+00 -0.10723424008E+04  0.10723424008E+04  0.50400001928E-02 0.  1.
    10030    2    1    2    0    0  0.00000000000E+00  0.00000000000E+00 -0.46800348981E+03  0.16766813118E+04  0.16100412898E+04 0.  0.
        3    1    3    3  502    0  0.41136814171E+03 -0.42599448267E+03 -0.80188244245E+03  0.99685029417E+03  0.10100000352E+00 0. -1.
       -3    1    3    3    0  502 -0.41136814171E+03  0.42599448267E+03  0.33387895265E+03  0.67983101761E+03  0.10100000352E+00 0.  1.
</event>
<event>
 5   0  0.4211419E-05  0.1592993E+04  0.7818609E-02  0.8824864E-01
        1   -1    0    0  501    0  0.00000000000E+00  0.00000000000E+00  0.15408308034E+04  0.15408308034E+04  0.50400001928E-02 0. -1.
       -1   -1    0    0    0  501  0.00000000000E+00  0.00000000000E+00 -0.41173019968E+03  0.41173019971E+03  0.50400001928E-02 0.  1.
    10030    2    1    2    0    0  0.00000000000E+00  0.00000000000E+00  0.11291006037E+04  0.19525610031E+04  0.15929928743E+04 0.  0.
        2    1    3    3  502    0  0.71832726903E+03  0.33315401303E+03  0.67013948632E+03  0.10373391890E+04  0.25500000920E-02 0.  1.
       -2    1    3    3    0  502 -0.71832726903E+03 -0.33315401303E+03  0.45896111742E+03  0.91522181417E+03  0.25500000920E-02 0. -1.
</event>
<event>
 5   0  0.4256406E-05  0.1598942E+04  0.7818609E-02  0.8821198E-01
       -1   -1    0    0    0  501  0.00000000000E+00  0.00000000000E+00  0.57796208411E+03  0.57796208413E+03  0.50400001928E-02 0.  1.
        1   -1    0    0  501    0  0.00000000000E+00  0.00000000000E+00 -0.11058750919E+04  0.11058750919E+04  0.50400001928E-02 0. -1.
    10030    2    1    2    0    0  0.00000000000E+00  0.00000000000E+00 -0.52791300775E+03  0.16838371760E+04  0.15989419913E+04 0.  0.
        3    1    3    3  502    0 -0.50438165943E+03 -0.61470104811E+03 -0.17650762871E+03  0.81450180485E+03  0.10100000352E+00 0. -1.
       -3    1    3    3    0  502  0.50438165943E+03  0.61470104811E+03 -0.35140537903E+03  0.86933537114E+03  0.10100000352E+00 0.  1.
</event>
<event>
 5   0  0.4373026E-05  0.1602016E+04  0.7818609E-02  0.8819310E-01
       -1   -1    0    0    0  501  0.00000000000E+00  0.00000000000E+00  0.49995198709E+03  0.49995198712E+03  0.50400001928E-02 0.  1.
        1   -1    0    0  501    0  0.00000000000E+00  0.00000000000E+00 -0.12833508925E+04  0.12833508926E+04  0.50400001928E-02 0. -1.
    10030    2    1    2    0    0  0.00000000000E+00  0.00000000000E+00 -0.78339890545E+03  0.17833028797E+04  0.16020160160E+04 0.  0.
        4    1    3    3  502    0 -0.60707682859E+02 -0.14848922470E+03  0.48188623897E+03  0.50788820898E+03  0.12699999809E+01 0.  1.
       -4    1    3    3    0  502  0.60707682859E+02  0.14848922470E+03 -0.12652851444E+04  0.12754146707E+04  0.12699999809E+01 0. -1.
</event>
<event>
 5   0  0.4211419E-05  0.1599598E+04  0.7818609E-02  0.8820795E-01
        1   -1    0    0  501    0  0.00000000000E+00  0.00000000000E+00  0.22829049719E+04  0.22829049720E+04  0.50400001928E-02 0. -1.
       -1   -1    0    0    0  501  0.00000000000E+00  0.00000000000E+00 -0.28020385775E+03  0.28020385780E+03  0.50400001928E-02 0.  1.
    10030    2    1    2    0    0  0.00000000000E+00  0.00000000000E+00  0.20027011142E+04  0.25631088297E+04  0.15995984247E+04 0.  0.
        2    1    3    3  502    0  0.24988246472E+03  0.66749957536E+02  0.22140432230E+04  0.22290994138E+04  0.25500000920E-02 0. -1.
       -2    1    3    3    0  502 -0.24988246472E+03 -0.66749957536E+02 -0.21134210883E+03  0.33400941599E+03  0.25500000920E-02 0.  1.
</event>
<event>
 5   0  0.7901257E-05  0.1599530E+04  0.7818609E-02  0.8820837E-01
        2   -1    0    0  501    0  0.00000000000E+00  0.00000000000E+00  0.80906167035E+03  0.80906167035E+03  0.25500000920E-02 0.  1.
       -2   -1    0    0    0  501  0.00000000000E+00  0.00000000000E+00 -0.79057510785E+03  0.79057510785E+03  0.25500000920E-02 0. -1.
    10030    2    1    2    0    0  0.00000000000E+00  0.00000000000E+00  0.18486562499E+02  0.15996367782E+04  0.15995299526E+04 0.  0.
        2    1    3    3  502    0 -0.25293985860E+03  0.75059108053E+03  0.11996867350E+03  0.80109801202E+03  0.25500000920E-02 0.  1.
       -2    1    3    3    0  502  0.25293985860E+03 -0.75059108053E+03 -0.10148211100E+03  0.79853876618E+03  0.25500000920E-02 0. -1.
</event>
<event>
 5   0  0.4211419E-05  0.1578709E+04  0.7818609E-02  0.8833736E-01
        1   -1    0    0  501    0  0.00000000000E+00  0.00000000000E+00  0.18780987716E+04  0.18780987717E+04  0.50400001928E-02 0. -1.
       -1   -1    0    0    0  501  0.00000000000E+00  0.00000000000E+00 -0.33176113844E+03  0.33176113848E+03  0.50400001928E-02 0.  1.
    10030    2    1    2    0    0  0.00000000000E+00  0.00000000000E+00  0.15463376332E+04  0.22098599101E+04  0.15787085692E+04 0.  0.
        2    1    3    3  502    0 -0.47709874345E+03 -0.16988440748E+03 -0.74364528874E+02  0.51187303706E+03  0.25500000920E-02 0.  1.
       -2    1    3    3    0  502  0.47709874345E+03  0.16988440748E+03  0.16207021621E+04  0.16979868731E+04  0.25500000920E-02 0. -1.
</event>
<event>
 5   0  0.4314657E-05  0.1602465E+04  0.7818609E-02  0.8819035E-01
        1   -1    0    0  501    0  0.00000000000E+00  0.00000000000E+00  0.43069694327E+03  0.43069694329E+03  0.50400001928E-02 0. -1.
       -1   -1    0    0    0  501  0.00000000000E+00  0.00000000000E+00 -0.14905465205E+04  0.14905465205E+04  0.50400001928E-02 0.  1.
    10030    2    1    2    0    0  0.00000000000E+00  0.00000000000E+00 -0.10598495772E+04  0.19212434638E+04  0.16024653883E+04 0.  0.
        5    1    3    3  502    0  0.27701040901E+03 -0.67336993565E+03 -0.93078692362E+03  0.11817564149E+04  0.46999998093E+01 0.  1.
       -5    1    3    3    0  502 -0.27701040901E+03  0.67336993565E+03 -0.12906265359E+03  0.73948704890E+03  0.46999998093E+01 0. -1.
</event>
<event>
 5   0  0.3042125E-05  0.1596061E+04  0.7818609E-02  0.8822971E-01
       -3   -1    0    0    0  501  0.00000000000E+00  0.00000000000E+00  0.57315202591E+03  0.57315203481E+03  0.10100000352E+00 0.  1.
        3   -1    0    0  501    0  0.00000000000E+00  0.00000000000E+00 -0.11111410174E+04  0.11111410220E+04  0.10100000352E+00 0. -1.
    10030    2    1    2    0    0  0.00000000000E+00  0.00000000000E+00 -0.53798899153E+03  0.16842930568E+04  0.15960610722E+04 0.  0.
        1    1    3    3  502    0 -0.33938372041E+03  0.50991305237E+03  0.27081051232E+03  0.66972454357E+03  0.50400001928E-02 0.  1.
       -1    1    3    3    0  502  0.33938372041E+03 -0.50991305237E+03 -0.80879950385E+03  0.10145685133E+04  0.50400001928E-02 0. -1.
</event>
<event>
 5   0  0.7849690E-05  0.1599907E+04  0.7818609E-02  0.8820605E-01
        2   -1    0    0  501    0  0.00000000000E+00  0.00000000000E+00  0.76036822347E+03  0.76036822347E+03  0.25500000920E-02 0.  1.
       -2   -1    0    0    0  501  0.00000000000E+00  0.00000000000E+00 -0.84159967204E+03  0.84159967204E+03  0.25500000920E-02 0. -1.
    10030    2    1    2    0    0  0.00000000000E+00  0.00000000000E+00 -0.81231448573E+02  0.16019678955E+04  0.15999070567E+04 0.  0.
        3    1    3    3  502    0 -0.27515828886E+03  0.73921124591E+03 -0.17413022666E+03  0.80775410618E+03  0.10100000352E+00 0. -1.
       -3    1    3    3    0  502  0.27515828886E+03 -0.73921124591E+03  0.92898778085E+02  0.79421378934E+03  0.10100000352E+00 0.  1.
</event>
<event>
 5   0  0.7849690E-05  0.1600856E+04  0.7818609E-02  0.8820022E-01
        2   -1    0    0  501    0  0.00000000000E+00  0.00000000000E+00  0.12596131310E+04  0.12596131310E+04  0.25500000920E-02 0. -1.
       -2   -1    0    0    0  501  0.00000000000E+00  0.00000000000E+00 -0.50863629999E+03  0.50863630000E+03  0.25500000920E-02 0.  1.
    10030    2    1    2    0    0  0.00000000000E+00  0.00000000000E+00  0.75097683104E+03  0.17682494310E+04  0.16008559740E+04 0.  0.
        3    1    3    3  502    0 -0.11707853517E+03 -0.65245194551E+03  0.87104804884E+03  0.10945892555E+04  0.10100000352E+00 0. -1.
       -3    1    3    3    0  502  0.11707853517E+03  0.65245194551E+03 -0.12007121780E+03  0.67366017557E+03  0.10100000352E+00 0.  1.
</event>
<event>
 5   0  0.8620155E-05  0.1598003E+04  0.7818609E-02  0.8821776E-01
       -2   -1    0    0    0  501  0.00000000000E+00  0.00000000000E+00  0.39562207509E+03  0.39562207510E+03  0.25500000920E-02 0.  1.
        2   -1    0    0  501    0  0.00000000000E+00  0.00000000000E+00 -0.16136697378E+04  0.16136697378E+04  0.25500000920E-02 0. -1.
    10030    2    1    2    0    0  0.00000000000E+00  0.00000000000E+00 -0.12180476627E+04  0.20092918129E+04  0.15980029664E+04 0.  0.
        4    1    3    3  502    0  0.27425297253E+03 -0.58202249819E+03 -0.12047031758E+04  0.13657511618E+04  0.12699999809E+01 0. -1.
       -4    1    3    3    0  502 -0.27425297253E+03  0.58202249819E+03 -0.13344486910E+02  0.64354065107E+03  0.12699999809E+01 0.  1.
</event>
<event>
 5   0  0.7849690E-05  0.1600250E+04  0.7818609E-02  0.8820394E-01
       -2   -1    0    0    0  501  0.00000000000E+00  0.00000000000E+00  0.33734267315E+03  0.33734267316E+03  0.25500000920E-02 0.  1.
        2   -1    0    0  501    0  0.00000000000E+00  0.00000000000E+00 -0.18977743985E+04  0.18977743985E+04  0.25500000920E-02 0. -1.
    10030    2    1    2    0    0  0.00000000000E+00  0.00000000000E+00 -0.15604317254E+04  0.22351170717E+04  0.16002503412E+04 0.  0.
        3    1    3    3  502    0  0.37464033675E+03  0.70219145173E+03 -0.66527543785E+03  0.10373136629E+04  0.10100000352E+00 0.  1.
       -3    1    3    3    0  502 -0.37464033675E+03 -0.70219145173E+03 -0.89515628751E+03  0.11978034088E+04  0.10100000352E+00 0. -1.
</event>
<event>
 5   0  0.8694033E-05  0.1616925E+04  0.7818609E-02  0.8810217E-01
        2   -1    0    0  501    0  0.00000000000E+00  0.00000000000E+00  0.86139824942E+03  0.86139824942E+03  0.25500000920E-02 0. -1.
       -2   -1    0    0    0  501  0.00000000000E+00  0.00000000000E+00 -0.75877953905E+03  0.75877953905E+03  0.25500000920E-02 0.  1.
    10030    2    1    2    0    0  0.00000000000E+00  0.00000000000E+00  0.10261871037E+03  0.16201777885E+04  0.16169246942E+04 0.  0.
        1    1    3    3  502    0  0.69151356714E+03 -0.18571091199E+03  0.42747349852E+03  0.83391435312E+03  0.50400001928E-02 0. -1.
       -1    1    3    3    0  502 -0.69151356714E+03  0.18571091199E+03 -0.32485478815E+03  0.78626343536E+03  0.50400001928E-02 0.  1.
</event>
<event>
 5   0  0.8037548E-05  0.1601305E+04  0.7818609E-02  0.8819747E-01
       -2   -1    0    0    0  501  0.00000000000E+00  0.00000000000E+00  0.58620534368E+03  0.58620534368E+03  0.25500000920E-02 0.  1.
        2   -1    0    0  501    0  0.00000000000E+00  0.00000000000E+00 -0.10935495207E+04  0.10935495207E+04  0.25500000920E-02 0. -1.
    10030    2    1    2    0    0  0.00000000000E+00  0.00000000000E+00 -0.50734417700E+03  0.16797548644E+04  0.16013051834E+04 0.  0.
        5    1    3    3  502    0  0.57455007033E+03 -0.39221436389E+02  0.32979366934E+03  0.66365055468E+03  0.46999998093E+01 0.  1.
       -5    1    3    3    0  502 -0.57455007033E+03  0.39221436389E+02 -0.83713784634E+03  0.10161043097E+04  0.46999998093E+01 0. -1.
</event>
<event>
 5   0  0.8037548E-05  0.1619426E+04  0.7818609E-02  0.8808702E-01
        2   -1    0    0  501    0  0.00000000000E+00  0.00000000000E+00  0.86670609866E+03  0.86670609866E+03  0.25500000920E-02 0. -1.
       -2   -1    0    0    0  501  0.00000000000E+00  0.00000000000E+00 -0.75646747316E+03  0.75646747316E+03  0.25500000920E-02 0.  1.
    10030    2    1    2    0    0  0.00000000000E+00  0.00000000000E+00  0.11023862550E+03  0.16231735718E+04  0.16194257901E+04 0.  0.
        5    1    3    3  502    0  0.25517988571E+03  0.14197323325E+03 -0.70183682825E+03  0.76017774008E+03  0.46999998093E+01 0.  1.
       -5    1    3    3    0  502 -0.25517988571E+03 -0.14197323325E+03  0.81207545375E+03  0.86299583174E+03  0.46999998093E+01 0. -1.
</event>
<event>
 5   0  0.4256406E-05  0.1601609E+04  0.7818609E-02  0.8819560E-01
       -1   -1    0    0    0  501  0.00000000000E+00  0.00000000000E+00  0.10880536210E+04  0.10880536210E+04  0.50400001928E-02 0.  1.
        1   -1    0    0  501    0  0.00000000000E+00  0.00000000000E+00 -0.58938977311E+03  0.58938977313E+03  0.50400001928E-02 0. -1.
    10030    2    1    2    0    0  0.00000000000E+00  0.00000000000E+00  0.49866384790E+03  0.16774433942E+04  0.16016087872E+04 0.  0.
        3    1    3    3  502    0  0.59091768145E+03 -0.20639960123E+03  0.77248581564E+03  0.99424285122E+03  0.10100000352E+00 0.  1.
       -3    1    3    3    0  502 -0.59091768145E+03  0.20639960123E+03 -0.27382196774E+03  0.68320054293E+03  0.10100000352E+00 0. -1.
</event>
<event>
 5   0  0.4504463E-05  0.1590348E+04  0.7818609E-02  0.8826500E-01
       -1   -1    0    0    0  501  0.00000000000E+00  0.00000000000E+00  0.90428236337E+03  0.90428236339E+03  0.50400001928E-02 0.  1.
        1   -1    0    0  501    0  0.00000000000E+00  0.00000000000E+00 -0.69923018336E+03  0.69923018338E+03  0.50400001928E-02 0. -1.
    10030    2    1    2    0    0  0.00000000000E+00  0.00000000000E+00  0.20505218001E+03  0.16035125468E+04  0.15903477894E+04 0.  0.
        1    1    3    3  502    0  0.67131259790E+03 -0.41576752461E+03  0.19699416591E+03  0.81383655610E+03  0.50400001928E-02 0.  1.
       -1    1    3    3    0  502 -0.67131259790E+03  0.41576752461E+03  0.80580141036E+01  0.78967599067E+03  0.50400001928E-02 0. -1.
</event>
<event>
 5   0  0.4256406E-05  0.1600179E+04  0.7818609E-02  0.8820438E-01
        1   -1    0    0  501    0  0.00000000000E+00  0.00000000000E+00  0.14377270527E+04  0.14377270527E+04  0.50400001928E-02 0. -1.
       -1   -1    0    0    0  501  0.00000000000E+00  0.00000000000E+00 -0.44524658697E+03  0.44524658700E+03  0.50400001928E-02 0.  1.
    10030    2    1    2    0    0  0.00000000000E+00  0.00000000000E+00  0.99248046575E+03  0.18829736397E+04  0.16001788191E+04 0.  0.
        3    1    3    3  502    0  0.98397182406E+02  0.22639022250E+03 -0.39931668194E+03  0.46945538768E+03  0.10100000352E+00 0.  1.
       -3    1    3    3    0  502 -0.98397182406E+02 -0.22639022250E+03  0.13917971477E+04  0.14135182520E+04  0.10100000352E+00 0. -1.
</event>
<event>
 5   0  0.4504463E-05  0.1604347E+04  0.7818609E-02  0.8817882E-01
        1   -1    0    0  501    0  0.00000000000E+00  0.00000000000E+00  0.86497844207E+03  0.86497844209E+03  0.50400001928E-02 0. -1.
       -1   -1    0    0    0  501  0.00000000000E+00  0.00000000000E+00 -0.74392860516E+03  0.74392860518E+03  0.50400001928E-02 0.  1.
    10030    2    1    2    0    0  0.00000000000E+00  0.00000000000E+00  0.12104983691E+03  0.16089070473E+04  0.16043468527E+04 0.  0.
        1    1    3    3  502    0  0.42662426723E+03 -0.67100934998E+03 -0.45702521912E+02  0.79646125686E+03  0.50400001928E-02 0.  1.
       -1    1    3    3    0  502 -0.42662426723E+03  0.67100934998E+03  0.16675235882E+03  0.81244579041E+03  0.50400001928E-02 0. -1.
</event>
<event>
 5   0  0.4373026E-05  0.1601123E+04  0.7818609E-02  0.8819859E-01
        1   -1    0    0  501    0  0.00000000000E+00  0.00000000000E+00  0.12346782672E+04  0.12346782672E+04  0.50400001928E-02 0.  1.
       -1   -1    0    0    0  501  0.00000000000E+00  0.00000000000E+00 -0.51908131313E+03  0.51908131316E+03  0.50400001928E-02 0. -1.
    10030    2    1    2    0    0  0.00000000000E+00  0.00000000000E+00  0.71559695404E+03  0.17537595803E+04  0.16011226265E+04 0.  0.
        4    1    3    3  502    0  0.11999165820E+03 -0.56964549957E+03  0.95973535811E+03  0.11224916765E+04  0.12699999809E+01 0.  1.
       -4    1    3    3    0  502 -0.11999165820E+03  0.56964549957E+03 -0.24413840407E+03  0.63126790388E+03  0.12699999809E+01 0. -1.
</event>
<event>
 5   0  0.8620155E-05  0.1597093E+04  0.7818609E-02  0.8822336E-01
       -2   -1    0    0    0  501  0.00000000000E+00  0.00000000000E+00  0.41572036086E+03  0.41572036087E+03  0.25500000920E-02 0.  1.
        2   -1    0    0  501    0  0.00000000000E+00  0.00000000000E+00 -0.15339071082E+04  0.15339071082E+04  0.25500000920E-02 0. -1.
    10030    2    1    2    0    0  0.00000000000E+00  0.00000000000E+00 -0.11181867474E+04  0.19496274691E+04  0.15970928797E+04 0.  0.
        4    1    3    3  502    0 -0.11534234954E+02 -0.67223096045E+03 -0.10850691962E+04  0.12764812087E+04  0.12699999809E+01 0. -1.
       -4    1    3    3    0  502  0.11534234954E+02  0.67223096045E+03 -0.33117551162E+02  0.67314626038E+03  0.12699999809E+01 0.  1.
</event>
<event>
 5   0  0.8037548E-05  0.1598939E+04  0.7818609E-02  0.8821200E-01
       -2   -1    0    0    0  501  0.00000000000E+00  0.00000000000E+00  0.66550431073E+03  0.66550431074E+03  0.25500000920E-02 0.  1.
        2   -1    0    0  501    0  0.00000000000E+00  0.00000000000E+00 -0.96040160015E+03  0.96040160015E+03  0.25500000920E-02 0. -1.
    10030    2    1    2    0    0  0.00000000000E+00  0.00000000000E+00 -0.29489728942E+03  0.16259059109E+04  0.15989389043E+04 0.  0.
        5    1    3    3  502    0  0.95278976480E+02 -0.76576519884E+03 -0.35991002496E+03  0.85148795598E+03  0.46999998093E+01 0.  1.
       -5    1    3    3    0  502 -0.95278976480E+02  0.76576519884E+03  0.65012735549E+02  0.77441795491E+03  0.46999998093E+01 0. -1.
</event>
<event>
 5   0  0.4504463E-05  0.1599870E+04  0.7818609E-02  0.8820628E-01
        1   -1    0    0  501    0  0.00000000000E+00  0.00000000000E+00  0.63728384683E+03  0.63728384685E+03  0.50400001928E-02 0. -1.
       -1   -1    0    0    0  501  0.00000000000E+00  0.00000000000E+00 -0.10040988680E+04  0.10040988680E+04  0.50400001928E-02 0.  1.
    10030    2    1    2    0    0  0.00000000000E+00  0.00000000000E+00 -0.36681502115E+03  0.16413827148E+04  0.15998699812E+04 0.  0.
        1    1    3    3  502    0  0.29842268942E+03 -0.15814873594E+03 -0.92736372736E+03  0.98695015430E+03  0.50400001928E-02 0.  1.
       -1    1    3    3    0  502 -0.29842268942E+03  0.15814873594E+03  0.56054870620E+03  0.65443256054E+03  0.50400001928E-02 0. -1.
</event>
<event>
 5   0  0.7849690E-05  0.1598444E+04  0.7818609E-02  0.8821505E-01
        2   -1    0    0  501    0  0.00000000000E+00  0.00000000000E+00  0.12121713628E+04  0.12121713628E+04  0.25500000920E-02 0.  1.
       -2   -1    0    0    0  501  0.00000000000E+00  0.00000000000E+00 -0.52695162422E+03  0.52695162422E+03  0.25500000920E-02 0. -1.
    10030    2    1    2    0    0  0.00000000000E+00  0.00000000000E+00  0.68521973862E+03  0.17391229871E+04  0.15984438288E+04 0.  0.
        3    1    3    3  502    0 -0.52001262150E+03  0.36530803062E+02  0.10017392956E+04  0.11292604893E+04  0.10100000352E+00 0.  1.
       -3    1    3    3    0  502  0.52001262150E+03 -0.36530803062E+02 -0.31651955696E+03  0.60986249781E+03  0.10100000352E+00 0. -1.
</event>
<event>
 5   0  0.8694033E-05  0.1596920E+04  0.7818609E-02  0.8822442E-01
        2   -1    0    0  501    0  0.00000000000E+00  0.00000000000E+00  0.90246528246E+03  0.90246528246E+03  0.25500000920E-02 0. -1.
       -2   -1    0    0    0  501  0.00000000000E+00  0.00000000000E+00 -0.70644112756E+03  0.70644112757E+03  0.25500000920E-02 0.  1.
    10030    2    1    2    0    0  0.00000000000E+00  0.00000000000E+00  0.19602415490E+03  0.16089064100E+04  0.15969202757E+04 0.  0.
        1    1    3    3  502    0  0.70920954076E+03 -0.33962685060E+03  0.23766713927E+03  0.82146834356E+03  0.50400001928E-02 0. -1.
       -1    1    3    3    0  502 -0.70920954076E+03  0.33962685060E+03 -0.41642984369E+02  0.78743806647E+03  0.50400001928E-02 0.  1.
</event>
<event>
 5   0  0.7901257E-05  0.1600091E+04  0.7818609E-02  0.8820492E-01
       -2   -1    0    0    0  501  0.00000000000E+00  0.00000000000E+00  0.90868045417E+03  0.90868045417E+03  0.25500000920E-02 0. -1.
        2   -1    0    0  501    0  0.00000000000E+00  0.00000000000E+00 -0.70439841894E+03  0.70439841895E+03  0.25500000920E-02 0.  1.
    10030    2    1    2    0    0  0.00000000000E+00  0.00000000000E+00  0.20428203522E+03  0.16130788731E+04  0.16000913415E+04 0.  0.
        2    1    3    3  502    0  0.24885325339E+03  0.65982453307E+03  0.48306606216E+03  0.85478019197E+03  0.25500000920E-02 0. -1.
       -2    1    3    3    0  502 -0.24885325339E+03 -0.65982453307E+03 -0.27878402694E+03  0.75829868115E+03  0.25500000920E-02 0.  1.
</event>
<event>
 5   0  0.4211419E-05  0.1600658E+04  0.7818609E-02  0.8820144E-01
       -1   -1    0    0    0  501  0.00000000000E+00  0.00000000000E+00  0.12664933981E+04  0.12664933981E+04  0.50400001928E-02 0. -1.
        1   -1    0    0  501    0  0.00000000000E+00  0.00000000000E+00 -0.50574813921E+03  0.50574813924E+03  0.50400001928E-02 0.  1.
    10030    2    1    2    0    0  0.00000000000E+00  0.00000000000E+00  0.76074525884E+03  0.17722415373E+04  0.16006582139E+04 0.  0.
        2    1    3    3  502    0 -0.42347667388E+03 -0.64662671162E+03  0.15059800292E+03  0.78748863865E+03  0.25500000920E-02 0. -1.
       -2    1    3    3    0  502  0.42347667388E+03  0.64662671162E+03  0.61014725592E+03  0.98475289866E+03  0.25500000920E-02 0.  1.
</event>
<event>
 5   0  0.4373026E-05  0.1585271E+04  0.7818609E-02  0.8829648E-01
       -1   -1    0    0    0  501  0.00000000000E+00  0.00000000000E+00  0.83452345818E+03  0.83452345819E+03  0.50400001928E-02 0. -1.
        1   -1    0    0  501    0  0.00000000000E+00  0.00000000000E+00 -0.75284971238E+03  0.75284971240E+03  0.50400001928E-02 0.  1.
    10030    2    1    2    0    0  0.00000000000E+00  0.00000000000E+00  0.81673745795E+02  0.15873731706E+04  0.15852706337E+04 0.  0.
        4    1    3    3  502    0  0.25088127291E+03 -0.71900273826E+03  0.26104394272E+03  0.80501671017E+03  0.12699999809E+01 0. -1.
       -4    1    3    3    0  502 -0.25088127291E+03  0.71900273826E+03 -0.17937019693E+03  0.78235646042E+03  0.12699999809E+01 0.  1.
</event>
<event>
 5   0  0.8037548E-05  0.1599145E+04  0.7818609E-02  0.8821074E-01
        2   -1    0    0  501    0  0.00000000000E+00  0.00000000000E+00  0.18860104189E+04  0.18860104189E+04  0.25500000920E-02 0. -1.
       -2   -1    0    0    0  501  0.00000000000E+00  0.00000000000E+00 -0.33897788810E+03  0.33897788811E+03  0.25500000920E-02 0.  1.
    10030    2    1    2    0    0  0.00000000000E+00  0.00000000000E+00  0.15470325308E+04  0.22249883070E+04  0.15991445572E+04 0.  0.
        5    1    3    3  502    0  0.54711366696E+03  0.49286709038E+03  0.34008445176E+03  0.81112937173E+03  0.46999998093E+01 0.  1.
       -5    1    3    3    0  502 -0.54711366696E+03 -0.49286709038E+03  0.12069480790E+04  0.14138589353E+04  0.46999998093E+01 0. -1.
</event>
<event>
 5   0  0.3042125E-05  0.1598488E+04  0.7818609E-02  0.8821478E-01
       -4   -1    0    0    0  501  0.00000000000E+00  0.00000000000E+00  0.92311589431E+03  0.92311676792E+03  0.12699999809E+01 0.  1.
        4   -1    0    0  501    0  0.00000000000E+00  0.00000000000E+00 -0.69199232403E+03  0.69199348943E+03  0.12699999809E+01 0. -1.
    10030    2    1    2    0    0  0.00000000000E+00  0.00000000000E+00  0.23112357028E+03  0.16151102574E+04  0.15984877349E+04 0.  0.
        1    1    3    3  502    0  0.55337991888E+03 -0.54042265729E+03  0.31891263282E+03  0.83665479771E+03  0.50400001928E-02 0. -1.
       -1    1    3    3    0  502 -0.55337991888E+03  0.54042265729E+03 -0.87789062546E+02  0.77845545965E+03  0.50400001928E-02 0.  1.
</event>
<event>
 5   0  0.4314657E-05  0.1598096E+04  0.7818609E-02  0.8821718E-01
       -1   -1    0    0    0  501  0.00000000000E+00  0.00000000000E+00  0.41645635089E+03  0.41645635093E+03  0.50400001928E-02 0. -1.
        1   -1    0    0  501    0  0.00000000000E+00  0.00000000000E+00 -0.15331208644E+04  0.15331208645E+04  0.50400001928E-02 0.  1.
    10030    2    1    2    0    0  0.00000000000E+00  0.00000000000E+00 -0.11166645135E+04  0.19495772154E+04  0.15980962683E+04 0.  0.
        5    1    3    3  502    0  0.75584900134E+03 -0.25898160727E+03 -0.56901245763E+03  0.98090593466E+03  0.46999998093E+01 0. -1.
       -5    1    3    3    0  502 -0.75584900134E+03  0.25898160727E+03 -0.54765205592E+03  0.96867128071E+03  0.46999998093E+01 0.  1.
</event>
<event>
 5   0  0.4373026E-05  0.1597918E+04  0.7818609E-02  0.8821828E-01
       -1   -1    0    0    0  501  0.00000000000E+00  0.00000000000E+00  0.11416621917E+04  0.11416621917E+04  0.50400001928E-02 0. -1.
        1   -1    0    0  501    0  0.00000000000E+00  0.00000000000E+00 -0.55912827255E+03  0.55912827257E+03  0.50400001928E-02 0.  1.
    10030    2    1    2    0    0  0.00000000000E+00  0.00000000000E+00  0.58253391913E+03  0.17007904643E+04  0.15979181570E+04 0.  0.
        4    1    3    3  502    0  0.89690885735E+02 -0.45216193718E+03 -0.40330790099E+03  0.61249795781E+03  0.12699999809E+01 0.  1.
       -4    1    3    3    0  502 -0.89690885735E+02  0.45216193718E+03  0.98584182011E+03  0.10882925065E+04  0.12699999809E+01 0. -1.
</event>
<event>
 5   0  0.4256406E-05  0.1591252E+04  0.7818609E-02  0.8825940E-01
       -1   -1    0    0    0  501  0.00000000000E+00  0.00000000000E+00  0.87127922588E+03  0.87127922590E+03  0.50400001928E-02 0.  1.
        1   -1    0    0  501    0  0.00000000000E+00  0.00000000000E+00 -0.72654204683E+03  0.72654204684E+03  0.50400001928E-02 0. -1.
    10030    2    1    2    0    0  0.00000000000E+00  0.00000000000E+00  0.14473717906E+03  0.15978212727E+04  0.15912523271E+04 0.  0.
        3    1    3    3  502    0  0.39081504587E+03  0.30700284132E+03  0.69624969643E+03  0.85542433601E+03  0.10100000352E+00 0.  1.
       -3    1    3    3    0  502 -0.39081504587E+03 -0.30700284132E+03 -0.55151251737E+03  0.74239693673E+03  0.10100000352E+00 0. -1.
</event>
<event>
 5   0  0.4314657E-05  0.1603995E+04  0.7818609E-02  0.8818097E-01
       -1   -1    0    0    0  501  0.00000000000E+00  0.00000000000E+00  0.60528920252E+03  0.60528920254E+03  0.50400001928E-02 0. -1.
        1   -1    0    0  501    0  0.00000000000E+00  0.00000000000E+00 -0.10626330145E+04  0.10626330145E+04  0.50400001928E-02 0.  1.
    10030    2    1    2    0    0  0.00000000000E+00  0.00000000000E+00 -0.45734381198E+03  0.16679222170E+04  0.16039953740E+04 0.  0.
        5    1    3    3  502    0  0.60586747072E+03 -0.24958214172E+03  0.25215446183E+03  0.70211865105E+03  0.46999998093E+01 0. -1.
       -5    1    3    3    0  502 -0.60586747072E+03  0.24958214172E+03 -0.70949827381E+03  0.96580356599E+03  0.46999998093E+01 0.  1.
</event>
<event>
 5   0  0.4504463E-05  0.1600467E+04  0.7818609E-02  0.8820261E-01
        1   -1    0    0  501    0  0.00000000000E+00  0.00000000000E+00  0.13207876033E+04  0.13207876033E+04  0.50400001928E-02 0. -1.
       -1   -1    0    0    0  501  0.00000000000E+00  0.00000000000E+00 -0.48484216859E+03  0.48484216862E+03  0.50400001928E-02 0.  1.
    10030    2    1    2    0    0  0.00000000000E+00  0.00000000000E+00  0.83594543466E+03  0.18056297719E+04  0.16004668392E+04 0.  0.
        1    1    3    3  502    0 -0.54734230880E+02 -0.65258558226E+03  0.93682916772E+03  0.11430278508E+04  0.50400001928E-02 0. -1.
       -1    1    3    3    0  502  0.54734230880E+02  0.65258558226E+03 -0.10088373306E+03  0.66260192108E+03  0.50400001928E-02 0.  1.
</event>
<event>
 5   0  0.3042125E-05  0.1597405E+04  0.7818609E-02  0.8822144E-01
       -3   -1    0    0    0  501  0.00000000000E+00  0.00000000000E+00  0.24789690515E+03  0.24789692573E+03  0.10100000352E+00 0. -1.
        3   -1    0    0  501    0  0.00000000000E+00  0.00000000000E+00 -0.25733513567E+04  0.25733513587E+04  0.10100000352E+00 0.  1.
    10030    2    1    2    0    0  0.00000000000E+00  0.00000000000E+00 -0.23254544515E+04  0.28212482844E+04  0.15974052323E+04 0.  0.
        1    1    3    3  502    0 -0.29150091614E+03 -0.71193860406E+03 -0.15419201487E+04  0.17231793595E+04  0.50400001928E-02 0. -1.
       -1    1    3    3    0  502  0.29150091614E+03  0.71193860406E+03 -0.78353430283E+03  0.10980689249E+04  0.50400001928E-02 0.  1.
</event>
<event>
 5   0  0.8694033E-05  0.1599008E+04  0.7818609E-02  0.8821158E-01
        2   -1    0    0  501    0  0.00000000000E+00  0.00000000000E+00  0.44432541025E+03  0.44432541025E+03  0.25500000920E-02 0.  1.
       -2   -1    0    0    0  501  0.00000000000E+00  0.00000000000E+00 -0.14385996688E+04  0.14385996688E+04  0.25500000920E-02 0. -1.
    10030    2    1    2    0    0  0.00000000000E+00  0.00000000000E+00 -0.99427425858E+03  0.18829250791E+04  0.15990076773E+04 0.  0.
        1    1    3    3  502    0 -0.37433431393E+02 -0.26219320150E+03 -0.13854408149E+04  0.14105292583E+04  0.50400001928E-02 0. -1.
       -1    1    3    3    0  502  0.37433431393E+02  0.26219320150E+03  0.39116655635E+03  0.47239582082E+03  0.50400001928E-02 0.  1.
</event>
<event>
 5   0  0.4504463E-05  0.1602539E+04  0.7818609E-02  0.8818990E-01
        1   -1    0    0  501    0  0.00000000000E+00  0.00000000000E+00  0.97303981394E+03  0.97303981395E+03  0.50400001928E-02 0. -1.
       -1   -1    0    0    0  501  0.00000000000E+00  0.00000000000E+00 -0.65982143258E+03  0.65982143260E+03  0.50400001928E-02 0.  1.
    10030    2    1    2    0    0  0.00000000000E+00  0.00000000000E+00  0.31321838136E+03  0.16328612465E+04  0.16025386410E+04 0.  0.
        1    1    3    3  502    0  0.14980804327E+03 -0.28577178866E+03 -0.59070195215E+03  0.67308005566E+03  0.50400001928E-02 0.  1.
       -1    1    3    3    0  502 -0.14980804327E+03  0.28577178866E+03  0.90392033351E+03  0.95978119089E+03  0.50400001928E-02 0. -1.
</event>
<event>
 5   0  0.8620155E-05  0.1611769E+04  0.7818609E-02  0.8813350E-01
       -2   -1    0    0    0  501  0.00000000000E+00  0.00000000000E+00  0.82675634437E+03  0.82675634438E+03  0.25500000920E-02 0. -1.
        2   -1    0    0  501    0  0.00000000000E+00  0.00000000000E+00 -0.78553945482E+03  0.78553945482E+03  0.25500000920E-02 0.  1.
    10030    2    1    2    0    0  0.00000000000E+00  0.00000000000E+00  0.41216889554E+02  0.16122957992E+04  0.16117688768E+04 0.  0.
        4    1    3    3  502    0 -0.11587400201E+03 -0.79060533598E+03  0.12535434579E+03  0.80882563419E+03  0.12699999809E+01 0. -1.
       -4    1    3    3    0  502  0.11587400201E+03  0.79060533598E+03 -0.84137456234E+02  0.80347016501E+03  0.12699999809E+01 0.  1.
</event>
<event>
 5   0  0.8037548E-05  0.1599967E+04  0.7818609E-02  0.8820569E-01
       -2   -1    0    0    0  501  0.00000000000E+00  0.00000000000E+00  0.68349772857E+03  0.68349772857E+03  0.25500000920E-02 0. -1.
        2   -1    0    0  501    0  0.00000000000E+00  0.00000000000E+00 -0.93632095344E+03  0.93632095345E+03  0.25500000920E-02 0.  1.
    10030    2    1    2    0    0  0.00000000000E+00  0.00000000000E+00 -0.25282322488E+03  0.16198186820E+04  0.15999665558E+04 0.  0.
        5    1    3    3  502    0 -0.97523674350E+02  0.78593989346E+03 -0.24067820483E+03  0.82774420654E+03  0.46999998093E+01 0. -1.
       -5    1    3    3    0  502  0.97523674350E+02 -0.78593989346E+03 -0.12145020044E+02  0.79207447547E+03  0.46999998093E+01 0.  1.
</event>
<event>
 5   0  0.4211419E-05  0.1593728E+04  0.7818609E-02  0.8824410E-01
       -1   -1    0    0    0  501  0.00000000000E+00  0.00000000000E+00  0.68473545322E+03  0.68473545323E+03  0.50400001928E-02 0.  1.
        1   -1    0    0  501    0  0.00000000000E+00  0.00000000000E+00 -0.92735412543E+03  0.92735412544E+03  0.50400001928E-02 0. -1.
    10030    2    1    2    0    0  0.00000000000E+00  0.00000000000E+00 -0.24261867221E+03  0.16120895787E+04  0.15937280162E+04 0.  0.
        2    1    3    3  502    0 -0.14094295026E+03  0.58859032032E+03 -0.64563331349E+03  0.88495528469E+03  0.25500000920E-02 0. -1.
       -2    1    3    3    0  502  0.14094295026E+03 -0.58859032032E+03  0.40301464128E+03  0.72713429399E+03  0.25500000920E-02 0.  1.
</event>
<event>
 5   0  0.4504463E-05  0.1595366E+04  0.7818609E-02  0.8823400E-01
        1   -1    0    0  501    0  0.00000000000E+00  0.00000000000E+00  0.11215108688E+04  0.11215108688E+04  0.50400001928E-02 0. -1.
       -1   -1    0    0    0  501  0.00000000000E+00  0.00000000000E+00 -0.56735825192E+03  0.56735825195E+03  0.50400001928E-02 0.  1.
    10030    2    1    2    0    0  0.00000000000E+00  0.00000000000E+00  0.55415261691E+03  0.16888691208E+04  0.15953663480E+04 0.  0.
        1    1    3    3  502    0 -0.10989753330E+03 -0.51884678581E+03  0.90783226561E+03  0.10513985341E+04  0.50400001928E-02 0. -1.
       -1    1    3    3    0  502  0.10989753330E+03  0.51884678581E+03 -0.35367964871E+03  0.63747058670E+03  0.50400001928E-02 0.  1.
</event>
<event>
 5   0  0.7901257E-05  0.1595512E+04  0.7818609E-02  0.8823310E-01
        2   -1    0    0  501    0  0.00000000000E+00  0.00000000000E+00  0.11031162836E+04  0.11031162836E+04  0.25500000920E-02 0.  1.
       -2   -1    0    0    0  501  0.00000000000E+00  0.00000000000E+00 -0.57692463502E+03  0.57692463502E+03  0.25500000920E-02 0. -1.
    10030    2    1    2    0    0  0.00000000000E+00  0.00000000000E+00  0.52619164858E+03  0.16800409186E+04  0.15955124058E+04 0.  0.
        2    1    3    3  502    0  0.53991838662E+03  0.52516603013E+02 -0.35282492834E+03  0.64711304103E+03  0.25500000920E-02 0. -1.
       -2    1    3    3    0  502 -0.53991838662E+03 -0.52516603013E+02  0.87901657692E+03  0.10329278776E+04  0.25500000920E-02 0.  1.
</event>
<event>
 5   0  0.4256406E-05  0.1599888E+04  0.7818609E-02  0.8820617E-01
       -1   -1    0    0    0  501  0.00000000000E+00  0.00000000000E+00  0.14435696743E+04  0.14435696743E+04  0.50400001928E-02 0. -1.
        1   -1    0    0  501    0  0.00000000000E+00  0.00000000000E+00 -0.44328321256E+03  0.44328321259E+03  0.50400001928E-02 0.  1.
    10030    2    1    2    0    0  0.00000000000E+00  0.00000000000E+00  0.10002864617E+04  0.18868528869E+04  0.15998877496E+04 0.  0.
        3    1    3    3  502    0 -0.25698709330E+03  0.54010666349E+03 -0.12631276493E+03  0.61132029155E+03  0.10100000352E+00 0.  1.
       -3    1    3    3    0  502  0.25698709330E+03 -0.54010666349E+03  0.11265992266E+04  0.12755325953E+04  0.10100000352E+00 0. -1.
</event>
<event>
 5   0  0.4256406E-05  0.1599318E+04  0.7818609E-02  0.8820967E-01
       -1   -1    0    0    0  501  0.00000000000E+00  0.00000000000E+00  0.13729447158E+04  0.13729447158E+04  0.50400001928E-02 0.  1.
        1   -1    0    0  501    0  0.00000000000E+00  0.00000000000E+00 -0.46575415525E+03  0.46575415527E+03  0.50400001928E-02 0. -1.
    10030    2    1    2    0    0  0.00000000000E+00  0.00000000000E+00  0.90719056059E+03  0.18386988711E+04  0.15993182377E+04 0.  0.
        3    1    3    3  502    0 -0.60612147227E+03  0.49543422493E+03  0.64115961504E+03  0.10118912849E+04  0.10100000352E+00 0.  1.
       -3    1    3    3    0  502  0.60612147227E+03 -0.49543422493E+03  0.26603094555E+03  0.82680758618E+03  0.10100000352E+00 0. -1.
</event>
<event>
 5   0  0.7901257E-05  0.1599822E+04  0.7818609E-02  0.8820657E-01
        2   -1    0    0  501    0  0.00000000000E+00  0.00000000000E+00  0.14296061411E+04  0.14296061411E+04  0.25500000920E-02 0.  1.
       -2   -1    0    0    0  501  0.00000000000E+00  0.00000000000E+00 -0.44757614691E+03  0.44757614692E+03  0.25500000920E-02 0. -1.
    10030    2    1    2    0    0  0.00000000000E+00  0.00000000000E+00  0.98202999420E+03  0.18771822880E+04  0.15998220004E+04 0.  0.
        2    1    3    3  502    0  0.38070465981E+03  0.65465353692E+03  0.18877197467E+03  0.78047559208E+03  0.25500000920E-02 0. -1.
       -2    1    3    3    0  502 -0.38070465981E+03 -0.65465353692E+03  0.79325801952E+03  0.10967066960E+04  0.25500000920E-02 0.  1.
</event>
<event>
 5   0  0.4314657E-05  0.1598506E+04  0.7818609E-02  0.8821466E-01
       -1   -1    0    0    0  501  0.00000000000E+00  0.00000000000E+00  0.51811387972E+03  0.51811387974E+03  0.50400001928E-02 0.  1.
        1   -1    0    0  501    0  0.00000000000E+00  0.00000000000E+00 -0.12329443875E+04  0.12329443875E+04  0.50400001928E-02 0. -1.
    10030    2    1    2    0    0  0.00000000000E+00  0.00000000000E+00 -0.71483050782E+03  0.17510582673E+04  0.15985063029E+04 0.  0.
        5    1    3    3  502    0 -0.76415448095E+03  0.14744953633E+03 -0.55674233994E+03  0.95689997366E+03  0.46999998093E+01 0.  1.
       -5    1    3    3    0  502  0.76415448095E+03 -0.14744953633E+03 -0.15808816788E+03  0.79415829363E+03  0.46999998093E+01 0. -1.
</event>
<event>
 5   0  0.7849690E-05  0.1604633E+04  0.7818609E-02  0.8817707E-01
       -2   -1    0    0    0  501  0.00000000000E+00  0.00000000000E+00  0.36203450742E+03  0.36203450743E+03  0.25500000920E-02 0. -1.
        2   -1    0    0  501    0  0.00000000000E+00  0.00000000000E+00 -0.17780406305E+04  0.17780406305E+04  0.25500000920E-02 0.  1.
    10030    2    1    2    0    0  0.00000000000E+00  0.00000000000E+00 -0.14160061231E+04  0.21400751379E+04  0.16046333710E+04 0.  0.
        3    1    3    3  502    0 -0.33079268678E+01  0.76612360452E+03 -0.39027317066E+03  0.85980781441E+03  0.10100000352E+00 0. -1.
       -3    1    3    3    0  502  0.33079268678E+01 -0.76612360452E+03 -0.10257329524E+04  0.12802673235E+04  0.10100000352E+00 0.  1.
</event>
<event>
 5   0  0.7849690E-05  0.1600623E+04  0.7818609E-02  0.8820165E-01
       -2   -1    0    0    0  501  0.00000000000E+00  0.00000000000E+00  0.39285261068E+03  0.39285261068E+03  0.25500000920E-02 0.  1.
        2   -1    0    0  501    0  0.00000000000E+00  0.00000000000E+00 -0.16303795065E+04  0.16303795065E+04  0.25500000920E-02 0. -1.
    10030    2    1    2    0    0  0.00000000000E+00  0.00000000000E+00 -0.12375268958E+04  0.20232321172E+04  0.16006234354E+04 0.  0.
        3    1    3    3  502    0  0.72691052368E+03 -0.11591867947E+03 -0.22172439546E+03  0.76876379170E+03  0.10100000352E+00 0.  1.
       -3    1    3    3    0  502 -0.72691052368E+03  0.11591867947E+03 -0.10158025003E+04  0.12544683255E+04  0.10100000352E+00 0. -1.
</event>
<event>
 5   0  0.7901257E-05  0.1602899E+04  0.7818609E-02  0.8818769E-01
       -2   -1    0    0    0  501  0.00000000000E+00  0.00000000000E+00  0.31915545613E+03  0.31915545614E+03  0.25500000920E-02 0. -1.
        2   -1    0    0  501    0  0.00000000000E+00  0.00000000000E+00 -0.20125657002E+04  0.20125657002E+04  0.25500000920E-02 0.  1.
    10030    2    1    2    0    0  0.00000000000E+00  0.00000000000E+00 -0.16934102441E+04  0.23317211564E+04  0.16028990287E+04 0.  0.
        2    1    3    3  502    0 -0.64098232910E+03 -0.40593594132E+02 -0.15440695067E+04  0.16723207909E+04  0.25500000920E-02 0.  1.
       -2    1    3    3    0  502  0.64098232910E+03  0.40593594132E+02 -0.14934073735E+03  0.65940036544E+03  0.25500000920E-02 0. -1.
</event>
<event>
 5   0  0.4373026E-05  0.1595744E+04  0.7818609E-02  0.8823167E-01
       -1   -1    0    0    0  501  0.00000000000E+00  0.00000000000E+00  0.49605054637E+03  0.49605054639E+03  0.50400001928E-02 0.  1.
        1   -1    0    0  501    0  0.00000000000E+00  0.00000000000E+00 -0.12833361386E+04  0.12833361386E+04  0.50400001928E-02 0. -1.
    10030    2    1    2    0    0  0.00000000000E+00  0.00000000000E+00 -0.78728559226E+03  0.17793866850E+04  0.15957438300E+04 0.  0.
        4    1    3    3  502    0 -0.59391812521E+03 -0.46814629570E+03 -0.11001189088E+03  0.76420149350E+03  0.12699999809E+01 0.  1.
       -4    1    3    3    0  502  0.59391812521E+03  0.46814629570E+03 -0.67727370138E+03  0.10151851915E+04  0.12699999809E+01 0. -1.
</event>
<event>
 5   0  0.8694033E-05  0.1598735E+04  0.7818609E-02  0.8821326E-01
       -2   -1    0    0    0  501  0.00000000000E+00  0.00000000000E+00  0.14664539594E+04  0.14664539594E+04  0.25500000920E-02 0.  1.
        2   -1    0    0  501    0  0.00000000000E+00  0.00000000000E+00 -0.43573689901E+03  0.43573689902E+03  0.25500000920E-02 0. -1.
    10030    2    1    2    0    0  0.00000000000E+00  0.00000000000E+00  0.10307170604E+04  0.19021908584E+04  0.15987346257E+04 0.  0.
        1    1    3    3  502    0  0.37205414060E+03 -0.65096312066E+03  0.18560538539E+03  0.77241609714E+03  0.50400001928E-02 0. -1.
       -1    1    3    3    0  502 -0.37205414060E+03  0.65096312066E+03  0.84511167498E+03  0.11297747613E+04  0.50400001928E-02 0.  1.
</event>
<event>
 5   0  0.7901257E-05  0.1601152E+04  0.7818609E-02  0.8819841E-01
        2   -1    0    0  501    0  0.00000000000E+00  0.00000000000E+00  0.25042860256E+04  0.25042860256E+04  0.25500000920E-02 0. -1.
       -2   -1    0    0    0  501  0.00000000000E+00  0.00000000000E+00 -0.25593002342E+03  0.25593002344E+03  0.25500000920E-02 0.  1.
    10030    2    1    2    0    0  0.00000000000E+00  0.00000000000E+00  0.22483560022E+04  0.27602160491E+04  0.16011520618E+04 0.  0.
        2    1    3    3  502    0 -0.25182453366E+03 -0.62510249128E+03  0.37919803377E+03  0.77327864911E+03  0.25500000920E-02 0.  1.
       -2    1    3    3    0  502  0.25182453366E+03  0.62510249128E+03  0.18691579684E+04  0.19869373999E+04  0.25500000920E-02 0. -1.
</event>
<event>
 5   0  0.8694033E-05  0.1604573E+04  0.7818609E-02  0.8817743E-01
        2   -1    0    0  501    0  0.00000000000E+00  0.00000000000E+00  0.16120049688E+04  0.16120049688E+04  0.25500000920E-02 0.  1.
       -2   -1    0    0    0  501  0.00000000000E+00  0.00000000000E+00 -0.39929391089E+03  0.39929391090E+03  0.25500000920E-02 0. -1.
    10030    2    1    2    0    0  0.00000000000E+00  0.00000000000E+00  0.12127110579E+04  0.20112988797E+04  0.16045731749E+04 0.  0.
        1    1    3    3  502    0 -0.53618985248E+02 -0.49353215382E+03 -0.18364937544E+03  0.52931661183E+03  0.50400001928E-02 0. -1.
       -1    1    3    3    0  502  0.53618985248E+02  0.49353215382E+03  0.13963604334E+04  0.14819822679E+04  0.50400001928E-02 0.  1.
</event>
<event>
 5   0  0.7849690E-05  0.1598370E+04  0.7818609E-02  0.8821550E-01
        2   -1    0    0  501    0  0.00000000000E+00  0.00000000000E+00  0.13625739850E+04  0.13625739850E+04  0.25500000920E-02 0. -1.
       -2   -1    0    0    0  501  0.00000000000E+00  0.00000000000E+00 -0.46874265656E+03  0.46874265657E+03  0.25500000920E-02 0.  1.
    10030    2    1    2    0    0  0.00000000000E+00  0.00000000000E+00  0.89383132841E+03  0.18313166415E+04  0.15983698564E+04 0.  0.
        3    1    3    3  502    0  0.69126038108E+02  0.33263130774E+03 -0.38188666892E+03  0.51113543620E+03  0.10100000352E+00 0.  1.
       -3    1    3    3    0  502 -0.69126038108E+02 -0.33263130774E+03  0.12757179973E+04  0.13201812054E+04  0.10100000352E+00 0. -1.
</event>
<event>
 5   0  0.4211419E-05  0.1605152E+04  0.7818609E-02  0.8817389E-01
       -1   -1    0    0    0  501  0.00000000000E+00  0.00000000000E+00  0.15734678240E+04  0.15734678240E+04  0.50400001928E-02 0.  1.
        1   -1    0    0  501    0  0.00000000000E+00  0.00000000000E+00 -0.40936838166E+03  0.40936838169E+03  0.50400001928E-02 0. -1.
    10030    2    1    2    0    0  0.00000000000E+00  0.00000000000E+00  0.11640994424E+04  0.19828362057E+04  0.16051516773E+04 0.  0.
        2    1    3    3  502    0 -0.22958964068E+03 -0.66201890447E+03  0.98628421837E+02  0.70760723469E+03  0.25500000920E-02 0. -1.
       -2    1    3    3    0  502  0.22958964068E+03  0.66201890447E+03  0.10654710205E+04  0.12752289710E+04  0.25500000920E-02 0.  1.
</event>
<event>
 5   0  0.7849690E-05  0.1599292E+04  0.7818609E-02  0.8820983E-01
        2   -1    0    0  501    0  0.00000000000E+00  0.00000000000E+00  0.65115835153E+03  0.65115835154E+03  0.25500000920E-02 0.  1.
       -2   -1    0    0    0  501  0.00000000000E+00  0.00000000000E+00 -0.98199404893E+03  0.98199404893E+03  0.25500000920E-02 0. -1.
    10030    2    1    2    0    0  0.00000000000E+00  0.00000000000E+00 -0.33083569739E+03  0.16331524005E+04  0.15992918760E+04 0.  0.
        3    1    3    3  502    0  0.65222587964E+03 -0.10375129647E+03 -0.62581895572E+03  0.90984191216E+03  0.10100000352E+00 0. -1.
       -3    1    3    3    0  502 -0.65222587964E+03  0.10375129647E+03  0.29498325833E+03  0.72331048830E+03  0.10100000352E+00 0.  1.
</event>
<event>
 5   0  0.8620155E-05  0.1593846E+04  0.7818609E-02  0.8824338E-01
        2   -1    0    0  501    0  0.00000000000E+00  0.00000000000E+00  0.15722953752E+04  0.15722953752E+04  0.25500000920E-02 0. -1.
       -2   -1    0    0    0  501  0.00000000000E+00  0.00000000000E+00 -0.40392276790E+03  0.40392276790E+03  0.25500000920E-02 0.  1.
    10030    2    1    2    0    0  0.00000000000E+00  0.00000000000E+00  0.11683726073E+04  0.19762181431E+04  0.15938455382E+04 0.  0.
        4    1    3    3  502    0 -0.42010055874E+03 -0.58034469264E+03  0.10169113364E+04  0.12439432144E+04  0.12699999809E+01 0. -1.
       -4    1    3    3    0  502  0.42010055874E+03  0.58034469264E+03  0.15146127095E+03  0.73227492872E+03  0.12699999809E+01 0.  1.
</event>
<event>
 5   0  0.4504463E-05  0.1598641E+04  0.7818609E-02  0.8821383E-01
       -1   -1    0    0    0  501  0.00000000000E+00  0.00000000000E+00  0.82259738437E+03  0.82259738439E+03  0.50400001928E-02 0.  1.
        1   -1    0    0  501    0  0.00000000000E+00  0.00000000000E+00 -0.77670204850E+03  0.77670204852E+03  0.50400001928E-02 0. -1.
    10030    2    1    2    0    0  0.00000000000E+00  0.00000000000E+00  0.45895335870E+02  0.15992994329E+04  0.15986407646E+04 0.  0.
        1    1    3    3  502    0 -0.49253293970E+03  0.46996275451E+03  0.44199897835E+03  0.81167529481E+03  0.50400001928E-02 0.  1.
       -1    1    3    3    0  502  0.49253293970E+03 -0.46996275451E+03 -0.39610364248E+03  0.78762413810E+03  0.50400001928E-02 0. -1.
</event>
<event>
 5   0  0.4211419E-05  0.1595325E+04  0.7818609E-02  0.8823425E-01
       -1   -1    0    0    0  501  0.00000000000E+00  0.00000000000E+00  0.10673400174E+04  0.10673400174E+04  0.50400001928E-02 0.  1.
        1   -1    0    0  501    0  0.00000000000E+00  0.00000000000E+00 -0.59612254474E+03  0.59612254476E+03  0.50400001928E-02 0. -1.
    10030    2    1    2    0    0  0.00000000000E+00  0.00000000000E+00  0.47121747268E+03  0.16634625622E+04  0.15953249792E+04 0.  0.
        2    1    3    3  502    0  0.19932605531E+03 -0.47755804761E+03  0.86855469532E+03  0.10110290915E+04  0.25500000920E-02 0.  1.
       -2    1    3    3    0  502 -0.19932605531E+03  0.47755804761E+03 -0.39733722263E+03  0.65243347067E+03  0.25500000920E-02 0. -1.
</event>
<event>
 5   0  0.4314657E-05  0.1600086E+04  0.7818609E-02  0.8820495E-01
       -1   -1    0    0    0  501  0.00000000000E+00  0.00000000000E+00  0.92702921913E+03  0.92702921914E+03  0.50400001928E-02 0.  1.
        1   -1    0    0  501    0  0.00000000000E+00  0.00000000000E+00 -0.69045199549E+03  0.69045199551E+03  0.50400001928E-02 0. -1.
    10030    2    1    2    0    0  0.00000000000E+00  0.00000000000E+00  0.23657722364E+03  0.16174812147E+04  0.16000864655E+04 0.  0.
        5    1    3    3  502    0  0.21520560770E+03 -0.53335420043E+03  0.68045196850E+03  0.89096415648E+03  0.46999998093E+01 0.  1.
       -5    1    3    3    0  502 -0.21520560770E+03  0.53335420043E+03 -0.44387474486E+03  0.72651705818E+03  0.46999998093E+01 0. -1.
</event>
<event>
 5   0  0.3042125E-05  0.1601482E+04  0.7818609E-02  0.8819638E-01
        3   -1    0    0  501    0  0.00000000000E+00  0.00000000000E+00  0.61973749566E+03  0.61973750389E+03  0.10100000352E+00 0. -1.
       -3   -1    0    0    0  501  0.00000000000E+00  0.00000000000E+00 -0.10346086744E+04  0.10346086793E+04  0.10100000352E+00 0.  1.
    10030    2    1    2    0    0  0.00000000000E+00  0.00000000000E+00 -0.41487117869E+03  0.16543461832E+04  0.16014815637E+04 0.  0.
        4    1    3    3  502    0 -0.72660194147E+03  0.33378375564E+03 -0.16333913651E+03  0.81611473660E+03  0.12699999809E+01 0. -1.
       -4    1    3    3    0  502  0.72660194147E+03 -0.33378375564E+03 -0.25153204218E+03  0.83823144658E+03  0.12699999809E+01 0.  1.
</event>
<event>
 5   0  0.4256406E-05  0.1601523E+04  0.7818609E-02  0.8819613E-01
       -1   -1    0    0    0  501  0.00000000000E+00  0.00000000000E+00  0.11262240985E+04  0.11262240985E+04  0.50400001928E-02 0.  1.
        1   -1    0    0  501    0  0.00000000000E+00  0.00000000000E+00 -0.56935308539E+03  0.56935308541E+03  0.50400001928E-02 0. -1.
    10030    2    1    2    0    0  0.00000000000E+00  0.00000000000E+00  0.55687101312E+03  0.16955771839E+04  0.16015232316E+04 0.  0.
        3    1    3    3  502    0  0.24890566358E+03  0.44916994811E+03 -0.37206764436E+03  0.63414668163E+03  0.10100000352E+00 0. -1.
       -3    1    3    3    0  502 -0.24890566358E+03 -0.44916994811E+03  0.92893865748E+03  0.10614305023E+04  0.10100000352E+00 0.  1.
</event>
<event>
 5   0  0.8620155E-05  0.1600342E+04  0.7818609E-02  0.8820338E-01
       -2   -1    0    0    0  501  0.00000000000E+00  0.00000000000E+00  0.31860118211E+03  0.31860118212E+03  0.25500000920E-02 0.  1.
        2   -1    0    0  501    0  0.00000000000E+00  0.00000000000E+00 -0.20096408718E+04  0.20096408718E+04  0.25500000920E-02 0. -1.
    10030    2    1    2    0    0  0.00000000000E+00  0.00000000000E+00 -0.16910396897E+04  0.23282420539E+04  0.16003424101E+04 0.  0.
        4    1    3    3  502    0  0.17107530642E+03 -0.78083145040E+03 -0.89813257974E+03  0.12023345034E+04  0.12699999809E+01 0.  1.
       -4    1    3    3    0  502 -0.17107530642E+03  0.78083145040E+03 -0.79290710997E+03  0.11259075505E+04  0.12699999809E+01 0. -1.
</event>
<event>
 5   0  0.4504463E-05  0.1594983E+04  0.7818609E-02  0.8823636E-01
       -1   -1    0    0    0  501  0.00000000000E+00  0.00000000000E+00  0.68559808315E+03  0.68559808317E+03  0.50400001928E-02 0.  1.
        1   -1    0    0  501    0  0.00000000000E+00  0.00000000000E+00 -0.92764651624E+03  0.92764651625E+03  0.50400001928E-02 0. -1.
    10030    2    1    2    0    0  0.00000000000E+00  0.00000000000E+00 -0.24204843309E+03  0.16132445994E+04  0.15949829760E+04 0.  0.
        1    1    3    3  502    0 -0.31029598562E+03  0.47623768495E+03 -0.68680947586E+03  0.89151174272E+03  0.50400001928E-02 0. -1.
       -1    1    3    3    0  502  0.31029598562E+03 -0.47623768495E+03  0.44476104277E+03  0.72173285670E+03  0.50400001928E-02 0.  1.
</event>
<event>
 5   0  0.8037548E-05  0.1600605E+04  0.7818609E-02  0.8820177E-01
       -2   -1    0    0    0  501  0.00000000000E+00  0.00000000000E+00  0.28454099302E+03  0.28454099304E+03  0.25500000920E-02 0. -1.
        2   -1    0    0  501    0  0.00000000000E+00  0.00000000000E+00 -0.22509364935E+04  0.22509364935E+04  0.25500000920E-02 0.  1.
    10030    2    1    2    0    0  0.00000000000E+00  0.00000000000E+00 -0.19663955005E+04  0.25354774866E+04  0.16006045172E+04 0.  0.
        5    1    3    3  502    0  0.56677371511E+03  0.27510709691E+03 -0.17649435524E+04  0.18740235303E+04  0.46999998093E+01 0.  1.
       -5    1    3    3    0  502 -0.56677371511E+03 -0.27510709691E+03 -0.20145194814E+03  0.66145395631E+03  0.46999998093E+01 0. -1.
</event>
<event>
 5   0  0.8037548E-05  0.1601399E+04  0.7818609E-02  0.8819689E-01
       -2   -1    0    0    0  501  0.00000000000E+00  0.00000000000E+00  0.81752945135E+03  0.81752945136E+03  0.25500000920E-02 0.  1.
        2   -1    0    0  501    0  0.00000000000E+00  0.00000000000E+00 -0.78421553137E+03  0.78421553138E+03  0.25500000920E-02 0. -1.
    10030    2    1    2    0    0  0.00000000000E+00  0.00000000000E+00  0.33313919980E+02  0.16017449827E+04  0.16013985052E+04 0.  0.
        5    1    3    3  502    0  0.36721873097E+03 -0.36484915573E+02 -0.69407151707E+03  0.78609039317E+03  0.46999998093E+01 0. -1.
       -5    1    3    3    0  502 -0.36721873097E+03  0.36484915573E+02  0.72738543705E+03  0.81565458956E+03  0.46999998093E+01 0.  1.
</event>
<event>
 5   0  0.8037548E-05  0.1601952E+04  0.7818609E-02  0.8819350E-01
        2   -1    0    0  501    0  0.00000000000E+00  0.00000000000E+00  0.14658393234E+04  0.14658393234E+04  0.25500000920E-02 0. -1.
       -2   -1    0    0    0  501  0.00000000000E+00  0.00000000000E+00 -0.43767604876E+03  0.43767604877E+03  0.25500000920E-02 0.  1.
    10030    2    1    2    0    0  0.00000000000E+00  0.00000000000E+00  0.10281632747E+04  0.19035153722E+04  0.16019522630E+04 0.  0.
        5    1    3    3  502    0  0.36768176739E+03 -0.22680310848E+03 -0.28735668402E+03  0.51886943052E+03  0.46999998093E+01 0.  1.
       -5    1    3    3    0  502 -0.36768176739E+03  0.22680310848E+03  0.13155199587E+04  0.13846459417E+04  0.46999998093E+01 0. -1.
</event>
<event>
 5   0  0.7901257E-05  0.1598165E+04  0.7818609E-02  0.8821676E-01
       -2   -1    0    0    0  501  0.00000000000E+00  0.00000000000E+00  0.42301547671E+03  0.42301547671E+03  0.25500000920E-02 0.  1.
        2   -1    0    0  501    0  0.00000000000E+00  0.00000000000E+00 -0.15094794451E+04  0.15094794451E+04  0.25500000920E-02 0. -1.
    10030    2    1    2    0    0  0.00000000000E+00  0.00000000000E+00 -0.10864639684E+04  0.19324949218E+04  0.15981654070E+04 0.  0.
        2    1    3    3  502    0  0.44462328686E+03  0.59364748908E+03 -0.90280452889E+03  0.11684019967E+04  0.25500000920E-02 0.  1.
       -2    1    3    3    0  502 -0.44462328686E+03 -0.59364748908E+03 -0.18365943952E+03  0.76409292513E+03  0.25500000920E-02 0. -1.
</event>
<event>
 5   0  0.4373026E-05  0.1602754E+04  0.7818609E-02  0.8818858E-01
        1   -1    0    0  501    0  0.00000000000E+00  0.00000000000E+00  0.44715519359E+03  0.44715519362E+03  0.50400001928E-02 0. -1.
       -1   -1    0    0    0  501  0.00000000000E+00  0.00000000000E+00 -0.14362023540E+04  0.14362023540E+04  0.50400001928E-02 0.  1.
    10030    2    1    2    0    0  0.00000000000E+00  0.00000000000E+00 -0.98904716042E+03  0.18833575476E+04  0.16027543064E+04 0.  0.
        4    1    3    3  502    0  0.42226150862E+03  0.67626815038E+03 -0.58969989008E+03  0.99166071120E+03  0.12699999809E+01 0.  1.
       -4    1    3    3    0  502 -0.42226150862E+03 -0.67626815038E+03 -0.39934727033E+03  0.89169683643E+03  0.12699999809E+01 0. -1.
</event>
<event>
 5   0  0.8694033E-05  0.1599186E+04  0.7818609E-02  0.8821048E-01
       -2   -1    0    0    0  501  0.00000000000E+00  0.00000000000E+00  0.32547077181E+03  0.32547077182E+03  0.25500000920E-02 0.  1.
        2   -1    0    0  501    0  0.00000000000E+00  0.00000000000E+00 -0.19643812555E+04  0.19643812555E+04  0.25500000920E-02 0. -1.
    10030    2    1    2    0    0  0.00000000000E+00  0.00000000000E+00 -0.16389104837E+04  0.22898520273E+04  0.15991856470E+04 0.  0.
        1    1    3    3  502    0  0.19244018226E+03 -0.54257279947E+03 -0.16140298627E+04  0.17136250653E+04  0.50400001928E-02 0. -1.
       -1    1    3    3    0  502 -0.19244018226E+03  0.54257279947E+03 -0.24880620962E+02  0.57622696206E+03  0.50400001928E-02 0.  1.
</event>
<event>
 5   0  0.8037548E-05  0.1597808E+04  0.7818609E-02  0.8821896E-01
        2   -1    0    0  501    0  0.00000000000E+00  0.00000000000E+00  0.15884402542E+04  0.15884402542E+04  0.25500000920E-02 0.  1.
       -2   -1    0    0    0  501  0.00000000000E+00  0.00000000000E+00 -0.40180782298E+03  0.40180782299E+03  0.25500000920E-02 0. -1.
    10030    2    1    2    0    0  0.00000000000E+00  0.00000000000E+00  0.11866324312E+04  0.19902480772E+04  0.15978081493E+04 0.  0.
        5    1    3    3  502    0  0.23670270943E+03 -0.26998711670E+03 -0.29562143607E+03  0.46511862927E+03  0.46999998093E+01 0. -1.
       -5    1    3    3    0  502 -0.23670270943E+03  0.26998711670E+03  0.14822538673E+04  0.15251294479E+04  0.46999998093E+01 0.  1.
</event>
<event>
 5   0  0.8620155E-05  0.1599014E+04  0.7818609E-02  0.8821154E-01
        2   -1    0    0  501    0  0.00000000000E+00  0.00000000000E+00  0.73709203080E+03  0.73709203081E+03  0.25500000920E-02 0.  1.
       -2   -1    0    0    0  501  0.00000000000E+00  0.00000000000E+00 -0.86720743778E+03  0.86720743779E+03  0.25500000920E-02 0. -1.
    10030    2    1    2    0    0  0.00000000000E+00  0.00000000000E+00 -0.13011540698E+03  0.16042994686E+04  0.15990143107E+04 0.  0.
        4    1    3    3  502    0 -0.73355631104E+03  0.65931439725E+02 -0.37714573884E+03  0.82746138124E+03  0.12699999809E+01 0. -1.
       -4    1    3    3    0  502  0.73355631104E+03 -0.65931439725E+02  0.24703033186E+03  0.77683808736E+03  0.12699999809E+01 0.  1.
</event>
<event>
 5   0  0.7849690E-05  0.1599920E+04  0.7818609E-02  0.8820597E-01
        2   -1    0    0  501    0  0.00000000000E+00  0.00000000000E+00  0.17223546457E+04  0.17223546457E+04  0.25500000920E-02 0.  1.
       -2   -1    0    0    0  501  0.00000000000E+00  0.00000000000E+00 -0.37154699778E+03  0.37154699779E+03  0.25500000920E-02 0. -1.
    10030    2    1    2    0    0  0.00000000000E+00  0.00000000000E+00  0.13508076479E+04  0.20939016434E+04  0.15999196201E+04 0.  0.
        3    1    3    3  502    0 -0.57795898911E+03 -0.24528075580E+03  0.26630627090E+02  0.62841741125E+03  0.10100000352E+00 0. -1.
       -3    1    3    3    0  502  0.57795898911E+03  0.24528075580E+03  0.13241770208E+04  0.14654842322E+04  0.10100000352E+00 0.  1.
</event>
<event>
 5   0  0.8037548E-05  0.1597705E+04  0.7818609E-02  0.8821959E-01
        2   -1    0    0  501    0  0.00000000000E+00  0.00000000000E+00  0.46199017803E+03  0.46199017804E+03  0.25500000920E-02 0. -1.
       -2   -1    0    0    0  501  0.00000000000E+00  0.00000000000E+00 -0.13813402168E+04  0.13813402168E+04  0.25500000920E-02 0.  1.
    10030    2    1    2    0    0  0.00000000000E+00  0.00000000000E+00 -0.91935003877E+03  0.18433303948E+04  0.15977053704E+04 0.  0.
        5    1    3    3  502    0  0.35841956921E+03 -0.66891707803E+03 -0.74748276253E+03  0.10652075925E+04  0.46999998093E+01 0.  1.
       -5    1    3    3    0  502 -0.35841956921E+03  0.66891707803E+03 -0.17186727624E+03  0.77812280233E+03  0.46999998093E+01 0. -1.
</event>
<event>
 5   0  0.4373026E-05  0.1599335E+04  0.7818609E-02  0.8820957E-01
       -1   -1    0    0    0  501  0.00000000000E+00  0.00000000000E+00  0.11376861225E+04  0.11376861226E+04  0.50400001928E-02 0. -1.
        1   -1    0    0  501    0  0.00000000000E+00  0.00000000000E+00 -0.56207770985E+03  0.56207770987E+03  0.50400001928E-02 0.  1.
    10030    2    1    2    0    0  0.00000000000E+00  0.00000000000E+00  0.57560841269E+03  0.16997638324E+04  0.15993348747E+04 0.  0.
        4    1    3    3  502    0  0.23503820288E+02 -0.76367004428E+03  0.53868224552E+03  0.93483931274E+03  0.12699999809E+01 0.  1.
       -4    1    3    3    0  502 -0.23503820288E+02  0.76367004428E+03  0.36926167177E+02  0.76492451969E+03  0.12699999809E+01 0. -1.
</event>
<event>
 5   0  0.4256406E-05  0.1624527E+04  0.7818609E-02  0.8805620E-01
       -1   -1    0    0    0  501  0.00000000000E+00  0.00000000000E+00  0.43614155096E+03  0.43614155099E+03  0.50400001928E-02 0.  1.
        1   -1    0    0  501    0  0.00000000000E+00  0.00000000000E+00 -0.15127478235E+04  0.15127478235E+04  0.50400001928E-02 0. -1.
    10030    2    1    2    0    0  0.00000000000E+00  0.00000000000E+00 -0.10766062725E+04  0.19488893745E+04  0.16245272321E+04 0.  0.
        3    1    3    3  502    0  0.24110465762E+02  0.48827546725E+03 -0.13164949643E+04  0.14043337380E+04  0.10100000352E+00 0. -1.
       -3    1    3    3    0  502 -0.24110465762E+02 -0.48827546725E+03  0.23988869184E+03  0.54455563641E+03  0.10100000352E+00 0.  1.
</event>
<event>
 5   0  0.4314657E-05  0.1600251E+04  0.7818609E-02  0.8820394E-01
        1   -1    0    0  501    0  0.00000000000E+00  0.00000000000E+00  0.54514449940E+03  0.54514449942E+03  0.50400001928E-02 0. -1.
       -1   -1    0    0    0  501  0.00000000000E+00  0.00000000000E+00 -0.11743693978E+04  0.11743693978E+04  0.50400001928E-02 0.  1.
    10030    2    1    2    0    0  0.00000000000E+00  0.00000000000E+00 -0.62922489842E+03  0.17195138972E+04  0.16002512522E+04 0.  0.
        5    1    3    3  502    0  0.38260485120E+03  0.69112299053E+03 -0.45113016716E+03  0.90971312947E+03  0.46999998093E+01 0. -1.
       -5    1    3    3    0  502 -0.38260485120E+03 -0.69112299053E+03 -0.17809473126E+03  0.80980076778E+03  0.46999998093E+01 0.  1.
</event>
<event>
 5   0  0.8694033E-05  0.1601612E+04  0.7818609E-02  0.8819558E-01
        2   -1    0    0  501    0  0.00000000000E+00  0.00000000000E+00  0.92508892775E+03  0.92508892775E+03  0.25500000920E-02 0. -1.
       -2   -1    0    0    0  501  0.00000000000E+00  0.00000000000E+00 -0.69322016132E+03  0.69322016133E+03  0.25500000920E-02 0.  1.
    10030    2    1    2    0    0  0.00000000000E+00  0.00000000000E+00  0.23186876643E+03  0.16183090891E+04  0.16016120576E+04 0.  0.
        1    1    3    3  502    0  0.41542929807E+03  0.52381760258E+03 -0.32948310796E+03  0.74533583097E+03  0.50400001928E-02 0.  1.
       -1    1    3    3    0  502 -0.41542929807E+03 -0.52381760258E+03  0.56135187439E+03  0.87297325811E+03  0.50400001928E-02 0. -1.
</event>
<event>
 5   0  0.8037548E-05  0.1599156E+04  0.7818609E-02  0.8821067E-01
       -2   -1    0    0    0  501  0.00000000000E+00  0.00000000000E+00  0.35106336405E+03  0.35106336406E+03  0.25500000920E-02 0. -1.
        2   -1    0    0  501    0  0.00000000000E+00  0.00000000000E+00 -0.18211094764E+04  0.18211094764E+04  0.25500000920E-02 0.  1.
    10030    2    1    2    0    0  0.00000000000E+00  0.00000000000E+00 -0.14700461124E+04  0.21721728405E+04  0.15991558012E+04 0.  0.
        5    1    3    3  502    0  0.62748919499E+03  0.41456265700E+03 -0.11037721732E+04  0.13356421627E+04  0.46999998093E+01 0. -1.
       -5    1    3    3    0  502 -0.62748919499E+03 -0.41456265700E+03 -0.36627393921E+03  0.83653067783E+03  0.46999998093E+01 0.  1.
</event>
<event>
 5   0  0.4314657E-05  0.1598190E+04  0.7818609E-02  0.8821661E-01
        1   -1    0    0  501    0  0.00000000000E+00  0.00000000000E+00  0.12622557191E+04  0.12622557191E+04  0.50400001928E-02 0.  1.
       -1   -1    0    0    0  501  0.00000000000E+00  0.00000000000E+00 -0.50588204901E+03  0.50588204903E+03  0.50400001928E-02 0. -1.
    10030    2    1    2    0    0  0.00000000000E+00  0.00000000000E+00  0.75637367012E+03  0.17681377682E+04  0.15981896128E+04 0.  0.
        5    1    3    3  502    0  0.19365625708E+03 -0.54826560668E+03 -0.22821604020E+03  0.62466196649E+03  0.46999998093E+01 0. -1.
       -5    1    3    3    0  502 -0.19365625708E+03  0.54826560668E+03  0.98458971031E+03  0.11434758017E+04  0.46999998093E+01 0.  1.
</event>
<event>
 5   0  0.4504463E-05  0.1601283E+04  0.7818609E-02  0.8819760E-01
       -1   -1    0    0    0  501  0.00000000000E+00  0.00000000000E+00  0.12387264039E+04  0.12387264039E+04  0.50400001928E-02 0.  1.
        1   -1    0    0  501    0  0.00000000000E+00  0.00000000000E+00 -0.51748833902E+03  0.51748833904E+03  0.50400001928E-02 0. -1.
    10030    2    1    2    0    0  0.00000000000E+00  0.00000000000E+00  0.72123806489E+03  0.17562147430E+04  0.16012825725E+04 0.  0.
        1    1    3    3  502    0  0.31522104909E+02 -0.88474357570E+02  0.12326635256E+04  0.12362365156E+04  0.50400001928E-02 0.  1.
       -1    1    3    3    0  502 -0.31522104909E+02  0.88474357570E+02 -0.51142546072E+03  0.51997822738E+03  0.50400001928E-02 0. -1.
</event>
<event>
 5   0  0.7901257E-05  0.1589082E+04  0.7818609E-02  0.8827283E-01
       -2   -1    0    0    0  501  0.00000000000E+00  0.00000000000E+00  0.50261322847E+03  0.50261322848E+03  0.25500000920E-02 0. -1.
        2   -1    0    0  501    0  0.00000000000E+00  0.00000000000E+00 -0.12560267540E+04  0.12560267540E+04  0.25500000920E-02 0.  1.
    10030    2    1    2    0    0  0.00000000000E+00  0.00000000000E+00 -0.75341352552E+03  0.17586399825E+04  0.15890823287E+04 0.  0.
        2    1    3    3  502    0  0.73025911036E+02 -0.47558408919E+03 -0.10764561340E+04  0.11790974591E+04  0.25500000920E-02 0.  1.
       -2    1    3    3    0  502 -0.73025911036E+02  0.47558408919E+03  0.32304260845E+03  0.57954252342E+03  0.25500000920E-02 0. -1.
</event>
<event>
 5   0  0.4504463E-05  0.1600911E+04  0.7818609E-02  0.8819989E-01
        1   -1    0    0  501    0  0.00000000000E+00  0.00000000000E+00  0.14131890828E+04  0.14131890828E+04  0.50400001928E-02 0.  1.
       -1   -1    0    0    0  501  0.00000000000E+00  0.00000000000E+00 -0.45339211331E+03  0.45339211334E+03  0.50400001928E-02 0. -1.
    10030    2    1    2    0    0  0.00000000000E+00  0.00000000000E+00  0.95979696952E+03  0.18665811962E+04  0.16009107218E+04 0.  0.
        1    1    3    3  502    0  0.60068882959E+03 -0.52811305927E+03  0.44305906387E+03  0.91434774975E+03  0.50400001928E-02 0. -1.
       -1    1    3    3    0  502 -0.60068882959E+03  0.52811305927E+03  0.51673790565E+03  0.95223344644E+03  0.50400001928E-02 0.  1.
</event>
<event>
 5   0  0.8620155E-05  0.1600697E+04  0.7818609E-02  0.8820120E-01
       -2   -1    0    0    0  501  0.00000000000E+00  0.00000000000E+00  0.68823110925E+03  0.68823110926E+03  0.25500000920E-02 0. -1.
        2   -1    0    0  501    0  0.00000000000E+00  0.00000000000E+00 -0.93073092209E+03  0.93073092210E+03  0.25500000920E-02 0.  1.
    10030    2    1    2    0    0  0.00000000000E+00  0.00000000000E+00 -0.24249981284E+03  0.16189620314E+04  0.16006973167E+04 0.  0.
        4    1    3    3  502    0  0.58249931843E+03  0.38528398247E+02  0.43250676639E+03  0.72653534622E+03  0.12699999809E+01 0. -1.
       -4    1    3    3    0  502 -0.58249931843E+03 -0.38528398247E+02 -0.67500657923E+03  0.89242668513E+03  0.12699999809E+01 0.  1.
</event>
<event>
 5   0  0.8694033E-05  0.1604021E+04  0.7818609E-02  0.8818082E-01
        2   -1    0    0  501    0  0.00000000000E+00  0.00000000000E+00  0.85365614831E+03  0.85365614832E+03  0.25500000920E-02 0. -1.
       -2   -1    0    0    0  501  0.00000000000E+00  0.00000000000E+00 -0.75348900245E+03  0.75348900246E+03  0.25500000920E-02 0.  1.
    10030    2    1    2    0    0  0.00000000000E+00  0.00000000000E+00  0.10016714586E+03  0.16071451508E+04  0.16040205979E+04 0.  0.
        1    1    3    3  502    0 -0.68411036287E+02 -0.13039540783E+03  0.83999577969E+03  0.85280475034E+03  0.50400001928E-02 0. -1.
       -1    1    3    3    0  502  0.68411036287E+02  0.13039540783E+03 -0.73982863383E+03  0.75434040044E+03  0.50400001928E-02 0.  1.
</event>
<event>
 5   0  0.3042125E-05  0.1596002E+04  0.7818609E-02  0.8823008E-01
        4   -1    0    0  501    0  0.00000000000E+00  0.00000000000E+00  0.45869761183E+03  0.45869936996E+03  0.12699999809E+01 0. -1.
       -4   -1    0    0    0  501  0.00000000000E+00  0.00000000000E+00 -0.13882852235E+04  0.13882858044E+04  0.12699999809E+01 0.  1.
    10030    2    1    2    0    0  0.00000000000E+00  0.00000000000E+00 -0.92958761169E+03  0.18469851744E+04  0.15960015998E+04 0.  0.
        4    1    3    3  502    0 -0.15009770424E+03 -0.53978164521E+00  0.44221430784E+03  0.46699541662E+03  0.12699999809E+01 0. -1.
       -4    1    3    3    0  502  0.15009770424E+03  0.53978164521E+00 -0.13718019195E+04  0.13799897578E+04  0.12699999809E+01 0.  1.
</event>
<event>
 5   0  0.4504463E-05  0.1599053E+04  0.7818609E-02  0.8821130E-01
       -1   -1    0    0    0  501  0.00000000000E+00  0.00000000000E+00  0.11344272026E+04  0.11344272026E+04  0.50400001928E-02 0. -1.
        1   -1    0    0  501    0  0.00000000000E+00  0.00000000000E+00 -0.56349393177E+03  0.56349393179E+03  0.50400001928E-02 0.  1.
    10030    2    1    2    0    0  0.00000000000E+00  0.00000000000E+00  0.57093327086E+03  0.16979211344E+04  0.15990532758E+04 0.  0.
        1    1    3    3  502    0  0.33273462843E+03 -0.28319696609E+03 -0.42550696708E+03  0.60989264106E+03  0.50400001928E-02 0.  1.
       -1    1    3    3    0  502 -0.33273462843E+03  0.28319696609E+03  0.99644023794E+03  0.10880284934E+04  0.50400001928E-02 0. -1.
</event>
<event>
 5   0  0.3042125E-05  0.1600506E+04  0.7818609E-02  0.8820237E-01
        3   -1    0    0  501    0  0.00000000000E+00  0.00000000000E+00  0.13221088127E+04  0.13221088166E+04  0.10100000352E+00 0.  1.
       -3   -1    0    0    0  501  0.00000000000E+00  0.00000000000E+00 -0.48438147939E+03  0.48438148992E+03  0.10100000352E+00 0. -1.
    10030    2    1    2    0    0  0.00000000000E+00  0.00000000000E+00  0.83772733330E+03  0.18064903065E+04  0.16005062144E+04 0.  0.
        2    1    3    3  502    0  0.55610646106E+03 -0.27358632722E+03  0.99028119404E+03  0.11682297367E+04  0.25500000920E-02 0.  1.
       -2    1    3    3    0  502 -0.55610646106E+03  0.27358632722E+03 -0.15255386074E+03  0.63826056976E+03  0.25500000920E-02 0. -1.
</event>
<event>
 5   0  0.8620155E-05  0.1601030E+04  0.7818609E-02  0.8819915E-01
        2   -1    0    0  501    0  0.00000000000E+00  0.00000000000E+00  0.14205388399E+04  0.14205388399E+04  0.25500000920E-02 0.  1.
       -2   -1    0    0    0  501  0.00000000000E+00  0.00000000000E+00 -0.45111366268E+03  0.45111366268E+03  0.25500000920E-02 0. -1.
    10030    2    1    2    0    0  0.00000000000E+00  0.00000000000E+00  0.96942517721E+03  0.18716525026E+04  0.16010302671E+04 0.  0.
        4    1    3    3  502    0 -0.71790669905E+03  0.23190687738E+03  0.79763736480E+03  0.10979061012E+04  0.12699999809E+01 0.  1.
       -4    1    3    3    0  502  0.71790669905E+03 -0.23190687738E+03  0.17178781241E+03  0.77374640142E+03  0.12699999809E+01 0. -1.
</event>
<event>
 5   0  0.4373026E-05  0.1607061E+04  0.7818609E-02  0.8816222E-01
        1   -1    0    0  501    0  0.00000000000E+00  0.00000000000E+00  0.14882746656E+04  0.14882746656E+04  0.50400001928E-02 0. -1.
       -1   -1    0    0    0  501  0.00000000000E+00  0.00000000000E+00 -0.43383180453E+03  0.43383180456E+03  0.50400001928E-02 0.  1.
    10030    2    1    2    0    0  0.00000000000E+00  0.00000000000E+00  0.10544428611E+04  0.19221064702E+04  0.16070605264E+04 0.  0.
        4    1    3    3  502    0 -0.57989528073E+03 -0.37119644398E+02 -0.13655615935E+03  0.59691339587E+03  0.12699999809E+01 0.  1.
       -4    1    3    3    0  502  0.57989528073E+03  0.37119644398E+02  0.11909990204E+04  0.13251930743E+04  0.12699999809E+01 0. -1.
</event>
<event>
 5   0  0.8620155E-05  0.1600688E+04  0.7818609E-02  0.8820126E-01
        2   -1    0    0  501    0  0.00000000000E+00  0.00000000000E+00  0.80882007740E+03  0.80882007740E+03  0.25500000920E-02 0.  1.
       -2   -1    0    0    0  501  0.00000000000E+00  0.00000000000E+00 -0.79195637481E+03  0.79195637481E+03  0.25500000920E-02 0. -1.
    10030    2    1    2    0    0  0.00000000000E+00  0.00000000000E+00  0.16863702594E+02  0.16007764522E+04  0.16006876227E+04 0.  0.
        4    1    3    3  502    0  0.62304749204E+03 -0.42024782872E+03  0.28367827997E+03  0.80328786516E+03  0.12699999809E+01 0.  1.
       -4    1    3    3    0  502 -0.62304749204E+03  0.42024782872E+03 -0.26681457738E+03  0.79748858706E+03  0.12699999809E+01 0. -1.
</event>
<event>
 5   0  0.4211419E-05  0.1599934E+04  0.7818609E-02  0.8820589E-01
        1   -1    0    0  501    0  0.00000000000E+00  0.00000000000E+00  0.74721891524E+03  0.74721891526E+03  0.50400001928E-02 0.  1.
       -1   -1    0    0    0  501  0.00000000000E+00  0.00000000000E+00 -0.85643821329E+03  0.85643821331E+03  0.50400001928E-02 0. -1.
    10030    2    1    2    0    0  0.00000000000E+00  0.00000000000E+00 -0.10921929806E+03  0.16036571286E+04  0.15999335395E+04 0.  0.
        2    1    3    3  502    0 -0.46317122768E+03  0.85997605057E+02  0.59344257799E+03  0.75769206648E+03  0.25500000920E-02 0.  1.
       -2    1    3    3    0  502  0.46317122768E+03 -0.85997605057E+02 -0.70266187604E+03  0.84596506209E+03  0.25500000920E-02 0. -1.
</event>
<event>
 5   0  0.8694033E-05  0.1595466E+04  0.7818609E-02  0.8823338E-01
        2   -1    0    0  501    0  0.00000000000E+00  0.00000000000E+00  0.13923655536E+04  0.13923655536E+04  0.25500000920E-02 0. -1.
       -2   -1    0    0    0  501  0.00000000000E+00  0.00000000000E+00 -0.45704795247E+03  0.45704795248E+03  0.25500000920E-02 0.  1.
    10030    2    1    2    0    0  0.00000000000E+00  0.00000000000E+00  0.93531760115E+03  0.18494135061E+04  0.15954658572E+04 0.  0.
        1    1    3    3  502    0 -0.99892513896E+02 -0.73921247782E+03  0.79544779860E+03  0.10904819127E+04  0.50400001928E-02 0. -1.
       -1    1    3    3    0  502  0.99892513896E+02  0.73921247782E+03  0.13986980255E+03  0.75893159335E+03  0.50400001928E-02 0.  1.
</event>
<event>
 5   0  0.4256406E-05  0.1594280E+04  0.7818609E-02  0.8824070E-01
       -1   -1    0    0    0  501  0.00000000000E+00  0.00000000000E+00  0.14489696326E+04  0.14489696326E+04  0.50400001928E-02 0.  1.
        1   -1    0    0  501    0  0.00000000000E+00  0.00000000000E+00 -0.43854045298E+03  0.43854045301E+03  0.50400001928E-02 0. -1.
    10030    2    1    2    0    0  0.00000000000E+00  0.00000000000E+00  0.10104291796E+04  0.18875100856E+04  0.15942795226E+04 0.  0.
        3    1    3    3  502    0  0.39469063208E+03  0.64931611096E+03  0.21998976337E+03  0.79106738853E+03  0.10100000352E+00 0. -1.
       -3    1    3    3    0  502 -0.39469063208E+03 -0.64931611096E+03  0.79043941622E+03  0.10964426971E+04  0.10100000352E+00 0.  1.
</event>
<event>
 5   0  0.4504463E-05  0.1601397E+04  0.7818609E-02  0.8819690E-01
        1   -1    0    0  501    0  0.00000000000E+00  0.00000000000E+00  0.10395774918E+04  0.10395774919E+04  0.50400001928E-02 0.  1.
       -1   -1    0    0    0  501  0.00000000000E+00  0.00000000000E+00 -0.61671018909E+03  0.61671018911E+03  0.50400001928E-02 0. -1.
    10030    2    1    2    0    0  0.00000000000E+00  0.00000000000E+00  0.42286730276E+03  0.16562876810E+04  0.16013969297E+04 0.  0.
        1    1    3    3  502    0  0.45949900386E+03  0.14099747258E+02 -0.46661339343E+03  0.65503144686E+03  0.50400001928E-02 0. -1.
       -1    1    3    3    0  502 -0.45949900386E+03 -0.14099747258E+02  0.88948069619E+03  0.10012562341E+04  0.50400001928E-02 0.  1.
</event>
<event>
 5   0  0.4256406E-05  0.1597584E+04  0.7818609E-02  0.8822034E-01
       -1   -1    0    0    0  501  0.00000000000E+00  0.00000000000E+00  0.10594697162E+04  0.10594697162E+04  0.50400001928E-02 0. -1.
        1   -1    0    0  501    0  0.00000000000E+00  0.00000000000E+00 -0.60225247699E+03  0.60225247701E+03  0.50400001928E-02 0.  1.
    10030    2    1    2    0    0  0.00000000000E+00  0.00000000000E+00  0.45721723922E+03  0.16617221932E+04  0.15975835013E+04 0.  0.
        3    1    3    3  502    0  0.74457353195E+03  0.16337535722E+03 -0.19694826178E+02  0.76254124361E+03  0.10100000352E+00 0. -1.
       -3    1    3    3    0  502 -0.74457353195E+03 -0.16337535722E+03  0.47691206539E+03  0.89918094961E+03  0.10100000352E+00 0.  1.
</event>
<event>
 5   0  0.7849690E-05  0.1595717E+04  0.7818609E-02  0.8823183E-01
       -2   -1    0    0    0  501  0.00000000000E+00  0.00000000000E+00  0.79014717609E+03  0.79014717609E+03  0.25500000920E-02 0.  1.
        2   -1    0    0  501    0  0.00000000000E+00  0.00000000000E+00 -0.80564547250E+03  0.80564547250E+03  0.25500000920E-02 0. -1.
    10030    2    1    2    0    0  0.00000000000E+00  0.00000000000E+00 -0.15498296409E+02  0.15957926486E+04  0.15957173873E+04 0.  0.
        3    1    3    3  502    0 -0.34019503441E+03 -0.28365774570E+02  0.71342368988E+03  0.79089231258E+03  0.10100000352E+00 0.  1.
       -3    1    3    3    0  502  0.34019503441E+03  0.28365774570E+02 -0.72892198629E+03  0.80490033601E+03  0.10100000352E+00 0. -1.
</event>
<event>
 5   0  0.7901257E-05  0.1598183E+04  0.7818609E-02  0.8821665E-01
       -2   -1    0    0    0  501  0.00000000000E+00  0.00000000000E+00  0.40230467991E+03  0.40230467992E+03  0.25500000920E-02 0. -1.
        2   -1    0    0  501    0  0.00000000000E+00  0.00000000000E+00 -0.15872230347E+04  0.15872230347E+04  0.25500000920E-02 0.  1.
    10030    2    1    2    0    0  0.00000000000E+00  0.00000000000E+00 -0.11849183548E+04  0.19895277146E+04  0.15981830370E+04 0.  0.
        2    1    3    3  502    0 -0.79307376498E+03 -0.97768496318E+02 -0.58654384340E+03  0.99124081625E+03  0.25500000920E-02 0.  1.
       -2    1    3    3    0  502  0.79307376498E+03  0.97768496318E+02 -0.59837451140E+03  0.99828689837E+03  0.25500000920E-02 0. -1.
</event>
<event>
 5   0  0.4373026E-05  0.1596582E+04  0.7818609E-02  0.8822651E-01
       -1   -1    0    0    0  501  0.00000000000E+00  0.00000000000E+00  0.55391718729E+03  0.55391718731E+03  0.50400001928E-02 0. -1.
        1   -1    0    0  501    0  0.00000000000E+00  0.00000000000E+00 -0.11504761404E+04  0.11504761404E+04  0.50400001928E-02 0.  1.
    10030    2    1    2    0    0  0.00000000000E+00  0.00000000000E+00 -0.59655895312E+03  0.17043933277E+04  0.15965819838E+04 0.  0.
        4    1    3    3  502    0 -0.26454220600E+03 -0.16139179507E+03 -0.10836459216E+04  0.11270847291E+04  0.12699999809E+01 0.  1.
       -4    1    3    3    0  502  0.26454220600E+03  0.16139179507E+03  0.48708696849E+03  0.57730859862E+03  0.12699999809E+01 0. -1.
</event>
<event>
 5   0  0.8694033E-05  0.1599212E+04  0.7818609E-02  0.8821032E-01
       -2   -1    0    0    0  501  0.00000000000E+00  0.00000000000E+00  0.31907019008E+03  0.31907019009E+03  0.25500000920E-02 0.  1.
        2   -1    0    0  501    0  0.00000000000E+00  0.00000000000E+00 -0.20038526448E+04  0.20038526448E+04  0.25500000920E-02 0. -1.
    10030    2    1    2    0    0  0.00000000000E+00  0.00000000000E+00 -0.16847824547E+04  0.23229228349E+04  0.15992118612E+04 0.  0.
        1    1    3    3  502    0 -0.87802977616E+02  0.74234085617E+03 -0.12547452737E+04  0.14605358645E+04  0.50400001928E-02 0. -1.
       -1    1    3    3    0  502  0.87802977616E+02 -0.74234085617E+03 -0.43003718105E+03  0.86238697041E+03  0.50400001928E-02 0.  1.
</event>
<event>
 5   0  0.8037548E-05  0.1601996E+04  0.7818609E-02  0.8819323E-01
       -2   -1    0    0    0  501  0.00000000000E+00  0.00000000000E+00  0.14033209748E+04  0.14033209748E+04  0.25500000920E-02 0. -1.
        2   -1    0    0  501    0  0.00000000000E+00  0.00000000000E+00 -0.45719977741E+03  0.45719977742E+03  0.25500000920E-02 0.  1.
    10030    2    1    2    0    0  0.00000000000E+00  0.00000000000E+00  0.94612119735E+03  0.18605207522E+04  0.16019963013E+04 0.  0.
        5    1    3    3  502    0  0.56406231628E+03  0.46267907418E+03  0.85708429726E+03  0.11255460030E+04  0.46999998093E+01 0. -1.
       -5    1    3    3    0  502 -0.56406231628E+03 -0.46267907418E+03  0.89036900091E+02  0.73497474916E+03  0.46999998093E+01 0.  1.
</event>
<event>
 5   0  0.4373026E-05  0.1599025E+04  0.7818609E-02  0.8821147E-01
        1   -1    0    0  501    0  0.00000000000E+00  0.00000000000E+00  0.36314243432E+03  0.36314243435E+03  0.50400001928E-02 0. -1.
       -1   -1    0    0    0  501  0.00000000000E+00  0.00000000000E+00 -0.17602466548E+04  0.17602466548E+04  0.50400001928E-02 0.  1.
    10030    2    1    2    0    0  0.00000000000E+00  0.00000000000E+00 -0.13971042205E+04  0.21233890891E+04  0.15990250220E+04 0.  0.
        4    1    3    3  502    0  0.13530962466E+03  0.12450092830E+03  0.33468245292E+03  0.38186795213E+03  0.12699999809E+01 0. -1.
       -4    1    3    3    0  502 -0.13530962466E+03 -0.12450092830E+03 -0.17317866734E+04  0.17415211370E+04  0.12699999809E+01 0.  1.
</event>
<event>
 5   0  0.8694033E-05  0.1600280E+04  0.7818609E-02  0.8820376E-01
       -2   -1    0    0    0  501  0.00000000000E+00  0.00000000000E+00  0.33775619823E+03  0.33775619824E+03  0.25500000920E-02 0. -1.
        2   -1    0    0  501    0  0.00000000000E+00  0.00000000000E+00 -0.18955208267E+04  0.18955208267E+04  0.25500000920E-02 0.  1.
    10030    2    1    2    0    0  0.00000000000E+00  0.00000000000E+00 -0.15577646284E+04  0.22332770249E+04  0.16002798606E+04 0.  0.
        1    1    3    3  502    0  0.72777073774E+03 -0.33252018066E+03 -0.77609441698E+03  0.11146938868E+04  0.50400001928E-02 0. -1.
       -1    1    3    3    0  502 -0.72777073774E+03  0.33252018066E+03 -0.78167021144E+03  0.11185831381E+04  0.50400001928E-02 0.  1.
</event>
<event>
 5   0  0.4504463E-05  0.1600956E+04  0.7818609E-02  0.8819961E-01
       -1   -1    0    0    0  501  0.00000000000E+00  0.00000000000E+00  0.64831179404E+03  0.64831179406E+03  0.50400001928E-02 0.  1.
        1   -1    0    0  501    0  0.00000000000E+00  0.00000000000E+00 -0.98835879602E+03  0.98835879603E+03  0.50400001928E-02 0. -1.
    10030    2    1    2    0    0  0.00000000000E+00  0.00000000000E+00 -0.34004700198E+03  0.16366705901E+04  0.16009555450E+04 0.  0.
        1    1    3    3  502    0 -0.63315123220E+03  0.37850017619E+03 -0.48779838086E+03  0.88435859617E+03  0.50400001928E-02 0.  1.
       -1    1    3    3    0  502  0.63315123220E+03 -0.37850017619E+03  0.14775137888E+03  0.75231199393E+03  0.50400001928E-02 0. -1.
</event>
<event>
 5   0  0.8694033E-05  0.1600542E+04  0.7818609E-02  0.8820215E-01
        2   -1    0    0  501    0  0.00000000000E+00  0.00000000000E+00  0.14425433218E+04  0.14425433218E+04  0.25500000920E-02 0. -1.
       -2   -1    0    0    0  501  0.00000000000E+00  0.00000000000E+00 -0.44396154447E+03  0.44396154448E+03  0.25500000920E-02 0.  1.
    10030    2    1    2    0    0  0.00000000000E+00  0.00000000000E+00  0.99858177735E+03  0.18865048663E+04  0.16005421096E+04 0.  0.
        1    1    3    3  502    0 -0.61388093977E+03 -0.27479299337E+03  0.10104472598E+04  0.12138223356E+04  0.50400001928E-02 0. -1.
       -1    1    3    3    0  502  0.61388093977E+03  0.27479299337E+03 -0.11865482500E+02  0.67268253071E+03  0.50400001928E-02 0.  1.
</event>
<event>
 5   0  0.4373026E-05  0.1599575E+04  0.7818609E-02  0.8820809E-01
        1   -1    0    0  501    0  0.00000000000E+00  0.00000000000E+00  0.53305736142E+03  0.53305736144E+03  0.50400001928E-02 0.  1.
       -1   -1    0    0    0  501  0.00000000000E+00  0.00000000000E+00 -0.11999831378E+04  0.11999831378E+04  0.50400001928E-02 0. -1.
    10030    2    1    2    0    0  0.00000000000E+00  0.00000000000E+00 -0.66692577634E+03  0.17330404992E+04  0.15995747500E+04 0.  0.
        4    1    3    3  502    0 -0.78781443206E+03  0.12769521687E+03 -0.38976608550E+03  0.88818740257E+03  0.12699999809E+01 0. -1.
       -4    1    3    3    0  502  0.78781443206E+03 -0.12769521687E+03 -0.27715969084E+03  0.84485309664E+03  0.12699999809E+01 0.  1.
</event>
<event>
 5   0  0.7901257E-05  0.1598697E+04  0.7818609E-02  0.8821349E-01
        2   -1    0    0  501    0  0.00000000000E+00  0.00000000000E+00  0.13157427663E+04  0.13157427663E+04  0.25500000920E-02 0. -1.
       -2   -1    0    0    0  501  0.00000000000E+00  0.00000000000E+00 -0.48562547585E+03  0.48562547586E+03  0.25500000920E-02 0.  1.
    10030    2    1    2    0    0  0.00000000000E+00  0.00000000000E+00  0.83011729049E+03  0.18013682422E+04  0.15986972284E+04 0.  0.
        2    1    3    3  502    0  0.61160652230E+03 -0.18365902806E+03  0.95680668445E+03  0.11503356937E+04  0.25500000920E-02 0. -1.
       -2    1    3    3    0  502 -0.61160652230E+03  0.18365902806E+03 -0.12668939396E+03  0.65103254854E+03  0.25500000920E-02 0.  1.
</event>
<event>
 5   0  0.7901257E-05  0.1597129E+04  0.7818609E-02  0.8822314E-01
       -2   -1    0    0    0  501  0.00000000000E+00  0.00000000000E+00  0.43602883675E+03  0.43602883675E+03  0.25500000920E-02 0.  1.
        2   -1    0    0  501    0  0.00000000000E+00  0.00000000000E+00 -0.14625301430E+04  0.14625301430E+04  0.25500000920E-02 0. -1.
    10030    2    1    2    0    0  0.00000000000E+00  0.00000000000E+00 -0.10265013063E+04  0.18985589798E+04  0.15971290705E+04 0.  0.
        2    1    3    3  502    0 -0.50180792241E+03  0.55614330271E+03 -0.18425138802E+03  0.77139817095E+03  0.25500000920E-02 0. -1.
       -2    1    3    3    0  502  0.50180792241E+03 -0.55614330271E+03 -0.84224991824E+03  0.11271608088E+04  0.25500000920E-02 0.  1.
</event>
<event>
 5   0  0.4373026E-05  0.1606045E+04  0.7818609E-02  0.8816843E-01
       -1   -1    0    0    0  501  0.00000000000E+00  0.00000000000E+00  0.89631920589E+03  0.89631920590E+03  0.50400001928E-02 0.  1.
        1   -1    0    0  501    0  0.00000000000E+00  0.00000000000E+00 -0.71943671552E+03  0.71943671554E+03  0.50400001928E-02 0. -1.
    10030    2    1    2    0    0  0.00000000000E+00  0.00000000000E+00  0.17688249037E+03  0.16157559214E+04  0.16060447635E+04 0.  0.
        4    1    3    3  502    0 -0.21620394413E+03 -0.87310492515E+02  0.86151202730E+03  0.89250874150E+03  0.12699999809E+01 0.  1.
       -4    1    3    3    0  502  0.21620394413E+03  0.87310492515E+02 -0.68462953693E+03  0.72324717994E+03  0.12699999809E+01 0. -1.
</event>
<event>
 5   0  0.4314657E-05  0.1600162E+04  0.7818609E-02  0.8820448E-01
        1   -1    0    0  501    0  0.00000000000E+00  0.00000000000E+00  0.15939607268E+04  0.15939607268E+04  0.50400001928E-02 0. -1.
       -1   -1    0    0    0  501  0.00000000000E+00  0.00000000000E+00 -0.40159707186E+03  0.40159707189E+03  0.50400001928E-02 0.  1.
    10030    2    1    2    0    0  0.00000000000E+00  0.00000000000E+00  0.11923636550E+04  0.19955577987E+04  0.16001624425E+04 0.  0.
        5    1    3    3  502    0 -0.62756441510E+02  0.36141947215E+03  0.14828892575E+04  0.15275945293E+04  0.46999998093E+01 0. -1.
       -5    1    3    3    0  502  0.62756441510E+02 -0.36141947215E+03 -0.29052560256E+03  0.46796326944E+03  0.46999998093E+01 0.  1.
</event>
<event>
 5   0  0.4211419E-05  0.1601265E+04  0.7818609E-02  0.8819771E-01
       -1   -1    0    0    0  501  0.00000000000E+00  0.00000000000E+00  0.47089073606E+03  0.47089073608E+03  0.50400001928E-02 0. -1.
        1   -1    0    0  501    0  0.00000000000E+00  0.00000000000E+00 -0.13612769646E+04  0.13612769646E+04  0.50400001928E-02 0.  1.
    10030    2    1    2    0    0  0.00000000000E+00  0.00000000000E+00 -0.89038622856E+03  0.18321677007E+04  0.16012653895E+04 0.  0.
        2    1    3    3  502    0  0.42497413542E+03  0.13632236105E+03 -0.12057426338E+04  0.12856912930E+04  0.25500000920E-02 0.  1.
       -2    1    3    3    0  502 -0.42497413542E+03 -0.13632236105E+03  0.31535640522E+03  0.54647640774E+03  0.25500000920E-02 0. -1.
</event>
<event>
 5   0  0.7849690E-05  0.1595072E+04  0.7818609E-02  0.8823581E-01
        2   -1    0    0  501    0  0.00000000000E+00  0.00000000000E+00  0.17294070302E+04  0.17294070302E+04  0.25500000920E-02 0. -1.
       -2   -1    0    0    0  501  0.00000000000E+00  0.00000000000E+00 -0.36779304944E+03  0.36779304945E+03  0.25500000920E-02 0.  1.
    10030    2    1    2    0    0  0.00000000000E+00  0.00000000000E+00  0.13616139808E+04  0.20972000797E+04  0.15950722684E+04 0.  0.
        3    1    3    3  502    0 -0.40972940596E+02  0.61387845816E+03  0.13569500018E+02  0.61539392651E+03  0.10100000352E+00 0.  1.
       -3    1    3    3    0  502  0.40972940596E+02 -0.61387845816E+03  0.13480444808E+04  0.14818061532E+04  0.10100000352E+00 0. -1.
</event>
<event>
 5   0  0.4211419E-05  0.1602504E+04  0.7818609E-02  0.8819011E-01
       -1   -1    0    0    0  501  0.00000000000E+00  0.00000000000E+00  0.41905366684E+03  0.41905366687E+03  0.50400001928E-02 0. -1.
        1   -1    0    0  501    0  0.00000000000E+00  0.00000000000E+00 -0.15320350165E+04  0.15320350165E+04  0.50400001928E-02 0.  1.
    10030    2    1    2    0    0  0.00000000000E+00  0.00000000000E+00 -0.11129813496E+04  0.19510886834E+04  0.16025041547E+04 0.  0.
        2    1    3    3  502    0  0.36449545982E+03 -0.71145025574E+03 -0.62302687580E+03  0.10134993313E+04  0.25500000920E-02 0. -1.
       -2    1    3    3    0  502 -0.36449545982E+03  0.71145025574E+03 -0.48995447384E+03  0.93758935204E+03  0.25500000920E-02 0.  1.
</event>
<event>
 5   0  0.4504463E-05  0.1600971E+04  0.7818609E-02  0.8819952E-01
        1   -1    0    0  501    0  0.00000000000E+00  0.00000000000E+00  0.19041416161E+04  0.19041416161E+04  0.50400001928E-02 0.  1.
       -1   -1    0    0    0  501  0.00000000000E+00  0.00000000000E+00 -0.33651732166E+03  0.33651732170E+03  0.50400001928E-02 0. -1.
    10030    2    1    2    0    0  0.00000000000E+00  0.00000000000E+00  0.15676242944E+04  0.22406589378E+04  0.16009705016E+04 0.  0.
        1    1    3    3  502    0  0.23058783471E+03 -0.69922357641E+03  0.12234894135E+04  0.14279393209E+04  0.50400001928E-02 0.  1.
       -1    1    3    3    0  502 -0.23058783471E+03  0.69922357641E+03  0.34413488092E+03  0.81271961685E+03  0.50400001928E-02 0. -1.
</event>
<event>
 5   0  0.8694033E-05  0.1605650E+04  0.7818609E-02  0.8817084E-01
        2   -1    0    0  501    0  0.00000000000E+00  0.00000000000E+00  0.20944422382E+04  0.20944422382E+04  0.25500000920E-02 0.  1.
       -2   -1    0    0    0  501  0.00000000000E+00  0.00000000000E+00 -0.30773260142E+03  0.30773260143E+03  0.25500000920E-02 0. -1.
    10030    2    1    2    0    0  0.00000000000E+00  0.00000000000E+00  0.17867096368E+04  0.24021748396E+04  0.16056502215E+04 0.  0.
        1    1    3    3  502    0  0.56032608760E+02 -0.34199637814E+03 -0.19006352570E+03  0.39525348794E+03  0.50400001928E-02 0. -1.
       -1    1    3    3    0  502 -0.56032608760E+02  0.34199637814E+03  0.19767731625E+04  0.20069213517E+04  0.50400001928E-02 0.  1.
</event>
<event>
 5   0  0.4314657E-05  0.1599703E+04  0.7818609E-02  0.8820730E-01
        1   -1    0    0  501    0  0.00000000000E+00  0.00000000000E+00  0.18759298017E+04  0.18759298017E+04  0.50400001928E-02 0.  1.
       -1   -1    0    0    0  501  0.00000000000E+00  0.00000000000E+00 -0.34103757330E+03  0.34103757333E+03  0.50400001928E-02 0. -1.
    10030    2    1    2    0    0  0.00000000000E+00  0.00000000000E+00  0.15348922284E+04  0.22169673751E+04  0.15997031566E+04 0.  0.
        5    1    3    3  502    0  0.57819175568E+03  0.54562721443E+03  0.88925771403E+03  0.11928185677E+04  0.46999998093E+01 0.  1.
       -5    1    3    3    0  502 -0.57819175568E+03 -0.54562721443E+03  0.64563451440E+03  0.10241488074E+04  0.46999998093E+01 0. -1.
</event>
<event>
 5   0  0.4314657E-05  0.1589766E+04  0.7818609E-02  0.8826860E-01
       -1   -1    0    0    0  501  0.00000000000E+00  0.00000000000E+00  0.37544216260E+03  0.37544216263E+03  0.50400001928E-02 0. -1.
        1   -1    0    0  501    0  0.00000000000E+00  0.00000000000E+00 -0.16829205082E+04  0.16829205082E+04  0.50400001928E-02 0.  1.
    10030    2    1    2    0    0  0.00000000000E+00  0.00000000000E+00 -0.13074783456E+04  0.20583626709E+04  0.15897664170E+04 0.  0.
        5    1    3    3  502    0 -0.37021422287E+03  0.14906309227E+03 -0.15437746910E+04  0.15945346541E+04  0.46999998093E+01 0.  1.
       -5    1    3    3    0  502  0.37021422287E+03 -0.14906309227E+03  0.23629634543E+03  0.46382801679E+03  0.46999998093E+01 0. -1.
</event>
<event>
 5   0  0.7901257E-05  0.1600912E+04  0.7818609E-02  0.8819988E-01
        2   -1    0    0  501    0  0.00000000000E+00  0.00000000000E+00  0.15510693910E+04  0.15510693910E+04  0.25500000920E-02 0. -1.
       -2   -1    0    0    0  501  0.00000000000E+00  0.00000000000E+00 -0.41308909493E+03  0.41308909494E+03  0.25500000920E-02 0.  1.
    10030    2    1    2    0    0  0.00000000000E+00  0.00000000000E+00  0.11379802961E+04  0.19641584860E+04  0.16009120537E+04 0.  0.
        2    1    3    3  502    0  0.63713351432E+03  0.48266888192E+03  0.51662745145E+03  0.95174171299E+03  0.25500000920E-02 0. -1.
       -2    1    3    3    0  502 -0.63713351432E+03 -0.48266888192E+03  0.62135284466E+03  0.10124167730E+04  0.25500000920E-02 0.  1.
</event>
<event>
 5   0  0.7901257E-05  0.1600818E+04  0.7818609E-02  0.8820046E-01
       -2   -1    0    0    0  501  0.00000000000E+00  0.00000000000E+00  0.66512733110E+03  0.66512733110E+03  0.25500000920E-02 0. -1.
        2   -1    0    0  501    0  0.00000000000E+00  0.00000000000E+00 -0.96320558523E+03  0.96320558523E+03  0.25500000920E-02 0.  1.
    10030    2    1    2    0    0  0.00000000000E+00  0.00000000000E+00 -0.29807825413E+03  0.16283329163E+04  0.16008177413E+04 0.  0.
        2    1    3    3  502    0 -0.55646042643E+03  0.42124425227E+03 -0.54764121072E+03  0.88713348597E+03  0.25500000920E-02 0.  1.
       -2    1    3    3    0  502  0.55646042643E+03 -0.42124425227E+03  0.24956295659E+03  0.74119943036E+03  0.25500000920E-02 0. -1.
</event>
<event>
 5   0  0.4256406E-05  0.1600102E+04  0.7818609E-02  0.8820485E-01
        1   -1    0    0  501    0  0.00000000000E+00  0.00000000000E+00  0.17149183226E+04  0.17149183226E+04  0.50400001928E-02 0. -1.
       -1   -1    0    0    0  501  0.00000000000E+00  0.00000000000E+00 -0.37324320104E+03  0.37324320108E+03  0.50400001928E-02 0.  1.
    10030    2    1    2    0    0  0.00000000000E+00  0.00000000000E+00  0.13416751215E+04  0.20881615237E+04  0.16001020021E+04 0.  0.
        3    1    3    3  502    0 -0.18664227496E+03  0.57885650387E+03  0.13491598842E+04  0.14799130360E+04  0.10100000352E+00 0. -1.
       -3    1    3    3    0  502  0.18664227496E+03 -0.57885650387E+03 -0.74847626238E+01  0.60824848767E+03  0.10100000352E+00 0.  1.
</event>
<event>
 5   0  0.8037548E-05  0.1598332E+04  0.7818609E-02  0.8821573E-01
       -2   -1    0    0    0  501  0.00000000000E+00  0.00000000000E+00  0.49061580439E+03  0.49061580440E+03  0.25500000920E-02 0. -1.
        2   -1    0    0  501    0  0.00000000000E+00  0.00000000000E+00 -0.13017643905E+04  0.13017643905E+04  0.25500000920E-02 0.  1.
    10030    2    1    2    0    0  0.00000000000E+00  0.00000000000E+00 -0.81114858612E+03  0.17923801949E+04  0.15983318599E+04 0.  0.
        5    1    3    3  502    0 -0.57260765745E+01 -0.75131330761E+03 -0.10023102022E+03  0.75800581895E+03  0.46999998093E+01 0.  1.
       -5    1    3    3    0  502  0.57260765745E+01  0.75131330761E+03 -0.71091756590E+03  0.10343743760E+04  0.46999998093E+01 0. -1.
</event>
<event>
 5   0  0.4373026E-05  0.1599470E+04  0.7818609E-02  0.8820874E-01
        1   -1    0    0  501    0  0.00000000000E+00  0.00000000000E+00  0.96286737595E+03  0.96286737596E+03  0.50400001928E-02 0.  1.
       -1   -1    0    0    0  501  0.00000000000E+00  0.00000000000E+00 -0.66424105617E+03  0.66424105619E+03  0.50400001928E-02 0. -1.
    10030    2    1    2    0    0  0.00000000000E+00  0.00000000000E+00  0.29862631978E+03  0.16271084322E+04  0.15994699657E+04 0.  0.
        4    1    3    3  502    0  0.24253298414E+03  0.62309864722E+03  0.59564314406E+03  0.89547001096E+03  0.12699999809E+01 0.  1.
       -4    1    3    3    0  502 -0.24253298414E+03 -0.62309864722E+03 -0.29701682428E+03  0.73163842119E+03  0.12699999809E+01 0. -1.
</event>
<event>
 5   0  0.7901257E-05  0.1601081E+04  0.7818609E-02  0.8819884E-01
        2   -1    0    0  501    0  0.00000000000E+00  0.00000000000E+00  0.76804597819E+03  0.76804597819E+03  0.25500000920E-02 0. -1.
       -2   -1    0    0    0  501  0.00000000000E+00  0.00000000000E+00 -0.83441017116E+03  0.83441017117E+03  0.25500000920E-02 0.  1.
    10030    2    1    2    0    0  0.00000000000E+00  0.00000000000E+00 -0.66364192975E+02  0.16024561494E+04  0.16010813547E+04 0.  0.
        2    1    3    3  502    0  0.46720424332E+03  0.20859151494E+03  0.58303736819E+03  0.77570793331E+03  0.25500000920E-02 0. -1.
       -2    1    3    3    0  502 -0.46720424332E+03 -0.20859151494E+03 -0.64940156117E+03  0.82674821605E+03  0.25500000920E-02 0.  1.
</event>
<event>
 5   0  0.4256406E-05  0.1600753E+04  0.7818609E-02  0.8820086E-01
       -1   -1    0    0    0  501  0.00000000000E+00  0.00000000000E+00  0.54851404480E+03  0.54851404483E+03  0.50400001928E-02 0.  1.
        1   -1    0    0  501    0  0.00000000000E+00  0.00000000000E+00 -0.11678871229E+04  0.11678871229E+04  0.50400001928E-02 0. -1.
    10030    2    1    2    0    0  0.00000000000E+00  0.00000000000E+00 -0.61937307810E+03  0.17164011677E+04  0.16007529349E+04 0.  0.
        3    1    3    3  502    0 -0.40314494708E+02  0.66859720639E+03 -0.77946619470E+03  0.10277232321E+04  0.10100000352E+00 0. -1.
       -3    1    3    3    0  502  0.40314494708E+02 -0.66859720639E+03  0.16009311660E+03  0.68867793566E+03  0.10100000352E+00 0.  1.
</event>
<event>
 5   0  0.4314657E-05  0.1601432E+04  0.7818609E-02  0.8819669E-01
        1   -1    0    0  501    0  0.00000000000E+00  0.00000000000E+00  0.50509770557E+03  0.50509770560E+03  0.50400001928E-02 0.  1.
       -1   -1    0    0    0  501  0.00000000000E+00  0.00000000000E+00 -0.12693499927E+04  0.12693499927E+04  0.50400001928E-02 0. -1.
    10030    2    1    2    0    0  0.00000000000E+00  0.00000000000E+00 -0.76425228711E+03  0.17744476983E+04  0.16014315707E+04 0.  0.
        5    1    3    3  502    0 -0.40424823674E+03  0.47986119555E+03  0.16904949251E+03  0.64983322846E+03  0.46999998093E+01 0.  1.
       -5    1    3    3    0  502  0.40424823674E+03 -0.47986119555E+03 -0.93330177962E+03  0.11246144698E+04  0.46999998093E+01 0. -1.
</event>
<event>
 5   0  0.4211419E-05  0.1597805E+04  0.7818609E-02  0.8821897E-01
        1   -1    0    0  501    0  0.00000000000E+00  0.00000000000E+00  0.13092147993E+04  0.13092147993E+04  0.50400001928E-02 0.  1.
       -1   -1    0    0    0  501  0.00000000000E+00  0.00000000000E+00 -0.48750255504E+03  0.48750255507E+03  0.50400001928E-02 0. -1.
    10030    2    1    2    0    0  0.00000000000E+00  0.00000000000E+00  0.82171224424E+03  0.17967173544E+04  0.15978054447E+04 0.  0.
        2    1    3    3  502    0 -0.34459776840E+03 -0.23644482539E+03  0.11764945634E+04  0.12485164136E+04  0.25500000920E-02 0.  1.
       -2    1    3    3    0  502  0.34459776840E+03  0.23644482539E+03 -0.35478231914E+03  0.54820094073E+03  0.25500000920E-02 0. -1.
</event>
<event>
 5   0  0.4314657E-05  0.1599120E+04  0.7818609E-02  0.8821089E-01
        1   -1    0    0  501    0  0.00000000000E+00  0.00000000000E+00  0.28548332742E+04  0.28548332742E+04  0.50400001928E-02 0. -1.
       -1   -1    0    0    0  501  0.00000000000E+00  0.00000000000E+00 -0.22393460997E+03  0.22393461003E+03  0.50400001928E-02 0.  1.
    10030    2    1    2    0    0  0.00000000000E+00  0.00000000000E+00  0.26308986642E+04  0.30787678842E+04  0.15991197277E+04 0.  0.
        5    1    3    3  502    0 -0.30386224909E+02 -0.65382482936E+03  0.21995400530E+04  0.22948657400E+04  0.46999998093E+01 0. -1.
       -5    1    3    3    0  502  0.30386224909E+02  0.65382482936E+03  0.43135861123E+03  0.78390214417E+03  0.46999998093E+01 0.  1.
</event>
<event>
 5   0  0.7901257E-05  0.1598065E+04  0.7818609E-02  0.8821738E-01
       -2   -1    0    0    0  501  0.00000000000E+00  0.00000000000E+00  0.90625155979E+03  0.90625155980E+03  0.25500000920E-02 0.  1.
        2   -1    0    0  501    0  0.00000000000E+00  0.00000000000E+00 -0.70449817124E+03  0.70449817125E+03  0.25500000920E-02 0. -1.
    10030    2    1    2    0    0  0.00000000000E+00  0.00000000000E+00  0.20175338855E+03  0.16107497310E+04  0.15980645376E+04 0.  0.
        2    1    3    3  502    0 -0.34814038258E+03 -0.55958272365E+03 -0.35450379820E+03  0.74833648416E+03  0.25500000920E-02 0. -1.
       -2    1    3    3    0  502  0.34814038258E+03  0.55958272365E+03  0.55625718674E+03  0.86241324688E+03  0.25500000920E-02 0.  1.
</event>
<event>
 5   0  0.7901257E-05  0.1602652E+04  0.7818609E-02  0.8818920E-01
       -2   -1    0    0    0  501  0.00000000000E+00  0.00000000000E+00  0.46026044420E+03  0.46026044421E+03  0.25500000920E-02 0.  1.
        2   -1    0    0  501    0  0.00000000000E+00  0.00000000000E+00 -0.13951307914E+04  0.13951307914E+04  0.25500000920E-02 0. -1.
    10030    2    1    2    0    0  0.00000000000E+00  0.00000000000E+00 -0.93487034721E+03  0.18553912356E+04  0.16026521990E+04 0.  0.
        2    1    3    3  502    0  0.35665744389E+03  0.54345516656E+03  0.75050314478E+02  0.65435510241E+03  0.25500000920E-02 0.  1.
       -2    1    3    3    0  502 -0.35665744389E+03 -0.54345516656E+03 -0.10099206617E+04  0.12010361332E+04  0.25500000920E-02 0. -1.
</event>
<event>
 5   0  0.4373026E-05  0.1601964E+04  0.7818609E-02  0.8819342E-01
       -1   -1    0    0    0  501  0.00000000000E+00  0.00000000000E+00  0.41735202302E+03  0.41735202305E+03  0.50400001928E-02 0.  1.
        1   -1    0    0  501    0  0.00000000000E+00  0.00000000000E+00 -0.15372444233E+04  0.15372444233E+04  0.50400001928E-02 0. -1.
    10030    2    1    2    0    0  0.00000000000E+00  0.00000000000E+00 -0.11198924003E+04  0.19545964464E+04  0.16019638822E+04 0.  0.
        4    1    3    3  502    0 -0.66532482675E+02  0.59876713849E+03 -0.12039848504E+04  0.13463022655E+04  0.12699999809E+01 0. -1.
       -4    1    3    3    0  502  0.66532482675E+02 -0.59876713849E+03  0.84092450060E+02  0.60829418084E+03  0.12699999809E+01 0.  1.
</event>
<event>
 5   0  0.8620155E-05  0.1598607E+04  0.7818609E-02  0.8821404E-01
       -2   -1    0    0    0  501  0.00000000000E+00  0.00000000000E+00  0.46779550103E+03  0.46779550104E+03  0.25500000920E-02 0.  1.
        2   -1    0    0  501    0  0.00000000000E+00  0.00000000000E+00 -0.13657385239E+04  0.13657385239E+04  0.25500000920E-02 0. -1.
    10030    2    1    2    0    0  0.00000000000E+00  0.00000000000E+00 -0.89794302283E+03  0.18335340249E+04  0.15986073152E+04 0.  0.
        4    1    3    3  502    0  0.58166750313E+03 -0.53666650548E+03 -0.32054968964E+03  0.85387454507E+03  0.12699999809E+01 0.  1.
       -4    1    3    3    0  502 -0.58166750313E+03  0.53666650548E+03 -0.57739333320E+03  0.97965947983E+03  0.12699999809E+01 0. -1.
</event>
<event>
 5   0  0.3042125E-05  0.1596627E+04  0.7818609E-02  0.8822623E-01
        3   -1    0    0  501    0  0.00000000000E+00  0.00000000000E+00  0.59554217612E+03  0.59554218468E+03  0.10100000352E+00 0.  1.
       -3   -1    0    0    0  501  0.00000000000E+00  0.00000000000E+00 -0.10701241718E+04  0.10701241765E+04  0.10100000352E+00 0. -1.
    10030    2    1    2    0    0  0.00000000000E+00  0.00000000000E+00 -0.47458199564E+03  0.16656663612E+04  0.15966265550E+04 0.  0.
        4    1    3    3  502    0  0.30624382112E+03 -0.37567901776E+02  0.53082482990E+03  0.61398146402E+03  0.12699999809E+01 0.  1.
       -4    1    3    3    0  502 -0.30624382112E+03  0.37567901776E+02 -0.10054068255E+04  0.10516848972E+04  0.12699999809E+01 0. -1.
</event>
<event>
 5   0  0.4314657E-05  0.1611055E+04  0.7818609E-02  0.8813785E-01
        1   -1    0    0  501    0  0.00000000000E+00  0.00000000000E+00  0.72463524429E+03  0.72463524431E+03  0.50400001928E-02 0.  1.
       -1   -1    0    0    0  501  0.00000000000E+00  0.00000000000E+00 -0.89544943230E+03  0.89544943231E+03  0.50400001928E-02 0. -1.
    10030    2    1    2    0    0  0.00000000000E+00  0.00000000000E+00 -0.17081418801E+03  0.16200846766E+04  0.16110545840E+04 0.  0.
        5    1    3    3  502    0 -0.11191806483E+03 -0.74179066100E+03 -0.38043368218E+03  0.84114856864E+03  0.46999998093E+01 0. -1.
       -5    1    3    3    0  502  0.11191806483E+03  0.74179066100E+03  0.20961949417E+03  0.77893610798E+03  0.46999998093E+01 0.  1.
</event>
<event>
 5   0  0.4256406E-05  0.1600775E+04  0.7818609E-02  0.8820072E-01
        1   -1    0    0  501    0  0.00000000000E+00  0.00000000000E+00  0.14476946111E+04  0.14476946111E+04  0.50400001928E-02 0.  1.
       -1   -1    0    0    0  501  0.00000000000E+00  0.00000000000E+00 -0.44251082244E+03  0.44251082247E+03  0.50400001928E-02 0. -1.
    10030    2    1    2    0    0  0.00000000000E+00  0.00000000000E+00  0.10051837886E+04  0.18902054335E+04  0.16007754784E+04 0.  0.
        3    1    3    3  502    0  0.42565763809E+03  0.39066963551E+03  0.11566490467E+04  0.12929208083E+04  0.10100000352E+00 0.  1.
       -3    1    3    3    0  502 -0.42565763809E+03 -0.39066963551E+03 -0.15146525811E+03  0.59728462527E+03  0.10100000352E+00 0. -1.
</event>
<event>
 5   0  0.7901257E-05  0.1595277E+04  0.7818609E-02  0.8823455E-01
        2   -1    0    0  501    0  0.00000000000E+00  0.00000000000E+00  0.11075527842E+04  0.11075527842E+04  0.25500000920E-02 0.  1.
       -2   -1    0    0    0  501  0.00000000000E+00  0.00000000000E+00 -0.57444411001E+03  0.57444411002E+03  0.25500000920E-02 0. -1.
    10030    2    1    2    0    0  0.00000000000E+00  0.00000000000E+00  0.53310867423E+03  0.16819968943E+04  0.15952769959E+04 0.  0.
        2    1    3    3  502    0 -0.20140489191E+03  0.10216818709E+03 -0.54003130437E+03  0.58535124383E+03  0.25500000920E-02 0. -1.
       -2    1    3    3    0  502  0.20140489191E+03 -0.10216818709E+03  0.10731399786E+04  0.10966456504E+04  0.25500000920E-02 0.  1.
</event>
<event>
 5   0  0.4504463E-05  0.1600917E+04  0.7818609E-02  0.8819985E-01
       -1   -1    0    0    0  501  0.00000000000E+00  0.00000000000E+00  0.88937606881E+03  0.88937606882E+03  0.50400001928E-02 0.  1.
        1   -1    0    0  501    0  0.00000000000E+00  0.00000000000E+00 -0.72043113269E+03  0.72043113271E+03  0.50400001928E-02 0. -1.
    10030    2    1    2    0    0  0.00000000000E+00  0.00000000000E+00  0.16894493611E+03  0.16098072015E+04  0.16009174978E+04 0.  0.
        1    1    3    3  502    0  0.71169060182E+03  0.34018104703E+03 -0.52325420350E+02  0.79054703030E+03  0.50400001928E-02 0. -1.
       -1    1    3    3    0  502 -0.71169060182E+03 -0.34018104703E+03  0.22127035646E+03  0.81926017123E+03  0.50400001928E-02 0.  1.
</event>
<event>
 5   0  0.7901257E-05  0.1601722E+04  0.7818609E-02  0.8819491E-01
       -2   -1    0    0    0  501  0.00000000000E+00  0.00000000000E+00  0.29164168761E+03  0.29164168762E+03  0.25500000920E-02 0.  1.
        2   -1    0    0  501    0  0.00000000000E+00  0.00000000000E+00 -0.21991988082E+04  0.21991988082E+04  0.25500000920E-02 0. -1.
    10030    2    1    2    0    0  0.00000000000E+00  0.00000000000E+00 -0.19075571206E+04  0.24908404958E+04  0.16017216385E+04 0.  0.
        2    1    3    3  502    0  0.27115043544E+03  0.71207856338E+03 -0.57032808390E+03  0.95176287087E+03  0.25500000920E-02 0.  1.
       -2    1    3    3    0  502 -0.27115043544E+03 -0.71207856338E+03 -0.13372290367E+04  0.15390776249E+04  0.25500000920E-02 0. -1.
</event>
<event>
 5   0  0.7901257E-05  0.1597738E+04  0.7818609E-02  0.8821939E-01
       -2   -1    0    0    0  501  0.00000000000E+00  0.00000000000E+00  0.95263573460E+03  0.95263573461E+03  0.25500000920E-02 0. -1.
        2   -1    0    0  501    0  0.00000000000E+00  0.00000000000E+00 -0.66992187305E+03  0.66992187305E+03  0.25500000920E-02 0.  1.
    10030    2    1    2    0    0  0.00000000000E+00  0.00000000000E+00  0.28271386155E+03  0.16225576077E+04  0.15977377953E+04 0.  0.
        2    1    3    3  502    0  0.56183850811E+03  0.55986291464E+03  0.23813966252E+03  0.82814219265E+03  0.25500000920E-02 0.  1.
       -2    1    3    3    0  502 -0.56183850811E+03 -0.55986291464E+03  0.44574199034E+02  0.79441541501E+03  0.25500000920E-02 0. -1.
</event>
<event>
 5   0  0.4256406E-05  0.1603817E+04  0.7818609E-02  0.8818207E-01
       -1   -1    0    0    0  501  0.00000000000E+00  0.00000000000E+00  0.46276609508E+03  0.46276609510E+03  0.50400001928E-02 0. -1.
        1   -1    0    0  501    0  0.00000000000E+00  0.00000000000E+00 -0.13895940548E+04  0.13895940548E+04  0.50400001928E-02 0.  1.
    10030    2    1    2    0    0  0.00000000000E+00  0.00000000000E+00 -0.92682795972E+03  0.18523601499E+04  0.16038167159E+04 0.  0.
        3    1    3    3  502    0 -0.71840696924E+03  0.34701535799E+03 -0.55673649836E+03  0.97287397486E+03  0.10100000352E+00 0.  1.
       -3    1    3    3    0  502  0.71840696924E+03 -0.34701535799E+03 -0.37009146136E+03  0.87948617505E+03  0.10100000352E+00 0. -1.
</event>
<event>
 5   0  0.4504463E-05  0.1600802E+04  0.7818609E-02  0.8820056E-01
       -1   -1    0    0    0  501  0.00000000000E+00  0.00000000000E+00  0.32717550837E+03  0.32717550841E+03  0.50400001928E-02 0. -1.
        1   -1    0    0  501    0  0.00000000000E+00  0.00000000000E+00 -0.19580971061E+04  0.19580971061E+04  0.50400001928E-02 0.  1.
    10030    2    1    2    0    0  0.00000000000E+00  0.00000000000E+00 -0.16309215977E+04  0.22852726145E+04  0.16008015694E+04 0.  0.
        1    1    3    3  502    0 -0.11989644492E+03  0.78218494708E+03 -0.64383640260E+03  0.10201537934E+04  0.50400001928E-02 0. -1.
       -1    1    3    3    0  502  0.11989644492E+03 -0.78218494708E+03 -0.98708519509E+03  0.12651188210E+04  0.50400001928E-02 0.  1.
</event>
<event>
 5   0  0.4256406E-05  0.1599471E+04  0.7818609E-02  0.8820873E-01
       -1   -1    0    0    0  501  0.00000000000E+00  0.00000000000E+00  0.49643951937E+03  0.49643951940E+03  0.50400001928E-02 0.  1.
        1   -1    0    0  501    0  0.00000000000E+00  0.00000000000E+00 -0.12883284997E+04  0.12883284997E+04  0.50400001928E-02 0. -1.
    10030    2    1    2    0    0  0.00000000000E+00  0.00000000000E+00 -0.79188898030E+03  0.17847680191E+04  0.15994713892E+04 0.  0.
        3    1    3    3  502    0  0.49845916622E+03 -0.62081710727E+03 -0.31168683237E+03  0.85499948114E+03  0.10100000352E+00 0. -1.
       -3    1    3    3    0  502 -0.49845916622E+03  0.62081710727E+03 -0.48020214793E+03  0.92976853794E+03  0.10100000352E+00 0.  1.
</event>
<event>
 5   0  0.3042125E-05  0.1561882E+04  0.7818609E-02  0.8844313E-01
       -3   -1    0    0    0  501  0.00000000000E+00  0.00000000000E+00  0.55185425668E+03  0.55185426592E+03  0.10100000352E+00 0.  1.
        3   -1    0    0  501    0  0.00000000000E+00  0.00000000000E+00 -0.11051271300E+04  0.11051271346E+04  0.10100000352E+00 0. -1.
    10030    2    1    2    0    0  0.00000000000E+00  0.00000000000E+00 -0.55327287330E+03  0.16569814005E+04  0.15618823545E+04 0.  0.
        2    1    3    3  502    0 -0.54841948625E+03 -0.32891333230E+03  0.19889825637E+03  0.66970771942E+03  0.25500000920E-02 0.  1.
       -2    1    3    3    0  502  0.54841948625E+03  0.32891333230E+03 -0.75217112968E+03  0.98727368109E+03  0.25500000920E-02 0. -1.
</event>
<event>
 5   0  0.4373026E-05  0.1599526E+04  0.7818609E-02  0.8820839E-01
        1   -1    0    0  501    0  0.00000000000E+00  0.00000000000E+00  0.81604934322E+03  0.81604934324E+03  0.50400001928E-02 0. -1.
       -1   -1    0    0    0  501  0.00000000000E+00  0.00000000000E+00 -0.78380176240E+03  0.78380176242E+03  0.50400001928E-02 0.  1.
    10030    2    1    2    0    0  0.00000000000E+00  0.00000000000E+00  0.32247580820E+02  0.15998511057E+04  0.15995260716E+04 0.  0.
        4    1    3    3  502    0  0.12922781234E+03  0.35576195439E+03 -0.68854254879E+03  0.78572186559E+03  0.12699999809E+01 0.  1.
       -4    1    3    3    0  502 -0.12922781234E+03 -0.35576195439E+03  0.72079012961E+03  0.81412924006E+03  0.12699999809E+01 0. -1.
</event>
<event>
 5   0  0.4373026E-05  0.1601954E+04  0.7818609E-02  0.8819349E-01
       -1   -1    0    0    0  501  0.00000000000E+00  0.00000000000E+00  0.83586543238E+03  0.83586543240E+03  0.50400001928E-02 0. -1.
        1   -1    0    0  501    0  0.00000000000E+00  0.00000000000E+00 -0.76754473818E+03  0.76754473820E+03  0.50400001928E-02 0.  1.
    10030    2    1    2    0    0  0.00000000000E+00  0.00000000000E+00  0.68320694200E+02  0.16034101706E+04  0.16019539500E+04 0.  0.
        4    1    3    3  502    0 -0.22791726217E+03 -0.25077350258E+03  0.76058097674E+03  0.83265759054E+03  0.12699999809E+01 0. -1.
       -4    1    3    3    0  502  0.22791726217E+03  0.25077350258E+03 -0.69226028254E+03  0.77075258007E+03  0.12699999809E+01 0.  1.
</event>
<event>
 5   0  0.8694033E-05  0.1595525E+04  0.7818609E-02  0.8823302E-01
       -2   -1    0    0    0  501  0.00000000000E+00  0.00000000000E+00  0.84394682937E+03  0.84394682937E+03  0.25500000920E-02 0.  1.
        2   -1    0    0  501    0  0.00000000000E+00  0.00000000000E+00 -0.75410557362E+03  0.75410557362E+03  0.25500000920E-02 0. -1.
    10030    2    1    2    0    0  0.00000000000E+00  0.00000000000E+00  0.89841255755E+02  0.15980524030E+04  0.15955250018E+04 0.  0.
        1    1    3    3  502    0  0.69572487519E+02  0.15504025944E+03 -0.73576720793E+03  0.75513654219E+03  0.50400001928E-02 0. -1.
       -1    1    3    3    0  502 -0.69572487519E+02 -0.15504025944E+03  0.82560846368E+03  0.84291586080E+03  0.50400001928E-02 0.  1.
</event>
<event>
 5   0  0.7849690E-05  0.1600352E+04  0.7818609E-02  0.8820332E-01
       -2   -1    0    0    0  501  0.00000000000E+00  0.00000000000E+00  0.98630860033E+03  0.98630860034E+03  0.25500000920E-02 0. -1.
        2   -1    0    0  501    0  0.00000000000E+00  0.00000000000E+00 -0.64916996993E+03  0.64916996993E+03  0.25500000920E-02 0.  1.
    10030    2    1    2    0    0  0.00000000000E+00  0.00000000000E+00  0.33713863041E+03  0.16354785703E+04  0.16003523667E+04 0.  0.
        3    1    3    3  502    0 -0.11769078778E+03 -0.49313184851E+03 -0.46409206960E+03  0.68732205029E+03  0.10100000352E+00 0.  1.
       -3    1    3    3    0  502  0.11769078778E+03  0.49313184851E+03  0.80123070001E+03  0.94815651998E+03  0.10100000352E+00 0. -1.
</event>
<event>
 5   0  0.4314657E-05  0.1601494E+04  0.7818609E-02  0.8819630E-01
        1   -1    0    0  501    0  0.00000000000E+00  0.00000000000E+00  0.12858737640E+04  0.12858737640E+04  0.50400001928E-02 0.  1.
       -1   -1    0    0    0  501  0.00000000000E+00  0.00000000000E+00 -0.49864623012E+03  0.49864623014E+03  0.50400001928E-02 0. -1.
    10030    2    1    2    0    0  0.00000000000E+00  0.00000000000E+00  0.78722753384E+03  0.17845199941E+04  0.16014944331E+04 0.  0.
        5    1    3    3  502    0 -0.19518197505E+02 -0.59878617251E+02  0.12830943261E+04  0.12846476359E+04  0.46999998093E+01 0.  1.
       -5    1    3    3    0  502  0.19518197505E+02  0.59878617251E+02 -0.49586679224E+03  0.49987235819E+03  0.46999998093E+01 0. -1.
</event>
<event>
 5   0  0.7901257E-05  0.1619491E+04  0.7818609E-02  0.8808662E-01
       -2   -1    0    0    0  501  0.00000000000E+00  0.00000000000E+00  0.32905073413E+03  0.32905073414E+03  0.25500000920E-02 0.  1.
        2   -1    0    0  501    0  0.00000000000E+00  0.00000000000E+00 -0.19926657402E+04  0.19926657402E+04  0.25500000920E-02 0. -1.
    10030    2    1    2    0    0  0.00000000000E+00  0.00000000000E+00 -0.16636150061E+04  0.23217164744E+04  0.16194914322E+04 0.  0.
        2    1    3    3  502    0  0.42995627600E+03  0.12464860830E+03  0.13552068816E+03  0.46772377719E+03  0.25500000920E-02 0.  1.
       -2    1    3    3    0  502 -0.42995627600E+03 -0.12464860830E+03 -0.17991356943E+04  0.18539926972E+04  0.25500000920E-02 0. -1.
</event>
<event>
 5   0  0.8620155E-05  0.1602799E+04  0.7818609E-02  0.8818830E-01
       -2   -1    0    0    0  501  0.00000000000E+00  0.00000000000E+00  0.95054372585E+03  0.95054372585E+03  0.25500000920E-02 0.  1.
        2   -1    0    0  501    0  0.00000000000E+00  0.00000000000E+00 -0.67565672725E+03  0.67565672726E+03  0.25500000920E-02 0. -1.
    10030    2    1    2    0    0  0.00000000000E+00  0.00000000000E+00  0.27488699860E+03  0.16262004531E+04  0.16027991302E+04 0.  0.
        4    1    3    3  502    0  0.37984466202E+03  0.70534702214E+03  0.15880465753E+03  0.81671103890E+03  0.12699999809E+01 0.  1.
       -4    1    3    3    0  502 -0.37984466202E+03 -0.70534702214E+03  0.11608234107E+03  0.80948941421E+03  0.12699999809E+01 0. -1.
</event>
<event>
 5   0  0.4373026E-05  0.1611091E+04  0.7818609E-02  0.8813763E-01
        1   -1    0    0  501    0  0.00000000000E+00  0.00000000000E+00  0.10387885517E+04  0.10387885517E+04  0.50400001928E-02 0. -1.
       -1   -1    0    0    0  501  0.00000000000E+00  0.00000000000E+00 -0.62467310294E+03  0.62467310296E+03  0.50400001928E-02 0.  1.
    10030    2    1    2    0    0  0.00000000000E+00  0.00000000000E+00  0.41411544873E+03  0.16634616546E+04  0.16110906466E+04 0.  0.
        4    1    3    3  502    0 -0.55431489954E+03 -0.28714024432E+03 -0.31859574108E+03  0.70087044944E+03  0.12699999809E+01 0.  1.
       -4    1    3    3    0  502  0.55431489954E+03  0.28714024432E+03  0.73271118981E+03  0.96259120521E+03  0.12699999809E+01 0. -1.
</event>
<event>
 5   0  0.8037548E-05  0.1619828E+04  0.7818609E-02  0.8808459E-01
        2   -1    0    0  501    0  0.00000000000E+00  0.00000000000E+00  0.21593442425E+04  0.21593442425E+04  0.25500000920E-02 0. -1.
       -2   -1    0    0    0  501  0.00000000000E+00  0.00000000000E+00 -0.30377765893E+03  0.30377765894E+03  0.25500000920E-02 0.  1.
    10030    2    1    2    0    0  0.00000000000E+00  0.00000000000E+00  0.18555665836E+04  0.24631219015E+04  0.16198278166E+04 0.  0.
        5    1    3    3  502    0 -0.15852929108E+03 -0.15653175809E+03 -0.25624622293E+03  0.33958495871E+03  0.46999998093E+01 0.  1.
       -5    1    3    3    0  502  0.15852929108E+03  0.15653175809E+03  0.21118128065E+04  0.21235369427E+04  0.46999998093E+01 0. -1.
</event>
<event>
 5   0  0.7849690E-05  0.1598919E+04  0.7818609E-02  0.8821213E-01
        2   -1    0    0  501    0  0.00000000000E+00  0.00000000000E+00  0.84448033759E+03  0.84448033759E+03  0.25500000920E-02 0. -1.
       -2   -1    0    0    0  501  0.00000000000E+00  0.00000000000E+00 -0.75683853582E+03  0.75683853582E+03  0.25500000920E-02 0.  1.
    10030    2    1    2    0    0  0.00000000000E+00  0.00000000000E+00  0.87641801769E+02  0.16013188734E+04  0.15989187124E+04 0.  0.
        3    1    3    3  502    0  0.79029008163E+03 -0.11733356887E+03  0.72318359938E+02  0.80221913147E+03  0.10100000352E+00 0. -1.
       -3    1    3    3    0  502 -0.79029008163E+03  0.11733356887E+03  0.15323441831E+02  0.79909974195E+03  0.10100000352E+00 0.  1.
</event>
<event>
 5   0  0.4373026E-05  0.1601007E+04  0.7818609E-02  0.8819929E-01
       -1   -1    0    0    0  501  0.00000000000E+00  0.00000000000E+00  0.94938623302E+03  0.94938623304E+03  0.50400001928E-02 0.  1.
        1   -1    0    0  501    0  0.00000000000E+00  0.00000000000E+00 -0.67496873667E+03  0.67496873669E+03  0.50400001928E-02 0. -1.
    10030    2    1    2    0    0  0.00000000000E+00  0.00000000000E+00  0.27441749635E+03  0.16243549697E+04  0.16010072159E+04 0.  0.
        4    1    3    3  502    0  0.21200718378E+03  0.32282274182E+03  0.84860654141E+03  0.93236057598E+03  0.12699999809E+01 0.  1.
       -4    1    3    3    0  502 -0.21200718378E+03 -0.32282274182E+03 -0.57418904506E+03  0.69199439375E+03  0.12699999809E+01 0. -1.
</event>
<event>
 5   0  0.4256406E-05  0.1599273E+04  0.7818609E-02  0.8820995E-01
       -1   -1    0    0    0  501  0.00000000000E+00  0.00000000000E+00  0.14636868062E+04  0.14636868062E+04  0.50400001928E-02 0.  1.
        1   -1    0    0  501    0  0.00000000000E+00  0.00000000000E+00 -0.43685474382E+03  0.43685474385E+03  0.50400001928E-02 0. -1.
    10030    2    1    2    0    0  0.00000000000E+00  0.00000000000E+00  0.10268320624E+04  0.19005415501E+04  0.15992729908E+04 0.  0.
        3    1    3    3  502    0  0.57857842964E+03  0.50462359059E+03  0.24763193829E+03  0.80667190015E+03  0.10100000352E+00 0. -1.
       -3    1    3    3    0  502 -0.57857842964E+03 -0.50462359059E+03  0.77920012411E+03  0.10938696499E+04  0.10100000352E+00 0.  1.
</event>
<event>
 5   0  0.8620155E-05  0.1602598E+04  0.7818609E-02  0.8818953E-01
       -2   -1    0    0    0  501  0.00000000000E+00  0.00000000000E+00  0.34724536906E+03  0.34724536907E+03  0.25500000920E-02 0.  1.
        2   -1    0    0  501    0  0.00000000000E+00  0.00000000000E+00 -0.18490676973E+04  0.18490676973E+04  0.25500000920E-02 0. -1.
    10030    2    1    2    0    0  0.00000000000E+00  0.00000000000E+00 -0.15018223282E+04  0.21963130663E+04  0.16025981342E+04 0.  0.
        4    1    3    3  502    0 -0.98853987981E+01  0.59796496817E+03 -0.14817956276E+04  0.15979298230E+04  0.12699999809E+01 0. -1.
       -4    1    3    3    0  502  0.98853987981E+01 -0.59796496817E+03 -0.20026700577E+02  0.59838324333E+03  0.12699999809E+01 0.  1.
</event>
<event>
 5   0  0.7849690E-05  0.1602087E+04  0.7818609E-02  0.8819267E-01
        2   -1    0    0  501    0  0.00000000000E+00  0.00000000000E+00  0.76759441472E+03  0.76759441472E+03  0.25500000920E-02 0. -1.
       -2   -1    0    0    0  501  0.00000000000E+00  0.00000000000E+00 -0.83595030716E+03  0.83595030717E+03  0.25500000920E-02 0.  1.
    10030    2    1    2    0    0  0.00000000000E+00  0.00000000000E+00 -0.68355892442E+02  0.16035447219E+04  0.16020871222E+04 0.  0.
        3    1    3    3  502    0  0.73863681984E+03  0.19276576611E+03 -0.27714926071E+03  0.81212974033E+03  0.10100000352E+00 0.  1.
       -3    1    3    3    0  502 -0.73863681984E+03 -0.19276576611E+03  0.20879336827E+03  0.79141498156E+03  0.10100000352E+00 0. -1.
</event>
<event>
 5   0  0.7901257E-05  0.1609994E+04  0.7818609E-02  0.8814432E-01
        2   -1    0    0  501    0  0.00000000000E+00  0.00000000000E+00  0.21145293825E+04  0.21145293825E+04  0.25500000920E-02 0.  1.
       -2   -1    0    0    0  501  0.00000000000E+00  0.00000000000E+00 -0.30646074291E+03  0.30646074292E+03  0.25500000920E-02 0. -1.
    10030    2    1    2    0    0  0.00000000000E+00  0.00000000000E+00  0.18080686396E+04  0.24209901255E+04  0.16099940938E+04 0.  0.
        2    1    3    3  502    0  0.39999630654E+03 -0.26308372739E+03 -0.69110187706E+02  0.48372131534E+03  0.25500000920E-02 0. -1.
       -2    1    3    3    0  502 -0.39999630654E+03  0.26308372739E+03  0.18771788273E+04  0.19372688101E+04  0.25500000920E-02 0.  1.
</event>
<event>
 5   0  0.7901257E-05  0.1600647E+04  0.7818609E-02  0.8820151E-01
       -2   -1    0    0    0  501  0.00000000000E+00  0.00000000000E+00  0.35089225587E+03  0.35089225588E+03  0.25500000920E-02 0.  1.
        2   -1    0    0  501    0  0.00000000000E+00  0.00000000000E+00 -0.18253972285E+04  0.18253972285E+04  0.25500000920E-02 0. -1.
    10030    2    1    2    0    0  0.00000000000E+00  0.00000000000E+00 -0.14745049727E+04  0.21762894844E+04  0.16006470584E+04 0.  0.
        2    1    3    3  502    0  0.46480404353E+03  0.20595464815E+03  0.10314650889E+03  0.51874783689E+03  0.25500000920E-02 0.  1.
       -2    1    3    3    0  502 -0.46480404353E+03 -0.20595464815E+03 -0.15776514816E+04  0.16575416475E+04  0.25500000920E-02 0. -1.
</event>
<event>
 5   0  0.8620155E-05  0.1602528E+04  0.7818609E-02  0.8818996E-01
        2   -1    0    0  501    0  0.00000000000E+00  0.00000000000E+00  0.19169758523E+04  0.19169758523E+04  0.25500000920E-02 0. -1.
       -2   -1    0    0    0  501  0.00000000000E+00  0.00000000000E+00 -0.33491521588E+03  0.33491521589E+03  0.25500000920E-02 0.  1.
    10030    2    1    2    0    0  0.00000000000E+00  0.00000000000E+00  0.15820606364E+04  0.22518910682E+04  0.16025284789E+04 0.  0.
        4    1    3    3  502    0 -0.41144695496E+03  0.36611913747E+03 -0.26762735918E+02  0.55140699715E+03  0.12699999809E+01 0.  1.
       -4    1    3    3    0  502  0.41144695496E+03 -0.36611913747E+03  0.16088233724E+04  0.17004840711E+04  0.12699999809E+01 0. -1.
</event>
<event>
 5   0  0.8037548E-05  0.1600470E+04  0.7818609E-02  0.8820259E-01
        2   -1    0    0  501    0  0.00000000000E+00  0.00000000000E+00  0.22604665540E+04  0.22604665540E+04  0.25500000920E-02 0.  1.
       -2   -1    0    0    0  501  0.00000000000E+00  0.00000000000E+00 -0.28329382282E+03  0.28329382283E+03  0.25500000920E-02 0. -1.
    10030    2    1    2    0    0  0.00000000000E+00  0.00000000000E+00  0.19771727312E+04  0.25437603769E+04  0.16004701953E+04 0.  0.
        5    1    3    3  502    0 -0.28064149412E+03  0.65533939033E+03  0.41086196902E+03  0.82283595712E+03  0.46999998093E+01 0. -1.
       -5    1    3    3    0  502  0.28064149412E+03 -0.65533939033E+03  0.15663107622E+04  0.17209244198E+04  0.46999998093E+01 0.  1.
</event>
<event>
 5   0  0.8037548E-05  0.1601143E+04  0.7818609E-02  0.8819846E-01
        2   -1    0    0  501    0  0.00000000000E+00  0.00000000000E+00  0.77084529518E+03  0.77084529519E+03  0.25500000920E-02 0. -1.
       -2   -1    0    0    0  501  0.00000000000E+00  0.00000000000E+00 -0.83144410103E+03  0.83144410103E+03  0.25500000920E-02 0.  1.
    10030    2    1    2    0    0  0.00000000000E+00  0.00000000000E+00 -0.60598805846E+02  0.16022893962E+04  0.16011430586E+04 0.  0.
        5    1    3    3  502    0  0.67154944520E+03 -0.41417308260E+03 -0.16594970298E+03  0.80627501116E+03  0.46999998093E+01 0.  1.
       -5    1    3    3    0  502 -0.67154944520E+03  0.41417308260E+03  0.10535089713E+03  0.79601438506E+03  0.46999998093E+01 0. -1.
</event>
<event>
 5   0  0.7849690E-05  0.1599622E+04  0.7818609E-02  0.8820780E-01
       -2   -1    0    0    0  501  0.00000000000E+00  0.00000000000E+00  0.39270426342E+03  0.39270426343E+03  0.25500000920E-02 0. -1.
        2   -1    0    0  501    0  0.00000000000E+00  0.00000000000E+00 -0.16289560384E+04  0.16289560384E+04  0.25500000920E-02 0.  1.
    10030    2    1    2    0    0  0.00000000000E+00  0.00000000000E+00 -0.12362517750E+04  0.20216603019E+04  0.15996224320E+04 0.  0.
        3    1    3    3  502    0  0.31021045846E+03 -0.20454763709E+02 -0.15494701097E+04  0.15803501374E+04  0.10100000352E+00 0.  1.
       -3    1    3    3    0  502 -0.31021045846E+03  0.20454763709E+02  0.31321833464E+03  0.44131016445E+03  0.10100000352E+00 0. -1.
</event>
<event>
 5   0  0.4504463E-05  0.1594532E+04  0.7818609E-02  0.8823914E-01
        1   -1    0    0  501    0  0.00000000000E+00  0.00000000000E+00  0.53666562517E+03  0.53666562519E+03  0.50400001928E-02 0.  1.
       -1   -1    0    0    0  501  0.00000000000E+00  0.00000000000E+00 -0.11844123798E+04  0.11844123798E+04  0.50400001928E-02 0. -1.
    10030    2    1    2    0    0  0.00000000000E+00  0.00000000000E+00 -0.64774675463E+03  0.17210780050E+04  0.15945324209E+04 0.  0.
        1    1    3    3  502    0  0.71117597544E+03  0.29558364843E+03 -0.10137692970E+03  0.77680000203E+03  0.50400001928E-02 0. -1.
       -1    1    3    3    0  502 -0.71117597544E+03 -0.29558364843E+03 -0.54636982494E+03  0.94427800297E+03  0.50400001928E-02 0.  1.
</event>
<event>
 5   0  0.4504463E-05  0.1600352E+04  0.7818609E-02  0.8820332E-01
        1   -1    0    0  501    0  0.00000000000E+00  0.00000000000E+00  0.49223775038E+03  0.49223775041E+03  0.50400001928E-02 0. -1.
       -1   -1    0    0    0  501  0.00000000000E+00  0.00000000000E+00 -0.13007569711E+04  0.13007569711E+04  0.50400001928E-02 0.  1.
    10030    2    1    2    0    0  0.00000000000E+00  0.00000000000E+00 -0.80851922067E+03  0.17929947215E+04  0.16003520678E+04 0.  0.
        1    1    3    3  502    0  0.37162308526E+03  0.65169204526E+03 -0.92409775881E+02  0.75587419989E+03  0.50400001928E-02 0.  1.
       -1    1    3    3    0  502 -0.37162308526E+03 -0.65169204526E+03 -0.71610944479E+03  0.10371205216E+04  0.50400001928E-02 0. -1.
</event>
<event>
 5   0  0.7901257E-05  0.1603270E+04  0.7818609E-02  0.8818541E-01
       -2   -1    0    0    0  501  0.00000000000E+00  0.00000000000E+00  0.13563143805E+04  0.13563143805E+04  0.25500000920E-02 0.  1.
        2   -1    0    0  501    0  0.00000000000E+00  0.00000000000E+00 -0.47379792249E+03  0.47379792250E+03  0.25500000920E-02 0. -1.
    10030    2    1    2    0    0  0.00000000000E+00  0.00000000000E+00  0.88251645798E+03  0.18301123030E+04  0.16032703274E+04 0.  0.
        2    1    3    3  502    0 -0.76390121335E+03  0.13316900423E+03  0.67334780486E+03  0.10269743491E+04  0.25500000920E-02 0.  1.
       -2    1    3    3    0  502  0.76390121335E+03 -0.13316900423E+03  0.20916865312E+03  0.80313795384E+03  0.25500000920E-02 0. -1.
</event>
<event>
 5   0  0.8620155E-05  0.1600457E+04  0.7818609E-02  0.8820267E-01
       -2   -1    0    0    0  501  0.00000000000E+00  0.00000000000E+00  0.72736156245E+03  0.72736156246E+03  0.25500000920E-02 0.  1.
        2   -1    0    0  501    0  0.00000000000E+00  0.00000000000E+00 -0.88039498602E+03  0.88039498603E+03  0.25500000920E-02 0. -1.
    10030    2    1    2    0    0  0.00000000000E+00  0.00000000000E+00 -0.15303342357E+03  0.16077565485E+04  0.16004567756E+04 0.  0.
        4    1    3    3  502    0  0.70270223406E+03  0.35270120767E+03 -0.22610960880E+03  0.81811719194E+03  0.12699999809E+01 0. -1.
       -4    1    3    3    0  502 -0.70270223406E+03 -0.35270120767E+03  0.73076185231E+02  0.78963935654E+03  0.12699999809E+01 0.  1.
</event>
<event>
 5   0  0.4314657E-05  0.1600713E+04  0.7818609E-02  0.8820110E-01
       -1   -1    0    0    0  501  0.00000000000E+00  0.00000000000E+00  0.80109349761E+03  0.80109349762E+03  0.50400001928E-02 0. -1.
        1   -1    0    0  501    0  0.00000000000E+00  0.00000000000E+00 -0.79962018641E+03  0.79962018643E+03  0.50400001928E-02 0.  1.
    10030    2    1    2    0    0  0.00000000000E+00  0.00000000000E+00  0.14733111912E+01  0.16007136841E+04  0.16007130060E+04 0.  0.
        5    1    3    3  502    0 -0.28347611628E+03 -0.55012236391E+03  0.50823575542E+03  0.80082394874E+03  0.46999998093E+01 0. -1.
       -5    1    3    3    0  502  0.28347611628E+03  0.55012236391E+03 -0.50676244423E+03  0.79988973532E+03  0.46999998093E+01 0.  1.
</event>
<event>
 5   0  0.3042125E-05  0.1600429E+04  0.7818609E-02  0.8820285E-01
       -3   -1    0    0    0  501  0.00000000000E+00  0.00000000000E+00  0.10610282229E+04  0.10610282277E+04  0.10100000352E+00 0. -1.
        3   -1    0    0  501    0  0.00000000000E+00  0.00000000000E+00 -0.60351174517E+03  0.60351175363E+03  0.10100000352E+00 0.  1.
    10030    2    1    2    0    0  0.00000000000E+00  0.00000000000E+00  0.45751647775E+03  0.16645399814E+04  0.16004286995E+04 0.  0.
        3    1    3    3  502    0  0.56228202693E+03  0.46842948820E+03  0.56538357386E+03  0.92479503622E+03  0.10100000352E+00 0.  1.
       -3    1    3    3    0  502 -0.56228202693E+03 -0.46842948820E+03 -0.10786709612E+03  0.73974494513E+03  0.10100000352E+00 0. -1.
</event>
<event>
 5   0  0.8694033E-05  0.1598873E+04  0.7818609E-02  0.8821241E-01
        2   -1    0    0  501    0  0.00000000000E+00  0.00000000000E+00  0.72852782808E+03  0.72852782808E+03  0.25500000920E-02 0.  1.
       -2   -1    0    0    0  501  0.00000000000E+00  0.00000000000E+00 -0.87724668827E+03  0.87724668827E+03  0.25500000920E-02 0. -1.
    10030    2    1    2    0    0  0.00000000000E+00  0.00000000000E+00 -0.14871886019E+03  0.16057745164E+04  0.15988728836E+04 0.  0.
        1    1    3    3  502    0 -0.72441377852E+02  0.23626150327E+03 -0.83792498672E+03  0.87360490757E+03  0.50400001928E-02 0. -1.
       -1    1    3    3    0  502  0.72441377852E+02 -0.23626150327E+03  0.68920612653E+03  0.73216960878E+03  0.50400001928E-02 0.  1.
</event>
<event>
 5   0  0.4314657E-05  0.1601699E+04  0.7818609E-02  0.8819505E-01
        1   -1    0    0  501    0  0.00000000000E+00  0.00000000000E+00  0.70010210009E+03  0.70010210011E+03  0.50400001928E-02 0. -1.
       -1   -1    0    0    0  501  0.00000000000E+00  0.00000000000E+00 -0.91609473068E+03  0.91609473069E+03  0.50400001928E-02 0.  1.
    10030    2    1    2    0    0  0.00000000000E+00  0.00000000000E+00 -0.21599263059E+03  0.16161968308E+04  0.16016989041E+04 0.  0.
        5    1    3    3  502    0  0.58454367708E+03 -0.42902460285E+03 -0.45105061025E+03  0.85394505870E+03  0.46999998093E+01 0. -1.
       -5    1    3    3    0  502 -0.58454367708E+03  0.42902460285E+03  0.23505797967E+03  0.76225177210E+03  0.46999998093E+01 0.  1.
</event>
<event>
 5   0  0.4373026E-05  0.1599874E+04  0.7818609E-02  0.8820625E-01
        1   -1    0    0  501    0  0.00000000000E+00  0.00000000000E+00  0.12424258753E+04  0.12424258753E+04  0.50400001928E-02 0.  1.
       -1   -1    0    0    0  501  0.00000000000E+00  0.00000000000E+00 -0.51504036767E+03  0.51504036769E+03  0.50400001928E-02 0. -1.
    10030    2    1    2    0    0  0.00000000000E+00  0.00000000000E+00  0.72738550763E+03  0.17574662430E+04  0.15998743446E+04 0.  0.
        4    1    3    3  502    0  0.40610631890E+03 -0.55757247897E+03  0.80867238421E+03  0.10629026529E+04  0.12699999809E+01 0.  1.
       -4    1    3    3    0  502 -0.40610631890E+03  0.55757247897E+03 -0.81286876578E+02  0.69456359015E+03  0.12699999809E+01 0. -1.
</event>
<event>
 5   0  0.4504463E-05  0.1599313E+04  0.7818609E-02  0.8820970E-01
       -1   -1    0    0    0  501  0.00000000000E+00  0.00000000000E+00  0.41286414271E+03  0.41286414274E+03  0.50400001928E-02 0.  1.
        1   -1    0    0  501    0  0.00000000000E+00  0.00000000000E+00 -0.15488162904E+04  0.15488162904E+04  0.50400001928E-02 0. -1.
    10030    2    1    2    0    0  0.00000000000E+00  0.00000000000E+00 -0.11359521477E+04  0.19616804332E+04  0.15993132401E+04 0.  0.
        1    1    3    3  502    0  0.71932496938E+03  0.30426831877E+03 -0.35750791082E+03  0.85896421794E+03  0.50400001928E-02 0.  1.
       -1    1    3    3    0  502 -0.71932496938E+03 -0.30426831877E+03 -0.77844423689E+03  0.11027162152E+04  0.50400001928E-02 0. -1.
</event>
<event>
 5   0  0.4504463E-05  0.1600274E+04  0.7818609E-02  0.8820380E-01
       -1   -1    0    0    0  501  0.00000000000E+00  0.00000000000E+00  0.11319243160E+04  0.11319243160E+04  0.50400001928E-02 0. -1.
        1   -1    0    0  501    0  0.00000000000E+00  0.00000000000E+00 -0.56560269794E+03  0.56560269796E+03  0.50400001928E-02 0.  1.
    10030    2    1    2    0    0  0.00000000000E+00  0.00000000000E+00  0.56632161803E+03  0.16975270139E+04  0.16002742852E+04 0.  0.
        1    1    3    3  502    0  0.32524754842E+03  0.14829250408E+02 -0.49215694053E+03  0.59010535378E+03  0.50400001928E-02 0.  1.
       -1    1    3    3    0  502 -0.32524754842E+03 -0.14829250408E+02  0.10584785586E+04  0.11074216602E+04  0.50400001928E-02 0. -1.
</event>
<event>
 5   0  0.4504463E-05  0.1600363E+04  0.7818609E-02  0.8820325E-01
        1   -1    0    0  501    0  0.00000000000E+00  0.00000000000E+00  0.53627050652E+03  0.53627050655E+03  0.50400001928E-02 0.  1.
       -1   -1    0    0    0  501  0.00000000000E+00  0.00000000000E+00 -0.11939696685E+04  0.11939696685E+04  0.50400001928E-02 0. -1.
    10030    2    1    2    0    0  0.00000000000E+00  0.00000000000E+00 -0.65769916197E+03  0.17302401751E+04  0.16003633574E+04 0.  0.
        1    1    3    3  502    0  0.15444988916E+02  0.19274865842E+03 -0.11683298250E+04  0.11842234472E+04  0.50400001928E-02 0. -1.
       -1    1    3    3    0  502 -0.15444988916E+02 -0.19274865842E+03  0.51063066302E+03  0.54601672781E+03  0.50400001928E-02 0.  1.
</event>
<event>
 5   0  0.4211419E-05  0.1600428E+04  0.7818609E-02  0.8820285E-01
        1   -1    0    0  501    0  0.00000000000E+00  0.00000000000E+00  0.84021672778E+03  0.84021672780E+03  0.50400001928E-02 0. -1.
       -1   -1    0    0    0  501  0.00000000000E+00  0.00000000000E+00 -0.76211541900E+03  0.76211541901E+03  0.50400001928E-02 0.  1.
    10030    2    1    2    0    0  0.00000000000E+00  0.00000000000E+00  0.78101308783E+02  0.16023321468E+04  0.16004275973E+04 0.  0.
        2    1    3    3  502    0  0.43309475612E+03  0.62155161080E+03 -0.21902469631E+03  0.78858689455E+03  0.25500000920E-02 0.  1.
       -2    1    3    3    0  502 -0.43309475612E+03 -0.62155161080E+03  0.29712600509E+03  0.81374525226E+03  0.25500000920E-02 0. -1.
</event>
<event>
 5   0  0.4314657E-05  0.1602355E+04  0.7818609E-02  0.8819102E-01
       -1   -1    0    0    0  501  0.00000000000E+00  0.00000000000E+00  0.61096967339E+03  0.61096967341E+03  0.50400001928E-02 0. -1.
        1   -1    0    0  501    0  0.00000000000E+00  0.00000000000E+00 -0.10506012285E+04  0.10506012285E+04  0.50400001928E-02 0.  1.
    10030    2    1    2    0    0  0.00000000000E+00  0.00000000000E+00 -0.43963155506E+03  0.16615709019E+04  0.16023551285E+04 0.  0.
        5    1    3    3  502    0 -0.58689846229E+00  0.78076265777E+03 -0.40610079933E+03  0.88007421359E+03  0.46999998093E+01 0.  1.
       -5    1    3    3    0  502  0.58689846229E+00 -0.78076265777E+03 -0.33530755730E+02  0.78149668828E+03  0.46999998093E+01 0. -1.
</event>
<event>
 5   0  0.7849690E-05  0.1603506E+04  0.7818609E-02  0.8818397E-01
       -2   -1    0    0    0  501  0.00000000000E+00  0.00000000000E+00  0.48499220564E+03  0.48499220565E+03  0.25500000920E-02 0. -1.
        2   -1    0    0  501    0  0.00000000000E+00  0.00000000000E+00 -0.13253982680E+04  0.13253982680E+04  0.25500000920E-02 0.  1.
    10030    2    1    2    0    0  0.00000000000E+00  0.00000000000E+00 -0.84040606236E+03  0.18103904736E+04  0.16035059456E+04 0.  0.
        3    1    3    3  502    0  0.36943364363E+03  0.46641009121E+02 -0.12218480377E+04  0.12773289467E+04  0.10100000352E+00 0.  1.
       -3    1    3    3    0  502 -0.36943364363E+03 -0.46641009121E+02  0.38144197530E+03  0.53306152694E+03  0.10100000352E+00 0. -1.
</event>
<event>
 5   0  0.4256406E-05  0.1600453E+04  0.7818609E-02  0.8820270E-01
        1   -1    0    0  501    0  0.00000000000E+00  0.00000000000E+00  0.80434254781E+03  0.80434254783E+03  0.50400001928E-02 0. -1.
       -1   -1    0    0    0  501  0.00000000000E+00  0.00000000000E+00 -0.79613141988E+03  0.79613141989E+03  0.50400001928E-02 0.  1.
    10030    2    1    2    0    0  0.00000000000E+00  0.00000000000E+00  0.82111279386E+01  0.16004739677E+04  0.16004529043E+04 0.  0.
        3    1    3    3  502    0 -0.71760446008E+03 -0.32368135610E+03 -0.13955071422E+03  0.79949996464E+03  0.10100000352E+00 0.  1.
       -3    1    3    3    0  502  0.71760446008E+03  0.32368135610E+03  0.14776184216E+03  0.80097400308E+03  0.10100000352E+00 0. -1.
</event>
<event>
 5   0  0.4211419E-05  0.1600324E+04  0.7818609E-02  0.8820349E-01
        1   -1    0    0  501    0  0.00000000000E+00  0.00000000000E+00  0.11090237851E+04  0.11090237851E+04  0.50400001928E-02 0.  1.
       -1   -1    0    0    0  501  0.00000000000E+00  0.00000000000E+00 -0.57731789148E+03  0.57731789151E+03  0.50400001928E-02 0. -1.
    10030    2    1    2    0    0  0.00000000000E+00  0.00000000000E+00  0.53170589361E+03  0.16863416766E+04  0.16003240587E+04 0.  0.
        2    1    3    3  502    0 -0.40505704298E+03 -0.67387567364E+03  0.42243199522E+03  0.89254043168E+03  0.25500000920E-02 0.  1.
       -2    1    3    3    0  502  0.40505704298E+03  0.67387567364E+03  0.10927389839E+03  0.79380124494E+03  0.25500000920E-02 0. -1.
</event>
<event>
 5   0  0.8037548E-05  0.1599694E+04  0.7818609E-02  0.8820736E-01
       -2   -1    0    0    0  501  0.00000000000E+00  0.00000000000E+00  0.26757406421E+03  0.26757406422E+03  0.25500000920E-02 0. -1.
        2   -1    0    0  501    0  0.00000000000E+00  0.00000000000E+00 -0.23909450429E+04  0.23909450429E+04  0.25500000920E-02 0.  1.
    10030    2    1    2    0    0  0.00000000000E+00  0.00000000000E+00 -0.21233709787E+04  0.26585191071E+04  0.15996935737E+04 0.  0.
        5    1    3    3  502    0 -0.26386409778E+03 -0.37444809414E+03  0.27960115441E+02  0.45895478574E+03  0.46999998093E+01 0. -1.
       -5    1    3    3    0  502  0.26386409778E+03  0.37444809414E+03 -0.21513310941E+04  0.21995643214E+04  0.46999998093E+01 0.  1.
</event>
<event>
 5   0  0.7849690E-05  0.1599763E+04  0.7818609E-02  0.8820694E-01
        2   -1    0    0  501    0  0.00000000000E+00  0.00000000000E+00  0.26350694711E+04  0.26350694711E+04  0.25500000920E-02 0.  1.
       -2   -1    0    0    0  501  0.00000000000E+00  0.00000000000E+00 -0.24280586958E+03  0.24280586960E+03  0.25500000920E-02 0. -1.
    10030    2    1    2    0    0  0.00000000000E+00  0.00000000000E+00  0.23922636015E+04  0.28778753407E+04  0.15997629004E+04 0.  0.
        3    1    3    3  502    0  0.24127811627E+03 -0.62812533220E+03  0.41809600165E+03  0.79218737628E+03  0.10100000352E+00 0. -1.
       -3    1    3    3    0  502 -0.24127811627E+03  0.62812533220E+03  0.19741675999E+04  0.20856879644E+04  0.10100000352E+00 0.  1.
</event>
<event>
 5   0  0.4504463E-05  0.1601049E+04  0.7818609E-02  0.8819904E-01
        1   -1    0    0  501    0  0.00000000000E+00  0.00000000000E+00  0.19062767694E+04  0.19062767694E+04  0.50400001928E-02 0.  1.
       -1   -1    0    0    0  501  0.00000000000E+00  0.00000000000E+00 -0.33617341071E+03  0.33617341075E+03  0.50400001928E-02 0. -1.
    10030    2    1    2    0    0  0.00000000000E+00  0.00000000000E+00  0.15701033587E+04  0.22424501802E+04  0.16010491103E+04 0.  0.
        1    1    3    3  502    0  0.39021680730E+03  0.44735862947E+03  0.15372743055E+04  0.16479111597E+04  0.50400001928E-02 0.  1.
       -1    1    3    3    0  502 -0.39021680730E+03 -0.44735862947E+03  0.32829053221E+02  0.59453902044E+03  0.50400001928E-02 0. -1.
</event>
<event>
 5   0  0.8620155E-05  0.1600198E+04  0.7818609E-02  0.8820426E-01
        2   -1    0    0  501    0  0.00000000000E+00  0.00000000000E+00  0.10087330063E+04  0.10087330063E+04  0.25500000920E-02 0.  1.
       -2   -1    0    0    0  501  0.00000000000E+00  0.00000000000E+00 -0.63461656093E+03  0.63461656094E+03  0.25500000920E-02 0. -1.
    10030    2    1    2    0    0  0.00000000000E+00  0.00000000000E+00  0.37411644537E+03  0.16433495672E+04  0.16001983269E+04 0.  0.
        4    1    3    3  502    0 -0.58664396610E+03 -0.19129424717E+03 -0.33600180301E+03  0.70259764907E+03  0.12699999809E+01 0. -1.
       -4    1    3    3    0  502  0.58664396610E+03  0.19129424717E+03  0.71011824837E+03  0.94075191817E+03  0.12699999809E+01 0.  1.
</event>
<event>
 5   0  0.8694033E-05  0.1598689E+04  0.7818609E-02  0.8821354E-01
        2   -1    0    0  501    0  0.00000000000E+00  0.00000000000E+00  0.73576510563E+03  0.73576510564E+03  0.25500000920E-02 0. -1.
       -2   -1    0    0    0  501  0.00000000000E+00  0.00000000000E+00 -0.86841799995E+03  0.86841799995E+03  0.25500000920E-02 0.  1.
    10030    2    1    2    0    0  0.00000000000E+00  0.00000000000E+00 -0.13265289431E+03  0.16041831056E+04  0.15986890398E+04 0.  0.
        1    1    3    3  502    0  0.30165492689E+03  0.51888925307E+03  0.46341767412E+03  0.75828602294E+03  0.50400001928E-02 0. -1.
       -1    1    3    3    0  502 -0.30165492689E+03 -0.51888925307E+03 -0.59607056843E+03  0.84589708266E+03  0.50400001928E-02 0.  1.
</event>
<event>
 5   0  0.7849690E-05  0.1598903E+04  0.7818609E-02  0.8821223E-01
        2   -1    0    0  501    0  0.00000000000E+00  0.00000000000E+00  0.51819689145E+03  0.51819689146E+03  0.25500000920E-02 0.  1.
       -2   -1    0    0    0  501  0.00000000000E+00  0.00000000000E+00 -0.12333580980E+04  0.12333580980E+04  0.25500000920E-02 0. -1.
    10030    2    1    2    0    0  0.00000000000E+00  0.00000000000E+00 -0.71516120659E+03  0.17515549895E+04  0.15989025392E+04 0.  0.
        3    1    3    3  502    0 -0.22213382868E+02 -0.39685584347E+02 -0.12319398112E+04  0.12327790105E+04  0.10100000352E+00 0. -1.
       -3    1    3    3    0  502  0.22213382868E+02  0.39685584347E+02  0.51677860465E+03  0.51877597902E+03  0.10100000352E+00 0.  1.
</event>
<event>
 5   0  0.4314657E-05  0.1599777E+04  0.7818609E-02  0.8820685E-01
        1   -1    0    0  501    0  0.00000000000E+00  0.00000000000E+00  0.60538701491E+03  0.60538701493E+03  0.50400001928E-02 0. -1.
       -1   -1    0    0    0  501  0.00000000000E+00  0.00000000000E+00 -0.10568799632E+04  0.10568799632E+04  0.50400001928E-02 0.  1.
    10030    2    1    2    0    0  0.00000000000E+00  0.00000000000E+00 -0.45149294826E+03  0.16622669781E+04  0.15997767420E+04 0.  0.
        5    1    3    3  502    0 -0.14894176372E+03  0.37912871357E+03  0.48953051420E+03  0.63685512070E+03  0.46999998093E+01 0. -1.
       -5    1    3    3    0  502  0.14894176372E+03 -0.37912871357E+03 -0.94102346246E+03  0.10254118574E+04  0.46999998093E+01 0.  1.
</event>
<event>
 5   0  0.4211419E-05  0.1599791E+04  0.7818609E-02  0.8820677E-01
        1   -1    0    0  501    0  0.00000000000E+00  0.00000000000E+00  0.11194218622E+04  0.11194218622E+04  0.50400001928E-02 0.  1.
       -1   -1    0    0    0  501  0.00000000000E+00  0.00000000000E+00 -0.57157409943E+03  0.57157409945E+03  0.50400001928E-02 0. -1.
    10030    2    1    2    0    0  0.00000000000E+00  0.00000000000E+00  0.54784776280E+03  0.16909959617E+04  0.15997906648E+04 0.  0.
        2    1    3    3  502    0 -0.70225978379E+03  0.30122516284E+03  0.23952253632E+02  0.76451233680E+03  0.25500000920E-02 0.  1.
       -2    1    3    3    0  502  0.70225978379E+03 -0.30122516284E+03  0.52389550917E+03  0.92648362489E+03  0.25500000920E-02 0. -1.
</event>
<event>
 5   0  0.4504463E-05  0.1600026E+04  0.7818609E-02  0.8820532E-01
        1   -1    0    0  501    0  0.00000000000E+00  0.00000000000E+00  0.52103234201E+03  0.52103234204E+03  0.50400001928E-02 0. -1.
       -1   -1    0    0    0  501  0.00000000000E+00  0.00000000000E+00 -0.12283701262E+04  0.12283701262E+04  0.50400001928E-02 0.  1.
    10030    2    1    2    0    0  0.00000000000E+00  0.00000000000E+00 -0.70733778417E+03  0.17494024682E+04  0.16000257045E+04 0.  0.
        1    1    3    3  502    0 -0.26720368458E+03 -0.23714453377E+03  0.42896936652E+03  0.55825626408E+03  0.50400001928E-02 0. -1.
       -1    1    3    3    0  502  0.26720368458E+03  0.23714453377E+03 -0.11363071507E+04  0.11911462042E+04  0.50400001928E-02 0.  1.
</event>
<event>
 5   0  0.7901257E-05  0.1595478E+04  0.7818609E-02  0.8823331E-01
       -2   -1    0    0    0  501  0.00000000000E+00  0.00000000000E+00  0.54618129714E+03  0.54618129715E+03  0.25500000920E-02 0. -1.
        2   -1    0    0  501    0  0.00000000000E+00  0.00000000000E+00 -0.11651587310E+04  0.11651587310E+04  0.25500000920E-02 0.  1.
    10030    2    1    2    0    0  0.00000000000E+00  0.00000000000E+00 -0.61897743389E+03  0.17113400282E+04  0.15954784951E+04 0.  0.
        2    1    3    3  502    0 -0.46950678903E+03 -0.62420391516E+03 -0.48350685621E+03  0.91861092561E+03  0.25500000920E-02 0.  1.
       -2    1    3    3    0  502  0.46950678903E+03  0.62420391516E+03 -0.13547057768E+03  0.79272910257E+03  0.25500000920E-02 0. -1.
</event>
<event>
 5   0  0.8620155E-05  0.1551818E+04  0.7818609E-02  0.8850707E-01
        2   -1    0    0  501    0  0.00000000000E+00  0.00000000000E+00  0.50658020841E+03  0.50658020842E+03  0.25500000920E-02 0. -1.
       -2   -1    0    0    0  501  0.00000000000E+00  0.00000000000E+00 -0.11884291282E+04  0.11884291282E+04  0.25500000920E-02 0.  1.
    10030    2    1    2    0    0  0.00000000000E+00  0.00000000000E+00 -0.68184891974E+03  0.16950093366E+04  0.15518178700E+04 0.  0.
        4    1    3    3  502    0 -0.31654073748E+03  0.95452550938E+02  0.42578907776E+03  0.53907993805E+03  0.12699999809E+01 0. -1.
       -4    1    3    3    0  502  0.31654073748E+03 -0.95452550938E+02 -0.11076379975E+04  0.11559293985E+04  0.12699999809E+01 0.  1.
</event>
<event>
 5   0  0.4211419E-05  0.1556188E+04  0.7818609E-02  0.8847925E-01
        1   -1    0    0  501    0  0.00000000000E+00  0.00000000000E+00  0.84873945737E+03  0.84873945739E+03  0.50400001928E-02 0. -1.
       -1   -1    0    0    0  501  0.00000000000E+00  0.00000000000E+00 -0.71332832219E+03  0.71332832221E+03  0.50400001928E-02 0.  1.
    10030    2    1    2    0    0  0.00000000000E+00  0.00000000000E+00  0.13541113519E+03  0.15620677796E+04  0.15561875120E+04 0.  0.
        2    1    3    3  502    0  0.23625499213E+03  0.69456873645E+03 -0.19247986174E+03  0.75847916791E+03  0.25500000920E-02 0. -1.
       -2    1    3    3    0  502 -0.23625499213E+03 -0.69456873645E+03  0.32789099693E+03  0.80358861169E+03  0.25500000920E-02 0.  1.
</event>
<event>
 5   0  0.4314657E-05  0.1595854E+04  0.7818609E-02  0.8823099E-01
       -1   -1    0    0    0  501  0.00000000000E+00  0.00000000000E+00  0.91233959691E+03  0.91233959693E+03  0.50400001928E-02 0.  1.
        1   -1    0    0  501    0  0.00000000000E+00  0.00000000000E+00 -0.69786232028E+03  0.69786232030E+03  0.50400001928E-02 0. -1.
    10030    2    1    2    0    0  0.00000000000E+00  0.00000000000E+00  0.21447727663E+03  0.16102019172E+04  0.15958539131E+04 0.  0.
        5    1    3    3  502    0  0.29056624750E+03 -0.25470786527E+03 -0.59715004324E+03  0.71127709435E+03  0.46999998093E+01 0. -1.
       -5    1    3    3    0  502 -0.29056624750E+03  0.25470786527E+03  0.81162731987E+03  0.89892482287E+03  0.46999998093E+01 0.  1.
</event>
<event>
 5   0  0.4211419E-05  0.1600104E+04  0.7818609E-02  0.8820484E-01
        1   -1    0    0  501    0  0.00000000000E+00  0.00000000000E+00  0.10144118614E+04  0.10144118615E+04  0.50400001928E-02 0. -1.
       -1   -1    0    0    0  501  0.00000000000E+00  0.00000000000E+00 -0.63098932479E+03  0.63098932481E+03  0.50400001928E-02 0.  1.
    10030    2    1    2    0    0  0.00000000000E+00  0.00000000000E+00  0.38342253665E+03  0.16454011863E+04  0.16001038161E+04 0.  0.
        2    1    3    3  502    0 -0.67419251696E+03 -0.43025259791E+03  0.17038265193E+03  0.81773045438E+03  0.25500000920E-02 0. -1.
       -2    1    3    3    0  502  0.67419251696E+03  0.43025259791E+03  0.21303988472E+03  0.82767073188E+03  0.25500000920E-02 0.  1.
</event>
<event>
 5   0  0.3042125E-05  0.1597509E+04  0.7818609E-02  0.8822080E-01
        3   -1    0    0  501    0  0.00000000000E+00  0.00000000000E+00  0.76756318914E+03  0.76756319579E+03  0.10100000352E+00 0.  1.
       -3   -1    0    0    0  501  0.00000000000E+00  0.00000000000E+00 -0.83121333039E+03  0.83121333653E+03  0.10100000352E+00 0. -1.
    10030    2    1    2    0    0  0.00000000000E+00  0.00000000000E+00 -0.63650141246E+02  0.15987765323E+04  0.15975090171E+04 0.  0.
        3    1    3    3  502    0  0.47548945989E+03  0.20726134037E+03  0.57607869552E+03  0.77518653452E+03  0.10100000352E+00 0.  1.
       -3    1    3    3    0  502 -0.47548945989E+03 -0.20726134037E+03 -0.63972883676E+03  0.82358999779E+03  0.10100000352E+00 0. -1.
</event>
<event>
 5   0  0.7901257E-05  0.1600752E+04  0.7818609E-02  0.8820086E-01
       -2   -1    0    0    0  501  0.00000000000E+00  0.00000000000E+00  0.67155539257E+03  0.67155539257E+03  0.25500000920E-02 0.  1.
        2   -1    0    0  501    0  0.00000000000E+00  0.00000000000E+00 -0.95390713111E+03  0.95390713112E+03  0.25500000920E-02 0. -1.
    10030    2    1    2    0    0  0.00000000000E+00  0.00000000000E+00 -0.28235173854E+03  0.16254625237E+04  0.16007516708E+04 0.  0.
        2    1    3    3  502    0  0.23881743584E+03 -0.76255738342E+03 -0.94932246519E+02  0.80469849142E+03  0.25500000920E-02 0.  1.
       -2    1    3    3    0  502 -0.23881743584E+03  0.76255738342E+03 -0.18741949202E+03  0.82076403227E+03  0.25500000920E-02 0. -1.
</event>
<event>
 5   0  0.7849690E-05  0.1602850E+04  0.7818609E-02  0.8818799E-01
        2   -1    0    0  501    0  0.00000000000E+00  0.00000000000E+00  0.45626828419E+03  0.45626828420E+03  0.25500000920E-02 0. -1.
       -2   -1    0    0    0  501  0.00000000000E+00  0.00000000000E+00 -0.14076845732E+04  0.14076845732E+04  0.25500000920E-02 0.  1.
    10030    2    1    2    0    0  0.00000000000E+00  0.00000000000E+00 -0.95141628903E+03  0.18639528574E+04  0.16028497433E+04 0.  0.
        3    1    3    3  502    0 -0.22425822234E+03 -0.27531686734E+03 -0.13112095687E+04  0.13584408971E+04  0.10100000352E+00 0.  1.
       -3    1    3    3    0  502  0.22425822234E+03  0.27531686734E+03  0.35979327966E+03  0.50551196031E+03  0.10100000352E+00 0. -1.
</event>
<event>
 5   0  0.7901257E-05  0.1600938E+04  0.7818609E-02  0.8819972E-01
       -2   -1    0    0    0  501  0.00000000000E+00  0.00000000000E+00  0.87826854290E+03  0.87826854291E+03  0.25500000920E-02 0.  1.
        2   -1    0    0  501    0  0.00000000000E+00  0.00000000000E+00 -0.72956113045E+03  0.72956113046E+03  0.25500000920E-02 0. -1.
    10030    2    1    2    0    0  0.00000000000E+00  0.00000000000E+00  0.14870741245E+03  0.16078296734E+04  0.16009379638E+04 0.  0.
        2    1    3    3  502    0 -0.21378457021E+03  0.21035747033E+03  0.81970518165E+03  0.87285204509E+03  0.25500000920E-02 0.  1.
       -2    1    3    3    0  502  0.21378457021E+03 -0.21035747033E+03 -0.67099776920E+03  0.73497762827E+03  0.25500000920E-02 0. -1.
</event>
<event>
 5   0  0.4256406E-05  0.1599113E+04  0.7818609E-02  0.8821093E-01
        1   -1    0    0  501    0  0.00000000000E+00  0.00000000000E+00  0.81638030623E+03  0.81638030624E+03  0.50400001928E-02 0. -1.
       -1   -1    0    0    0  501  0.00000000000E+00  0.00000000000E+00 -0.78307922110E+03  0.78307922112E+03  0.50400001928E-02 0.  1.
    10030    2    1    2    0    0  0.00000000000E+00  0.00000000000E+00  0.33301085129E+02  0.15994595274E+04  0.15991128220E+04 0.  0.
        3    1    3    3  502    0  0.64315730890E+03  0.36688646592E+03  0.31843344414E+03  0.80601294742E+03  0.10100000352E+00 0. -1.
       -3    1    3    3    0  502 -0.64315730890E+03 -0.36688646592E+03 -0.28513235901E+03  0.79344657994E+03  0.10100000352E+00 0.  1.
</event>
<event>
 5   0  0.4314657E-05  0.1601698E+04  0.7818609E-02  0.8819506E-01
       -1   -1    0    0    0  501  0.00000000000E+00  0.00000000000E+00  0.85336366451E+03  0.85336366452E+03  0.50400001928E-02 0.  1.
        1   -1    0    0  501    0  0.00000000000E+00  0.00000000000E+00 -0.75156570525E+03  0.75156570527E+03  0.50400001928E-02 0. -1.
    10030    2    1    2    0    0  0.00000000000E+00  0.00000000000E+00  0.10179795926E+03  0.16049293698E+04  0.16016976798E+04 0.  0.
        5    1    3    3  502    0  0.38886546871E+02 -0.79976483259E+03  0.36699169503E+02  0.80156401492E+03  0.46999998093E+01 0. -1.
       -5    1    3    3    0  502 -0.38886546871E+02  0.79976483259E+03  0.65098789753E+02  0.80336535487E+03  0.46999998093E+01 0.  1.
</event>
<event>
 5   0  0.8037548E-05  0.1595349E+04  0.7818609E-02  0.8823410E-01
        2   -1    0    0  501    0  0.00000000000E+00  0.00000000000E+00  0.18171795565E+04  0.18171795565E+04  0.25500000920E-02 0. -1.
       -2   -1    0    0    0  501  0.00000000000E+00  0.00000000000E+00 -0.35014969525E+03  0.35014969526E+03  0.25500000920E-02 0.  1.
    10030    2    1    2    0    0  0.00000000000E+00  0.00000000000E+00  0.14670298612E+04  0.21673292518E+04  0.15953493259E+04 0.  0.
        5    1    3    3  502    0  0.57656273565E+03 -0.53712351526E+03  0.56527367529E+03  0.96978486107E+03  0.46999998093E+01 0. -1.
       -5    1    3    3    0  502 -0.57656273565E+03  0.53712351526E+03  0.90175618594E+03  0.11975443907E+04  0.46999998093E+01 0.  1.
</event>
<event>
 5   0  0.4314657E-05  0.1594595E+04  0.7818609E-02  0.8823875E-01
        1   -1    0    0  501    0  0.00000000000E+00  0.00000000000E+00  0.17864694267E+04  0.17864694267E+04  0.50400001928E-02 0. -1.
       -1   -1    0    0    0  501  0.00000000000E+00  0.00000000000E+00 -0.35583232828E+03  0.35583232832E+03  0.50400001928E-02 0.  1.
    10030    2    1    2    0    0  0.00000000000E+00  0.00000000000E+00  0.14306370984E+04  0.21423017550E+04  0.15945953412E+04 0.  0.
        5    1    3    3  502    0  0.39305466562E+03  0.11027851471E+03 -0.20475035753E+03  0.45672543161E+03  0.46999998093E+01 0.  1.
       -5    1    3    3    0  502 -0.39305466562E+03 -0.11027851471E+03  0.16353874559E+04  0.16855763234E+04  0.46999998093E+01 0. -1.
</event>
<event>
 5   0  0.4211419E-05  0.1601294E+04  0.7818609E-02  0.8819753E-01
       -1   -1    0    0    0  501  0.00000000000E+00  0.00000000000E+00  0.98939669609E+03  0.98939669610E+03  0.50400001928E-02 0. -1.
        1   -1    0    0  501    0  0.00000000000E+00  0.00000000000E+00 -0.64790592609E+03  0.64790592611E+03  0.50400001928E-02 0.  1.
    10030    2    1    2    0    0  0.00000000000E+00  0.00000000000E+00  0.34149077000E+03  0.16373026222E+04  0.16012944547E+04 0.  0.
        2    1    3    3  502    0 -0.61146283045E+03 -0.36122170236E+03 -0.20725417180E+03  0.73981227552E+03  0.25500000920E-02 0.  1.
       -2    1    3    3    0  502  0.61146283045E+03  0.36122170236E+03  0.54874494179E+03  0.89749034670E+03  0.25500000920E-02 0. -1.
</event>
<event>
 5   0  0.8037548E-05  0.1602247E+04  0.7818609E-02  0.8819169E-01
       -2   -1    0    0    0  501  0.00000000000E+00  0.00000000000E+00  0.56784632094E+03  0.56784632094E+03  0.25500000920E-02 0.  1.
        2   -1    0    0  501    0  0.00000000000E+00  0.00000000000E+00 -0.11302338549E+04  0.11302338549E+04  0.25500000920E-02 0. -1.
    10030    2    1    2    0    0  0.00000000000E+00  0.00000000000E+00 -0.56238753398E+03  0.16980801759E+04  0.16022473421E+04 0.  0.
        5    1    3    3  502    0  0.78393880498E+03 -0.77217844313E+02 -0.12668502165E+03  0.79786830375E+03  0.46999998093E+01 0. -1.
       -5    1    3    3    0  502 -0.78393880498E+03  0.77217844313E+02 -0.43570251232E+03  0.90021187210E+03  0.46999998093E+01 0.  1.
</event>
<event>
 5   0  0.4504463E-05  0.1598238E+04  0.7818609E-02  0.8821631E-01
       -1   -1    0    0    0  501  0.00000000000E+00  0.00000000000E+00  0.12088657606E+04  0.12088657606E+04  0.50400001928E-02 0. -1.
        1   -1    0    0  501    0  0.00000000000E+00  0.00000000000E+00 -0.52825620357E+03  0.52825620359E+03  0.50400001928E-02 0.  1.
    10030    2    1    2    0    0  0.00000000000E+00  0.00000000000E+00  0.68060955705E+03  0.17371219642E+04  0.15982375760E+04 0.  0.
        1    1    3    3  502    0 -0.53330524078E+02  0.79215888590E+03  0.43891344024E+03  0.90719614933E+03  0.50400001928E-02 0. -1.
       -1    1    3    3    0  502  0.53330524078E+02 -0.79215888590E+03  0.24169611681E+03  0.82992581489E+03  0.50400001928E-02 0.  1.
</event>
<event>
 5   0  0.7849690E-05  0.1592987E+04  0.7818609E-02  0.8824868E-01
        2   -1    0    0  501    0  0.00000000000E+00  0.00000000000E+00  0.76974468426E+03  0.76974468427E+03  0.25500000920E-02 0.  1.
       -2   -1    0    0    0  501  0.00000000000E+00  0.00000000000E+00 -0.82417166914E+03  0.82417166915E+03  0.25500000920E-02 0. -1.
    10030    2    1    2    0    0  0.00000000000E+00  0.00000000000E+00 -0.54426984879E+02  0.15939163534E+04  0.15929868314E+04 0.  0.
        3    1    3    3  502    0  0.43759626156E+03  0.15435673022E+03  0.62053220258E+03  0.77483979824E+03  0.10100000352E+00 0.  1.
       -3    1    3    3    0  502 -0.43759626156E+03 -0.15435673022E+03 -0.67495918746E+03  0.81907655517E+03  0.10100000352E+00 0. -1.
</event>
<event>
 5   0  0.8694033E-05  0.1603529E+04  0.7818609E-02  0.8818383E-01
        2   -1    0    0  501    0  0.00000000000E+00  0.00000000000E+00  0.11041241643E+04  0.11041241643E+04  0.25500000920E-02 0. -1.
       -2   -1    0    0    0  501  0.00000000000E+00  0.00000000000E+00 -0.58220467988E+03  0.58220467989E+03  0.25500000920E-02 0.  1.
    10030    2    1    2    0    0  0.00000000000E+00  0.00000000000E+00  0.52191948438E+03  0.16863288442E+04  0.16035289279E+04 0.  0.
        1    1    3    3  502    0 -0.44660029215E+03  0.11604881198E+03 -0.42856964834E+03  0.62975478658E+03  0.50400001928E-02 0.  1.
       -1    1    3    3    0  502  0.44660029215E+03 -0.11604881198E+03  0.95048913272E+03  0.10565740576E+04  0.50400001928E-02 0. -1.
</event>
<event>
 5   0  0.7849690E-05  0.1595768E+04  0.7818609E-02  0.8823152E-01
       -2   -1    0    0    0  501  0.00000000000E+00  0.00000000000E+00  0.43275939559E+03  0.43275939560E+03  0.25500000920E-02 0. -1.
        2   -1    0    0  501    0  0.00000000000E+00  0.00000000000E+00 -0.14710688637E+04  0.14710688637E+04  0.25500000920E-02 0.  1.
    10030    2    1    2    0    0  0.00000000000E+00  0.00000000000E+00 -0.10383094681E+04  0.19038282593E+04  0.15957679936E+04 0.  0.
        3    1    3    3  502    0 -0.48227539015E+03 -0.65865024746E+01  0.23914540863E+03  0.53835255236E+03  0.10100000352E+00 0. -1.
       -3    1    3    3    0  502  0.48227539015E+03  0.65865024746E+01 -0.12774548767E+04  0.13654757069E+04  0.10100000352E+00 0.  1.
</event>
<event>
 5   0  0.4211419E-05  0.1603428E+04  0.7818609E-02  0.8818445E-01
        1   -1    0    0  501    0  0.00000000000E+00  0.00000000000E+00  0.10844605971E+04  0.10844605972E+04  0.50400001928E-02 0. -1.
       -1   -1    0    0    0  501  0.00000000000E+00  0.00000000000E+00 -0.59268703073E+03  0.59268703075E+03  0.50400001928E-02 0.  1.
    10030    2    1    2    0    0  0.00000000000E+00  0.00000000000E+00  0.49177356642E+03  0.16771476279E+04  0.16034284908E+04 0.  0.
        2    1    3    3  502    0  0.28313387015E+03  0.73900223677E+03  0.11170540765E+03  0.79922912390E+03  0.25500000920E-02 0.  1.
       -2    1    3    3    0  502 -0.28313387015E+03 -0.73900223677E+03  0.38006815876E+03  0.87791850402E+03  0.25500000920E-02 0. -1.
</event>
<event>
 5   0  0.8620155E-05  0.1598973E+04  0.7818609E-02  0.8821179E-01
        2   -1    0    0  501    0  0.00000000000E+00  0.00000000000E+00  0.17848013787E+04  0.17848013787E+04  0.25500000920E-02 0. -1.
       -2   -1    0    0    0  501  0.00000000000E+00  0.00000000000E+00 -0.35812323228E+03  0.35812323229E+03  0.25500000920E-02 0.  1.
    10030    2    1    2    0    0  0.00000000000E+00  0.00000000000E+00  0.14266781464E+04  0.21429246110E+04  0.15989732190E+04 0.  0.
        4    1    3    3  502    0  0.42303074534E+03 -0.12578964916E+03 -0.18007404804E+03  0.47666164417E+03  0.12699999809E+01 0.  1.
       -4    1    3    3    0  502 -0.42303074534E+03  0.12578964916E+03  0.16067521945E+04  0.16662629668E+04  0.12699999809E+01 0. -1.
</event>
<event>
 5   0  0.4314657E-05  0.1616607E+04  0.7818609E-02  0.8810410E-01
       -1   -1    0    0    0  501  0.00000000000E+00  0.00000000000E+00  0.65758115418E+03  0.65758115420E+03  0.50400001928E-02 0.  1.
        1   -1    0    0  501    0  0.00000000000E+00  0.00000000000E+00 -0.99357245488E+03  0.99357245489E+03  0.50400001928E-02 0. -1.
    10030    2    1    2    0    0  0.00000000000E+00  0.00000000000E+00 -0.33599130070E+03  0.16511536091E+04  0.16166069673E+04 0.  0.
        5    1    3    3  502    0  0.59537345687E+03 -0.18035206884E+03 -0.69510167055E+03  0.93283698697E+03  0.46999998093E+01 0. -1.
       -5    1    3    3    0  502 -0.59537345687E+03  0.18035206884E+03  0.35911036985E+03  0.71831662211E+03  0.46999998093E+01 0.  1.
</event>
<event>
 5   0  0.3042125E-05  0.1603467E+04  0.7818609E-02  0.8818421E-01
        4   -1    0    0  501    0  0.00000000000E+00  0.00000000000E+00  0.10148637988E+04  0.10148645934E+04  0.12699999809E+01 0. -1.
       -4   -1    0    0    0  501  0.00000000000E+00  0.00000000000E+00 -0.63336065418E+03  0.63336192747E+03  0.12699999809E+01 0.  1.
    10030    2    1    2    0    0  0.00000000000E+00  0.00000000000E+00  0.38150314463E+03  0.16482265209E+04  0.16034668736E+04 0.  0.
        3    1    3    3  502    0 -0.31031081957E+03  0.18013205700E+03 -0.54622507872E+03  0.65353057275E+03  0.10100000352E+00 0.  1.
       -3    1    3    3    0  502  0.31031081957E+03 -0.18013205700E+03  0.92772822334E+03  0.99469594816E+03  0.10100000352E+00 0. -1.
</event>
<event>
 5   0  0.3042125E-05  0.1599521E+04  0.7818609E-02  0.8820842E-01
       -3   -1    0    0    0  501  0.00000000000E+00  0.00000000000E+00  0.10133280852E+04  0.10133280902E+04  0.10100000352E+00 0.  1.
        3   -1    0    0  501    0  0.00000000000E+00  0.00000000000E+00 -0.63120437848E+03  0.63120438656E+03  0.10100000352E+00 0. -1.
    10030    2    1    2    0    0  0.00000000000E+00  0.00000000000E+00  0.38212370668E+03  0.16445324768E+04  0.15995213471E+04 0.  0.
        1    1    3    3  502    0 -0.57807351306E+03 -0.26987720733E+03  0.68693518319E+03  0.93748740763E+03  0.50400001928E-02 0.  1.
       -1    1    3    3    0  502  0.57807351306E+03  0.26987720733E+03 -0.30481147651E+03  0.70704506913E+03  0.50400001928E-02 0. -1.
</event>
<event>
 5   0  0.4211419E-05  0.1600944E+04  0.7818609E-02  0.8819968E-01
        1   -1    0    0  501    0  0.00000000000E+00  0.00000000000E+00  0.14443164422E+04  0.14443164422E+04  0.50400001928E-02 0.  1.
       -1   -1    0    0    0  501  0.00000000000E+00  0.00000000000E+00 -0.44363936919E+03  0.44363936922E+03  0.50400001928E-02 0. -1.
    10030    2    1    2    0    0  0.00000000000E+00  0.00000000000E+00  0.10006770730E+04  0.18879558114E+04  0.16009442656E+04 0.  0.
        2    1    3    3  502    0 -0.46530798751E+03  0.40803562199E+03  0.10990475938E+04  0.12613128896E+04  0.25500000920E-02 0.  1.
       -2    1    3    3    0  502  0.46530798751E+03 -0.40803562199E+03 -0.98370520827E+02  0.62664292179E+03  0.25500000920E-02 0. -1.
</event>
<event>
 5   0  0.4256406E-05  0.1597012E+04  0.7818609E-02  0.8822386E-01
        1   -1    0    0  501    0  0.00000000000E+00  0.00000000000E+00  0.16775310689E+04  0.16775310689E+04  0.50400001928E-02 0. -1.
       -1   -1    0    0    0  501  0.00000000000E+00  0.00000000000E+00 -0.38008958267E+03  0.38008958270E+03  0.50400001928E-02 0.  1.
    10030    2    1    2    0    0  0.00000000000E+00  0.00000000000E+00  0.12974414863E+04  0.20576206516E+04  0.15970123155E+04 0.  0.
        3    1    3    3  502    0  0.10179699537E+03  0.77809063209E+03  0.45838150006E+03  0.90879110350E+03  0.10100000352E+00 0.  1.
       -3    1    3    3    0  502 -0.10179699537E+03 -0.77809063209E+03  0.83905998620E+03  0.11488295481E+04  0.10100000352E+00 0. -1.
</event>
<event>
 5   0  0.4314657E-05  0.1599072E+04  0.7818609E-02  0.8821118E-01
       -1   -1    0    0    0  501  0.00000000000E+00  0.00000000000E+00  0.34974639577E+03  0.34974639580E+03  0.50400001928E-02 0. -1.
        1   -1    0    0  501    0  0.00000000000E+00  0.00000000000E+00 -0.18277757833E+04  0.18277757833E+04  0.50400001928E-02 0.  1.
    10030    2    1    2    0    0  0.00000000000E+00  0.00000000000E+00 -0.14780293876E+04  0.21775221792E+04  0.15990722217E+04 0.  0.
        5    1    3    3  502    0  0.65072261858E+03 -0.22658926339E+03 -0.18679005387E+03  0.71392943268E+03  0.46999998093E+01 0. -1.
       -5    1    3    3    0  502 -0.65072261858E+03  0.22658926339E+03 -0.12912393337E+04  0.14635927465E+04  0.46999998093E+01 0.  1.
</event>
<event>
 5   0  0.8037548E-05  0.1600473E+04  0.7818609E-02  0.8820258E-01
        2   -1    0    0  501    0  0.00000000000E+00  0.00000000000E+00  0.22139107250E+04  0.22139107250E+04  0.25500000920E-02 0.  1.
       -2   -1    0    0    0  501  0.00000000000E+00  0.00000000000E+00 -0.28925206649E+03  0.28925206651E+03  0.25500000920E-02 0. -1.
    10030    2    1    2    0    0  0.00000000000E+00  0.00000000000E+00  0.19246586585E+04  0.25031627915E+04  0.16004727455E+04 0.  0.
        5    1    3    3  502    0  0.18447215693E+03  0.77852188170E+03  0.93861682022E+03  0.12333490674E+04  0.46999998093E+01 0.  1.
       -5    1    3    3    0  502 -0.18447215693E+03 -0.77852188170E+03  0.98604183830E+03  0.12698137241E+04  0.46999998093E+01 0. -1.
</event>
<event>
 5   0  0.4504463E-05  0.1591966E+04  0.7818609E-02  0.8825499E-01
        1   -1    0    0  501    0  0.00000000000E+00  0.00000000000E+00  0.80336790501E+03  0.80336790503E+03  0.50400001928E-02 0. -1.
       -1   -1    0    0    0  501  0.00000000000E+00  0.00000000000E+00 -0.78866600619E+03  0.78866600621E+03  0.50400001928E-02 0.  1.
    10030    2    1    2    0    0  0.00000000000E+00  0.00000000000E+00  0.14701898821E+02  0.15920339112E+04  0.15919660262E+04 0.  0.
        1    1    3    3  502    0  0.25891078739E+03 -0.27364583580E+02 -0.74488145904E+03  0.78907034180E+03  0.50400001928E-02 0.  1.
       -1    1    3    3    0  502 -0.25891078739E+03  0.27364583580E+02  0.75958335786E+03  0.80296356943E+03  0.50400001928E-02 0. -1.
</event>
<event>
 5   0  0.4314657E-05  0.1597416E+04  0.7818609E-02  0.8822137E-01
        1   -1    0    0  501    0  0.00000000000E+00  0.00000000000E+00  0.13731690860E+04  0.13731690860E+04  0.50400001928E-02 0.  1.
       -1   -1    0    0    0  501  0.00000000000E+00  0.00000000000E+00 -0.46457069052E+03  0.46457069054E+03  0.50400001928E-02 0. -1.
    10030    2    1    2    0    0  0.00000000000E+00  0.00000000000E+00  0.90859839552E+03  0.18377397766E+04  0.15974155509E+04 0.  0.
        5    1    3    3  502    0  0.64437654915E+00  0.14734842515E+03 -0.44878235488E+03  0.47237661422E+03  0.46999998093E+01 0. -1.
       -5    1    3    3    0  502 -0.64437654915E+00 -0.14734842515E+03  0.13573807504E+04  0.13653631624E+04  0.46999998093E+01 0.  1.
</event>
<event>
 5   0  0.4373026E-05  0.1601995E+04  0.7818609E-02  0.8819323E-01
       -1   -1    0    0    0  501  0.00000000000E+00  0.00000000000E+00  0.65798913747E+03  0.65798913749E+03  0.50400001928E-02 0.  1.
        1   -1    0    0  501    0  0.00000000000E+00  0.00000000000E+00 -0.97508728573E+03  0.97508728575E+03  0.50400001928E-02 0. -1.
    10030    2    1    2    0    0  0.00000000000E+00  0.00000000000E+00 -0.31709814827E+03  0.16330764232E+04  0.16019948091E+04 0.  0.
        4    1    3    3  502    0 -0.13826067866E+03  0.15239800968E+03 -0.94768333165E+03  0.96976619791E+03  0.12699999809E+01 0. -1.
       -4    1    3    3    0  502  0.13826067866E+03 -0.15239800968E+03  0.63058518338E+03  0.66331022533E+03  0.12699999809E+01 0.  1.
</event>
<event>
 5   0  0.4211419E-05  0.1602269E+04  0.7818609E-02  0.8819155E-01
       -1   -1    0    0    0  501  0.00000000000E+00  0.00000000000E+00  0.72127745980E+03  0.72127745982E+03  0.50400001928E-02 0. -1.
        1   -1    0    0  501    0  0.00000000000E+00  0.00000000000E+00 -0.88983302697E+03  0.88983302698E+03  0.50400001928E-02 0.  1.
    10030    2    1    2    0    0  0.00000000000E+00  0.00000000000E+00 -0.16855556717E+03  0.16111104868E+04  0.16022690228E+04 0.  0.
        2    1    3    3  502    0  0.51201714198E+03  0.14447632571E+03 -0.68656678815E+03  0.86856716319E+03  0.25500000920E-02 0.  1.
       -2    1    3    3    0  502 -0.51201714198E+03 -0.14447632571E+03  0.51801122099E+03  0.74254332361E+03  0.25500000920E-02 0. -1.
</event>
<event>
 5   0  0.7901257E-05  0.1598311E+04  0.7818609E-02  0.8821586E-01
       -2   -1    0    0    0  501  0.00000000000E+00  0.00000000000E+00  0.42766288036E+03  0.42766288037E+03  0.25500000920E-02 0.  1.
        2   -1    0    0  501    0  0.00000000000E+00  0.00000000000E+00 -0.14933484162E+04  0.14933484162E+04  0.25500000920E-02 0. -1.
    10030    2    1    2    0    0  0.00000000000E+00  0.00000000000E+00 -0.10656855359E+04  0.19210112966E+04  0.15983112151E+04 0.  0.
        2    1    3    3  502    0  0.34253662727E+03 -0.23548963829E+03  0.28750437420E+03  0.50541614137E+03  0.25500000920E-02 0.  1.
       -2    1    3    3    0  502 -0.34253662727E+03  0.23548963829E+03 -0.13531899101E+04  0.14155951552E+04  0.25500000920E-02 0. -1.
</event>
<event>
 5   0  0.7849690E-05  0.1602181E+04  0.7818609E-02  0.8819209E-01
        2   -1    0    0  501    0  0.00000000000E+00  0.00000000000E+00  0.10227477391E+04  0.10227477391E+04  0.25500000920E-02 0. -1.
       -2   -1    0    0    0  501  0.00000000000E+00  0.00000000000E+00 -0.62747243285E+03  0.62747243285E+03  0.25500000920E-02 0.  1.
    10030    2    1    2    0    0  0.00000000000E+00  0.00000000000E+00  0.39527530628E+03  0.16502201720E+04  0.16021810286E+04 0.  0.
        3    1    3    3  502    0  0.45360592474E+03 -0.58060989607E+03  0.52151765292E+03  0.90268868325E+03  0.10100000352E+00 0.  1.
       -3    1    3    3    0  502 -0.45360592474E+03  0.58060989607E+03 -0.12624234663E+03  0.74753148874E+03  0.10100000352E+00 0. -1.
</event>
<event>
 5   0  0.8620155E-05  0.1638773E+04  0.7818609E-02  0.8797076E-01
       -2   -1    0    0    0  501  0.00000000000E+00  0.00000000000E+00  0.24182255466E+03  0.24182255467E+03  0.25500000920E-02 0.  1.
        2   -1    0    0  501    0  0.00000000000E+00  0.00000000000E+00 -0.27763934039E+04  0.27763934039E+04  0.25500000920E-02 0. -1.
    10030    2    1    2    0    0  0.00000000000E+00  0.00000000000E+00 -0.25345708493E+04  0.30182159586E+04  0.16387733775E+04 0.  0.
        4    1    3    3  502    0  0.19253785356E+03  0.49010260249E+03 -0.11104938983E+03  0.53814957577E+03  0.12699999809E+01 0.  1.
       -4    1    3    3    0  502 -0.19253785356E+03 -0.49010260249E+03 -0.24235214594E+04  0.24800663828E+04  0.12699999809E+01 0. -1.
</event>
<event>
 5   0  0.4314657E-05  0.1592625E+04  0.7818609E-02  0.8825092E-01
        1   -1    0    0  501    0  0.00000000000E+00  0.00000000000E+00  0.90524055144E+03  0.90524055145E+03  0.50400001928E-02 0.  1.
       -1   -1    0    0    0  501  0.00000000000E+00  0.00000000000E+00 -0.70049139266E+03  0.70049139268E+03  0.50400001928E-02 0. -1.
    10030    2    1    2    0    0  0.00000000000E+00  0.00000000000E+00  0.20474915877E+03  0.16057319441E+04  0.15926245190E+04 0.  0.
        5    1    3    3  502    0  0.30594273998E+03  0.83802962805E+01 -0.63880821670E+03  0.70835670198E+03  0.46999998093E+01 0. -1.
       -5    1    3    3    0  502 -0.30594273998E+03 -0.83802962805E+01  0.84355737548E+03  0.89737524215E+03  0.46999998093E+01 0.  1.
</event>
<event>
 5   0  0.8694033E-05  0.1603910E+04  0.7818609E-02  0.8818150E-01
       -2   -1    0    0    0  501  0.00000000000E+00  0.00000000000E+00  0.39063979654E+03  0.39063979655E+03  0.25500000920E-02 0. -1.
        2   -1    0    0  501    0  0.00000000000E+00  0.00000000000E+00 -0.16463552469E+04  0.16463552469E+04  0.25500000920E-02 0.  1.
    10030    2    1    2    0    0  0.00000000000E+00  0.00000000000E+00 -0.12557154503E+04  0.20369950434E+04  0.16039100707E+04 0.  0.
        1    1    3    3  502    0  0.12470180207E+03 -0.21599222373E+03 -0.15958488464E+04  0.16152203319E+04  0.50400001928E-02 0.  1.
       -1    1    3    3    0  502 -0.12470180207E+03  0.21599222373E+03  0.34013339603E+03  0.42177471151E+03  0.50400001928E-02 0. -1.
</event>
<event>
 5   0  0.8037548E-05  0.1599350E+04  0.7818609E-02  0.8820948E-01
        2   -1    0    0  501    0  0.00000000000E+00  0.00000000000E+00  0.69546814471E+03  0.69546814472E+03  0.25500000920E-02 0. -1.
       -2   -1    0    0    0  501  0.00000000000E+00  0.00000000000E+00 -0.91949558393E+03  0.91949558393E+03  0.25500000920E-02 0.  1.
    10030    2    1    2    0    0  0.00000000000E+00  0.00000000000E+00 -0.22402743921E+03  0.16149637286E+04  0.15993497276E+04 0.  0.
        5    1    3    3  502    0  0.14450964722E+03 -0.77339812000E+03  0.32315631751E+02  0.78746052613E+03  0.46999998093E+01 0. -1.
       -5    1    3    3    0  502 -0.14450964722E+03  0.77339812000E+03 -0.25634307096E+03  0.82750320252E+03  0.46999998093E+01 0.  1.
</event>
<event>
 5   0  0.4373026E-05  0.1597916E+04  0.7818609E-02  0.8821829E-01
        1   -1    0    0  501    0  0.00000000000E+00  0.00000000000E+00  0.10290148649E+04  0.10290148649E+04  0.50400001928E-02 0.  1.
       -1   -1    0    0    0  501  0.00000000000E+00  0.00000000000E+00 -0.62033532327E+03  0.62033532329E+03  0.50400001928E-02 0. -1.
    10030    2    1    2    0    0  0.00000000000E+00  0.00000000000E+00  0.40867954159E+03  0.16493501882E+04  0.15979164795E+04 0.  0.
        4    1    3    3  502    0  0.14228570989E+03 -0.16119015433E+03 -0.58991205910E+03  0.62787366521E+03  0.12699999809E+01 0. -1.
       -4    1    3    3    0  502 -0.14228570989E+03  0.16119015433E+03  0.99859160069E+03  0.10214765230E+04  0.12699999809E+01 0.  1.
</event>
<event>
 5   0  0.4211419E-05  0.1599992E+04  0.7818609E-02  0.8820553E-01
        1   -1    0    0  501    0  0.00000000000E+00  0.00000000000E+00  0.14524310833E+04  0.14524310833E+04  0.50400001928E-02 0.  1.
       -1   -1    0    0    0  501  0.00000000000E+00  0.00000000000E+00 -0.44063585609E+03  0.44063585612E+03  0.50400001928E-02 0. -1.
    10030    2    1    2    0    0  0.00000000000E+00  0.00000000000E+00  0.10117952272E+04  0.18930669394E+04  0.15999915173E+04 0.  0.
        2    1    3    3  502    0 -0.37494567908E+03  0.46218319879E+03 -0.12662505154E+03  0.60846649471E+03  0.25500000920E-02 0. -1.
       -2    1    3    3    0  502  0.37494567908E+03 -0.46218319879E+03  0.11384202788E+04  0.12846004447E+04  0.25500000920E-02 0.  1.
</event>
<event>
 5   0  0.4211419E-05  0.1600517E+04  0.7818609E-02  0.8820230E-01
        1   -1    0    0  501    0  0.00000000000E+00  0.00000000000E+00  0.52910236696E+03  0.52910236698E+03  0.50400001928E-02 0.  1.
       -1   -1    0    0    0  501  0.00000000000E+00  0.00000000000E+00 -0.12103778085E+04  0.12103778085E+04  0.50400001928E-02 0. -1.
    10030    2    1    2    0    0  0.00000000000E+00  0.00000000000E+00 -0.68127544152E+03  0.17394801755E+04  0.16005171207E+04 0.  0.
        2    1    3    3  502    0 -0.14660302850E+03 -0.51285065104E+03  0.30773767258E+03  0.61580087153E+03  0.25500000920E-02 0.  1.
       -2    1    3    3    0  502  0.14660302850E+03  0.51285065104E+03 -0.98901311410E+03  0.11236793039E+04  0.25500000920E-02 0. -1.
</event>
<event>
 5   0  0.4256406E-05  0.1601589E+04  0.7818609E-02  0.8819572E-01
       -1   -1    0    0    0  501  0.00000000000E+00  0.00000000000E+00  0.38607984269E+03  0.38607984272E+03  0.50400001928E-02 0.  1.
        1   -1    0    0  501    0  0.00000000000E+00  0.00000000000E+00 -0.16609822398E+04  0.16609822398E+04  0.50400001928E-02 0. -1.
    10030    2    1    2    0    0  0.00000000000E+00  0.00000000000E+00 -0.12749023971E+04  0.20470620826E+04  0.16015889134E+04 0.  0.
        3    1    3    3  502    0  0.32002670235E+03  0.51971059827E+03  0.25159868606E+02  0.61085941538E+03  0.10100000352E+00 0.  1.
       -3    1    3    3    0  502 -0.32002670235E+03 -0.51971059827E+03 -0.13000622657E+04  0.14362026672E+04  0.10100000352E+00 0. -1.
</event>
<event>
 5   0  0.4211419E-05  0.1592142E+04  0.7818609E-02  0.8825390E-01
        1   -1    0    0  501    0  0.00000000000E+00  0.00000000000E+00  0.38262041455E+03  0.38262041458E+03  0.50400001928E-02 0.  1.
       -1   -1    0    0    0  501  0.00000000000E+00  0.00000000000E+00 -0.16562866065E+04  0.16562866065E+04  0.50400001928E-02 0. -1.
    10030    2    1    2    0    0  0.00000000000E+00  0.00000000000E+00 -0.12736661920E+04  0.20389070211E+04  0.15921420389E+04 0.  0.
        2    1    3    3  502    0 -0.53653871220E+03 -0.52805410978E+03 -0.30532142581E+03  0.81236451523E+03  0.25500000920E-02 0.  1.
       -2    1    3    3    0  502  0.53653871220E+03  0.52805410978E+03 -0.96834476615E+03  0.12265425059E+04  0.25500000920E-02 0. -1.
</event>
<event>
 5   0  0.7901257E-05  0.1601416E+04  0.7818609E-02  0.8819679E-01
        2   -1    0    0  501    0  0.00000000000E+00  0.00000000000E+00  0.70408612249E+03  0.70408612249E+03  0.25500000920E-02 0.  1.
       -2   -1    0    0    0  501  0.00000000000E+00  0.00000000000E+00 -0.91058910778E+03  0.91058910778E+03  0.25500000920E-02 0. -1.
    10030    2    1    2    0    0  0.00000000000E+00  0.00000000000E+00 -0.20650298529E+03  0.16146752303E+04  0.16014158162E+04 0.  0.
        2    1    3    3  502    0  0.78080526444E+03 -0.63893249499E+02  0.63630072964E+02  0.78599490742E+03  0.25500000920E-02 0.  1.
       -2    1    3    3    0  502 -0.78080526444E+03  0.63893249499E+02 -0.27013305826E+03  0.82868032285E+03  0.25500000920E-02 0. -1.
</event>
<event>
 5   0  0.7901257E-05  0.1600577E+04  0.7818609E-02  0.8820194E-01
        2   -1    0    0  501    0  0.00000000000E+00  0.00000000000E+00  0.12409504197E+04  0.12409504197E+04  0.25500000920E-02 0.  1.
       -2   -1    0    0    0  501  0.00000000000E+00  0.00000000000E+00 -0.51610546922E+03  0.51610546923E+03  0.25500000920E-02 0. -1.
    10030    2    1    2    0    0  0.00000000000E+00  0.00000000000E+00  0.72484495043E+03  0.17570558889E+04  0.16005765194E+04 0.  0.
        2    1    3    3  502    0 -0.66202565688E+03  0.41950626992E+03  0.18474118768E+03  0.80522840692E+03  0.25500000920E-02 0. -1.
       -2    1    3    3    0  502  0.66202565688E+03 -0.41950626992E+03  0.54010376276E+03  0.95182748197E+03  0.25500000920E-02 0.  1.
</event>
<event>
 5   0  0.7849690E-05  0.1601337E+04  0.7818609E-02  0.8819727E-01
       -2   -1    0    0    0  501  0.00000000000E+00  0.00000000000E+00  0.77185321960E+03  0.77185321960E+03  0.25500000920E-02 0. -1.
        2   -1    0    0  501    0  0.00000000000E+00  0.00000000000E+00 -0.83055968916E+03  0.83055968916E+03  0.25500000920E-02 0.  1.
    10030    2    1    2    0    0  0.00000000000E+00  0.00000000000E+00 -0.58706469559E+02  0.16024129088E+04  0.16013371539E+04 0.  0.
        3    1    3    3  502    0  0.31495455995E+03  0.38257336122E+03  0.59996622657E+03  0.77815052192E+03  0.10100000352E+00 0. -1.
       -3    1    3    3    0  502 -0.31495455995E+03 -0.38257336122E+03 -0.65867269613E+03  0.82426238685E+03  0.10100000352E+00 0.  1.
</event>
<event>
 5   0  0.4504463E-05  0.1599798E+04  0.7818609E-02  0.8820672E-01
       -1   -1    0    0    0  501  0.00000000000E+00  0.00000000000E+00  0.29941345849E+03  0.29941345853E+03  0.50400001928E-02 0.  1.
        1   -1    0    0  501    0  0.00000000000E+00  0.00000000000E+00 -0.21369727917E+04  0.21369727917E+04  0.50400001928E-02 0. -1.
    10030    2    1    2    0    0  0.00000000000E+00  0.00000000000E+00 -0.18375593332E+04  0.24363862502E+04  0.15997980051E+04 0.  0.
        1    1    3    3  502    0 -0.10824864627E+03 -0.26519403795E+03  0.21863134434E+03  0.36034054995E+03  0.50400001928E-02 0.  1.
       -1    1    3    3    0  502  0.10824864627E+03  0.26519403795E+03 -0.20561906775E+04  0.20760457002E+04  0.50400001928E-02 0. -1.
</event>
<event>
 5   0  0.4211419E-05  0.1599104E+04  0.7818609E-02  0.8821099E-01
        1   -1    0    0  501    0  0.00000000000E+00  0.00000000000E+00  0.11441140418E+04  0.11441140418E+04  0.50400001928E-02 0.  1.
       -1   -1    0    0    0  501  0.00000000000E+00  0.00000000000E+00 -0.55875850241E+03  0.55875850244E+03  0.50400001928E-02 0. -1.
    10030    2    1    2    0    0  0.00000000000E+00  0.00000000000E+00  0.58535553938E+03  0.17028725442E+04  0.15991040599E+04 0.  0.
        2    1    3    3  502    0  0.53102734137E+03 -0.57505210313E+03  0.46638405468E+03  0.91114710397E+03  0.25500000920E-02 0. -1.
       -2    1    3    3    0  502 -0.53102734137E+03  0.57505210313E+03  0.11897148470E+03  0.79172544028E+03  0.25500000920E-02 0.  1.
</event>
<event>
 5   0  0.4211419E-05  0.1601490E+04  0.7818609E-02  0.8819633E-01
        1   -1    0    0  501    0  0.00000000000E+00  0.00000000000E+00  0.65966718601E+03  0.65966718602E+03  0.50400001928E-02 0.  1.
       -1   -1    0    0    0  501  0.00000000000E+00  0.00000000000E+00 -0.97199374688E+03  0.97199374689E+03  0.50400001928E-02 0. -1.
    10030    2    1    2    0    0  0.00000000000E+00  0.00000000000E+00 -0.31232656087E+03  0.16316609329E+04  0.16014897812E+04 0.  0.
        2    1    3    3  502    0  0.49108539298E+03  0.63239536447E+03 -0.14579213373E+03  0.81384525953E+03  0.25500000920E-02 0. -1.
       -2    1    3    3    0  502 -0.49108539298E+03 -0.63239536447E+03 -0.16653442714E+03  0.81781567338E+03  0.25500000920E-02 0.  1.
</event>
<event>
 5   0  0.7849690E-05  0.1605401E+04  0.7818609E-02  0.8817237E-01
        2   -1    0    0  501    0  0.00000000000E+00  0.00000000000E+00  0.10326125409E+04  0.10326125409E+04  0.25500000920E-02 0.  1.
       -2   -1    0    0    0  501  0.00000000000E+00  0.00000000000E+00 -0.62397840567E+03  0.62397840568E+03  0.25500000920E-02 0. -1.
    10030    2    1    2    0    0  0.00000000000E+00  0.00000000000E+00  0.40863413519E+03  0.16565909465E+04  0.16054007935E+04 0.  0.
        3    1    3    3  502    0 -0.32711481481E+03  0.45369304305E+03 -0.38978996370E+03  0.68174607105E+03  0.10100000352E+00 0. -1.
       -3    1    3    3    0  502  0.32711481481E+03 -0.45369304305E+03  0.79842409889E+03  0.97484487549E+03  0.10100000352E+00 0.  1.
</event>
<event>
 5   0  0.7901257E-05  0.1603766E+04  0.7818609E-02  0.8818238E-01
        2   -1    0    0  501    0  0.00000000000E+00  0.00000000000E+00  0.10607803435E+04  0.10607803435E+04  0.25500000920E-02 0.  1.
       -2   -1    0    0    0  501  0.00000000000E+00  0.00000000000E+00 -0.60617297489E+03  0.60617297489E+03  0.25500000920E-02 0. -1.
    10030    2    1    2    0    0  0.00000000000E+00  0.00000000000E+00  0.45460736859E+03  0.16669533184E+04  0.16037660384E+04 0.  0.
        2    1    3    3  502    0 -0.48934480681E+03  0.45114180951E+03 -0.23756363995E+03  0.70669919716E+03  0.25500000920E-02 0. -1.
       -2    1    3    3    0  502  0.48934480681E+03 -0.45114180951E+03  0.69217100853E+03  0.96025412121E+03  0.25500000920E-02 0.  1.
</event>
<event>
 5   0  0.7901257E-05  0.1604127E+04  0.7818609E-02  0.8818017E-01
        2   -1    0    0  501    0  0.00000000000E+00  0.00000000000E+00  0.77699341747E+03  0.77699341748E+03  0.25500000920E-02 0. -1.
       -2   -1    0    0    0  501  0.00000000000E+00  0.00000000000E+00 -0.82794223953E+03  0.82794223953E+03  0.25500000920E-02 0.  1.
    10030    2    1    2    0    0  0.00000000000E+00  0.00000000000E+00 -0.50948822059E+02  0.16049356570E+04  0.16041267658E+04 0.  0.
        2    1    3    3  502    0  0.99981702843E+02  0.56954928550E+03 -0.58156304781E+03  0.82012091066E+03  0.25500000920E-02 0.  1.
       -2    1    3    3    0  502 -0.99981702843E+02 -0.56954928550E+03  0.53061422575E+03  0.78481474635E+03  0.25500000920E-02 0. -1.
</event>
<event>
 5   0  0.4373026E-05  0.1600340E+04  0.7818609E-02  0.8820339E-01
        1   -1    0    0  501    0  0.00000000000E+00  0.00000000000E+00  0.18638957273E+04  0.18638957273E+04  0.50400001928E-02 0.  1.
       -1   -1    0    0    0  501  0.00000000000E+00  0.00000000000E+00 -0.34351268350E+03  0.34351268354E+03  0.50400001928E-02 0. -1.
    10030    2    1    2    0    0  0.00000000000E+00  0.00000000000E+00  0.15203830438E+04  0.22074084109E+04  0.16003397428E+04 0.  0.
        4    1    3    3  502    0 -0.90518920408E+02 -0.14209058523E+03 -0.31877021814E+03  0.36055439844E+03  0.12699999809E+01 0. -1.
       -4    1    3    3    0  502  0.90518920408E+02  0.14209058523E+03  0.18391532619E+04  0.18468540124E+04  0.12699999809E+01 0.  1.
</event>
<event>
 5   0  0.3042125E-05  0.1600245E+04  0.7818609E-02  0.8820398E-01
        3   -1    0    0  501    0  0.00000000000E+00  0.00000000000E+00  0.73113349677E+03  0.73113350375E+03  0.10100000352E+00 0.  1.
       -3   -1    0    0    0  501  0.00000000000E+00  0.00000000000E+00 -0.87562115070E+03  0.87562115653E+03  0.10100000352E+00 0. -1.
    10030    2    1    2    0    0  0.00000000000E+00  0.00000000000E+00 -0.14448765393E+03  0.16067546603E+04  0.16002449363E+04 0.  0.
        2    1    3    3  502    0 -0.73636418529E+03  0.19730570728E+03 -0.31620177913E+03  0.82531528559E+03  0.25500000920E-02 0. -1.
       -2    1    3    3    0  502  0.73636418529E+03 -0.19730570728E+03  0.17171412520E+03  0.78143937468E+03  0.25500000920E-02 0.  1.
</event>
<event>
 5   0  0.8694033E-05  0.1602699E+04  0.7818609E-02  0.8818891E-01
        2   -1    0    0  501    0  0.00000000000E+00  0.00000000000E+00  0.14322733780E+04  0.14322733780E+04  0.25500000920E-02 0. -1.
       -2   -1    0    0    0  501  0.00000000000E+00  0.00000000000E+00 -0.44835109441E+03  0.44835109442E+03  0.25500000920E-02 0.  1.
    10030    2    1    2    0    0  0.00000000000E+00  0.00000000000E+00  0.98392228363E+03  0.18806244725E+04  0.16026993936E+04 0.  0.
        1    1    3    3  502    0 -0.22508534633E+03 -0.76781270230E+03  0.43999113738E+03  0.91312209477E+03  0.50400001928E-02 0.  1.
       -1    1    3    3    0  502  0.22508534633E+03  0.76781270230E+03  0.54393114625E+03  0.96750237769E+03  0.50400001928E-02 0. -1.
</event>
<event>
 5   0  0.7849690E-05  0.1601437E+04  0.7818609E-02  0.8819666E-01
        2   -1    0    0  501    0  0.00000000000E+00  0.00000000000E+00  0.66563329206E+03  0.66563329206E+03  0.25500000920E-02 0.  1.
       -2   -1    0    0    0  501  0.00000000000E+00  0.00000000000E+00 -0.96321797602E+03  0.96321797602E+03  0.25500000920E-02 0. -1.
    10030    2    1    2    0    0  0.00000000000E+00  0.00000000000E+00 -0.29758468396E+03  0.16288512681E+04  0.16014367953E+04 0.  0.
        3    1    3    3  502    0  0.90840915841E+02 -0.77452054379E+03  0.36020660616E+02  0.78066102947E+03  0.10100000352E+00 0.  1.
       -3    1    3    3    0  502 -0.90840915841E+02  0.77452054379E+03 -0.33360534458E+03  0.84819023861E+03  0.10100000352E+00 0. -1.
</event>
<event>
 5   0  0.4211419E-05  0.1599460E+04  0.7818609E-02  0.8820880E-01
       -1   -1    0    0    0  501  0.00000000000E+00  0.00000000000E+00  0.47534808793E+03  0.47534808796E+03  0.50400001928E-02 0.  1.
        1   -1    0    0  501    0  0.00000000000E+00  0.00000000000E+00 -0.13454735155E+04  0.13454735155E+04  0.50400001928E-02 0. -1.
    10030    2    1    2    0    0  0.00000000000E+00  0.00000000000E+00 -0.87012542755E+03  0.18208216035E+04  0.15994602377E+04 0.  0.
        2    1    3    3  502    0 -0.49995783665E+02  0.49182950154E+01 -0.13436754769E+04  0.13446142775E+04  0.25500000920E-02 0. -1.
       -2    1    3    3    0  502  0.49995783665E+02 -0.49182950154E+01  0.47355004937E+03  0.47620732594E+03  0.25500000920E-02 0.  1.
</event>
<event>
 5   0  0.7849690E-05  0.1612575E+04  0.7818609E-02  0.8812860E-01
       -2   -1    0    0    0  501  0.00000000000E+00  0.00000000000E+00  0.28917979347E+03  0.28917979348E+03  0.25500000920E-02 0. -1.
        2   -1    0    0  501    0  0.00000000000E+00  0.00000000000E+00 -0.22480796038E+04  0.22480796038E+04  0.25500000920E-02 0.  1.
    10030    2    1    2    0    0  0.00000000000E+00  0.00000000000E+00 -0.19588998104E+04  0.25372593973E+04  0.16125745819E+04 0.  0.
        3    1    3    3  502    0  0.76735363232E+03 -0.14934786100E+03 -0.12900275310E+04  0.15084122187E+04  0.10100000352E+00 0.  1.
       -3    1    3    3    0  502 -0.76735363232E+03  0.14934786100E+03 -0.66887227934E+03  0.10288471786E+04  0.10100000352E+00 0. -1.
</event>
<event>
 5   0  0.7901257E-05  0.1600582E+04  0.7818609E-02  0.8820190E-01
       -2   -1    0    0    0  501  0.00000000000E+00  0.00000000000E+00  0.37727617308E+03  0.37727617308E+03  0.25500000920E-02 0.  1.
        2   -1    0    0  501    0  0.00000000000E+00  0.00000000000E+00 -0.16976050391E+04  0.16976050391E+04  0.25500000920E-02 0. -1.
    10030    2    1    2    0    0  0.00000000000E+00  0.00000000000E+00 -0.13203288660E+04  0.20748812122E+04  0.16005823097E+04 0.  0.
        2    1    3    3  502    0  0.56091789237E+03  0.57061737991E+03 -0.67994593342E+03  0.10500283561E+04  0.25500000920E-02 0.  1.
       -2    1    3    3    0  502 -0.56091789237E+03 -0.57061737991E+03 -0.64038293259E+03  0.10248528561E+04  0.25500000920E-02 0. -1.
</event>
<event>
 5   0  0.8037548E-05  0.1598659E+04  0.7818609E-02  0.8821372E-01
        2   -1    0    0  501    0  0.00000000000E+00  0.00000000000E+00  0.88959854135E+03  0.88959854135E+03  0.25500000920E-02 0.  1.
       -2   -1    0    0    0  501  0.00000000000E+00  0.00000000000E+00 -0.71821993305E+03  0.71821993306E+03  0.25500000920E-02 0. -1.
    10030    2    1    2    0    0  0.00000000000E+00  0.00000000000E+00  0.17137860830E+03  0.16078184744E+04  0.15986586938E+04 0.  0.
        5    1    3    3  502    0  0.25816302637E+03  0.26094294696E+03 -0.62842546357E+03  0.72779119465E+03  0.46999998093E+01 0. -1.
       -5    1    3    3    0  502 -0.25816302637E+03 -0.26094294696E+03  0.79980407187E+03  0.88002727976E+03  0.46999998093E+01 0.  1.
</event>
<event>
 5   0  0.4314657E-05  0.1599009E+04  0.7818609E-02  0.8821157E-01
       -1   -1    0    0    0  501  0.00000000000E+00  0.00000000000E+00  0.61992198189E+03  0.61992198191E+03  0.50400001928E-02 0.  1.
        1   -1    0    0  501    0  0.00000000000E+00  0.00000000000E+00 -0.10311094306E+04  0.10311094306E+04  0.50400001928E-02 0. -1.
    10030    2    1    2    0    0  0.00000000000E+00  0.00000000000E+00 -0.41118744868E+03  0.16510314125E+04  0.15990089453E+04 0.  0.
        5    1    3    3  502    0  0.51986404907E+03  0.30203020866E+03  0.33852773096E+03  0.69000289209E+03  0.46999998093E+01 0.  1.
       -5    1    3    3    0  502 -0.51986404907E+03 -0.30203020866E+03 -0.74971517964E+03  0.96102852041E+03  0.46999998093E+01 0. -1.
</event>
<event>
 5   0  0.4314657E-05  0.1600305E+04  0.7818609E-02  0.8820360E-01
        1   -1    0    0  501    0  0.00000000000E+00  0.00000000000E+00  0.14405211024E+04  0.14405211024E+04  0.50400001928E-02 0. -1.
       -1   -1    0    0    0  501  0.00000000000E+00  0.00000000000E+00 -0.44445329061E+03  0.44445329064E+03  0.50400001928E-02 0.  1.
    10030    2    1    2    0    0  0.00000000000E+00  0.00000000000E+00  0.99606781175E+03  0.18849743930E+04  0.16003054011E+04 0.  0.
        5    1    3    3  502    0 -0.67888734126E+02  0.22558741764E+03  0.13987292731E+04  0.14184372502E+04  0.46999998093E+01 0. -1.
       -5    1    3    3    0  502  0.67888734126E+02 -0.22558741764E+03 -0.40266146134E+03  0.46653714286E+03  0.46999998093E+01 0.  1.
</event>
<event>
 5   0  0.8694033E-05  0.1602191E+04  0.7818609E-02  0.8819203E-01
        2   -1    0    0  501    0  0.00000000000E+00  0.00000000000E+00  0.21077399018E+04  0.21077399019E+04  0.25500000920E-02 0.  1.
       -2   -1    0    0    0  501  0.00000000000E+00  0.00000000000E+00 -0.30447476244E+03  0.30447476245E+03  0.25500000920E-02 0. -1.
    10030    2    1    2    0    0  0.00000000000E+00  0.00000000000E+00  0.18032651394E+04  0.24122146643E+04  0.16021905079E+04 0.  0.
        1    1    3    3  502    0  0.54705476515E+03  0.51231134818E+03  0.47573429394E+03  0.88772459244E+03  0.50400001928E-02 0. -1.
       -1    1    3    3    0  502 -0.54705476515E+03 -0.51231134818E+03  0.13275308455E+04  0.15244900719E+04  0.50400001928E-02 0.  1.
</event>
<event>
 5   0  0.4211419E-05  0.1599602E+04  0.7818609E-02  0.8820793E-01
        1   -1    0    0  501    0  0.00000000000E+00  0.00000000000E+00  0.80258506251E+03  0.80258506253E+03  0.50400001928E-02 0. -1.
       -1   -1    0    0    0  501  0.00000000000E+00  0.00000000000E+00 -0.79702653085E+03  0.79702653087E+03  0.50400001928E-02 0.  1.
    10030    2    1    2    0    0  0.00000000000E+00  0.00000000000E+00  0.55585316598E+01  0.15996115934E+04  0.15996019356E+04 0.  0.
        2    1    3    3  502    0  0.39677432423E+03  0.64599147566E+03  0.25762730166E+03  0.80069137472E+03  0.25500000920E-02 0. -1.
       -2    1    3    3    0  502 -0.39677432423E+03 -0.64599147566E+03 -0.25206877000E+03  0.79892021867E+03  0.25500000920E-02 0.  1.
</event>
<event>
 5   0  0.7901257E-05  0.1606314E+04  0.7818609E-02  0.8816679E-01
       -2   -1    0    0    0  501  0.00000000000E+00  0.00000000000E+00  0.99209061981E+03  0.99209061981E+03  0.25500000920E-02 0.  1.
        2   -1    0    0  501    0  0.00000000000E+00  0.00000000000E+00 -0.65020380374E+03  0.65020380375E+03  0.25500000920E-02 0. -1.
    10030    2    1    2    0    0  0.00000000000E+00  0.00000000000E+00  0.34188681606E+03  0.16422944236E+04  0.16063139104E+04 0.  0.
        2    1    3    3  502    0  0.10219409410E+03  0.11953111270E+03  0.97619559228E+03  0.98878165141E+03  0.25500000920E-02 0.  1.
       -2    1    3    3    0  502 -0.10219409410E+03 -0.11953111270E+03 -0.63430877622E+03  0.65351277215E+03  0.25500000920E-02 0. -1.
</event>
<event>
 5   0  0.4504463E-05  0.1607917E+04  0.7818609E-02  0.8815699E-01
       -1   -1    0    0    0  501  0.00000000000E+00  0.00000000000E+00  0.10334475609E+04  0.10334475609E+04  0.50400001928E-02 0. -1.
        1   -1    0    0  501    0  0.00000000000E+00  0.00000000000E+00 -0.62543048427E+03  0.62543048429E+03  0.50400001928E-02 0.  1.
    10030    2    1    2    0    0  0.00000000000E+00  0.00000000000E+00  0.40801707661E+03  0.16588780452E+04  0.16079174214E+04 0.  0.
        1    1    3    3  502    0 -0.32791455770E+03 -0.47466432776E+03 -0.37366194425E+03  0.68735538828E+03  0.50400001928E-02 0.  1.
       -1    1    3    3    0  502  0.32791455770E+03  0.47466432776E+03  0.78167902086E+03  0.97152265690E+03  0.50400001928E-02 0. -1.
</event>
<event>
 5   0  0.8620155E-05  0.1602949E+04  0.7818609E-02  0.8818739E-01
       -2   -1    0    0    0  501  0.00000000000E+00  0.00000000000E+00  0.58701875073E+03  0.58701875074E+03  0.25500000920E-02 0.  1.
        2   -1    0    0  501    0  0.00000000000E+00  0.00000000000E+00 -0.10942769578E+04  0.10942769578E+04  0.25500000920E-02 0. -1.
    10030    2    1    2    0    0  0.00000000000E+00  0.00000000000E+00 -0.50725820710E+03  0.16812957086E+04  0.16029486489E+04 0.  0.
        4    1    3    3  502    0 -0.17759704159E+03 -0.36082578530E+03 -0.98078412258E+03  0.10600354072E+04  0.12699999809E+01 0. -1.
       -4    1    3    3    0  502  0.17759704159E+03  0.36082578530E+03  0.47352591548E+03  0.62126030136E+03  0.12699999809E+01 0.  1.
</event>
<event>
 5   0  0.4373026E-05  0.1601058E+04  0.7818609E-02  0.8819898E-01
        1   -1    0    0  501    0  0.00000000000E+00  0.00000000000E+00  0.89220292688E+03  0.89220292690E+03  0.50400001928E-02 0. -1.
       -1   -1    0    0    0  501  0.00000000000E+00  0.00000000000E+00 -0.71827499187E+03  0.71827499189E+03  0.50400001928E-02 0.  1.
    10030    2    1    2    0    0  0.00000000000E+00  0.00000000000E+00  0.17392793501E+03  0.16104779188E+04  0.16010584625E+04 0.  0.
        4    1    3    3  502    0  0.53646394422E+03  0.33388794339E+03  0.58135402307E+03  0.85863195563E+03  0.12699999809E+01 0. -1.
       -4    1    3    3    0  502 -0.53646394422E+03 -0.33388794339E+03 -0.40742608806E+03  0.75184596316E+03  0.12699999809E+01 0.  1.
</event>
<event>
 5   0  0.8037548E-05  0.1604390E+04  0.7818609E-02  0.8817856E-01
        2   -1    0    0  501    0  0.00000000000E+00  0.00000000000E+00  0.14930993251E+04  0.14930993251E+04  0.25500000920E-02 0.  1.
       -2   -1    0    0    0  501  0.00000000000E+00  0.00000000000E+00 -0.43099392596E+03  0.43099392597E+03  0.25500000920E-02 0. -1.
    10030    2    1    2    0    0  0.00000000000E+00  0.00000000000E+00  0.10621053992E+04  0.19240932511E+04  0.16043899027E+04 0.  0.
        5    1    3    3  502    0 -0.13521470237E+03 -0.64973052020E+03  0.10714714430E+04  0.12603594359E+04  0.46999998093E+01 0.  1.
       -5    1    3    3    0  502  0.13521470237E+03  0.64973052020E+03 -0.93660438139E+01  0.66373381517E+03  0.46999998093E+01 0. -1.
</event>
<event>
 5   0  0.4211419E-05  0.1599594E+04  0.7818609E-02  0.8820798E-01
       -1   -1    0    0    0  501  0.00000000000E+00  0.00000000000E+00  0.33412002877E+03  0.33412002881E+03  0.50400001928E-02 0. -1.
        1   -1    0    0  501    0  0.00000000000E+00  0.00000000000E+00 -0.19145068070E+04  0.19145068070E+04  0.50400001928E-02 0.  1.
    10030    2    1    2    0    0  0.00000000000E+00  0.00000000000E+00 -0.15803867782E+04  0.22486268358E+04  0.15995937853E+04 0.  0.
        2    1    3    3  502    0  0.16143676099E+03  0.41819407267E+02  0.30940796613E+03  0.35148823612E+03  0.25500000920E-02 0. -1.
       -2    1    3    3    0  502 -0.16143676099E+03 -0.41819407267E+02 -0.18897947444E+04  0.18971385997E+04  0.25500000920E-02 0.  1.
</event>
<event>
 5   0  0.4314657E-05  0.1594012E+04  0.7818609E-02  0.8824235E-01
        1   -1    0    0  501    0  0.00000000000E+00  0.00000000000E+00  0.51609694015E+03  0.51609694018E+03  0.50400001928E-02 0. -1.
       -1   -1    0    0    0  501  0.00000000000E+00  0.00000000000E+00 -0.12308129423E+04  0.12308129424E+04  0.50400001928E-02 0.  1.
    10030    2    1    2    0    0  0.00000000000E+00  0.00000000000E+00 -0.71471600219E+03  0.17469098825E+04  0.15940122879E+04 0.  0.
        5    1    3    3  502    0  0.67575159363E+03  0.12674704457E+03 -0.79912614246E+03  0.10541962394E+04  0.46999998093E+01 0.  1.
       -5    1    3    3    0  502 -0.67575159363E+03 -0.12674704457E+03  0.84410140271E+02  0.69271364313E+03  0.46999998093E+01 0. -1.
</event>
<event>
 5   0  0.8694033E-05  0.1601055E+04  0.7818609E-02  0.8819900E-01
       -2   -1    0    0    0  501  0.00000000000E+00  0.00000000000E+00  0.52752130478E+03  0.52752130478E+03  0.25500000920E-02 0. -1.
        2   -1    0    0  501    0  0.00000000000E+00  0.00000000000E+00 -0.12148218009E+04  0.12148218009E+04  0.25500000920E-02 0.  1.
    10030    2    1    2    0    0  0.00000000000E+00  0.00000000000E+00 -0.68730049608E+03  0.17423431056E+04  0.16010551289E+04 0.  0.
        1    1    3    3  502    0  0.10707506268E+03  0.40280897608E+03 -0.10874287094E+04  0.11645691642E+04  0.50400001928E-02 0.  1.
       -1    1    3    3    0  502 -0.10707506268E+03 -0.40280897608E+03  0.40012821331E+03  0.57777394141E+03  0.50400001928E-02 0. -1.
</event>
<event>
 5   0  0.4256406E-05  0.1602301E+04  0.7818609E-02  0.8819136E-01
        1   -1    0    0  501    0  0.00000000000E+00  0.00000000000E+00  0.15710314787E+04  0.15710314787E+04  0.50400001928E-02 0.  1.
       -1   -1    0    0    0  501  0.00000000000E+00  0.00000000000E+00 -0.40854816637E+03  0.40854816640E+03  0.50400001928E-02 0. -1.
    10030    2    1    2    0    0  0.00000000000E+00  0.00000000000E+00  0.11624833123E+04  0.19795796451E+04  0.16023008831E+04 0.  0.
        3    1    3    3  502    0 -0.37535510433E+02 -0.80019721013E+03  0.59463544684E+03  0.99765515810E+03  0.10100000352E+00 0. -1.
       -3    1    3    3    0  502  0.37535510433E+02  0.80019721013E+03  0.56784786548E+03  0.98192448700E+03  0.10100000352E+00 0.  1.
</event>
<event>
 5   0  0.8694033E-05  0.1601905E+04  0.7818609E-02  0.8819379E-01
       -2   -1    0    0    0  501  0.00000000000E+00  0.00000000000E+00  0.33983546602E+03  0.33983546603E+03  0.25500000920E-02 0. -1.
        2   -1    0    0  501    0  0.00000000000E+00  0.00000000000E+00 -0.18877503807E+04  0.18877503807E+04  0.25500000920E-02 0.  1.
    10030    2    1    2    0    0  0.00000000000E+00  0.00000000000E+00 -0.15479149147E+04  0.22275858467E+04  0.16019045295E+04 0.  0.
        1    1    3    3  502    0  0.26880263484E+02 -0.80040976180E+03 -0.75714372672E+03  0.11021093223E+04  0.50400001928E-02 0.  1.
       -1    1    3    3    0  502 -0.26880263484E+02  0.80040976180E+03 -0.79077118796E+03  0.11254765244E+04  0.50400001928E-02 0. -1.
</event>
<event>
 5   0  0.4256406E-05  0.1603392E+04  0.7818609E-02  0.8818467E-01
        1   -1    0    0  501    0  0.00000000000E+00  0.00000000000E+00  0.57591341252E+03  0.57591341254E+03  0.50400001928E-02 0. -1.
       -1   -1    0    0    0  501  0.00000000000E+00  0.00000000000E+00 -0.11159946163E+04  0.11159946164E+04  0.50400001928E-02 0.  1.
    10030    2    1    2    0    0  0.00000000000E+00  0.00000000000E+00 -0.54008120383E+03  0.16919080289E+04  0.16033917399E+04 0.  0.
        3    1    3    3  502    0 -0.66431831219E+03 -0.13729774695E+02 -0.74336701088E+03  0.99704656345E+03  0.10100000352E+00 0.  1.
       -3    1    3    3    0  502  0.66431831219E+03  0.13729774695E+02  0.20328580705E+03  0.69486146545E+03  0.10100000352E+00 0. -1.
</event>
<event>
 5   0  0.4314657E-05  0.1601819E+04  0.7818609E-02  0.8819432E-01
        1   -1    0    0  501    0  0.00000000000E+00  0.00000000000E+00  0.22347812450E+04  0.22347812450E+04  0.50400001928E-02 0.  1.
       -1   -1    0    0    0  501  0.00000000000E+00  0.00000000000E+00 -0.28703291048E+03  0.28703291053E+03  0.50400001928E-02 0. -1.
    10030    2    1    2    0    0  0.00000000000E+00  0.00000000000E+00  0.19477483346E+04  0.25218141556E+04  0.16018186728E+04 0.  0.
        5    1    3    3  502    0 -0.58960636494E+03  0.51596186249E+03  0.71241274944E+03  0.10589647419E+04  0.46999998093E+01 0.  1.
       -5    1    3    3    0  502  0.58960636494E+03 -0.51596186249E+03  0.12353355851E+04  0.14628494136E+04  0.46999998093E+01 0. -1.
</event>
<event>
 5   0  0.8620155E-05  0.1602346E+04  0.7818609E-02  0.8819108E-01
       -2   -1    0    0    0  501  0.00000000000E+00  0.00000000000E+00  0.54602101211E+03  0.54602101211E+03  0.25500000920E-02 0.  1.
        2   -1    0    0  501    0  0.00000000000E+00  0.00000000000E+00 -0.11755554194E+04  0.11755554194E+04  0.25500000920E-02 0. -1.
    10030    2    1    2    0    0  0.00000000000E+00  0.00000000000E+00 -0.62953440733E+03  0.17215764316E+04  0.16023457304E+04 0.  0.
        4    1    3    3  502    0 -0.47608474951E+03  0.38049419542E+03  0.24397132052E+03  0.65647249721E+03  0.12699999809E+01 0.  1.
       -4    1    3    3    0  502  0.47608474951E+03 -0.38049419542E+03 -0.87350572785E+03  0.10651039343E+04  0.12699999809E+01 0. -1.
</event>
<event>
 5   0  0.7901257E-05  0.1597716E+04  0.7818609E-02  0.8821952E-01
        2   -1    0    0  501    0  0.00000000000E+00  0.00000000000E+00  0.79780671531E+03  0.79780671531E+03  0.25500000920E-02 0. -1.
       -2   -1    0    0    0  501  0.00000000000E+00  0.00000000000E+00 -0.79991100666E+03  0.79991100667E+03  0.25500000920E-02 0.  1.
    10030    2    1    2    0    0  0.00000000000E+00  0.00000000000E+00 -0.21042913567E+01  0.15977177220E+04  0.15977163362E+04 0.  0.
        2    1    3    3  502    0  0.26451290958E+03 -0.74797043010E+03  0.92476161773E+02  0.79873567852E+03  0.25500000920E-02 0. -1.
       -2    1    3    3    0  502 -0.26451290958E+03  0.74797043010E+03 -0.94580453130E+02  0.79898204346E+03  0.25500000920E-02 0.  1.
</event>
<event>
 5   0  0.4373026E-05  0.1599871E+04  0.7818609E-02  0.8820627E-01
       -1   -1    0    0    0  501  0.00000000000E+00  0.00000000000E+00  0.69778255124E+03  0.69778255126E+03  0.50400001928E-02 0.  1.
        1   -1    0    0  501    0  0.00000000000E+00  0.00000000000E+00 -0.91704385527E+03  0.91704385528E+03  0.50400001928E-02 0. -1.
    10030    2    1    2    0    0  0.00000000000E+00  0.00000000000E+00 -0.21926130403E+03  0.16148264065E+04  0.15998714960E+04 0.  0.
        4    1    3    3  502    0 -0.32776838684E+03  0.12047122868E+03  0.61678421784E+03  0.70878051372E+03  0.12699999809E+01 0.  1.
       -4    1    3    3    0  502  0.32776838684E+03 -0.12047122868E+03 -0.83604552187E+03  0.90604589282E+03  0.12699999809E+01 0. -1.
</event>
<event>
 5   0  0.8037548E-05  0.1600483E+04  0.7818609E-02  0.8820251E-01
       -2   -1    0    0    0  501  0.00000000000E+00  0.00000000000E+00  0.24868288320E+03  0.24868288321E+03  0.25500000920E-02 0.  1.
        2   -1    0    0  501    0  0.00000000000E+00  0.00000000000E+00 -0.25751138285E+04  0.25751138285E+04  0.25500000920E-02 0. -1.
    10030    2    1    2    0    0  0.00000000000E+00  0.00000000000E+00 -0.23264309453E+04  0.28237967117E+04  0.16004833413E+04 0.  0.
        5    1    3    3  502    0 -0.73353105376E+03  0.23475769669E+03 -0.77996095756E+03  0.10961478770E+04  0.46999998093E+01 0.  1.
       -5    1    3    3    0  502  0.73353105376E+03 -0.23475769669E+03 -0.15464699877E+04  0.17276488346E+04  0.46999998093E+01 0. -1.
</event>
<event>
 5   0  0.4504463E-05  0.1598559E+04  0.7818609E-02  0.8821434E-01
       -1   -1    0    0    0  501  0.00000000000E+00  0.00000000000E+00  0.69233770473E+03  0.69233770475E+03  0.50400001928E-02 0. -1.
        1   -1    0    0  501    0  0.00000000000E+00  0.00000000000E+00 -0.92273992059E+03  0.92273992060E+03  0.50400001928E-02 0.  1.
    10030    2    1    2    0    0  0.00000000000E+00  0.00000000000E+00 -0.23040221585E+03  0.16150776254E+04  0.15985588994E+04 0.  0.
        1    1    3    3  502    0  0.71446859232E+03 -0.24761313796E+03 -0.37685603765E+03  0.84486573409E+03  0.50400001928E-02 0.  1.
       -1    1    3    3    0  502 -0.71446859232E+03  0.24761313796E+03  0.14645382180E+03  0.77021189126E+03  0.50400001928E-02 0. -1.
</event>
<event>
 5   0  0.8620155E-05  0.1601810E+04  0.7818609E-02  0.8819437E-01
       -2   -1    0    0    0  501  0.00000000000E+00  0.00000000000E+00  0.46520148149E+03  0.46520148150E+03  0.25500000920E-02 0. -1.
        2   -1    0    0  501    0  0.00000000000E+00  0.00000000000E+00 -0.13788620314E+04  0.13788620314E+04  0.25500000920E-02 0.  1.
    10030    2    1    2    0    0  0.00000000000E+00  0.00000000000E+00 -0.91366054986E+03  0.18440635129E+04  0.16018098012E+04 0.  0.
        4    1    3    3  502    0 -0.15948482863E+03  0.25122562258E+03  0.39919615090E+03  0.49790451273E+03  0.12699999809E+01 0. -1.
       -4    1    3    3    0  502  0.15948482863E+03 -0.25122562258E+03 -0.13128567008E+04  0.13461590001E+04  0.12699999809E+01 0.  1.
</event>
<event>
 5   0  0.4211419E-05  0.1603893E+04  0.7818609E-02  0.8818160E-01
        1   -1    0    0  501    0  0.00000000000E+00  0.00000000000E+00  0.14391233613E+04  0.14391233613E+04  0.50400001928E-02 0. -1.
       -1   -1    0    0    0  501  0.00000000000E+00  0.00000000000E+00 -0.44688190686E+03  0.44688190689E+03  0.50400001928E-02 0.  1.
    10030    2    1    2    0    0  0.00000000000E+00  0.00000000000E+00  0.99224145444E+03  0.18860052682E+04  0.16038930038E+04 0.  0.
        2    1    3    3  502    0 -0.66224901632E+03 -0.34467446119E+03  0.84044627492E+03  0.11241548758E+04  0.25500000920E-02 0.  1.
       -2    1    3    3    0  502  0.66224901632E+03  0.34467446119E+03  0.15179517952E+03  0.76185039236E+03  0.25500000920E-02 0. -1.
</event>
<event>
 5   0  0.4211419E-05  0.1599846E+04  0.7818609E-02  0.8820643E-01
       -1   -1    0    0    0  501  0.00000000000E+00  0.00000000000E+00  0.95241926617E+03  0.95241926618E+03  0.50400001928E-02 0. -1.
        1   -1    0    0  501    0  0.00000000000E+00  0.00000000000E+00 -0.67184378001E+03  0.67184378003E+03  0.50400001928E-02 0.  1.
    10030    2    1    2    0    0  0.00000000000E+00  0.00000000000E+00  0.28057548616E+03  0.16242630462E+04  0.15998461926E+04 0.  0.
        2    1    3    3  502    0  0.25563483916E+03 -0.31535966685E+03 -0.55948932921E+03  0.69125190775E+03  0.25500000920E-02 0.  1.
       -2    1    3    3    0  502 -0.25563483916E+03  0.31535966685E+03  0.84006481537E+03  0.93301113846E+03  0.25500000920E-02 0. -1.
</event>
<event>
 5   0  0.7901257E-05  0.1605519E+04  0.7818609E-02  0.8817165E-01
        2   -1    0    0  501    0  0.00000000000E+00  0.00000000000E+00  0.10134048275E+04  0.10134048275E+04  0.25500000920E-02 0. -1.
       -2   -1    0    0    0  501  0.00000000000E+00  0.00000000000E+00 -0.63589874816E+03  0.63589874817E+03  0.25500000920E-02 0.  1.
    10030    2    1    2    0    0  0.00000000000E+00  0.00000000000E+00  0.37750607929E+03  0.16493035756E+04  0.16055190577E+04 0.  0.
        2    1    3    3  502    0  0.37862226297E+03  0.65854323408E+03 -0.77920032677E+02  0.76361347596E+03  0.25500000920E-02 0.  1.
       -2    1    3    3    0  502 -0.37862226297E+03 -0.65854323408E+03  0.45542611196E+03  0.88569009966E+03  0.25500000920E-02 0. -1.
</event>
<event>
 5   0  0.4314657E-05  0.1596809E+04  0.7818609E-02  0.8822511E-01
       -1   -1    0    0    0  501  0.00000000000E+00  0.00000000000E+00  0.82333140840E+03  0.82333140841E+03  0.50400001928E-02 0. -1.
        1   -1    0    0  501    0  0.00000000000E+00  0.00000000000E+00 -0.77423230779E+03  0.77423230781E+03  0.50400001928E-02 0.  1.
    10030    2    1    2    0    0  0.00000000000E+00  0.00000000000E+00  0.49099100603E+02  0.15975637162E+04  0.15968090386E+04 0.  0.
        5    1    3    3  502    0 -0.64097403426E+03  0.15642470638E+03  0.47432991036E+03  0.81260528870E+03  0.46999998093E+01 0. -1.
       -5    1    3    3    0  502  0.64097403426E+03 -0.15642470638E+03 -0.42523080976E+03  0.78495842752E+03  0.46999998093E+01 0.  1.
</event>
<event>
 5   0  0.4373026E-05  0.1561688E+04  0.7818609E-02  0.8844436E-01
       -1   -1    0    0    0  501  0.00000000000E+00  0.00000000000E+00  0.38373752202E+03  0.38373752206E+03  0.50400001928E-02 0. -1.
        1   -1    0    0  501    0  0.00000000000E+00  0.00000000000E+00 -0.15888916021E+04  0.15888916021E+04  0.50400001928E-02 0.  1.
    10030    2    1    2    0    0  0.00000000000E+00  0.00000000000E+00 -0.12051540801E+04  0.19726291242E+04  0.15616879665E+04 0.  0.
        4    1    3    3  502    0 -0.59742959827E+03  0.22445100299E+03 -0.34283285238E+02  0.63912231551E+03  0.12699999809E+01 0. -1.
       -4    1    3    3    0  502  0.59742959827E+03 -0.22445100299E+03 -0.11708707949E+04  0.13335068087E+04  0.12699999809E+01 0.  1.
</event>
<event>
 5   0  0.4314657E-05  0.1600727E+04  0.7818609E-02  0.8820101E-01
       -1   -1    0    0    0  501  0.00000000000E+00  0.00000000000E+00  0.49732712720E+03  0.49732712723E+03  0.50400001928E-02 0.  1.
        1   -1    0    0  501    0  0.00000000000E+00  0.00000000000E+00 -0.12880496001E+04  0.12880496001E+04  0.50400001928E-02 0. -1.
    10030    2    1    2    0    0  0.00000000000E+00  0.00000000000E+00 -0.79072247285E+03  0.17853767273E+04  0.16007273438E+04 0.  0.
        5    1    3    3  502    0 -0.38820993470E+02  0.49279358552E+03 -0.10974204748E+04  0.12036221898E+04  0.46999998093E+01 0. -1.
       -5    1    3    3    0  502  0.38820993470E+02 -0.49279358552E+03  0.30669800192E+03  0.58175453745E+03  0.46999998093E+01 0.  1.
</event>
<event>
 5   0  0.7901257E-05  0.1603847E+04  0.7818609E-02  0.8818188E-01
       -2   -1    0    0    0  501  0.00000000000E+00  0.00000000000E+00  0.67711529808E+03  0.67711529808E+03  0.25500000920E-02 0. -1.
        2   -1    0    0  501    0  0.00000000000E+00  0.00000000000E+00 -0.94973668300E+03  0.94973668300E+03  0.25500000920E-02 0.  1.
    10030    2    1    2    0    0  0.00000000000E+00  0.00000000000E+00 -0.27262138492E+03  0.16268519811E+04  0.16038469219E+04 0.  0.
        2    1    3    3  502    0 -0.76604266094E+02 -0.36101918949E+03 -0.85847649449E+03  0.93444366356E+03  0.25500000920E-02 0.  1.
       -2    1    3    3    0  502  0.76604266094E+02  0.36101918949E+03  0.58585510957E+03  0.69240831752E+03  0.25500000920E-02 0. -1.
</event>
<event>
 5   0  0.7901257E-05  0.1597460E+04  0.7818609E-02  0.8822110E-01
       -2   -1    0    0    0  501  0.00000000000E+00  0.00000000000E+00  0.77195379595E+03  0.77195379595E+03  0.25500000920E-02 0.  1.
        2   -1    0    0  501    0  0.00000000000E+00  0.00000000000E+00 -0.82643445557E+03  0.82643445558E+03  0.25500000920E-02 0. -1.
    10030    2    1    2    0    0  0.00000000000E+00  0.00000000000E+00 -0.54480659625E+02  0.15983882515E+04  0.15974595019E+04 0.  0.
        2    1    3    3  502    0  0.37759303619E+03  0.69582309187E+03 -0.13324029478E+03  0.80280710778E+03  0.25500000920E-02 0.  1.
       -2    1    3    3    0  502 -0.37759303619E+03 -0.69582309187E+03  0.78759635150E+02  0.79558114375E+03  0.25500000920E-02 0. -1.
</event>
<event>
 5   0  0.4504463E-05  0.1599455E+04  0.7818609E-02  0.8820883E-01
        1   -1    0    0  501    0  0.00000000000E+00  0.00000000000E+00  0.88846765236E+03  0.88846765237E+03  0.50400001928E-02 0. -1.
       -1   -1    0    0    0  501  0.00000000000E+00  0.00000000000E+00 -0.71985108223E+03  0.71985108225E+03  0.50400001928E-02 0.  1.
    10030    2    1    2    0    0  0.00000000000E+00  0.00000000000E+00  0.16861657013E+03  0.16083187346E+04  0.15994554087E+04 0.  0.
        1    1    3    3  502    0  0.34331758796E+03  0.32306168321E+03 -0.56528129485E+03  0.73605622047E+03  0.50400001928E-02 0.  1.
       -1    1    3    3    0  502 -0.34331758796E+03 -0.32306168321E+03  0.73389786497E+03  0.87226251415E+03  0.50400001928E-02 0. -1.
</event>
<event>
 5   0  0.7849690E-05  0.1600317E+04  0.7818609E-02  0.8820353E-01
        2   -1    0    0  501    0  0.00000000000E+00  0.00000000000E+00  0.86980021824E+03  0.86980021824E+03  0.25500000920E-02 0. -1.
       -2   -1    0    0    0  501  0.00000000000E+00  0.00000000000E+00 -0.73609290266E+03  0.73609290267E+03  0.25500000920E-02 0.  1.
    10030    2    1    2    0    0  0.00000000000E+00  0.00000000000E+00  0.13370731558E+03  0.16058931209E+04  0.16003171778E+04 0.  0.
        3    1    3    3  502    0 -0.63737677341E+03 -0.99474686088E+02 -0.40819773985E+03  0.76339358752E+03  0.10100000352E+00 0.  1.
       -3    1    3    3    0  502  0.63737677341E+03  0.99474686088E+02  0.54190505543E+03  0.84249953339E+03  0.10100000352E+00 0. -1.
</event>
<event>
 5   0  0.7849690E-05  0.1601382E+04  0.7818609E-02  0.8819699E-01
        2   -1    0    0  501    0  0.00000000000E+00  0.00000000000E+00  0.12467670151E+04  0.12467670151E+04  0.25500000920E-02 0.  1.
       -2   -1    0    0    0  501  0.00000000000E+00  0.00000000000E+00 -0.51421490441E+03  0.51421490442E+03  0.25500000920E-02 0. -1.
    10030    2    1    2    0    0  0.00000000000E+00  0.00000000000E+00  0.73255211069E+03  0.17609819195E+04  0.16013821299E+04 0.  0.
        3    1    3    3  502    0 -0.47044358687E+03 -0.50960021165E+03 -0.73722256674E+02  0.69745575162E+03  0.10100000352E+00 0. -1.
       -3    1    3    3    0  502  0.47044358687E+03  0.50960021165E+03  0.80627436737E+03  0.10635261679E+04  0.10100000352E+00 0.  1.
</event>
<event>
 5   0  0.8620155E-05  0.1597519E+04  0.7818609E-02  0.8822074E-01
       -2   -1    0    0    0  501  0.00000000000E+00  0.00000000000E+00  0.60341865448E+03  0.60341865449E+03  0.25500000920E-02 0.  1.
        2   -1    0    0  501    0  0.00000000000E+00  0.00000000000E+00 -0.10573362591E+04  0.10573362591E+04  0.25500000920E-02 0. -1.
    10030    2    1    2    0    0  0.00000000000E+00  0.00000000000E+00 -0.45391760459E+03  0.16607549136E+04  0.15975186043E+04 0.  0.
        4    1    3    3  502    0  0.29781285386E+03  0.21478466718E+03 -0.96439688598E+03  0.10319340656E+04  0.12699999809E+01 0. -1.
       -4    1    3    3    0  502 -0.29781285386E+03 -0.21478466718E+03  0.51047928139E+03  0.62882084795E+03  0.12699999809E+01 0.  1.
</event>
<event>
 5   0  0.4373026E-05  0.1602180E+04  0.7818609E-02  0.8819210E-01
       -1   -1    0    0    0  501  0.00000000000E+00  0.00000000000E+00  0.44788390964E+03  0.44788390967E+03  0.50400001928E-02 0. -1.
        1   -1    0    0  501    0  0.00000000000E+00  0.00000000000E+00 -0.14328383702E+04  0.14328383702E+04  0.50400001928E-02 0.  1.
    10030    2    1    2    0    0  0.00000000000E+00  0.00000000000E+00 -0.98495446059E+03  0.18807222799E+04  0.16021800787E+04 0.  0.
        4    1    3    3  502    0  0.60226901705E+03  0.46793545538E+03 -0.20481862829E+03  0.78971124007E+03  0.12699999809E+01 0. -1.
       -4    1    3    3    0  502 -0.60226901705E+03 -0.46793545538E+03 -0.78013583231E+03  0.10910110398E+04  0.12699999809E+01 0.  1.
</event>
<event>
 5   0  0.4373026E-05  0.1599637E+04  0.7818609E-02  0.8820771E-01
        1   -1    0    0  501    0  0.00000000000E+00  0.00000000000E+00  0.22520159457E+04  0.22520159457E+04  0.50400001928E-02 0. -1.
       -1   -1    0    0    0  501  0.00000000000E+00  0.00000000000E+00 -0.28406102683E+03  0.28406102688E+03  0.50400001928E-02 0.  1.
    10030    2    1    2    0    0  0.00000000000E+00  0.00000000000E+00  0.19679549188E+04  0.25360769726E+04  0.15996374115E+04 0.  0.
        4    1    3    3  502    0  0.29467420816E+03 -0.96395763636E+02  0.21528682522E+04  0.21750789311E+04  0.12699999809E+01 0. -1.
       -4    1    3    3    0  502 -0.29467420816E+03  0.96395763636E+02 -0.18491333335E+03  0.36099804148E+03  0.12699999809E+01 0.  1.
</event>
<event>
 5   0  0.8037548E-05  0.1602477E+04  0.7818609E-02  0.8819028E-01
       -2   -1    0    0    0  501  0.00000000000E+00  0.00000000000E+00  0.26480838383E+03  0.26480838385E+03  0.25500000920E-02 0.  1.
        2   -1    0    0  501    0  0.00000000000E+00  0.00000000000E+00 -0.24243302817E+04  0.24243302817E+04  0.25500000920E-02 0. -1.
    10030    2    1    2    0    0  0.00000000000E+00  0.00000000000E+00 -0.21595218979E+04  0.26891386655E+04  0.16024768127E+04 0.  0.
        5    1    3    3  502    0  0.78640889232E+03  0.25400965504E+02 -0.13335766593E+04  0.15483968972E+04  0.46999998093E+01 0. -1.
       -5    1    3    3    0  502 -0.78640889232E+03 -0.25400965504E+02 -0.82594523850E+03  0.11407417683E+04  0.46999998093E+01 0.  1.
</event>
<event>
 5   0  0.4373026E-05  0.1601006E+04  0.7818609E-02  0.8819930E-01
       -1   -1    0    0    0  501  0.00000000000E+00  0.00000000000E+00  0.29731845904E+03  0.29731845908E+03  0.50400001928E-02 0. -1.
        1   -1    0    0  501    0  0.00000000000E+00  0.00000000000E+00 -0.21552807608E+04  0.21552807608E+04  0.50400001928E-02 0.  1.
    10030    2    1    2    0    0  0.00000000000E+00  0.00000000000E+00 -0.18579623017E+04  0.24525992199E+04  0.16010056273E+04 0.  0.
        4    1    3    3  502    0 -0.53091552199E+03 -0.59035180441E+03 -0.77263159038E+03  0.11078572705E+04  0.12699999809E+01 0.  1.
       -4    1    3    3    0  502  0.53091552199E+03  0.59035180441E+03 -0.10853307114E+04  0.13447419494E+04  0.12699999809E+01 0. -1.
</event>
<event>
 5   0  0.7849690E-05  0.1598721E+04  0.7818609E-02  0.8821334E-01
        2   -1    0    0  501    0  0.00000000000E+00  0.00000000000E+00  0.10187218632E+04  0.10187218632E+04  0.25500000920E-02 0.  1.
       -2   -1    0    0    0  501  0.00000000000E+00  0.00000000000E+00 -0.62723404108E+03  0.62723404109E+03  0.25500000920E-02 0. -1.
    10030    2    1    2    0    0  0.00000000000E+00  0.00000000000E+00  0.39148782207E+03  0.16459559042E+04  0.15987207773E+04 0.  0.
        3    1    3    3  502    0 -0.49753274303E+03  0.40741009747E+02  0.83851219489E+03  0.97585929900E+03  0.10100000352E+00 0.  1.
       -3    1    3    3    0  502  0.49753274303E+03 -0.40741009747E+02 -0.44702437282E+03  0.67009660525E+03  0.10100000352E+00 0. -1.
</event>
<event>
 5   0  0.7849690E-05  0.1589012E+04  0.7818609E-02  0.8827327E-01
       -2   -1    0    0    0  501  0.00000000000E+00  0.00000000000E+00  0.98958568096E+03  0.98958568096E+03  0.25500000920E-02 0. -1.
        2   -1    0    0  501    0  0.00000000000E+00  0.00000000000E+00 -0.63788273996E+03  0.63788273996E+03  0.25500000920E-02 0.  1.
    10030    2    1    2    0    0  0.00000000000E+00  0.00000000000E+00  0.35170294100E+03  0.16274684209E+04  0.15890118006E+04 0.  0.
        3    1    3    3  502    0  0.52961319853E+03 -0.24862181468E+03 -0.37468586735E+03  0.69476071865E+03  0.10100000352E+00 0.  1.
       -3    1    3    3    0  502 -0.52961319853E+03  0.24862181468E+03  0.72638880835E+03  0.93270770227E+03  0.10100000352E+00 0. -1.
</event>
<event>
 5   0  0.4373026E-05  0.1598431E+04  0.7818609E-02  0.8821512E-01
       -1   -1    0    0    0  501  0.00000000000E+00  0.00000000000E+00  0.99445570742E+03  0.99445570743E+03  0.50400001928E-02 0. -1.
        1   -1    0    0  501    0  0.00000000000E+00  0.00000000000E+00 -0.64230691683E+03  0.64230691685E+03  0.50400001928E-02 0.  1.
    10030    2    1    2    0    0  0.00000000000E+00  0.00000000000E+00  0.35214879059E+03  0.16367626243E+04  0.15984314554E+04 0.  0.
        4    1    3    3  502    0 -0.91416774592E+02  0.35600102891E+02  0.98826572551E+03  0.99312393543E+03  0.12699999809E+01 0. -1.
       -4    1    3    3    0  502  0.91416774592E+02 -0.35600102891E+02 -0.63611693492E+03  0.64363868886E+03  0.12699999809E+01 0.  1.
</event>
<event>
 5   0  0.4256406E-05  0.1609860E+04  0.7818609E-02  0.8814513E-01
        1   -1    0    0  501    0  0.00000000000E+00  0.00000000000E+00  0.65281977942E+03  0.65281977944E+03  0.50400001928E-02 0.  1.
       -1   -1    0    0    0  501  0.00000000000E+00  0.00000000000E+00 -0.99248274433E+03  0.99248274434E+03  0.50400001928E-02 0. -1.
    10030    2    1    2    0    0  0.00000000000E+00  0.00000000000E+00 -0.33966296490E+03  0.16453025238E+04  0.16098600762E+04 0.  0.
        3    1    3    3  502    0  0.15942330056E+03  0.25117039382E+03 -0.93423512283E+03  0.98045786774E+03  0.10100000352E+00 0. -1.
       -3    1    3    3    0  502 -0.15942330056E+03 -0.25117039382E+03  0.59457215792E+03  0.66484465604E+03  0.10100000352E+00 0.  1.
</event>
<event>
 5   0  0.4373026E-05  0.1625314E+04  0.7818609E-02  0.8805146E-01
        1   -1    0    0  501    0  0.00000000000E+00  0.00000000000E+00  0.92084145677E+03  0.92084145679E+03  0.50400001928E-02 0. -1.
       -1   -1    0    0    0  501  0.00000000000E+00  0.00000000000E+00 -0.71718218444E+03  0.71718218445E+03  0.50400001928E-02 0.  1.
    10030    2    1    2    0    0  0.00000000000E+00  0.00000000000E+00  0.20365927234E+03  0.16380236412E+04  0.16253136159E+04 0.  0.
        4    1    3    3  502    0 -0.29522492008E+03  0.66491515418E+03 -0.26313421542E+03  0.77363501984E+03  0.12699999809E+01 0.  1.
       -4    1    3    3    0  502  0.29522492008E+03 -0.66491515418E+03  0.46679348775E+03  0.86438862140E+03  0.12699999809E+01 0. -1.
</event>
<event>
 5   0  0.8037548E-05  0.1598748E+04  0.7818609E-02  0.8821317E-01
        2   -1    0    0  501    0  0.00000000000E+00  0.00000000000E+00  0.25710906802E+04  0.25710906802E+04  0.25500000920E-02 0. -1.
       -2   -1    0    0    0  501  0.00000000000E+00  0.00000000000E+00 -0.24853222034E+03  0.24853222035E+03  0.25500000920E-02 0.  1.
    10030    2    1    2    0    0  0.00000000000E+00  0.00000000000E+00  0.23225584599E+04  0.28196229006E+04  0.15987481046E+04 0.  0.
        5    1    3    3  502    0 -0.46992631410E+03 -0.49168621287E+03  0.19019903153E+04  0.20199443859E+04  0.46999998093E+01 0. -1.
       -5    1    3    3    0  502  0.46992631410E+03  0.49168621287E+03  0.42056814460E+03  0.79967851469E+03  0.46999998093E+01 0.  1.
</event>
<event>
 5   0  0.4373026E-05  0.1610958E+04  0.7818609E-02  0.8813844E-01
       -1   -1    0    0    0  501  0.00000000000E+00  0.00000000000E+00  0.13023002045E+04  0.13023002045E+04  0.50400001928E-02 0. -1.
        1   -1    0    0  501    0  0.00000000000E+00  0.00000000000E+00 -0.49819276836E+03  0.49819276839E+03  0.50400001928E-02 0.  1.
    10030    2    1    2    0    0  0.00000000000E+00  0.00000000000E+00  0.80410743612E+03  0.18004929729E+04  0.16109581548E+04 0.  0.
        4    1    3    3  502    0  0.52844074250E+03 -0.21221451449E+03 -0.23462659709E+03  0.61590248535E+03  0.12699999809E+01 0.  1.
       -4    1    3    3    0  502 -0.52844074250E+03  0.21221451449E+03  0.10387340332E+04  0.11845904875E+04  0.12699999809E+01 0. -1.
</event>
<event>
 5   0  0.3042125E-05  0.1596424E+04  0.7818609E-02  0.8822748E-01
       -3   -1    0    0    0  501  0.00000000000E+00  0.00000000000E+00  0.56018213749E+03  0.56018214660E+03  0.10100000352E+00 0. -1.
        3   -1    0    0  501    0  0.00000000000E+00  0.00000000000E+00 -0.11373843610E+04  0.11373843655E+04  0.10100000352E+00 0.  1.
    10030    2    1    2    0    0  0.00000000000E+00  0.00000000000E+00 -0.57720222354E+03  0.16975665121E+04  0.15964240214E+04 0.  0.
        3    1    3    3  502    0  0.61624873180E+03  0.24229173139E+03  0.18536767513E+03  0.68762560142E+03  0.10100000352E+00 0. -1.
       -3    1    3    3    0  502 -0.61624873180E+03 -0.24229173139E+03 -0.76256989868E+03  0.10099409107E+04  0.10100000352E+00 0.  1.
</event>
<event>
 5   0  0.4211419E-05  0.1582861E+04  0.7818609E-02  0.8831147E-01
        1   -1    0    0  501    0  0.00000000000E+00  0.00000000000E+00  0.81366902336E+03  0.81366902338E+03  0.50400001928E-02 0. -1.
       -1   -1    0    0    0  501  0.00000000000E+00  0.00000000000E+00 -0.76980023439E+03  0.76980023440E+03  0.50400001928E-02 0.  1.
    10030    2    1    2    0    0  0.00000000000E+00  0.00000000000E+00  0.43868788975E+02  0.15834692578E+04  0.15828614657E+04 0.  0.
        2    1    3    3  502    0  0.76368252278E+03  0.76657444944E+02 -0.17120772177E+03  0.78638377620E+03  0.25500000920E-02 0.  1.
       -2    1    3    3    0  502 -0.76368252278E+03 -0.76657444944E+02  0.21507651075E+03  0.79708548158E+03  0.25500000920E-02 0. -1.
</event>
<event>
 5   0  0.4314657E-05  0.1557110E+04  0.7818609E-02  0.8847339E-01
       -1   -1    0    0    0  501  0.00000000000E+00  0.00000000000E+00  0.87825212756E+03  0.87825212757E+03  0.50400001928E-02 0. -1.
        1   -1    0    0  501    0  0.00000000000E+00  0.00000000000E+00 -0.69017523317E+03  0.69017523319E+03  0.50400001928E-02 0.  1.
    10030    2    1    2    0    0  0.00000000000E+00  0.00000000000E+00  0.18807689438E+03  0.15684273608E+04  0.15571099729E+04 0.  0.
        5    1    3    3  502    0  0.55687149299E+03 -0.48249787052E+03 -0.15921634699E+03  0.75384480493E+03  0.46999998093E+01 0.  1.
       -5    1    3    3    0  502 -0.55687149299E+03  0.48249787052E+03  0.34729324137E+03  0.81458255584E+03  0.46999998093E+01 0. -1.
</event>
<event>
 5   0  0.7901257E-05  0.1603912E+04  0.7818609E-02  0.8818148E-01
        2   -1    0    0  501    0  0.00000000000E+00  0.00000000000E+00  0.73561100646E+03  0.73561100646E+03  0.25500000920E-02 0. -1.
       -2   -1    0    0    0  501  0.00000000000E+00  0.00000000000E+00 -0.87428438686E+03  0.87428438686E+03  0.25500000920E-02 0.  1.
    10030    2    1    2    0    0  0.00000000000E+00  0.00000000000E+00 -0.13867338040E+03  0.16098953933E+04  0.16039117404E+04 0.  0.
        2    1    3    3  502    0  0.41290671364E+03  0.23207580580E+03 -0.71888467263E+03  0.86089854591E+03  0.25500000920E-02 0.  1.
       -2    1    3    3    0  502 -0.41290671364E+03 -0.23207580580E+03  0.58021129222E+03  0.74899684741E+03  0.25500000920E-02 0. -1.
</event>
<event>
 5   0  0.8620155E-05  0.1597779E+04  0.7818609E-02  0.8821914E-01
       -2   -1    0    0    0  501  0.00000000000E+00  0.00000000000E+00  0.73906211463E+03  0.73906211464E+03  0.25500000920E-02 0. -1.
        2   -1    0    0  501    0  0.00000000000E+00  0.00000000000E+00 -0.86355948528E+03  0.86355948528E+03  0.25500000920E-02 0.  1.
    10030    2    1    2    0    0  0.00000000000E+00  0.00000000000E+00 -0.12449737065E+03  0.16026215999E+04  0.15977785820E+04 0.  0.
        4    1    3    3  502    0 -0.52784299652E+03 -0.27229330444E+03 -0.59815329685E+03  0.84294178450E+03  0.12699999809E+01 0.  1.
       -4    1    3    3    0  502  0.52784299652E+03  0.27229330444E+03  0.47365592620E+03  0.75967981542E+03  0.12699999809E+01 0. -1.
</event>
<event>
 5   0  0.7849690E-05  0.1603746E+04  0.7818609E-02  0.8818250E-01
        2   -1    0    0  501    0  0.00000000000E+00  0.00000000000E+00  0.10059301608E+04  0.10059301608E+04  0.25500000920E-02 0. -1.
       -2   -1    0    0    0  501  0.00000000000E+00  0.00000000000E+00 -0.63920963809E+03  0.63920963810E+03  0.25500000920E-02 0.  1.
    10030    2    1    2    0    0  0.00000000000E+00  0.00000000000E+00  0.36672052268E+03  0.16451397989E+04  0.16037459325E+04 0.  0.
        3    1    3    3  502    0  0.46416153393E+03  0.37092264896E+03  0.73574834530E+03  0.94570353647E+03  0.10100000352E+00 0. -1.
       -3    1    3    3    0  502 -0.46416153393E+03 -0.37092264896E+03 -0.36902782262E+03  0.69943626240E+03  0.10100000352E+00 0.  1.
</event>
<event>
 5   0  0.4373026E-05  0.1596957E+04  0.7818609E-02  0.8822420E-01
       -1   -1    0    0    0  501  0.00000000000E+00  0.00000000000E+00  0.69348187463E+03  0.69348187465E+03  0.50400001928E-02 0.  1.
        1   -1    0    0  501    0  0.00000000000E+00  0.00000000000E+00 -0.91937201892E+03  0.91937201894E+03  0.50400001928E-02 0. -1.
    10030    2    1    2    0    0  0.00000000000E+00  0.00000000000E+00 -0.22589014429E+03  0.16128538936E+04  0.15969568951E+04 0.  0.
        4    1    3    3  502    0 -0.41431263068E+03  0.99779716866E+02  0.56902128921E+03  0.71091334796E+03  0.12699999809E+01 0.  1.
       -4    1    3    3    0  502  0.41431263068E+03 -0.99779716866E+02 -0.79491143349E+03  0.90194054562E+03  0.12699999809E+01 0. -1.
</event>
<event>
 5   0  0.4256406E-05  0.1600796E+04  0.7818609E-02  0.8820059E-01
        1   -1    0    0  501    0  0.00000000000E+00  0.00000000000E+00  0.17035529788E+04  0.17035529788E+04  0.50400001928E-02 0.  1.
       -1   -1    0    0    0  501  0.00000000000E+00  0.00000000000E+00 -0.37605939734E+03  0.37605939737E+03  0.50400001928E-02 0. -1.
    10030    2    1    2    0    0  0.00000000000E+00  0.00000000000E+00  0.13274935814E+04  0.20796123761E+04  0.16007961851E+04 0.  0.
        3    1    3    3  502    0 -0.23048825898E+03  0.39947012517E+03 -0.18609034005E+03  0.49732368061E+03  0.10100000352E+00 0. -1.
       -3    1    3    3    0  502  0.23048825898E+03 -0.39947012517E+03  0.15135839215E+04  0.15822886955E+04  0.10100000352E+00 0.  1.
</event>
<event>
 5   0  0.4314657E-05  0.1600905E+04  0.7818609E-02  0.8819992E-01
        1   -1    0    0  501    0  0.00000000000E+00  0.00000000000E+00  0.11289475335E+04  0.11289475335E+04  0.50400001928E-02 0.  1.
       -1   -1    0    0    0  501  0.00000000000E+00  0.00000000000E+00 -0.56754146536E+03  0.56754146538E+03  0.50400001928E-02 0. -1.
    10030    2    1    2    0    0  0.00000000000E+00  0.00000000000E+00  0.56140606812E+03  0.16964889989E+04  0.16009054157E+04 0.  0.
        5    1    3    3  502    0 -0.47298160617E+02  0.68554370534E+03 -0.15428678115E+03  0.70429666247E+03  0.46999998093E+01 0. -1.
       -5    1    3    3    0  502  0.47298160617E+02 -0.68554370534E+03  0.71569284927E+03  0.99219233640E+03  0.46999998093E+01 0.  1.
</event>
<event>
 5   0  0.4314657E-05  0.1599602E+04  0.7818609E-02  0.8820792E-01
       -1   -1    0    0    0  501  0.00000000000E+00  0.00000000000E+00  0.82033768891E+03  0.82033768893E+03  0.50400001928E-02 0.  1.
        1   -1    0    0  501    0  0.00000000000E+00  0.00000000000E+00 -0.77977887038E+03  0.77977887040E+03  0.50400001928E-02 0. -1.
    10030    2    1    2    0    0  0.00000000000E+00  0.00000000000E+00  0.40558818529E+02  0.16001165593E+04  0.15996024461E+04 0.  0.
        5    1    3    3  502    0  0.56753113034E+03  0.25619344951E+03 -0.48181142709E+03  0.78733157485E+03  0.46999998093E+01 0. -1.
       -5    1    3    3    0  502 -0.56753113034E+03 -0.25619344951E+03  0.52237024562E+03  0.81278498448E+03  0.46999998093E+01 0.  1.
</event>
<event>
 5   0  0.7901257E-05  0.1599955E+04  0.7818609E-02  0.8820575E-01
        2   -1    0    0  501    0  0.00000000000E+00  0.00000000000E+00  0.10276483903E+04  0.10276483903E+04  0.25500000920E-02 0.  1.
       -2   -1    0    0    0  501  0.00000000000E+00  0.00000000000E+00 -0.62274628040E+03  0.62274628041E+03  0.25500000920E-02 0. -1.
    10030    2    1    2    0    0  0.00000000000E+00  0.00000000000E+00  0.40490210987E+03  0.16503946707E+04  0.15999552651E+04 0.  0.
        2    1    3    3  502    0  0.44518682440E+03  0.52434449211E+02  0.88592800473E+03  0.99287920195E+03  0.25500000920E-02 0.  1.
       -2    1    3    3    0  502 -0.44518682440E+03 -0.52434449211E+02 -0.48102589487E+03  0.65751546873E+03  0.25500000920E-02 0. -1.
</event>
<event>
 5   0  0.7901257E-05  0.1618628E+04  0.7818609E-02  0.8809185E-01
       -2   -1    0    0    0  501  0.00000000000E+00  0.00000000000E+00  0.58749472468E+03  0.58749472469E+03  0.25500000920E-02 0.  1.
        2   -1    0    0  501    0  0.00000000000E+00  0.00000000000E+00 -0.11148848584E+04  0.11148848584E+04  0.25500000920E-02 0. -1.
    10030    2    1    2    0    0  0.00000000000E+00  0.00000000000E+00 -0.52739013374E+03  0.17023795831E+04  0.16186277805E+04 0.  0.
        2    1    3    3  502    0  0.10092306466E+03 -0.32826712906E+03  0.50705651985E+03  0.61241414691E+03  0.25500000920E-02 0.  1.
       -2    1    3    3    0  502 -0.10092306466E+03  0.32826712906E+03 -0.10344466536E+04  0.10899654362E+04  0.25500000920E-02 0. -1.
</event>
<event>
 5   0  0.4256406E-05  0.1599530E+04  0.7818609E-02  0.8820837E-01
        1   -1    0    0  501    0  0.00000000000E+00  0.00000000000E+00  0.27269681950E+04  0.27269681950E+04  0.50400001928E-02 0.  1.
       -1   -1    0    0    0  501  0.00000000000E+00  0.00000000000E+00 -0.23455496289E+03  0.23455496294E+03  0.50400001928E-02 0. -1.
    10030    2    1    2    0    0  0.00000000000E+00  0.00000000000E+00  0.24924132321E+04  0.29615231579E+04  0.15995298357E+04 0.  0.
        3    1    3    3  502    0  0.22914434550E+03  0.37645566315E+03  0.10552619589E+02  0.44083711887E+03  0.10100000352E+00 0. -1.
       -3    1    3    3    0  502 -0.22914434550E+03 -0.37645566315E+03  0.24818606125E+04  0.25206860390E+04  0.10100000352E+00 0.  1.
</event>
<event>
 5   0  0.4504463E-05  0.1598972E+04  0.7818609E-02  0.8821180E-01
       -1   -1    0    0    0  501  0.00000000000E+00  0.00000000000E+00  0.61774335582E+03  0.61774335584E+03  0.50400001928E-02 0.  1.
        1   -1    0    0  501    0  0.00000000000E+00  0.00000000000E+00 -0.10346974989E+04  0.10346974989E+04  0.50400001928E-02 0. -1.
    10030    2    1    2    0    0  0.00000000000E+00  0.00000000000E+00 -0.41695414304E+03  0.16524408547E+04  0.15989715510E+04 0.  0.
        1    1    3    3  502    0 -0.50816948483E+03 -0.47783319259E+03  0.19524848770E+03  0.72434988592E+03  0.50400001928E-02 0.  1.
       -1    1    3    3    0  502  0.50816948483E+03  0.47783319259E+03 -0.61220263074E+03  0.92809096880E+03  0.50400001928E-02 0. -1.
</event>
<event>
 5   0  0.7849690E-05  0.1600180E+04  0.7818609E-02  0.8820438E-01
        2   -1    0    0  501    0  0.00000000000E+00  0.00000000000E+00  0.66300268973E+03  0.66300268974E+03  0.25500000920E-02 0.  1.
       -2   -1    0    0    0  501  0.00000000000E+00  0.00000000000E+00 -0.96552219881E+03  0.96552219881E+03  0.25500000920E-02 0. -1.
    10030    2    1    2    0    0  0.00000000000E+00  0.00000000000E+00 -0.30251950908E+03  0.16285248885E+04  0.16001797584E+04 0.  0.
        3    1    3    3  502    0  0.14797275249E+02  0.69165859216E+03 -0.56029108611E+03  0.89024529139E+03  0.10100000352E+00 0. -1.
       -3    1    3    3    0  502 -0.14797275249E+02 -0.69165859216E+03  0.25777157703E+03  0.73827959716E+03  0.10100000352E+00 0.  1.
</event>
<event>
 5   0  0.8037548E-05  0.1598764E+04  0.7818609E-02  0.8821308E-01
       -2   -1    0    0    0  501  0.00000000000E+00  0.00000000000E+00  0.45098971952E+03  0.45098971953E+03  0.25500000920E-02 0. -1.
        2   -1    0    0  501    0  0.00000000000E+00  0.00000000000E+00 -0.14169085461E+04  0.14169085461E+04  0.25500000920E-02 0.  1.
    10030    2    1    2    0    0  0.00000000000E+00  0.00000000000E+00 -0.96591882657E+03  0.18678982656E+04  0.15987635070E+04 0.  0.
        5    1    3    3  502    0 -0.25926766104E+03  0.23412961156E+03 -0.13229886417E+04  0.13683411238E+04  0.46999998093E+01 0.  1.
       -5    1    3    3    0  502  0.25926766104E+03 -0.23412961156E+03  0.35706981512E+03  0.49955714181E+03  0.46999998093E+01 0. -1.
</event>
<event>
 5   0  0.4211419E-05  0.1600477E+04  0.7818609E-02  0.8820255E-01
       -1   -1    0    0    0  501  0.00000000000E+00  0.00000000000E+00  0.14519820369E+04  0.14519820369E+04  0.50400001928E-02 0. -1.
        1   -1    0    0  501    0  0.00000000000E+00  0.00000000000E+00 -0.44103989491E+03  0.44103989494E+03  0.50400001928E-02 0.  1.
    10030    2    1    2    0    0  0.00000000000E+00  0.00000000000E+00  0.10109421419E+04  0.18930219318E+04  0.16004774350E+04 0.  0.
        2    1    3    3  502    0 -0.40551547517E+03 -0.63211587158E+03  0.83233264839E+03  0.11210668639E+04  0.25500000920E-02 0. -1.
       -2    1    3    3    0  502  0.40551547517E+03  0.63211587158E+03  0.17860949356E+03  0.77195506793E+03  0.25500000920E-02 0.  1.
</event>
<event>
 5   0  0.4211419E-05  0.1599454E+04  0.7818609E-02  0.8820884E-01
        1   -1    0    0  501    0  0.00000000000E+00  0.00000000000E+00  0.10347957137E+04  0.10347957137E+04  0.50400001928E-02 0.  1.
       -1   -1    0    0    0  501  0.00000000000E+00  0.00000000000E+00 -0.61805718118E+03  0.61805718120E+03  0.50400001928E-02 0. -1.
    10030    2    1    2    0    0  0.00000000000E+00  0.00000000000E+00  0.41673853251E+03  0.16528528949E+04  0.15994535591E+04 0.  0.
        2    1    3    3  502    0 -0.68155977970E+02  0.50570689045E+03 -0.42796346542E+03  0.66598605400E+03  0.25500000920E-02 0. -1.
       -2    1    3    3    0  502  0.68155977970E+02 -0.50570689045E+03  0.84470199793E+03  0.98686684091E+03  0.25500000920E-02 0.  1.
</event>
<event>
 5   0  0.4256406E-05  0.1599095E+04  0.7818609E-02  0.8821104E-01
       -1   -1    0    0    0  501  0.00000000000E+00  0.00000000000E+00  0.58321170785E+03  0.58321170787E+03  0.50400001928E-02 0.  1.
        1   -1    0    0  501    0  0.00000000000E+00  0.00000000000E+00 -0.10961310181E+04  0.10961310182E+04  0.50400001928E-02 0. -1.
    10030    2    1    2    0    0  0.00000000000E+00  0.00000000000E+00 -0.51291931030E+03  0.16793427260E+04  0.15990952982E+04 0.  0.
        3    1    3    3  502    0  0.13424246657E+03  0.58794454850E+02 -0.10819052476E+04  0.10917860609E+04  0.10100000352E+00 0. -1.
       -3    1    3    3    0  502 -0.13424246657E+03 -0.58794454850E+02  0.56898593728E+03  0.58755666516E+03  0.10100000352E+00 0.  1.
</event>
<event>
 5   0  0.7849690E-05  0.1602933E+04  0.7818609E-02  0.8818748E-01
       -2   -1    0    0    0  501  0.00000000000E+00  0.00000000000E+00  0.65110149038E+03  0.65110149039E+03  0.25500000920E-02 0.  1.
        2   -1    0    0  501    0  0.00000000000E+00  0.00000000000E+00 -0.98655725550E+03  0.98655725550E+03  0.25500000920E-02 0. -1.
    10030    2    1    2    0    0  0.00000000000E+00  0.00000000000E+00 -0.33545576512E+03  0.16376587459E+04  0.16029334352E+04 0.  0.
        3    1    3    3  502    0 -0.39494350617E+03  0.41892149521E+03  0.40191100631E+03  0.70214532642E+03  0.10100000352E+00 0.  1.
       -3    1    3    3    0  502  0.39494350617E+03 -0.41892149521E+03 -0.73736677142E+03  0.93551341948E+03  0.10100000352E+00 0. -1.
</event>
<event>
 5   0  0.4314657E-05  0.1553988E+04  0.7818609E-02  0.8849325E-01
        1   -1    0    0  501    0  0.00000000000E+00  0.00000000000E+00  0.99632303015E+03  0.99632303017E+03  0.50400001928E-02 0.  1.
       -1   -1    0    0    0  501  0.00000000000E+00  0.00000000000E+00 -0.60594754979E+03  0.60594754981E+03  0.50400001928E-02 0. -1.
    10030    2    1    2    0    0  0.00000000000E+00  0.00000000000E+00  0.39037548037E+03  0.16022705800E+04  0.15539877721E+04 0.  0.
        5    1    3    3  502    0 -0.16773299607E+03 -0.75517473090E+03  0.27006770003E+03  0.81937896285E+03  0.46999998093E+01 0. -1.
       -5    1    3    3    0  502  0.16773299607E+03  0.75517473090E+03  0.12030778034E+03  0.78289161713E+03  0.46999998093E+01 0.  1.
</event>
<event>
 5   0  0.4211419E-05  0.1600518E+04  0.7818609E-02  0.8820230E-01
        1   -1    0    0  501    0  0.00000000000E+00  0.00000000000E+00  0.62757930362E+03  0.62757930364E+03  0.50400001928E-02 0.  1.
       -1   -1    0    0    0  501  0.00000000000E+00  0.00000000000E+00 -0.10204524574E+04  0.10204524574E+04  0.50400001928E-02 0. -1.
    10030    2    1    2    0    0  0.00000000000E+00  0.00000000000E+00 -0.39287315377E+03  0.16480317610E+04  0.16005184693E+04 0.  0.
        2    1    3    3  502    0  0.40250265953E+03 -0.62808109345E+03  0.10185374024E+03  0.75290665775E+03  0.25500000920E-02 0.  1.
       -2    1    3    3    0  502 -0.40250265953E+03  0.62808109345E+03 -0.49472689402E+03  0.89512510329E+03  0.25500000920E-02 0. -1.
</event>
<event>
 5   0  0.7849690E-05  0.1578339E+04  0.7818609E-02  0.8833967E-01
        2   -1    0    0  501    0  0.00000000000E+00  0.00000000000E+00  0.12854357903E+04  0.12854357903E+04  0.25500000920E-02 0.  1.
       -2   -1    0    0    0  501  0.00000000000E+00  0.00000000000E+00 -0.48449588169E+03  0.48449588169E+03  0.25500000920E-02 0. -1.
    10030    2    1    2    0    0  0.00000000000E+00  0.00000000000E+00  0.80093990864E+03  0.17699316720E+04  0.15783388059E+04 0.  0.
        3    1    3    3  502    0 -0.31949887930E+03 -0.71446628960E+03  0.51398378401E+03  0.93633378304E+03  0.10100000352E+00 0.  1.
       -3    1    3    3    0  502  0.31949887930E+03  0.71446628960E+03  0.28695612463E+03  0.83359788897E+03  0.10100000352E+00 0. -1.
</event>
<event>
 5   0  0.8037548E-05  0.1590573E+04  0.7818609E-02  0.8826360E-01
       -2   -1    0    0    0  501  0.00000000000E+00  0.00000000000E+00  0.37042964621E+03  0.37042964622E+03  0.25500000920E-02 0. -1.
        2   -1    0    0  501    0  0.00000000000E+00  0.00000000000E+00 -0.17074250049E+04  0.17074250049E+04  0.25500000920E-02 0.  1.
    10030    2    1    2    0    0  0.00000000000E+00  0.00000000000E+00 -0.13369953587E+04  0.20778546511E+04  0.15905732810E+04 0.  0.
        5    1    3    3  502    0 -0.77077307978E+02  0.73600770872E+03 -0.10489377669E+04  0.12837214602E+04  0.46999998093E+01 0.  1.
       -5    1    3    3    0  502  0.77077307978E+02 -0.73600770872E+03 -0.28805759185E+03  0.79413319092E+03  0.46999998093E+01 0. -1.
</event>
<event>
 5   0  0.8037548E-05  0.1597958E+04  0.7818609E-02  0.8821804E-01
        2   -1    0    0  501    0  0.00000000000E+00  0.00000000000E+00  0.21156971841E+04  0.21156971841E+04  0.25500000920E-02 0. -1.
       -2   -1    0    0    0  501  0.00000000000E+00  0.00000000000E+00 -0.30172904061E+03  0.30172904062E+03  0.25500000920E-02 0.  1.
    10030    2    1    2    0    0  0.00000000000E+00  0.00000000000E+00  0.18139681435E+04  0.24174262247E+04  0.15979577987E+04 0.  0.
        5    1    3    3  502    0 -0.56608437258E+03 -0.48918167764E+03  0.13311006753E+04  0.15269581947E+04  0.46999998093E+01 0. -1.
       -5    1    3    3    0  502  0.56608437258E+03  0.48918167764E+03  0.48286746815E+03  0.89046802998E+03  0.46999998093E+01 0.  1.
</event>
<event>
 5   0  0.8037548E-05  0.1598747E+04  0.7818609E-02  0.8821318E-01
       -2   -1    0    0    0  501  0.00000000000E+00  0.00000000000E+00  0.89884015024E+03  0.89884015024E+03  0.25500000920E-02 0.  1.
        2   -1    0    0  501    0  0.00000000000E+00  0.00000000000E+00 -0.71091406232E+03  0.71091406232E+03  0.25500000920E-02 0. -1.
    10030    2    1    2    0    0  0.00000000000E+00  0.00000000000E+00  0.18792608792E+03  0.16097542126E+04  0.15987471377E+04 0.  0.
        5    1    3    3  502    0  0.39796081863E+03  0.45484781882E+03 -0.43281832574E+03  0.74337954272E+03  0.46999998093E+01 0. -1.
       -5    1    3    3    0  502 -0.39796081863E+03 -0.45484781882E+03  0.62074441366E+03  0.86637466984E+03  0.46999998093E+01 0.  1.
</event>
<event>
 5   0  0.7901257E-05  0.1597338E+04  0.7818609E-02  0.8822185E-01
        2   -1    0    0  501    0  0.00000000000E+00  0.00000000000E+00  0.63754815121E+03  0.63754815121E+03  0.25500000920E-02 0. -1.
       -2   -1    0    0    0  501  0.00000000000E+00  0.00000000000E+00 -0.10005079886E+04  0.10005079886E+04  0.25500000920E-02 0.  1.
    10030    2    1    2    0    0  0.00000000000E+00  0.00000000000E+00 -0.36295983739E+03  0.16380561398E+04  0.15973378082E+04 0.  0.
        2    1    3    3  502    0 -0.23604173872E+03  0.75192841538E+03 -0.31424035853E+03  0.84844507613E+03  0.25500000920E-02 0.  1.
       -2    1    3    3    0  502  0.23604173872E+03 -0.75192841538E+03 -0.48719478863E+02  0.78961106369E+03  0.25500000920E-02 0. -1.
</event>
<event>
 5   0  0.8620155E-05  0.1597653E+04  0.7818609E-02  0.8821991E-01
       -2   -1    0    0    0  501  0.00000000000E+00  0.00000000000E+00  0.14994548502E+04  0.14994548502E+04  0.25500000920E-02 0.  1.
        2   -1    0    0  501    0  0.00000000000E+00  0.00000000000E+00 -0.42557064428E+03  0.42557064429E+03  0.25500000920E-02 0. -1.
    10030    2    1    2    0    0  0.00000000000E+00  0.00000000000E+00  0.10738842059E+04  0.19250254945E+04  0.15976532373E+04 0.  0.
        4    1    3    3  502    0 -0.30457580749E+03 -0.21284219655E+03  0.13889869834E+04  0.14378298495E+04  0.12699999809E+01 0.  1.
       -4    1    3    3    0  502  0.30457580749E+03  0.21284219655E+03 -0.31510277753E+03  0.48719564494E+03  0.12699999809E+01 0. -1.
</event>
<event>
 5   0  0.7849690E-05  0.1600359E+04  0.7818609E-02  0.8820327E-01
       -2   -1    0    0    0  501  0.00000000000E+00  0.00000000000E+00  0.43069814820E+03  0.43069814821E+03  0.25500000920E-02 0. -1.
        2   -1    0    0  501    0  0.00000000000E+00  0.00000000000E+00 -0.14866272614E+04  0.14866272614E+04  0.25500000920E-02 0.  1.
    10030    2    1    2    0    0  0.00000000000E+00  0.00000000000E+00 -0.10559291132E+04  0.19173254096E+04  0.16003594703E+04 0.  0.
        3    1    3    3  502    0 -0.38404217014E+03  0.53754459033E+03  0.12949590531E+02  0.66076491821E+03  0.10100000352E+00 0. -1.
       -3    1    3    3    0  502  0.38404217014E+03 -0.53754459033E+03 -0.10688787037E+04  0.12565604914E+04  0.10100000352E+00 0.  1.
</event>
<event>
 5   0  0.8037548E-05  0.1597105E+04  0.7818609E-02  0.8822329E-01
        2   -1    0    0  501    0  0.00000000000E+00  0.00000000000E+00  0.12614107277E+04  0.12614107277E+04  0.25500000920E-02 0.  1.
       -2   -1    0    0    0  501  0.00000000000E+00  0.00000000000E+00 -0.50553380648E+03  0.50553380648E+03  0.25500000920E-02 0. -1.
    10030    2    1    2    0    0  0.00000000000E+00  0.00000000000E+00  0.75587692120E+03  0.17669445342E+04  0.15971045886E+04 0.  0.
        5    1    3    3  502    0  0.12623082179E+03 -0.40595822719E+03 -0.36990921463E+03  0.56355232203E+03  0.46999998093E+01 0. -1.
       -5    1    3    3    0  502 -0.12623082179E+03  0.40595822719E+03  0.11257861358E+04  0.12033922121E+04  0.46999998093E+01 0.  1.
</event>
<event>
 5   0  0.8694033E-05  0.1599978E+04  0.7818609E-02  0.8820562E-01
       -2   -1    0    0    0  501  0.00000000000E+00  0.00000000000E+00  0.44552923677E+03  0.44552923678E+03  0.25500000920E-02 0.  1.
        2   -1    0    0  501    0  0.00000000000E+00  0.00000000000E+00 -0.14364538112E+04  0.14364538112E+04  0.25500000920E-02 0. -1.
    10030    2    1    2    0    0  0.00000000000E+00  0.00000000000E+00 -0.99092457445E+03  0.18819830480E+04  0.15999777126E+04 0.  0.
        1    1    3    3  502    0  0.77642279906E+03 -0.16064909718E+03 -0.37019422197E+03  0.87503386068E+03  0.50400001928E-02 0.  1.
       -1    1    3    3    0  502 -0.77642279906E+03  0.16064909718E+03 -0.62073035248E+03  0.10069491873E+04  0.50400001928E-02 0. -1.
</event>
<event>
 5   0  0.3042125E-05  0.1598395E+04  0.7818609E-02  0.8821534E-01
       -3   -1    0    0    0  501  0.00000000000E+00  0.00000000000E+00  0.12491952368E+04  0.12491952408E+04  0.10100000352E+00 0. -1.
        3   -1    0    0  501    0  0.00000000000E+00  0.00000000000E+00 -0.51130277328E+03  0.51130278326E+03  0.10100000352E+00 0.  1.
    10030    2    1    2    0    0  0.00000000000E+00  0.00000000000E+00  0.73789246347E+03  0.17604980241E+04  0.15983954471E+04 0.  0.
        1    1    3    3  502    0  0.87580152715E+01  0.20392795584E+03 -0.48210949917E+03  0.52353880775E+03  0.50400001928E-02 0.  1.
       -1    1    3    3    0  502 -0.87580152715E+01 -0.20392795584E+03  0.12200019626E+04  0.12369592163E+04  0.50400001928E-02 0. -1.
</event>
<event>
 5   0  0.8694033E-05  0.1599924E+04  0.7818609E-02  0.8820595E-01
        2   -1    0    0  501    0  0.00000000000E+00  0.00000000000E+00  0.16322216266E+04  0.16322216266E+04  0.25500000920E-02 0.  1.
       -2   -1    0    0    0  501  0.00000000000E+00  0.00000000000E+00 -0.39206641436E+03  0.39206641437E+03  0.25500000920E-02 0. -1.
    10030    2    1    2    0    0  0.00000000000E+00  0.00000000000E+00  0.12401552122E+04  0.20242880410E+04  0.15999240989E+04 0.  0.
        1    1    3    3  502    0 -0.14984511764E+02 -0.66725135440E+03  0.11780619150E+04  0.13539862558E+04  0.50400001928E-02 0.  1.
       -1    1    3    3    0  502  0.14984511764E+02  0.66725135440E+03  0.62093297284E+02  0.67030178512E+03  0.50400001928E-02 0. -1.
</event>
<event>
 5   0  0.4211419E-05  0.1600802E+04  0.7818609E-02  0.8820056E-01
        1   -1    0    0  501    0  0.00000000000E+00  0.00000000000E+00  0.11848817405E+04  0.11848817405E+04  0.50400001928E-02 0.  1.
       -1   -1    0    0    0  501  0.00000000000E+00  0.00000000000E+00 -0.54067985291E+03  0.54067985293E+03  0.50400001928E-02 0. -1.
    10030    2    1    2    0    0  0.00000000000E+00  0.00000000000E+00  0.64420188759E+03  0.17255615934E+04  0.16008019055E+04 0.  0.
        2    1    3    3  502    0  0.95411465101E+02 -0.70406629773E+03 -0.75172104245E+02  0.71446731524E+03  0.25500000920E-02 0. -1.
       -2    1    3    3    0  502 -0.95411465101E+02  0.70406629773E+03  0.71937399184E+03  0.10110942782E+04  0.25500000920E-02 0.  1.
</event>
<event>
 5   0  0.7849690E-05  0.1600015E+04  0.7818609E-02  0.8820539E-01
       -2   -1    0    0    0  501  0.00000000000E+00  0.00000000000E+00  0.94935910918E+03  0.94935910919E+03  0.25500000920E-02 0.  1.
        2   -1    0    0  501    0  0.00000000000E+00  0.00000000000E+00 -0.67415185079E+03  0.67415185079E+03  0.25500000920E-02 0. -1.
    10030    2    1    2    0    0  0.00000000000E+00  0.00000000000E+00  0.27520725840E+03  0.16235109600E+04  0.16000152506E+04 0.  0.
        3    1    3    3  502    0  0.33954964036E+03  0.85158274617E+02 -0.59231111860E+03  0.68802497151E+03  0.10100000352E+00 0. -1.
       -3    1    3    3    0  502 -0.33954964036E+03 -0.85158274617E+02  0.86751837699E+03  0.93548598847E+03  0.10100000352E+00 0.  1.
</event>
<event>
 5   0  0.4373026E-05  0.1600955E+04  0.7818609E-02  0.8819961E-01
        1   -1    0    0  501    0  0.00000000000E+00  0.00000000000E+00  0.18394269760E+04  0.18394269760E+04  0.50400001928E-02 0. -1.
       -1   -1    0    0    0  501  0.00000000000E+00  0.00000000000E+00 -0.34834999416E+03  0.34834999420E+03  0.50400001928E-02 0.  1.
    10030    2    1    2    0    0  0.00000000000E+00  0.00000000000E+00  0.14910769819E+04  0.21877769702E+04  0.16009551854E+04 0.  0.
        4    1    3    3  502    0  0.11343772034E+03 -0.33532932586E+03  0.17266461719E+04  0.17625613433E+04  0.12699999809E+01 0. -1.
       -4    1    3    3    0  502 -0.11343772034E+03  0.33532932586E+03 -0.23556919003E+03  0.42521562691E+03  0.12699999809E+01 0.  1.
</event>
<event>
 5   0  0.4504463E-05  0.1610697E+04  0.7818609E-02  0.8814003E-01
       -1   -1    0    0    0  501  0.00000000000E+00  0.00000000000E+00  0.52070147608E+03  0.52070147611E+03  0.50400001928E-02 0. -1.
        1   -1    0    0  501    0  0.00000000000E+00  0.00000000000E+00 -0.12456012141E+04  0.12456012141E+04  0.50400001928E-02 0.  1.
    10030    2    1    2    0    0  0.00000000000E+00  0.00000000000E+00 -0.72489973802E+03  0.17663026902E+04  0.16106972289E+04 0.  0.
        1    1    3    3  502    0 -0.22338514465E+03 -0.29878197421E+03  0.42023510801E+03  0.56193339196E+03  0.50400001928E-02 0. -1.
       -1    1    3    3    0  502  0.22338514465E+03  0.29878197421E+03 -0.11451348460E+04  0.12043692983E+04  0.50400001928E-02 0.  1.
</event>
<event>
 5   0  0.4314657E-05  0.1601720E+04  0.7818609E-02  0.8819492E-01
       -1   -1    0    0    0  501  0.00000000000E+00  0.00000000000E+00  0.54300231239E+03  0.54300231242E+03  0.50400001928E-02 0.  1.
        1   -1    0    0  501    0  0.00000000000E+00  0.00000000000E+00 -0.11811670555E+04  0.11811670555E+04  0.50400001928E-02 0. -1.
    10030    2    1    2    0    0  0.00000000000E+00  0.00000000000E+00 -0.63816474315E+03  0.17241693680E+04  0.16017196290E+04 0.  0.
        5    1    3    3  502    0  0.66653367423E+03 -0.44312638350E+03 -0.29007368347E+03  0.85134773300E+03  0.46999998093E+01 0.  1.
       -5    1    3    3    0  502 -0.66653367423E+03  0.44312638350E+03 -0.34809105968E+03  0.87282163497E+03  0.46999998093E+01 0. -1.
</event>
<event>
 5   0  0.8620155E-05  0.1599904E+04  0.7818609E-02  0.8820607E-01
        2   -1    0    0  501    0  0.00000000000E+00  0.00000000000E+00  0.20304710240E+04  0.20304710240E+04  0.25500000920E-02 0.  1.
       -2   -1    0    0    0  501  0.00000000000E+00  0.00000000000E+00 -0.31515991080E+03  0.31515991081E+03  0.25500000920E-02 0. -1.
    10030    2    1    2    0    0  0.00000000000E+00  0.00000000000E+00  0.17153111132E+04  0.23456309348E+04  0.15999038306E+04 0.  0.
        4    1    3    3  502    0  0.89138389357E+01 -0.55556404533E+03  0.13923021795E+02  0.55581141445E+03  0.12699999809E+01 0. -1.
       -4    1    3    3    0  502 -0.89138389357E+01  0.55556404533E+03  0.17013880914E+04  0.17898195203E+04  0.12699999809E+01 0.  1.
</event>
<event>
 5   0  0.4211419E-05  0.1598202E+04  0.7818609E-02  0.8821653E-01
       -1   -1    0    0    0  501  0.00000000000E+00  0.00000000000E+00  0.69608271084E+03  0.69608271085E+03  0.50400001928E-02 0. -1.
        1   -1    0    0  501    0  0.00000000000E+00  0.00000000000E+00 -0.91736554348E+03  0.91736554349E+03  0.50400001928E-02 0.  1.
    10030    2    1    2    0    0  0.00000000000E+00  0.00000000000E+00 -0.22128283264E+03  0.16134482543E+04  0.15982018575E+04 0.  0.
        2    1    3    3  502    0 -0.54148344691E+03  0.29641177419E+02 -0.70316415373E+03  0.88798803470E+03  0.25500000920E-02 0.  1.
       -2    1    3    3    0  502  0.54148344691E+03 -0.29641177419E+02  0.48188132108E+03  0.72546021965E+03  0.25500000920E-02 0. -1.
</event>
<event>
 5   0  0.7901257E-05  0.1610044E+04  0.7818609E-02  0.8814401E-01
        2   -1    0    0  501    0  0.00000000000E+00  0.00000000000E+00  0.14968359157E+04  0.14968359158E+04  0.25500000920E-02 0.  1.
       -2   -1    0    0    0  501  0.00000000000E+00  0.00000000000E+00 -0.43295360853E+03  0.43295360854E+03  0.25500000920E-02 0. -1.
    10030    2    1    2    0    0  0.00000000000E+00  0.00000000000E+00  0.10638823072E+04  0.19297895243E+04  0.16100441126E+04 0.  0.
        2    1    3    3  502    0  0.55976926383E+03  0.53992806510E+03  0.28282792786E+03  0.82756001655E+03  0.25500000920E-02 0. -1.
       -2    1    3    3    0  502 -0.55976926383E+03 -0.53992806510E+03  0.78105437936E+03  0.11022295077E+04  0.25500000920E-02 0.  1.
</event>
<event>
 5   0  0.8694033E-05  0.1600182E+04  0.7818609E-02  0.8820436E-01
       -2   -1    0    0    0  501  0.00000000000E+00  0.00000000000E+00  0.66012773204E+03  0.66012773205E+03  0.25500000920E-02 0.  1.
        2   -1    0    0  501    0  0.00000000000E+00  0.00000000000E+00 -0.96972947206E+03  0.96972947206E+03  0.25500000920E-02 0. -1.
    10030    2    1    2    0    0  0.00000000000E+00  0.00000000000E+00 -0.30960174002E+03  0.16298572041E+04  0.16001816361E+04 0.  0.
        1    1    3    3  502    0 -0.56395606418E+03  0.18562805084E+03 -0.70106885160E+03  0.91869567882E+03  0.50400001928E-02 0. -1.
       -1    1    3    3    0  502  0.56395606418E+03 -0.18562805084E+03  0.39146711158E+03  0.71116152529E+03  0.50400001928E-02 0.  1.
</event>
<event>
 5   0  0.8037548E-05  0.1599765E+04  0.7818609E-02  0.8820692E-01
        2   -1    0    0  501    0  0.00000000000E+00  0.00000000000E+00  0.12127859055E+04  0.12127859055E+04  0.25500000920E-02 0. -1.
       -2   -1    0    0    0  501  0.00000000000E+00  0.00000000000E+00 -0.52755565260E+03  0.52755565261E+03  0.25500000920E-02 0.  1.
    10030    2    1    2    0    0  0.00000000000E+00  0.00000000000E+00  0.68523025294E+03  0.17403415582E+04  0.15997650576E+04 0.  0.
        5    1    3    3  502    0 -0.14841297674E+03  0.76128698344E+03  0.55525381810E+03  0.95389369184E+03  0.46999998093E+01 0.  1.
       -5    1    3    3    0  502  0.14841297674E+03 -0.76128698344E+03  0.12997643485E+03  0.78644786632E+03  0.46999998093E+01 0. -1.
</event>
<event>
 5   0  0.4211419E-05  0.1599625E+04  0.7818609E-02  0.8820778E-01
        1   -1    0    0  501    0  0.00000000000E+00  0.00000000000E+00  0.21386077968E+04  0.21386077968E+04  0.50400001928E-02 0. -1.
       -1   -1    0    0    0  501  0.00000000000E+00  0.00000000000E+00 -0.29912000303E+03  0.29912000307E+03  0.50400001928E-02 0.  1.
    10030    2    1    2    0    0  0.00000000000E+00  0.00000000000E+00  0.18394877937E+04  0.24377277998E+04  0.15996254195E+04 0.  0.
        2    1    3    3  502    0  0.38085474745E+03 -0.24086251391E+03  0.19267366050E+04  0.19787316731E+04  0.25500000920E-02 0. -1.
       -2    1    3    3    0  502 -0.38085474745E+03  0.24086251391E+03 -0.87248811256E+02  0.45899612671E+03  0.25500000920E-02 0.  1.
</event>
<event>
 5   0  0.4373026E-05  0.1592394E+04  0.7818609E-02  0.8825234E-01
        1   -1    0    0  501    0  0.00000000000E+00  0.00000000000E+00  0.48060468528E+03  0.48060468531E+03  0.50400001928E-02 0. -1.
       -1   -1    0    0    0  501  0.00000000000E+00  0.00000000000E+00 -0.13190247574E+04  0.13190247574E+04  0.50400001928E-02 0.  1.
    10030    2    1    2    0    0  0.00000000000E+00  0.00000000000E+00 -0.83842007209E+03  0.17996294427E+04  0.15923937684E+04 0.  0.
        4    1    3    3  502    0  0.13021226986E+03  0.49697370808E+03  0.26821837114E+03  0.57955224895E+03  0.12699999809E+01 0. -1.
       -4    1    3    3    0  502 -0.13021226986E+03 -0.49697370808E+03 -0.11066384432E+04  0.12200771937E+04  0.12699999809E+01 0.  1.
</event>
<event>
 5   0  0.8620155E-05  0.1599475E+04  0.7818609E-02  0.8820870E-01
       -2   -1    0    0    0  501  0.00000000000E+00  0.00000000000E+00  0.13374277568E+04  0.13374277568E+04  0.25500000920E-02 0.  1.
        2   -1    0    0  501    0  0.00000000000E+00  0.00000000000E+00 -0.47821679170E+03  0.47821679170E+03  0.25500000920E-02 0. -1.
    10030    2    1    2    0    0  0.00000000000E+00  0.00000000000E+00  0.85921096511E+03  0.18156445485E+04  0.15994754278E+04 0.  0.
        4    1    3    3  502    0  0.25023887088E+02 -0.49721733322E+02  0.13352249683E+04  0.13363853391E+04  0.12699999809E+01 0.  1.
       -4    1    3    3    0  502 -0.25023887088E+02  0.49721733322E+02 -0.47601400318E+03  0.47925920942E+03  0.12699999809E+01 0. -1.
</event>
<event>
 5   0  0.7849690E-05  0.1599340E+04  0.7818609E-02  0.8820953E-01
        2   -1    0    0  501    0  0.00000000000E+00  0.00000000000E+00  0.10078081516E+04  0.10078081516E+04  0.25500000920E-02 0. -1.
       -2   -1    0    0    0  501  0.00000000000E+00  0.00000000000E+00 -0.63451807346E+03  0.63451807346E+03  0.25500000920E-02 0.  1.
    10030    2    1    2    0    0  0.00000000000E+00  0.00000000000E+00  0.37329007813E+03  0.16423262250E+04  0.15993404725E+04 0.  0.
        3    1    3    3  502    0  0.57556529116E+03  0.38662666710E+03 -0.22245552303E+03  0.72817721334E+03  0.10100000352E+00 0.  1.
       -3    1    3    3    0  502 -0.57556529116E+03 -0.38662666710E+03  0.59574560116E+03  0.91414901171E+03  0.10100000352E+00 0. -1.
</event>
<event>
 5   0  0.4504463E-05  0.1597490E+04  0.7818609E-02  0.8822092E-01
       -1   -1    0    0    0  501  0.00000000000E+00  0.00000000000E+00  0.38799229197E+03  0.38799229200E+03  0.50400001928E-02 0.  1.
        1   -1    0    0  501    0  0.00000000000E+00  0.00000000000E+00 -0.16443455777E+04  0.16443455777E+04  0.50400001928E-02 0. -1.
    10030    2    1    2    0    0  0.00000000000E+00  0.00000000000E+00 -0.12563532857E+04  0.20323378697E+04  0.15974897928E+04 0.  0.
        1    1    3    3  502    0  0.20250088823E+02 -0.15830721568E+03 -0.16238542126E+04  0.16316781988E+04  0.50400001928E-02 0. -1.
       -1    1    3    3    0  502 -0.20250088823E+02  0.15830721568E+03  0.36750092686E+03  0.40065967092E+03  0.50400001928E-02 0.  1.
</event>
<event>
 5   0  0.4256406E-05  0.1600550E+04  0.7818609E-02  0.8820210E-01
        1   -1    0    0  501    0  0.00000000000E+00  0.00000000000E+00  0.21248170069E+04  0.21248170069E+04  0.50400001928E-02 0. -1.
       -1   -1    0    0    0  501  0.00000000000E+00  0.00000000000E+00 -0.30140942605E+03  0.30140942609E+03  0.50400001928E-02 0.  1.
    10030    2    1    2    0    0  0.00000000000E+00  0.00000000000E+00  0.18234075808E+04  0.24262264330E+04  0.16005497488E+04 0.  0.
        3    1    3    3  502    0  0.15443740783E+02  0.10942453551E+03  0.21131951934E+04  0.21160827426E+04  0.10100000352E+00 0. -1.
       -3    1    3    3    0  502 -0.15443740783E+02 -0.10942453551E+03 -0.28978761253E+03  0.31014369037E+03  0.10100000352E+00 0.  1.
</event>
<event>
 5   0  0.4211419E-05  0.1602733E+04  0.7818609E-02  0.8818871E-01
       -1   -1    0    0    0  501  0.00000000000E+00  0.00000000000E+00  0.45217740044E+03  0.45217740047E+03  0.50400001928E-02 0.  1.
        1   -1    0    0  501    0  0.00000000000E+00  0.00000000000E+00 -0.14202123557E+04  0.14202123557E+04  0.50400001928E-02 0. -1.
    10030    2    1    2    0    0  0.00000000000E+00  0.00000000000E+00 -0.96803495523E+03  0.18723897561E+04  0.16027325804E+04 0.  0.
        2    1    3    3  502    0  0.69904316749E+03  0.23397368075E+03 -0.11683996788E+03  0.74636225213E+03  0.25500000920E-02 0. -1.
       -2    1    3    3    0  502 -0.69904316749E+03 -0.23397368075E+03 -0.85119498735E+03  0.11260275040E+04  0.25500000920E-02 0.  1.
</event>
<event>
 5   0  0.4211419E-05  0.1599940E+04  0.7818609E-02  0.8820585E-01
        1   -1    0    0  501    0  0.00000000000E+00  0.00000000000E+00  0.11067924695E+04  0.11067924695E+04  0.50400001928E-02 0.  1.
       -1   -1    0    0    0  501  0.00000000000E+00  0.00000000000E+00 -0.57820379510E+03  0.57820379512E+03  0.50400001928E-02 0. -1.
    10030    2    1    2    0    0  0.00000000000E+00  0.00000000000E+00  0.52858867443E+03  0.16849962647E+04  0.15999395067E+04 0.  0.
        2    1    3    3  502    0 -0.46042369815E+02 -0.92945618860E+02 -0.57109178926E+03  0.58043485392E+03  0.25500000920E-02 0. -1.
       -2    1    3    3    0  502  0.46042369815E+02  0.92945618860E+02  0.10996804637E+04  0.11045614107E+04  0.25500000920E-02 0.  1.
</event>
<event>
 5   0  0.8037548E-05  0.1599674E+04  0.7818609E-02  0.8820748E-01
       -2   -1    0    0    0  501  0.00000000000E+00  0.00000000000E+00  0.10976702626E+04  0.10976702626E+04  0.25500000920E-02 0. -1.
        2   -1    0    0  501    0  0.00000000000E+00  0.00000000000E+00 -0.58281580003E+03  0.58281580004E+03  0.25500000920E-02 0.  1.
    10030    2    1    2    0    0  0.00000000000E+00  0.00000000000E+00  0.51485446259E+03  0.16804860627E+04  0.15996744322E+04 0.  0.
        5    1    3    3  502    0 -0.38937304648E+02 -0.63044908480E+03 -0.25800695306E+03  0.68232824948E+03  0.46999998093E+01 0. -1.
       -5    1    3    3    0  502  0.38937304648E+02  0.63044908480E+03  0.77286141565E+03  0.99815781318E+03  0.46999998093E+01 0.  1.
</event>
<event>
 5   0  0.4314657E-05  0.1600217E+04  0.7818609E-02  0.8820415E-01
        1   -1    0    0  501    0  0.00000000000E+00  0.00000000000E+00  0.10140625903E+04  0.10140625903E+04  0.50400001928E-02 0. -1.
       -1   -1    0    0    0  501  0.00000000000E+00  0.00000000000E+00 -0.63129582943E+03  0.63129582945E+03  0.50400001928E-02 0.  1.
    10030    2    1    2    0    0  0.00000000000E+00  0.00000000000E+00  0.38276676084E+03  0.16453584197E+04  0.16002168404E+04 0.  0.
        5    1    3    3  502    0 -0.49165975906E+03  0.36370073005E+03  0.72182782148E+03  0.94607876712E+03  0.46999998093E+01 0. -1.
       -5    1    3    3    0  502  0.49165975906E+03 -0.36370073005E+03 -0.33906106064E+03  0.69927965261E+03  0.46999998093E+01 0.  1.
</event>
<event>
 5   0  0.4256406E-05  0.1603607E+04  0.7818609E-02  0.8818335E-01
       -1   -1    0    0    0  501  0.00000000000E+00  0.00000000000E+00  0.42891714884E+03  0.42891714887E+03  0.50400001928E-02 0. -1.
        1   -1    0    0  501    0  0.00000000000E+00  0.00000000000E+00 -0.14988655443E+04  0.14988655444E+04  0.50400001928E-02 0.  1.
    10030    2    1    2    0    0  0.00000000000E+00  0.00000000000E+00 -0.10699483955E+04  0.19277826932E+04  0.16036073532E+04 0.  0.
        3    1    3    3  502    0 -0.54756388136E+03  0.77093348895E+01  0.16908521002E+03  0.57312778372E+03  0.10100000352E+00 0. -1.
       -3    1    3    3    0  502  0.54756388136E+03 -0.77093348895E+01 -0.12390336055E+04  0.13546549095E+04  0.10100000352E+00 0.  1.
</event>
<event>
 5   0  0.4314657E-05  0.1599150E+04  0.7818609E-02  0.8821070E-01
       -1   -1    0    0    0  501  0.00000000000E+00  0.00000000000E+00  0.35050474946E+03  0.35050474950E+03  0.50400001928E-02 0. -1.
        1   -1    0    0  501    0  0.00000000000E+00  0.00000000000E+00 -0.18239985132E+04  0.18239985132E+04  0.50400001928E-02 0.  1.
    10030    2    1    2    0    0  0.00000000000E+00  0.00000000000E+00 -0.14734937637E+04  0.21745032627E+04  0.15991499516E+04 0.  0.
        5    1    3    3  502    0  0.77077178102E+03  0.14122268087E+03 -0.52060889134E+03  0.94079152406E+03  0.46999998093E+01 0. -1.
       -5    1    3    3    0  502 -0.77077178102E+03 -0.14122268087E+03 -0.95288487237E+03  0.12337117386E+04  0.46999998093E+01 0.  1.
</event>
<event>
 5   0  0.4373026E-05  0.1600365E+04  0.7818609E-02  0.8820324E-01
       -1   -1    0    0    0  501  0.00000000000E+00  0.00000000000E+00  0.43503510616E+03  0.43503510619E+03  0.50400001928E-02 0.  1.
        1   -1    0    0  501    0  0.00000000000E+00  0.00000000000E+00 -0.14718178119E+04  0.14718178119E+04  0.50400001928E-02 0. -1.
    10030    2    1    2    0    0  0.00000000000E+00  0.00000000000E+00 -0.10367827057E+04  0.19068529181E+04  0.16003654809E+04 0.  0.
        4    1    3    3  502    0 -0.27400667977E+03  0.74956844830E+03 -0.58744026740E+03  0.99096932340E+03  0.12699999809E+01 0.  1.
       -4    1    3    3    0  502  0.27400667977E+03 -0.74956844830E+03 -0.44934243833E+03  0.91588359469E+03  0.12699999809E+01 0. -1.
</event>
<event>
 5   0  0.7901257E-05  0.1587571E+04  0.7818609E-02  0.8828220E-01
        2   -1    0    0  501    0  0.00000000000E+00  0.00000000000E+00  0.40727469377E+03  0.40727469378E+03  0.25500000920E-02 0.  1.
       -2   -1    0    0    0  501  0.00000000000E+00  0.00000000000E+00 -0.15471019225E+04  0.15471019225E+04  0.25500000920E-02 0. -1.
    10030    2    1    2    0    0  0.00000000000E+00  0.00000000000E+00 -0.11398272287E+04  0.19543766163E+04  0.15875710526E+04 0.  0.
        2    1    3    3  502    0  0.39511247344E+03 -0.68828563642E+03 -0.58916202014E+03  0.98841432099E+03  0.25500000920E-02 0.  1.
       -2    1    3    3    0  502 -0.39511247344E+03  0.68828563642E+03 -0.55066520860E+03  0.96596229530E+03  0.25500000920E-02 0. -1.
</event>
<event>
 5   0  0.8694033E-05  0.1606033E+04  0.7818609E-02  0.8816850E-01
       -2   -1    0    0    0  501  0.00000000000E+00  0.00000000000E+00  0.58994694134E+03  0.58994694134E+03  0.25500000920E-02 0.  1.
        2   -1    0    0  501    0  0.00000000000E+00  0.00000000000E+00 -0.10930400213E+04  0.10930400213E+04  0.25500000920E-02 0. -1.
    10030    2    1    2    0    0  0.00000000000E+00  0.00000000000E+00 -0.50309307999E+03  0.16829869627E+04  0.16060331470E+04 0.  0.
        1    1    3    3  502    0  0.59486141157E+03 -0.36845680750E+03 -0.66439743541E+03  0.96490645669E+03  0.50400001928E-02 0.  1.
       -1    1    3    3    0  502 -0.59486141157E+03  0.36845680750E+03  0.16130435543E+03  0.71808050598E+03  0.50400001928E-02 0. -1.
</event>
<event>
 5   0  0.4314657E-05  0.1608542E+04  0.7818609E-02  0.8815317E-01
       -1   -1    0    0    0  501  0.00000000000E+00  0.00000000000E+00  0.40220295636E+03  0.40220295639E+03  0.50400001928E-02 0. -1.
        1   -1    0    0  501    0  0.00000000000E+00  0.00000000000E+00 -0.16082728460E+04  0.16082728460E+04  0.50400001928E-02 0.  1.
    10030    2    1    2    0    0  0.00000000000E+00  0.00000000000E+00 -0.12060698897E+04  0.20104758024E+04  0.16085423132E+04 0.  0.
        5    1    3    3  502    0  0.60411335914E+03  0.49835783524E+02  0.57619663830E+02  0.60891598079E+03  0.46999998093E+01 0. -1.
       -5    1    3    3    0  502 -0.60411335914E+03 -0.49835783524E+02 -0.12636895535E+04  0.14015598216E+04  0.46999998093E+01 0.  1.
</event>
<event>
 5   0  0.4211419E-05  0.1597561E+04  0.7818609E-02  0.8822048E-01
       -1   -1    0    0    0  501  0.00000000000E+00  0.00000000000E+00  0.69239307490E+03  0.69239307492E+03  0.50400001928E-02 0.  1.
        1   -1    0    0  501    0  0.00000000000E+00  0.00000000000E+00 -0.92151488857E+03  0.92151488859E+03  0.50400001928E-02 0. -1.
    10030    2    1    2    0    0  0.00000000000E+00  0.00000000000E+00 -0.22912181367E+03  0.16139079635E+04  0.15975613006E+04 0.  0.
        2    1    3    3  502    0 -0.35885291454E+03  0.63788057475E+03  0.20868734724E+03  0.76106336846E+03  0.25500000920E-02 0.  1.
       -2    1    3    3    0  502  0.35885291454E+03 -0.63788057475E+03 -0.43780916091E+03  0.85284459504E+03  0.25500000920E-02 0. -1.
</event>
<event>
 5   0  0.4256406E-05  0.1597671E+04  0.7818609E-02  0.8821980E-01
       -1   -1    0    0    0  501  0.00000000000E+00  0.00000000000E+00  0.41125179826E+03  0.41125179829E+03  0.50400001928E-02 0. -1.
        1   -1    0    0  501    0  0.00000000000E+00  0.00000000000E+00 -0.15516968757E+04  0.15516968757E+04  0.50400001928E-02 0.  1.
    10030    2    1    2    0    0  0.00000000000E+00  0.00000000000E+00 -0.11404450775E+04  0.19629486740E+04  0.15976709680E+04 0.  0.
        3    1    3    3  502    0 -0.63322117193E+03  0.30163612237E+03 -0.10046626723E+03  0.70855266843E+03  0.10100000352E+00 0. -1.
       -3    1    3    3    0  502  0.63322117193E+03 -0.30163612237E+03 -0.10399788102E+04  0.12543960056E+04  0.10100000352E+00 0.  1.
</event>
<event>
 5   0  0.7901257E-05  0.1598911E+04  0.7818609E-02  0.8821217E-01
       -2   -1    0    0    0  501  0.00000000000E+00  0.00000000000E+00  0.90453527821E+03  0.90453527821E+03  0.25500000920E-02 0.  1.
        2   -1    0    0  501    0  0.00000000000E+00  0.00000000000E+00 -0.70658295721E+03  0.70658295721E+03  0.25500000920E-02 0. -1.
    10030    2    1    2    0    0  0.00000000000E+00  0.00000000000E+00  0.19795232100E+03  0.16111182354E+04  0.15989111442E+04 0.  0.
        2    1    3    3  502    0  0.28309069744E+03 -0.54885817723E+03  0.61053666102E+03  0.86841272223E+03  0.25500000920E-02 0.  1.
       -2    1    3    3    0  502 -0.28309069744E+03  0.54885817723E+03 -0.41258434002E+03  0.74270551319E+03  0.25500000920E-02 0. -1.
</event>
<event>
 5   0  0.7849690E-05  0.1597914E+04  0.7818609E-02  0.8821830E-01
       -2   -1    0    0    0  501  0.00000000000E+00  0.00000000000E+00  0.54835300715E+03  0.54835300716E+03  0.25500000920E-02 0.  1.
        2   -1    0    0  501    0  0.00000000000E+00  0.00000000000E+00 -0.11640905545E+04  0.11640905545E+04  0.25500000920E-02 0. -1.
    10030    2    1    2    0    0  0.00000000000E+00  0.00000000000E+00 -0.61573754730E+03  0.17124435616E+04  0.15979143358E+04 0.  0.
        3    1    3    3  502    0 -0.12313391499E+03 -0.78795317548E+03 -0.35926868759E+03  0.87470347425E+03  0.10100000352E+00 0.  1.
       -3    1    3    3    0  502  0.12313391499E+03  0.78795317548E+03 -0.25646885972E+03  0.83774008737E+03  0.10100000352E+00 0. -1.
</event>
<event>
 5   0  0.4504463E-05  0.1600386E+04  0.7818609E-02  0.8820311E-01
       -1   -1    0    0    0  501  0.00000000000E+00  0.00000000000E+00  0.37503029036E+03  0.37503029039E+03  0.50400001928E-02 0. -1.
        1   -1    0    0  501    0  0.00000000000E+00  0.00000000000E+00 -0.17073525898E+04  0.17073525898E+04  0.50400001928E-02 0.  1.
    10030    2    1    2    0    0  0.00000000000E+00  0.00000000000E+00 -0.13323222994E+04  0.20823828802E+04  0.16003861253E+04 0.  0.
        1    1    3    3  502    0 -0.25570193462E+03  0.30065154775E+03  0.23956724406E+03  0.46170044075E+03  0.50400001928E-02 0. -1.
       -1    1    3    3    0  502  0.25570193462E+03 -0.30065154775E+03 -0.15718895435E+04  0.16206824394E+04  0.50400001928E-02 0.  1.
</event>
<event>
 5   0  0.7901257E-05  0.1599256E+04  0.7818609E-02  0.8821005E-01
       -2   -1    0    0    0  501  0.00000000000E+00  0.00000000000E+00  0.35729940263E+03  0.35729940264E+03  0.25500000920E-02 0. -1.
        2   -1    0    0  501    0  0.00000000000E+00  0.00000000000E+00 -0.17895502874E+04  0.17895502874E+04  0.25500000920E-02 0.  1.
    10030    2    1    2    0    0  0.00000000000E+00  0.00000000000E+00 -0.14322508848E+04  0.21468496901E+04  0.15992563881E+04 0.  0.
        2    1    3    3  502    0  0.30904967501E+03 -0.66398536002E+03 -0.28526366361E+03  0.78597940032E+03  0.25500000920E-02 0. -1.
       -2    1    3    3    0  502 -0.30904967501E+03  0.66398536002E+03 -0.11469872212E+04  0.13608702898E+04  0.25500000920E-02 0.  1.
</event>
<event>
 5   0  0.4373026E-05  0.1599348E+04  0.7818609E-02  0.8820949E-01
        1   -1    0    0  501    0  0.00000000000E+00  0.00000000000E+00  0.10834420656E+04  0.10834420656E+04  0.50400001928E-02 0.  1.
       -1   -1    0    0    0  501  0.00000000000E+00  0.00000000000E+00 -0.59022829025E+03  0.59022829027E+03  0.50400001928E-02 0. -1.
    10030    2    1    2    0    0  0.00000000000E+00  0.00000000000E+00  0.49321377533E+03  0.16736703559E+04  0.15993475644E+04 0.  0.
        4    1    3    3  502    0 -0.89586858025E+02 -0.15622353681E+03  0.10619445327E+04  0.10771069595E+04  0.12699999809E+01 0.  1.
       -4    1    3    3    0  502  0.89586858025E+02  0.15622353681E+03 -0.56873075742E+03  0.59656339639E+03  0.12699999809E+01 0. -1.
</event>
<event>
 5   0  0.4256406E-05  0.1598073E+04  0.7818609E-02  0.8821733E-01
       -1   -1    0    0    0  501  0.00000000000E+00  0.00000000000E+00  0.75703063643E+03  0.75703063644E+03  0.50400001928E-02 0. -1.
        1   -1    0    0  501    0  0.00000000000E+00  0.00000000000E+00 -0.84337282633E+03  0.84337282635E+03  0.50400001928E-02 0.  1.
    10030    2    1    2    0    0  0.00000000000E+00  0.00000000000E+00 -0.86342189904E+02  0.16004034628E+04  0.15980726736E+04 0.  0.
        3    1    3    3  502    0  0.46842538677E+03  0.54697130836E+03 -0.38988277078E+03  0.81890691796E+03  0.10100000352E+00 0.  1.
       -3    1    3    3    0  502 -0.46842538677E+03 -0.54697130836E+03  0.30354058087E+03  0.78149654483E+03  0.10100000352E+00 0. -1.
</event>
<event>
 5   0  0.8037548E-05  0.1599195E+04  0.7818609E-02  0.8821043E-01
        2   -1    0    0  501    0  0.00000000000E+00  0.00000000000E+00  0.16111344351E+04  0.16111344351E+04  0.25500000920E-02 0.  1.
       -2   -1    0    0    0  501  0.00000000000E+00  0.00000000000E+00 -0.39683580319E+03  0.39683580320E+03  0.25500000920E-02 0. -1.
    10030    2    1    2    0    0  0.00000000000E+00  0.00000000000E+00  0.12142986319E+04  0.20079702383E+04  0.15991945818E+04 0.  0.
        5    1    3    3  502    0  0.67051621322E+03  0.21943522782E+03  0.10796170333E+04  0.12897049430E+04  0.46999998093E+01 0.  1.
       -5    1    3    3    0  502 -0.67051621322E+03 -0.21943522782E+03  0.13468159859E+03  0.71826529528E+03  0.46999998093E+01 0. -1.
</event>
<event>
 5   0  0.7901257E-05  0.1600138E+04  0.7818609E-02  0.8820463E-01
        2   -1    0    0  501    0  0.00000000000E+00  0.00000000000E+00  0.70794667654E+03  0.70794667654E+03  0.25500000920E-02 0. -1.
       -2   -1    0    0    0  501  0.00000000000E+00  0.00000000000E+00 -0.90417852492E+03  0.90417852493E+03  0.25500000920E-02 0.  1.
    10030    2    1    2    0    0  0.00000000000E+00  0.00000000000E+00 -0.19623184838E+03  0.16121252015E+04  0.16001377212E+04 0.  0.
        2    1    3    3  502    0  0.37514194611E+03 -0.61009836209E+03  0.26114867671E+03  0.76233202905E+03  0.25500000920E-02 0. -1.
       -2    1    3    3    0  502 -0.37514194611E+03  0.61009836209E+03 -0.45738052509E+03  0.84979317242E+03  0.25500000920E-02 0.  1.
</event>
<event>
 5   0  0.3042125E-05  0.1598162E+04  0.7818609E-02  0.8821678E-01
        3   -1    0    0  501    0  0.00000000000E+00  0.00000000000E+00  0.98594210507E+03  0.98594211024E+03  0.10100000352E+00 0.  1.
       -3   -1    0    0    0  501  0.00000000000E+00  0.00000000000E+00 -0.64763490566E+03  0.64763491354E+03  0.10100000352E+00 0. -1.
    10030    2    1    2    0    0  0.00000000000E+00  0.00000000000E+00  0.33830719940E+03  0.16335770238E+04  0.15981621105E+04 0.  0.
        4    1    3    3  502    0 -0.10011464900E+03 -0.56361367102E+03 -0.40073655371E+03  0.69876656437E+03  0.12699999809E+01 0. -1.
       -4    1    3    3    0  502  0.10011464900E+03  0.56361367102E+03  0.73904375311E+03  0.93481045941E+03  0.12699999809E+01 0.  1.
</event>
<event>
 5   0  0.4314657E-05  0.1605717E+04  0.7818609E-02  0.8817043E-01
       -1   -1    0    0    0  501  0.00000000000E+00  0.00000000000E+00  0.75027522013E+03  0.75027522015E+03  0.50400001928E-02 0.  1.
        1   -1    0    0  501    0  0.00000000000E+00  0.00000000000E+00 -0.85912724886E+03  0.85912724888E+03  0.50400001928E-02 0. -1.
    10030    2    1    2    0    0  0.00000000000E+00  0.00000000000E+00 -0.10885202873E+03  0.16094024690E+04  0.16057171429E+04 0.  0.
        5    1    3    3  502    0 -0.52614354149E+03 -0.54823413530E+03 -0.31419666972E+03  0.82227083776E+03  0.46999998093E+01 0. -1.
       -5    1    3    3    0  502  0.52614354149E+03  0.54823413530E+03  0.20534464100E+03  0.78713163127E+03  0.46999998093E+01 0.  1.
</event>
<event>
 5   0  0.4211419E-05  0.1600969E+04  0.7818609E-02  0.8819953E-01
       -1   -1    0    0    0  501  0.00000000000E+00  0.00000000000E+00  0.56515797852E+03  0.56515797855E+03  0.50400001928E-02 0. -1.
        1   -1    0    0  501    0  0.00000000000E+00  0.00000000000E+00 -0.11337982129E+04  0.11337982129E+04  0.50400001928E-02 0.  1.
    10030    2    1    2    0    0  0.00000000000E+00  0.00000000000E+00 -0.56864023439E+03  0.16989561915E+04  0.16009685894E+04 0.  0.
        2    1    3    3  502    0  0.10564181600E+02 -0.38949397561E+03  0.45773322216E+03  0.60111301903E+03  0.25500000920E-02 0. -1.
       -2    1    3    3    0  502 -0.10564181600E+02  0.38949397561E+03 -0.10263734566E+04  0.10978431724E+04  0.25500000920E-02 0.  1.
</event>
<event>
 5   0  0.4504463E-05  0.1597914E+04  0.7818609E-02  0.8821831E-01
        1   -1    0    0  501    0  0.00000000000E+00  0.00000000000E+00  0.85992653655E+03  0.85992653656E+03  0.50400001928E-02 0.  1.
       -1   -1    0    0    0  501  0.00000000000E+00  0.00000000000E+00 -0.74231007581E+03  0.74231007582E+03  0.50400001928E-02 0. -1.
    10030    2    1    2    0    0  0.00000000000E+00  0.00000000000E+00  0.11761646074E+03  0.16022366124E+04  0.15979138056E+04 0.  0.
        1    1    3    3  502    0 -0.25367438504E+03  0.37875457257E+03  0.71672840321E+03  0.84941469487E+03  0.50400001928E-02 0.  1.
       -1    1    3    3    0  502  0.25367438504E+03 -0.37875457257E+03 -0.59911194246E+03  0.75282191752E+03  0.50400001928E-02 0. -1.
</event>
<event>
 5   0  0.7901257E-05  0.1600654E+04  0.7818609E-02  0.8820146E-01
       -2   -1    0    0    0  501  0.00000000000E+00  0.00000000000E+00  0.64365394715E+03  0.64365394716E+03  0.25500000920E-02 0.  1.
        2   -1    0    0  501    0  0.00000000000E+00  0.00000000000E+00 -0.99513603842E+03  0.99513603843E+03  0.25500000920E-02 0. -1.
    10030    2    1    2    0    0  0.00000000000E+00  0.00000000000E+00 -0.35148209127E+03  0.16387899856E+04  0.16006539152E+04 0.  0.
        2    1    3    3  502    0 -0.31099444200E+03 -0.70406189793E+03 -0.40028939392E+03  0.86755535729E+03  0.25500000920E-02 0. -1.
       -2    1    3    3    0  502  0.31099444200E+03  0.70406189793E+03  0.48807302651E+02  0.77123462829E+03  0.25500000920E-02 0.  1.
</event>
<event>
 5   0  0.4504463E-05  0.1600573E+04  0.7818609E-02  0.8820196E-01
       -1   -1    0    0    0  501  0.00000000000E+00  0.00000000000E+00  0.88267741774E+03  0.88267741776E+03  0.50400001928E-02 0. -1.
        1   -1    0    0  501    0  0.00000000000E+00  0.00000000000E+00 -0.72558592148E+03  0.72558592149E+03  0.50400001928E-02 0.  1.
    10030    2    1    2    0    0  0.00000000000E+00  0.00000000000E+00  0.15709149627E+03  0.16082633393E+04  0.16005727819E+04 0.  0.
        1    1    3    3  502    0  0.16614068208E+02 -0.56467255379E+03 -0.49103522216E+03  0.74849629905E+03  0.50400001928E-02 0.  1.
       -1    1    3    3    0  502 -0.16614068208E+02  0.56467255379E+03  0.64812671842E+03  0.85976704020E+03  0.50400001928E-02 0. -1.
</event>
<event>
 5   0  0.8037548E-05  0.1601340E+04  0.7818609E-02  0.8819725E-01
        2   -1    0    0  501    0  0.00000000000E+00  0.00000000000E+00  0.23828087525E+04  0.23828087525E+04  0.25500000920E-02 0.  1.
       -2   -1    0    0    0  501  0.00000000000E+00  0.00000000000E+00 -0.26904076154E+03  0.26904076155E+03  0.25500000920E-02 0. -1.
    10030    2    1    2    0    0  0.00000000000E+00  0.00000000000E+00  0.21137679910E+04  0.26518495141E+04  0.16013402904E+04 0.  0.
        5    1    3    3  502    0  0.41597222494E+02  0.60829659630E+03  0.19162532331E+04  0.20109210878E+04  0.46999998093E+01 0.  1.
       -5    1    3    3    0  502 -0.41597222494E+02 -0.60829659630E+03  0.19751475784E+03  0.64092842623E+03  0.46999998093E+01 0. -1.
</event>
<event>
 5   0  0.4256406E-05  0.1600912E+04  0.7818609E-02  0.8819988E-01
       -1   -1    0    0    0  501  0.00000000000E+00  0.00000000000E+00  0.78727723273E+03  0.78727723275E+03  0.50400001928E-02 0.  1.
        1   -1    0    0  501    0  0.00000000000E+00  0.00000000000E+00 -0.81385522712E+03  0.81385522714E+03  0.50400001928E-02 0. -1.
    10030    2    1    2    0    0  0.00000000000E+00  0.00000000000E+00 -0.26577994388E+02  0.16011324599E+04  0.16009118540E+04 0.  0.
        3    1    3    3  502    0 -0.48839260559E+03 -0.22828094787E+03  0.57847670316E+03  0.79074321663E+03  0.10100000352E+00 0.  1.
       -3    1    3    3    0  502  0.48839260559E+03  0.22828094787E+03 -0.60505469755E+03  0.81038924325E+03  0.10100000352E+00 0. -1.
</event>
<event>
 5   0  0.3042125E-05  0.1594148E+04  0.7818609E-02  0.8824151E-01
        3   -1    0    0  501    0  0.00000000000E+00  0.00000000000E+00  0.72874180792E+03  0.72874181491E+03  0.10100000352E+00 0. -1.
       -3   -1    0    0    0  501  0.00000000000E+00  0.00000000000E+00 -0.87181381592E+03  0.87181382177E+03  0.10100000352E+00 0.  1.
    10030    2    1    2    0    0  0.00000000000E+00  0.00000000000E+00 -0.14307200800E+03  0.16005556367E+04  0.15941482825E+04 0.  0.
        2    1    3    3  502    0  0.73195186980E+02  0.12516665240E+03 -0.85846104200E+03  0.87062023116E+03  0.25500000920E-02 0.  1.
       -2    1    3    3    0  502 -0.73195186980E+02 -0.12516665240E+03  0.71538903400E+03  0.72993540552E+03  0.25500000920E-02 0. -1.
</event>
<event>
 5   0  0.4314657E-05  0.1595113E+04  0.7818609E-02  0.8823556E-01
        1   -1    0    0  501    0  0.00000000000E+00  0.00000000000E+00  0.58029295008E+03  0.58029295010E+03  0.50400001928E-02 0.  1.
       -1   -1    0    0    0  501  0.00000000000E+00  0.00000000000E+00 -0.10961648769E+04  0.10961648769E+04  0.50400001928E-02 0. -1.
    10030    2    1    2    0    0  0.00000000000E+00  0.00000000000E+00 -0.51587192679E+03  0.16764578270E+04  0.15951134758E+04 0.  0.
        5    1    3    3  502    0 -0.57016493005E+03  0.55718304561E+03 -0.23365667279E+03  0.83075780135E+03  0.46999998093E+01 0. -1.
       -5    1    3    3    0  502  0.57016493005E+03 -0.55718304561E+03 -0.28221525400E+03  0.84570002563E+03  0.46999998093E+01 0.  1.
</event>
<event>
 5   0  0.7901257E-05  0.1599224E+04  0.7818609E-02  0.8821025E-01
       -2   -1    0    0    0  501  0.00000000000E+00  0.00000000000E+00  0.25740507559E+03  0.25740507560E+03  0.25500000920E-02 0. -1.
        2   -1    0    0  501    0  0.00000000000E+00  0.00000000000E+00 -0.24839426460E+04  0.24839426460E+04  0.25500000920E-02 0.  1.
    10030    2    1    2    0    0  0.00000000000E+00  0.00000000000E+00 -0.22265375704E+04  0.27413477216E+04  0.15992241176E+04 0.  0.
        2    1    3    3  502    0 -0.72570463315E+03  0.33550715275E+03 -0.11354327544E+04  0.13886755575E+04  0.25500000920E-02 0. -1.
       -2    1    3    3    0  502  0.72570463315E+03 -0.33550715275E+03 -0.10911048160E+04  0.13526721642E+04  0.25500000920E-02 0.  1.
</event>
<event>
 5   0  0.3042125E-05  0.1599932E+04  0.7818609E-02  0.8820590E-01
       -3   -1    0    0    0  501  0.00000000000E+00  0.00000000000E+00  0.15556709624E+04  0.15556709657E+04  0.10100000352E+00 0.  1.
        3   -1    0    0  501    0  0.00000000000E+00  0.00000000000E+00 -0.41136318164E+03  0.41136319404E+03  0.10100000352E+00 0. -1.
    10030    2    1    2    0    0  0.00000000000E+00  0.00000000000E+00  0.11443077807E+04  0.19670341597E+04  0.15999322137E+04 0.  0.
        2    1    3    3  502    0 -0.23510087441E+03  0.16617972145E+03 -0.34546087041E+03  0.44970138310E+03  0.25500000920E-02 0. -1.
       -2    1    3    3    0  502  0.23510087441E+03 -0.16617972145E+03  0.14897686512E+04  0.15173327766E+04  0.25500000920E-02 0.  1.
</event>
<event>
 5   0  0.4504463E-05  0.1600831E+04  0.7818609E-02  0.8820038E-01
        1   -1    0    0  501    0  0.00000000000E+00  0.00000000000E+00  0.17207186649E+04  0.17207186649E+04  0.50400001928E-02 0. -1.
       -1   -1    0    0    0  501  0.00000000000E+00  0.00000000000E+00 -0.37232383545E+03  0.37232383548E+03  0.50400001928E-02 0.  1.
    10030    2    1    2    0    0  0.00000000000E+00  0.00000000000E+00  0.13483948294E+04  0.20930425003E+04  0.16008305008E+04 0.  0.
        1    1    3    3  502    0 -0.76339515069E+03 -0.45271431891E+02  0.36522711476E+03  0.84747419078E+03  0.50400001928E-02 0.  1.
       -1    1    3    3    0  502  0.76339515069E+03  0.45271431891E+02  0.98316771465E+03  0.12455683096E+04  0.50400001928E-02 0. -1.
</event>
<event>
 5   0  0.7901257E-05  0.1596719E+04  0.7818609E-02  0.8822566E-01
       -2   -1    0    0    0  501  0.00000000000E+00  0.00000000000E+00  0.92481797399E+03  0.92481797399E+03  0.25500000920E-02 0. -1.
        2   -1    0    0  501    0  0.00000000000E+00  0.00000000000E+00 -0.68919283601E+03  0.68919283602E+03  0.25500000920E-02 0.  1.
    10030    2    1    2    0    0  0.00000000000E+00  0.00000000000E+00  0.23562513798E+03  0.16140108100E+04  0.15967190389E+04 0.  0.
        2    1    3    3  502    0 -0.33944679900E+02 -0.25266261377E+03 -0.64694348584E+03  0.69536070609E+03  0.25500000920E-02 0.  1.
       -2    1    3    3    0  502  0.33944679900E+02  0.25266261377E+03  0.88256862382E+03  0.91865010393E+03  0.25500000920E-02 0. -1.
</event>
<event>
 5   0  0.4211419E-05  0.1601652E+04  0.7818609E-02  0.8819533E-01
       -1   -1    0    0    0  501  0.00000000000E+00  0.00000000000E+00  0.45226261847E+03  0.45226261850E+03  0.50400001928E-02 0.  1.
        1   -1    0    0  501    0  0.00000000000E+00  0.00000000000E+00 -0.14180315420E+04  0.14180315420E+04  0.50400001928E-02 0. -1.
    10030    2    1    2    0    0  0.00000000000E+00  0.00000000000E+00 -0.96576892348E+03  0.18702941605E+04  0.16016524695E+04 0.  0.
        2    1    3    3  502    0 -0.52987536540E+03  0.10020790452E+03 -0.11742277906E+04  0.12921379305E+04  0.25500000920E-02 0. -1.
       -2    1    3    3    0  502  0.52987536540E+03 -0.10020790452E+03  0.20845886716E+03  0.57815623000E+03  0.25500000920E-02 0.  1.
</event>
<event>
 5   0  0.4211419E-05  0.1600356E+04  0.7818609E-02  0.8820329E-01
        1   -1    0    0  501    0  0.00000000000E+00  0.00000000000E+00  0.88576307225E+03  0.88576307226E+03  0.50400001928E-02 0. -1.
       -1   -1    0    0    0  501  0.00000000000E+00  0.00000000000E+00 -0.72286260011E+03  0.72286260013E+03  0.50400001928E-02 0.  1.
    10030    2    1    2    0    0  0.00000000000E+00  0.00000000000E+00  0.16290047214E+03  0.16086256724E+04  0.16003562072E+04 0.  0.
        2    1    3    3  502    0 -0.23191140813E+03  0.60090663036E+03 -0.39578018773E+03  0.75598520927E+03  0.25500000920E-02 0.  1.
       -2    1    3    3    0  502  0.23191140813E+03 -0.60090663036E+03  0.55868065987E+03  0.85264046312E+03  0.25500000920E-02 0. -1.
</event>
<event>
 5   0  0.4373026E-05  0.1599715E+04  0.7818609E-02  0.8820723E-01
        1   -1    0    0  501    0  0.00000000000E+00  0.00000000000E+00  0.60024774431E+03  0.60024774433E+03  0.50400001928E-02 0. -1.
       -1   -1    0    0    0  501  0.00000000000E+00  0.00000000000E+00 -0.10658469199E+04  0.10658469199E+04  0.50400001928E-02 0.  1.
    10030    2    1    2    0    0  0.00000000000E+00  0.00000000000E+00 -0.46559917561E+03  0.16660946643E+04  0.15997152365E+04 0.  0.
        4    1    3    3  502    0 -0.44051631733E+03  0.32494900444E+03  0.37460169504E+03  0.66330575465E+03  0.12699999809E+01 0. -1.
       -4    1    3    3    0  502  0.44051631733E+03 -0.32494900444E+03 -0.84020087065E+03  0.10027889096E+04  0.12699999809E+01 0.  1.
</event>
<event>
 5   0  0.4373026E-05  0.1603931E+04  0.7818609E-02  0.8818136E-01
        1   -1    0    0  501    0  0.00000000000E+00  0.00000000000E+00  0.70329709422E+03  0.70329709424E+03  0.50400001928E-02 0. -1.
       -1   -1    0    0    0  501  0.00000000000E+00  0.00000000000E+00 -0.91447695547E+03  0.91447695549E+03  0.50400001928E-02 0.  1.
    10030    2    1    2    0    0  0.00000000000E+00  0.00000000000E+00 -0.21117986125E+03  0.16177740497E+04  0.16039314019E+04 0.  0.
        4    1    3    3  502    0 -0.68645682519E+03 -0.41445088686E+03 -0.11814169387E+03  0.81052549818E+03  0.12699999809E+01 0.  1.
       -4    1    3    3    0  502  0.68645682519E+03  0.41445088686E+03 -0.93038167386E+02  0.80724855154E+03  0.12699999809E+01 0. -1.
</event>
<event>
 5   0  0.4314657E-05  0.1603811E+04  0.7818609E-02  0.8818210E-01
        1   -1    0    0  501    0  0.00000000000E+00  0.00000000000E+00  0.15693023540E+04  0.15693023540E+04  0.50400001928E-02 0. -1.
       -1   -1    0    0    0  501  0.00000000000E+00  0.00000000000E+00 -0.40976952203E+03  0.40976952206E+03  0.50400001928E-02 0.  1.
    10030    2    1    2    0    0  0.00000000000E+00  0.00000000000E+00  0.11595328319E+04  0.19790718760E+04  0.16038108062E+04 0.  0.
        5    1    3    3  502    0  0.70120104405E+02 -0.44308041108E+03 -0.24043006018E+03  0.50898505239E+03  0.46999998093E+01 0.  1.
       -5    1    3    3    0  502 -0.70120104405E+02  0.44308041108E+03  0.13999628921E+04  0.14700868236E+04  0.46999998093E+01 0. -1.
</event>
<event>
 5   0  0.4256406E-05  0.1600271E+04  0.7818609E-02  0.8820382E-01
       -1   -1    0    0    0  501  0.00000000000E+00  0.00000000000E+00  0.43293795716E+03  0.43293795719E+03  0.50400001928E-02 0.  1.
        1   -1    0    0  501    0  0.00000000000E+00  0.00000000000E+00 -0.14787723337E+04  0.14787723337E+04  0.50400001928E-02 0. -1.
    10030    2    1    2    0    0  0.00000000000E+00  0.00000000000E+00 -0.10458343765E+04  0.19117102909E+04  0.16002708187E+04 0.  0.
        3    1    3    3  502    0 -0.24232377670E+03 -0.42436922397E+03  0.23395204786E+03  0.54179666103E+03  0.10100000352E+00 0.  1.
       -3    1    3    3    0  502  0.24232377670E+03  0.42436922397E+03 -0.12797864244E+04  0.13699136299E+04  0.10100000352E+00 0. -1.
</event>
<event>
 5   0  0.8037548E-05  0.1599079E+04  0.7818609E-02  0.8821114E-01
       -2   -1    0    0    0  501  0.00000000000E+00  0.00000000000E+00  0.71062598716E+03  0.71062598716E+03  0.25500000920E-02 0.  1.
        2   -1    0    0  501    0  0.00000000000E+00  0.00000000000E+00 -0.89957788015E+03  0.89957788015E+03  0.25500000920E-02 0. -1.
    10030    2    1    2    0    0  0.00000000000E+00  0.00000000000E+00 -0.18895189299E+03  0.16102038673E+04  0.15990790088E+04 0.  0.
        5    1    3    3  502    0 -0.26977226682E+03  0.71762536539E+03 -0.32294224605E+03  0.83191166916E+03  0.46999998093E+01 0. -1.
       -5    1    3    3    0  502  0.26977226682E+03 -0.71762536539E+03  0.13399035307E+03  0.77829219816E+03  0.46999998093E+01 0.  1.
</event>
<event>
 5   0  0.4314657E-05  0.1600963E+04  0.7818609E-02  0.8819957E-01
        1   -1    0    0  501    0  0.00000000000E+00  0.00000000000E+00  0.19795428978E+04  0.19795428978E+04  0.50400001928E-02 0.  1.
       -1   -1    0    0    0  501  0.00000000000E+00  0.00000000000E+00 -0.32369614680E+03  0.32369614683E+03  0.50400001928E-02 0. -1.
    10030    2    1    2    0    0  0.00000000000E+00  0.00000000000E+00  0.16558467510E+04  0.23032390446E+04  0.16009627210E+04 0.  0.
        5    1    3    3  502    0 -0.64695904011E+03 -0.24898807938E+02  0.15051212629E+04  0.16384712559E+04  0.46999998093E+01 0.  1.
       -5    1    3    3    0  502  0.64695904011E+03  0.24898807938E+02  0.15072548807E+03  0.66476778876E+03  0.46999998093E+01 0. -1.
</event>
<event>
 5   0  0.8694033E-05  0.1604118E+04  0.7818609E-02  0.8818022E-01
       -2   -1    0    0    0  501  0.00000000000E+00  0.00000000000E+00  0.10093855137E+04  0.10093855137E+04  0.25500000920E-02 0. -1.
        2   -1    0    0  501    0  0.00000000000E+00  0.00000000000E+00 -0.63731699761E+03  0.63731699762E+03  0.25500000920E-02 0.  1.
    10030    2    1    2    0    0  0.00000000000E+00  0.00000000000E+00  0.37206851607E+03  0.16467025113E+04  0.16041178822E+04 0.  0.
        1    1    3    3  502    0 -0.44455518218E+03  0.62456128331E+03 -0.56005510697E+02  0.76866294555E+03  0.50400001928E-02 0. -1.
       -1    1    3    3    0  502  0.44455518218E+03 -0.62456128331E+03  0.42807402677E+03  0.87803956575E+03  0.50400001928E-02 0.  1.
</event>
<event>
 5   0  0.4256406E-05  0.1602411E+04  0.7818609E-02  0.8819068E-01
       -1   -1    0    0    0  501  0.00000000000E+00  0.00000000000E+00  0.47486786857E+03  0.47486786860E+03  0.50400001928E-02 0. -1.
        1   -1    0    0  501    0  0.00000000000E+00  0.00000000000E+00 -0.13518081223E+04  0.13518081223E+04  0.50400001928E-02 0.  1.
    10030    2    1    2    0    0  0.00000000000E+00  0.00000000000E+00 -0.87694025373E+03  0.18266759909E+04  0.16024109857E+04 0.  0.
        3    1    3    3  502    0  0.69346922241E+03  0.28220252265E+03 -0.11324840223E+03  0.75720739367E+03  0.10100000352E+00 0. -1.
       -3    1    3    3    0  502 -0.69346922241E+03 -0.28220252265E+03 -0.76369185151E+03  0.10694685972E+04  0.10100000352E+00 0.  1.
</event>
<event>
 5   0  0.4211419E-05  0.1602345E+04  0.7818609E-02  0.8819108E-01
        1   -1    0    0  501    0  0.00000000000E+00  0.00000000000E+00  0.52734355286E+03  0.52734355288E+03  0.50400001928E-02 0.  1.
       -1   -1    0    0    0  501  0.00000000000E+00  0.00000000000E+00 -0.12171908271E+04  0.12171908271E+04  0.50400001928E-02 0. -1.
    10030    2    1    2    0    0  0.00000000000E+00  0.00000000000E+00 -0.68984727427E+03  0.17445343800E+04  0.16023454500E+04 0.  0.
        2    1    3    3  502    0  0.35357965667E+03  0.54955118586E+03 -0.84957766551E+03  0.10718242810E+04  0.25500000920E-02 0. -1.
       -2    1    3    3    0  502 -0.35357965667E+03 -0.54955118586E+03  0.15973039124E+03  0.67271009907E+03  0.25500000920E-02 0.  1.
</event>
<event>
 5   0  0.8694033E-05  0.1600681E+04  0.7818609E-02  0.8820130E-01
        2   -1    0    0  501    0  0.00000000000E+00  0.00000000000E+00  0.23228528403E+04  0.23228528404E+04  0.25500000920E-02 0. -1.
       -2   -1    0    0    0  501  0.00000000000E+00  0.00000000000E+00 -0.27575795345E+03  0.27575795346E+03  0.25500000920E-02 0.  1.
    10030    2    1    2    0    0  0.00000000000E+00  0.00000000000E+00  0.20470948869E+04  0.25986107938E+04  0.16006812868E+04 0.  0.
        1    1    3    3  502    0  0.37629987193E+03 -0.17306382635E+03  0.21353285832E+04  0.21751277755E+04  0.50400001928E-02 0. -1.
       -1    1    3    3    0  502 -0.37629987193E+03  0.17306382635E+03 -0.88233696289E+02  0.42348301830E+03  0.50400001928E-02 0.  1.
</event>
<event>
 5   0  0.7849690E-05  0.1600640E+04  0.7818609E-02  0.8820155E-01
        2   -1    0    0  501    0  0.00000000000E+00  0.00000000000E+00  0.14034159572E+04  0.14034159572E+04  0.25500000920E-02 0. -1.
       -2   -1    0    0    0  501  0.00000000000E+00  0.00000000000E+00 -0.45639499640E+03  0.45639499641E+03  0.25500000920E-02 0.  1.
    10030    2    1    2    0    0  0.00000000000E+00  0.00000000000E+00  0.94702096076E+03  0.18598109536E+04  0.16006398980E+04 0.  0.
        3    1    3    3  502    0  0.46333150115E+03 -0.64548529363E+02 -0.28099294435E+03  0.54571021392E+03  0.10100000352E+00 0.  1.
       -3    1    3    3    0  502 -0.46333150115E+03  0.64548529363E+02  0.12280139051E+04  0.13141007397E+04  0.10100000352E+00 0. -1.
</event>
<event>
 5   0  0.8694033E-05  0.1564673E+04  0.7818609E-02  0.8842549E-01
       -2   -1    0    0    0  501  0.00000000000E+00  0.00000000000E+00  0.76972532038E+03  0.76972532039E+03  0.25500000920E-02 0.  1.
        2   -1    0    0  501    0  0.00000000000E+00  0.00000000000E+00 -0.79515439588E+03  0.79515439589E+03  0.25500000920E-02 0. -1.
    10030    2    1    2    0    0  0.00000000000E+00  0.00000000000E+00 -0.25429075500E+02  0.15648797163E+04  0.15646730932E+04 0.  0.
        1    1    3    3  502    0  0.76759351966E+03 -0.14850466506E+03  0.15520824087E+02  0.78198103748E+03  0.50400001928E-02 0.  1.
       -1    1    3    3    0  502 -0.76759351966E+03  0.14850466506E+03 -0.40949899588E+02  0.78289867880E+03  0.50400001928E-02 0. -1.
</event>
<event>
 5   0  0.7849690E-05  0.1599109E+04  0.7818609E-02  0.8821096E-01
       -2   -1    0    0    0  501  0.00000000000E+00  0.00000000000E+00  0.23574252036E+03  0.23574252037E+03  0.25500000920E-02 0.  1.
        2   -1    0    0  501    0  0.00000000000E+00  0.00000000000E+00 -0.27118022559E+04  0.27118022559E+04  0.25500000920E-02 0. -1.
    10030    2    1    2    0    0  0.00000000000E+00  0.00000000000E+00 -0.24760597355E+04  0.29475447763E+04  0.15991086249E+04 0.  0.
        3    1    3    3  502    0  0.75347718238E+03  0.13616491377E+03 -0.81361019182E+03  0.11172422757E+04  0.10100000352E+00 0. -1.
       -3    1    3    3    0  502 -0.75347718238E+03 -0.13616491377E+03 -0.16624495437E+04  0.18303025006E+04  0.10100000352E+00 0.  1.
</event>
<event>
 5   0  0.7901257E-05  0.1600435E+04  0.7818609E-02  0.8820281E-01
       -2   -1    0    0    0  501  0.00000000000E+00  0.00000000000E+00  0.65240341381E+03  0.65240341382E+03  0.25500000920E-02 0.  1.
        2   -1    0    0  501    0  0.00000000000E+00  0.00000000000E+00 -0.98152201924E+03  0.98152201924E+03  0.25500000920E-02 0. -1.
    10030    2    1    2    0    0  0.00000000000E+00  0.00000000000E+00 -0.32911860543E+03  0.16339254331E+04  0.16004353359E+04 0.  0.
        2    1    3    3  502    0  0.35392353851E+02  0.17882636614E+02 -0.98051835626E+03  0.98131985325E+03  0.25500000920E-02 0. -1.
       -2    1    3    3    0  502 -0.35392353851E+02 -0.17882636614E+02  0.65139975084E+03  0.65260557981E+03  0.25500000920E-02 0.  1.
</event>
<event>
 5   0  0.8694033E-05  0.1599997E+04  0.7818609E-02  0.8820550E-01
       -2   -1    0    0    0  501  0.00000000000E+00  0.00000000000E+00  0.55821176183E+03  0.55821176183E+03  0.25500000920E-02 0. -1.
        2   -1    0    0  501    0  0.00000000000E+00  0.00000000000E+00 -0.11465145645E+04  0.11465145645E+04  0.25500000920E-02 0.  1.
    10030    2    1    2    0    0  0.00000000000E+00  0.00000000000E+00 -0.58830280262E+03  0.17047263263E+04  0.15999973937E+04 0.  0.
        1    1    3    3  502    0 -0.53112132789E+03 -0.10925275433E+03  0.33254297447E+03  0.63609029167E+03  0.50400001928E-02 0. -1.
       -1    1    3    3    0  502  0.53112132789E+03  0.10925275433E+03 -0.92084577709E+03  0.10686360346E+04  0.50400001928E-02 0.  1.
</event>
<event>
 5   0  0.4314657E-05  0.1595117E+04  0.7818609E-02  0.8823553E-01
        1   -1    0    0  501    0  0.00000000000E+00  0.00000000000E+00  0.63134343578E+03  0.63134343580E+03  0.50400001928E-02 0.  1.
       -1   -1    0    0    0  501  0.00000000000E+00  0.00000000000E+00 -0.10075333567E+04  0.10075333567E+04  0.50400001928E-02 0. -1.
    10030    2    1    2    0    0  0.00000000000E+00  0.00000000000E+00 -0.37618992092E+03  0.16388767925E+04  0.15951170128E+04 0.  0.
        5    1    3    3  502    0 -0.59696607690E+03 -0.66382102840E+02  0.35099191358E+03  0.69569569062E+03  0.46999998093E+01 0.  1.
       -5    1    3    3    0  502  0.59696607690E+03  0.66382102840E+02 -0.72718183450E+03  0.94318110189E+03  0.46999998093E+01 0. -1.
</event>
<event>
 5   0  0.4314657E-05  0.1601700E+04  0.7818609E-02  0.8819504E-01
       -1   -1    0    0    0  501  0.00000000000E+00  0.00000000000E+00  0.66996129183E+03  0.66996129185E+03  0.50400001928E-02 0.  1.
        1   -1    0    0  501    0  0.00000000000E+00  0.00000000000E+00 -0.95731019650E+03  0.95731019652E+03  0.50400001928E-02 0. -1.
    10030    2    1    2    0    0  0.00000000000E+00  0.00000000000E+00 -0.28734890467E+03  0.16272714884E+04  0.16017000668E+04 0.  0.
        5    1    3    3  502    0 -0.44878317148E+03 -0.41754269104E+03  0.37990796107E+03  0.72117985463E+03  0.46999998093E+01 0.  1.
       -5    1    3    3    0  502  0.44878317148E+03  0.41754269104E+03 -0.66725686574E+03  0.90609163373E+03  0.46999998093E+01 0. -1.
</event>
<event>
 5   0  0.7901257E-05  0.1598239E+04  0.7818609E-02  0.8821631E-01
        2   -1    0    0  501    0  0.00000000000E+00  0.00000000000E+00  0.10982832775E+04  0.10982832775E+04  0.25500000920E-02 0.  1.
       -2   -1    0    0    0  501  0.00000000000E+00  0.00000000000E+00 -0.58144526816E+03  0.58144526816E+03  0.25500000920E-02 0. -1.
    10030    2    1    2    0    0  0.00000000000E+00  0.00000000000E+00  0.51683800936E+03  0.16797285457E+04  0.15982385489E+04 0.  0.
        2    1    3    3  502    0 -0.53764168722E+03 -0.30838427202E+01 -0.36293013960E+03  0.64868049158E+03  0.25500000920E-02 0. -1.
       -2    1    3    3    0  502  0.53764168722E+03  0.30838427202E+01  0.87976814896E+03  0.10310480541E+04  0.25500000920E-02 0.  1.
</event>
<event>
 5   0  0.4256406E-05  0.1599344E+04  0.7818609E-02  0.8820951E-01
       -1   -1    0    0    0  501  0.00000000000E+00  0.00000000000E+00  0.44435442308E+03  0.44435442310E+03  0.50400001928E-02 0.  1.
        1   -1    0    0  501    0  0.00000000000E+00  0.00000000000E+00 -0.14391107480E+04  0.14391107480E+04  0.50400001928E-02 0. -1.
    10030    2    1    2    0    0  0.00000000000E+00  0.00000000000E+00 -0.99475632495E+03  0.18834651711E+04  0.15993438983E+04 0.  0.
        3    1    3    3  502    0  0.50838265612E+03  0.58438545600E+03 -0.73147839142E+03  0.10653731429E+04  0.10100000352E+00 0. -1.
       -3    1    3    3    0  502 -0.50838265612E+03 -0.58438545600E+03 -0.26327793354E+03  0.81809202827E+03  0.10100000352E+00 0.  1.
</event>
<event>
 5   0  0.4314657E-05  0.1604143E+04  0.7818609E-02  0.8818007E-01
        1   -1    0    0  501    0  0.00000000000E+00  0.00000000000E+00  0.93653039456E+03  0.93653039458E+03  0.50400001928E-02 0. -1.
       -1   -1    0    0    0  501  0.00000000000E+00  0.00000000000E+00 -0.68691690247E+03  0.68691690249E+03  0.50400001928E-02 0.  1.
    10030    2    1    2    0    0  0.00000000000E+00  0.00000000000E+00  0.24961349210E+03  0.16234472971E+04  0.16041428337E+04 0.  0.
        5    1    3    3  502    0  0.26219230652E+03  0.57039447538E+02  0.88974533955E+03  0.92933694827E+03  0.46999998093E+01 0. -1.
       -5    1    3    3    0  502 -0.26219230652E+03 -0.57039447538E+02 -0.64013184746E+03  0.69411034879E+03  0.46999998093E+01 0.  1.
</event>
<event>
 5   0  0.3042125E-05  0.1600412E+04  0.7818609E-02  0.8820295E-01
        4   -1    0    0  501    0  0.00000000000E+00  0.00000000000E+00  0.94835178741E+03  0.94835263778E+03  0.12699999809E+01 0. -1.
       -4   -1    0    0    0  501  0.00000000000E+00  0.00000000000E+00 -0.67520103353E+03  0.67520222791E+03  0.12699999809E+01 0.  1.
    10030    2    1    2    0    0  0.00000000000E+00  0.00000000000E+00  0.27315075388E+03  0.16235548657E+04  0.16004121555E+04 0.  0.
        2    1    3    3  502    0  0.32237244933E+03  0.63139763412E+03 -0.23992860983E+03  0.74843350157E+03  0.25500000920E-02 0.  1.
       -2    1    3    3    0  502 -0.32237244933E+03 -0.63139763412E+03  0.51307936371E+03  0.87512136411E+03  0.25500000920E-02 0. -1.
</event>
<event>
 5   0  0.7849690E-05  0.1602115E+04  0.7818609E-02  0.8819250E-01
       -2   -1    0    0    0  501  0.00000000000E+00  0.00000000000E+00  0.98221991586E+03  0.98221991587E+03  0.25500000920E-02 0.  1.
        2   -1    0    0  501    0  0.00000000000E+00  0.00000000000E+00 -0.65330891855E+03  0.65330891855E+03  0.25500000920E-02 0. -1.
    10030    2    1    2    0    0  0.00000000000E+00  0.00000000000E+00  0.32891099731E+03  0.16355288344E+04  0.16021148910E+04 0.  0.
        3    1    3    3  502    0 -0.67580141093E+03 -0.29897007049E+03 -0.15118947583E+03  0.75428702619E+03  0.10100000352E+00 0. -1.
       -3    1    3    3    0  502  0.67580141093E+03  0.29897007049E+03  0.48010047314E+03  0.88124180824E+03  0.10100000352E+00 0.  1.
</event>
<event>
 5   0  0.4314657E-05  0.1599129E+04  0.7818609E-02  0.8821084E-01
        1   -1    0    0  501    0  0.00000000000E+00  0.00000000000E+00  0.14718360094E+04  0.14718360094E+04  0.50400001928E-02 0.  1.
       -1   -1    0    0    0  501  0.00000000000E+00  0.00000000000E+00 -0.43435752942E+03  0.43435752945E+03  0.50400001928E-02 0. -1.
    10030    2    1    2    0    0  0.00000000000E+00  0.00000000000E+00  0.10374784800E+04  0.19061935389E+04  0.15991285787E+04 0.  0.
        5    1    3    3  502    0  0.14823021701E+03 -0.47046385621E+03 -0.23135552614E+03  0.54484484645E+03  0.46999998093E+01 0. -1.
       -5    1    3    3    0  502 -0.14823021701E+03  0.47046385621E+03  0.12688340061E+04  0.13613486924E+04  0.46999998093E+01 0.  1.
</event>
<event>
 5   0  0.7901257E-05  0.1601030E+04  0.7818609E-02  0.8819915E-01
       -2   -1    0    0    0  501  0.00000000000E+00  0.00000000000E+00  0.12804085393E+04  0.12804085393E+04  0.25500000920E-02 0.  1.
        2   -1    0    0  501    0  0.00000000000E+00  0.00000000000E+00 -0.50048438849E+03  0.50048438849E+03  0.25500000920E-02 0. -1.
    10030    2    1    2    0    0  0.00000000000E+00  0.00000000000E+00  0.77992415080E+03  0.17808929278E+04  0.16010302743E+04 0.  0.
        2    1    3    3  502    0 -0.25745228365E+02 -0.46260328976E+03  0.11161090593E+04  0.12084552341E+04  0.25500000920E-02 0.  1.
       -2    1    3    3    0  502  0.25745228365E+02  0.46260328976E+03 -0.33618490850E+03  0.57243769372E+03  0.25500000920E-02 0. -1.
</event>
<event>
 5   0  0.4504463E-05  0.1603049E+04  0.7818609E-02  0.8818677E-01
       -1   -1    0    0    0  501  0.00000000000E+00  0.00000000000E+00  0.39491535498E+03  0.39491535501E+03  0.50400001928E-02 0.  1.
        1   -1    0    0  501    0  0.00000000000E+00  0.00000000000E+00 -0.16267837458E+04  0.16267837458E+04  0.50400001928E-02 0. -1.
    10030    2    1    2    0    0  0.00000000000E+00  0.00000000000E+00 -0.12318683908E+04  0.20216991008E+04  0.16030494446E+04 0.  0.
        1    1    3    3  502    0 -0.12455664628E+03  0.58993917020E+03 -0.12819634574E+04  0.14166767058E+04  0.50400001928E-02 0. -1.
       -1    1    3    3    0  502  0.12455664628E+03 -0.58993917020E+03  0.50095066618E+02  0.60502239496E+03  0.50400001928E-02 0.  1.
</event>
<event>
 5   0  0.3042125E-05  0.1599942E+04  0.7818609E-02  0.8820584E-01
       -3   -1    0    0    0  501  0.00000000000E+00  0.00000000000E+00  0.16922198895E+04  0.16922198925E+04  0.10100000352E+00 0. -1.
        3   -1    0    0  501    0  0.00000000000E+00  0.00000000000E+00 -0.37817402227E+03  0.37817403576E+03  0.10100000352E+00 0.  1.
    10030    2    1    2    0    0  0.00000000000E+00  0.00000000000E+00  0.13140458672E+04  0.20703939282E+04  0.15999420230E+04 0.  0.
        3    1    3    3  502    0 -0.37169735512E+03  0.51252329990E+03  0.24244391183E+02  0.63358255772E+03  0.10100000352E+00 0.  1.
       -3    1    3    3    0  502  0.37169735512E+03 -0.51252329990E+03  0.12898014760E+04  0.14368113705E+04  0.10100000352E+00 0. -1.
</event>
<event>
 5   0  0.7849690E-05  0.1599535E+04  0.7818609E-02  0.8820834E-01
        2   -1    0    0  501    0  0.00000000000E+00  0.00000000000E+00  0.11552947451E+04  0.11552947451E+04  0.25500000920E-02 0.  1.
       -2   -1    0    0    0  501  0.00000000000E+00  0.00000000000E+00 -0.55364939804E+03  0.55364939805E+03  0.25500000920E-02 0. -1.
    10030    2    1    2    0    0  0.00000000000E+00  0.00000000000E+00  0.60164534710E+03  0.17089441432E+04  0.15995352328E+04 0.  0.
        3    1    3    3  502    0  0.55061611652E+03  0.50840491415E+03  0.24833236115E+01  0.74943968510E+03  0.10100000352E+00 0. -1.
       -3    1    3    3    0  502 -0.55061611652E+03 -0.50840491415E+03  0.59916202349E+03  0.95950445809E+03  0.10100000352E+00 0.  1.
</event>
<event>
 5   0  0.4211419E-05  0.1598913E+04  0.7818609E-02  0.8821216E-01
       -1   -1    0    0    0  501  0.00000000000E+00  0.00000000000E+00  0.64165468425E+03  0.64165468427E+03  0.50400001928E-02 0.  1.
        1   -1    0    0  501    0  0.00000000000E+00  0.00000000000E+00 -0.99606657397E+03  0.99606657399E+03  0.50400001928E-02 0. -1.
    10030    2    1    2    0    0  0.00000000000E+00  0.00000000000E+00 -0.35441188973E+03  0.16377212583E+04  0.15989131096E+04 0.  0.
        2    1    3    3  502    0 -0.43769768879E+03 -0.11278033977E+03 -0.85262907179E+03  0.96502590944E+03  0.25500000920E-02 0. -1.
       -2    1    3    3    0  502  0.43769768879E+03  0.11278033977E+03  0.49821718207E+03  0.67269534882E+03  0.25500000920E-02 0.  1.
</event>
<event>
 5   0  0.4256406E-05  0.1600376E+04  0.7818609E-02  0.8820317E-01
       -1   -1    0    0    0  501  0.00000000000E+00  0.00000000000E+00  0.93866973645E+03  0.93866973646E+03  0.50400001928E-02 0.  1.
        1   -1    0    0  501    0  0.00000000000E+00  0.00000000000E+00 -0.68213649923E+03  0.68213649925E+03  0.50400001928E-02 0. -1.
    10030    2    1    2    0    0  0.00000000000E+00  0.00000000000E+00  0.25653323722E+03  0.16208062357E+04  0.16003760658E+04 0.  0.
        3    1    3    3  502    0 -0.25252555147E+03  0.31116698799E+03 -0.57318383720E+03  0.69938099059E+03  0.10100000352E+00 0. -1.
       -3    1    3    3    0  502  0.25252555147E+03 -0.31116698799E+03  0.82971707442E+03  0.92142524512E+03  0.10100000352E+00 0.  1.
</event>
<event>
 5   0  0.4314657E-05  0.1600125E+04  0.7818609E-02  0.8820471E-01
        1   -1    0    0  501    0  0.00000000000E+00  0.00000000000E+00  0.11191477823E+04  0.11191477823E+04  0.50400001928E-02 0. -1.
       -1   -1    0    0    0  501  0.00000000000E+00  0.00000000000E+00 -0.57195322082E+03  0.57195322084E+03  0.50400001928E-02 0.  1.
    10030    2    1    2    0    0  0.00000000000E+00  0.00000000000E+00  0.54719456145E+03  0.16911010031E+04  0.16001252184E+04 0.  0.
        5    1    3    3  502    0 -0.24006580914E+03  0.61341802297E-01  0.10801701217E+04  0.11065356652E+04  0.46999998093E+01 0. -1.
       -5    1    3    3    0  502  0.24006580914E+03 -0.61341802297E-01 -0.53297556027E+03  0.58456533794E+03  0.46999998093E+01 0.  1.
</event>
<event>
 5   0  0.4211419E-05  0.1596305E+04  0.7818609E-02  0.8822821E-01
        1   -1    0    0  501    0  0.00000000000E+00  0.00000000000E+00  0.10040359894E+04  0.10040359894E+04  0.50400001928E-02 0.  1.
       -1   -1    0    0    0  501  0.00000000000E+00  0.00000000000E+00 -0.63448648172E+03  0.63448648174E+03  0.50400001928E-02 0. -1.
    10030    2    1    2    0    0  0.00000000000E+00  0.00000000000E+00  0.36954950769E+03  0.16385224712E+04  0.15963048111E+04 0.  0.
        2    1    3    3  502    0 -0.26520590595E+03 -0.74653520185E+03  0.28428340115E+03  0.84170424278E+03  0.25500000920E-02 0.  1.
       -2    1    3    3    0  502  0.26520590595E+03  0.74653520185E+03  0.85266106543E+02  0.79681822838E+03  0.25500000920E-02 0. -1.
</event>
<event>
 5   0  0.8620155E-05  0.1597452E+04  0.7818609E-02  0.8822115E-01
       -2   -1    0    0    0  501  0.00000000000E+00  0.00000000000E+00  0.37418536330E+03  0.37418536331E+03  0.25500000920E-02 0. -1.
        2   -1    0    0  501    0  0.00000000000E+00  0.00000000000E+00 -0.17049394655E+04  0.17049394655E+04  0.25500000920E-02 0.  1.
    10030    2    1    2    0    0  0.00000000000E+00  0.00000000000E+00 -0.13307541022E+04  0.20791248288E+04  0.15974522131E+04 0.  0.
        4    1    3    3  502    0 -0.77559756522E+03 -0.12178215266E+03 -0.85656979723E+03  0.11619362746E+04  0.12699999809E+01 0. -1.
       -4    1    3    3    0  502  0.77559756522E+03  0.12178215266E+03 -0.47418430493E+03  0.91718855413E+03  0.12699999809E+01 0.  1.
</event>
<event>
 5   0  0.4373026E-05  0.1598310E+04  0.7818609E-02  0.8821587E-01
       -1   -1    0    0    0  501  0.00000000000E+00  0.00000000000E+00  0.55282251814E+03  0.55282251816E+03  0.50400001928E-02 0.  1.
        1   -1    0    0  501    0  0.00000000000E+00  0.00000000000E+00 -0.11552506768E+04  0.11552506768E+04  0.50400001928E-02 0. -1.
    10030    2    1    2    0    0  0.00000000000E+00  0.00000000000E+00 -0.60242815868E+03  0.17080731950E+04  0.15983098426E+04 0.  0.
        4    1    3    3  502    0  0.42425290654E+03 -0.41756673569E+03 -0.87102360843E+03  0.10550053302E+04  0.12699999809E+01 0. -1.
       -4    1    3    3    0  502 -0.42425290654E+03  0.41756673569E+03  0.26859544975E+03  0.65306786476E+03  0.12699999809E+01 0.  1.
</event>
<event>
 5   0  0.4314657E-05  0.1594793E+04  0.7818609E-02  0.8823753E-01
       -1   -1    0    0    0  501  0.00000000000E+00  0.00000000000E+00  0.34888420388E+03  0.34888420392E+03  0.50400001928E-02 0. -1.
        1   -1    0    0  501    0  0.00000000000E+00  0.00000000000E+00 -0.18225000751E+04  0.18225000751E+04  0.50400001928E-02 0.  1.
    10030    2    1    2    0    0  0.00000000000E+00  0.00000000000E+00 -0.14736158713E+04  0.21713842791E+04  0.15947933883E+04 0.  0.
        5    1    3    3  502    0 -0.52548628150E+03 -0.54609604727E+03 -0.10743578362E+04  0.13147713014E+04  0.46999998093E+01 0.  1.
       -5    1    3    3    0  502  0.52548628150E+03  0.54609604727E+03 -0.39925803507E+03  0.85661297763E+03  0.46999998093E+01 0. -1.
</event>
<event>
 5   0  0.3042125E-05  0.1602899E+04  0.7818609E-02  0.8818769E-01
       -4   -1    0    0    0  501  0.00000000000E+00  0.00000000000E+00  0.89722143375E+03  0.89722233258E+03  0.12699999809E+01 0.  1.
        4   -1    0    0  501    0  0.00000000000E+00  0.00000000000E+00 -0.71589904941E+03  0.71590017589E+03  0.12699999809E+01 0. -1.
    10030    2    1    2    0    0  0.00000000000E+00  0.00000000000E+00  0.18132238434E+03  0.16131225085E+04  0.16028993793E+04 0.  0.
        3    1    3    3  502    0 -0.58247255034E+03 -0.16401416416E+03  0.61950935631E+03  0.86600621863E+03  0.10100000352E+00 0.  1.
       -3    1    3    3    0  502  0.58247255034E+03  0.16401416416E+03 -0.43818697197E+03  0.74711628984E+03  0.10100000352E+00 0. -1.
</event>
<event>
 5   0  0.8694033E-05  0.1601227E+04  0.7818609E-02  0.8819795E-01
       -2   -1    0    0    0  501  0.00000000000E+00  0.00000000000E+00  0.54391220251E+03  0.54391220251E+03  0.25500000920E-02 0. -1.
        2   -1    0    0  501    0  0.00000000000E+00  0.00000000000E+00 -0.11784655409E+04  0.11784655409E+04  0.25500000920E-02 0.  1.
    10030    2    1    2    0    0  0.00000000000E+00  0.00000000000E+00 -0.63455333838E+03  0.17223777434E+04  0.16012267646E+04 0.  0.
        1    1    3    3  502    0  0.37934138102E+03  0.33906149749E+02  0.44023050740E+03  0.58211030743E+03  0.50400001928E-02 0. -1.
       -1    1    3    3    0  502 -0.37934138102E+03 -0.33906149749E+02 -0.10747838458E+04  0.11402674360E+04  0.50400001928E-02 0.  1.
</event>
<event>
 5   0  0.7849690E-05  0.1610237E+04  0.7818609E-02  0.8814284E-01
       -2   -1    0    0    0  501  0.00000000000E+00  0.00000000000E+00  0.25841668356E+03  0.25841668357E+03  0.25500000920E-02 0. -1.
        2   -1    0    0  501    0  0.00000000000E+00  0.00000000000E+00 -0.25084128187E+04  0.25084128187E+04  0.25500000920E-02 0.  1.
    10030    2    1    2    0    0  0.00000000000E+00  0.00000000000E+00 -0.22499961351E+04  0.27668295022E+04  0.16102369038E+04 0.  0.
        3    1    3    3  502    0  0.21243588456E+03 -0.33981383922E+03 -0.23248575172E+04  0.23591449586E+04  0.10100000352E+00 0.  1.
       -3    1    3    3    0  502 -0.21243588456E+03  0.33981383922E+03  0.74861382088E+02  0.40768454361E+03  0.10100000352E+00 0. -1.
</event>
<event>
 5   0  0.7849690E-05  0.1599181E+04  0.7818609E-02  0.8821051E-01
        2   -1    0    0  501    0  0.00000000000E+00  0.00000000000E+00  0.90521254979E+03  0.90521254980E+03  0.25500000920E-02 0.  1.
       -2   -1    0    0    0  501  0.00000000000E+00  0.00000000000E+00 -0.70629271625E+03  0.70629271625E+03  0.25500000920E-02 0. -1.
    10030    2    1    2    0    0  0.00000000000E+00  0.00000000000E+00  0.19891983354E+03  0.16115052661E+04  0.15991810787E+04 0.  0.
        3    1    3    3  502    0  0.31915680359E+03  0.12125416837E+03  0.82806826431E+03  0.89569006870E+03  0.10100000352E+00 0.  1.
       -3    1    3    3    0  502 -0.31915680359E+03 -0.12125416837E+03 -0.62914843076E+03  0.71581519735E+03  0.10100000352E+00 0. -1.
</event>
<event>
 5   0  0.4373026E-05  0.1606201E+04  0.7818609E-02  0.8816748E-01
        1   -1    0    0  501    0  0.00000000000E+00  0.00000000000E+00  0.51479791312E+03  0.51479791314E+03  0.50400001928E-02 0. -1.
       -1   -1    0    0    0  501  0.00000000000E+00  0.00000000000E+00 -0.12528612848E+04  0.12528612848E+04  0.50400001928E-02 0.  1.
    10030    2    1    2    0    0  0.00000000000E+00  0.00000000000E+00 -0.73806337169E+03  0.17676591980E+04  0.16062009524E+04 0.  0.
        4    1    3    3  502    0  0.41637867339E+03  0.63585072183E+03 -0.65451354138E+03  0.10030288774E+04  0.12699999809E+01 0.  1.
       -4    1    3    3    0  502 -0.41637867339E+03 -0.63585072183E+03 -0.83549830303E+02  0.76463032058E+03  0.12699999809E+01 0. -1.
</event>
<event>
 5   0  0.8694033E-05  0.1600241E+04  0.7818609E-02  0.8820400E-01
       -2   -1    0    0    0  501  0.00000000000E+00  0.00000000000E+00  0.38101627741E+03  0.38101627742E+03  0.25500000920E-02 0. -1.
        2   -1    0    0  501    0  0.00000000000E+00  0.00000000000E+00 -0.16802238953E+04  0.16802238953E+04  0.25500000920E-02 0.  1.
    10030    2    1    2    0    0  0.00000000000E+00  0.00000000000E+00 -0.12992076179E+04  0.20612401728E+04  0.16002407992E+04 0.  0.
        1    1    3    3  502    0 -0.47498736713E+03 -0.13739874363E+03 -0.14598685950E+04  0.15413331010E+04  0.50400001928E-02 0.  1.
       -1    1    3    3    0  502  0.47498736713E+03  0.13739874363E+03  0.16066097704E+03  0.51990707175E+03  0.50400001928E-02 0. -1.
</event>
<event>
 5   0  0.4211419E-05  0.1598083E+04  0.7818609E-02  0.8821727E-01
        1   -1    0    0  501    0  0.00000000000E+00  0.00000000000E+00  0.86560603612E+03  0.86560603614E+03  0.50400001928E-02 0.  1.
       -1   -1    0    0    0  501  0.00000000000E+00  0.00000000000E+00 -0.73759560372E+03  0.73759560373E+03  0.50400001928E-02 0. -1.
    10030    2    1    2    0    0  0.00000000000E+00  0.00000000000E+00  0.12801043241E+03  0.16032016399E+04  0.15980828600E+04 0.  0.
        2    1    3    3  502    0  0.31642871978E+03  0.31695647498E+03  0.72784877786E+03  0.85460656747E+03  0.25500000920E-02 0.  1.
       -2    1    3    3    0  502 -0.31642871978E+03 -0.31695647498E+03 -0.59983834545E+03  0.74859507240E+03  0.25500000920E-02 0. -1.
</event>
<event>
 5   0  0.4504463E-05  0.1594660E+04  0.7818609E-02  0.8823835E-01
        1   -1    0    0  501    0  0.00000000000E+00  0.00000000000E+00  0.88549742472E+03  0.88549742473E+03  0.50400001928E-02 0. -1.
       -1   -1    0    0    0  501  0.00000000000E+00  0.00000000000E+00 -0.71794166488E+03  0.71794166490E+03  0.50400001928E-02 0.  1.
    10030    2    1    2    0    0  0.00000000000E+00  0.00000000000E+00  0.16755575983E+03  0.16034390896E+04  0.15946604596E+04 0.  0.
        1    1    3    3  502    0 -0.55815225438E+03  0.41321156663E+02  0.65478975507E+03  0.86138899483E+03  0.50400001928E-02 0. -1.
       -1    1    3    3    0  502  0.55815225438E+03 -0.41321156663E+02 -0.48723399523E+03  0.74205009480E+03  0.50400001928E-02 0.  1.
</event>
<event>
 5   0  0.4314657E-05  0.1595099E+04  0.7818609E-02  0.8823564E-01
       -1   -1    0    0    0  501  0.00000000000E+00  0.00000000000E+00  0.74159934531E+03  0.74159934533E+03  0.50400001928E-02 0. -1.
        1   -1    0    0  501    0  0.00000000000E+00  0.00000000000E+00 -0.85772097650E+03  0.85772097652E+03  0.50400001928E-02 0.  1.
    10030    2    1    2    0    0  0.00000000000E+00  0.00000000000E+00 -0.11612163119E+03  0.15993203218E+04  0.15950991376E+04 0.  0.
        5    1    3    3  502    0  0.31851664683E+03  0.56207550209E+03  0.41081064398E+03  0.76561687518E+03  0.46999998093E+01 0. -1.
       -5    1    3    3    0  502 -0.31851664683E+03 -0.56207550209E+03 -0.52693227517E+03  0.83370344666E+03  0.46999998093E+01 0.  1.
</event>
<event>
 5   0  0.7901257E-05  0.1597631E+04  0.7818609E-02  0.8822005E-01
       -2   -1    0    0    0  501  0.00000000000E+00  0.00000000000E+00  0.26217953998E+03  0.26217953999E+03  0.25500000920E-02 0.  1.
        2   -1    0    0  501    0  0.00000000000E+00  0.00000000000E+00 -0.24338528296E+04  0.24338528296E+04  0.25500000920E-02 0. -1.
    10030    2    1    2    0    0  0.00000000000E+00  0.00000000000E+00 -0.21716732896E+04  0.26960323696E+04  0.15976312657E+04 0.  0.
        2    1    3    3  502    0 -0.38339262669E+03  0.37312046561E+03 -0.20868888354E+04  0.21543708593E+04  0.25500000920E-02 0. -1.
       -2    1    3    3    0  502  0.38339262669E+03 -0.37312046561E+03 -0.84784454230E+02  0.54166151030E+03  0.25500000920E-02 0.  1.
</event>
<event>
 5   0  0.8694033E-05  0.1597078E+04  0.7818609E-02  0.8822345E-01
        2   -1    0    0  501    0  0.00000000000E+00  0.00000000000E+00  0.76668414413E+03  0.76668414414E+03  0.25500000920E-02 0.  1.
       -2   -1    0    0    0  501  0.00000000000E+00  0.00000000000E+00 -0.83171762147E+03  0.83171762147E+03  0.25500000920E-02 0. -1.
    10030    2    1    2    0    0  0.00000000000E+00  0.00000000000E+00 -0.65033477337E+02  0.15984017656E+04  0.15970782232E+04 0.  0.
        1    1    3    3  502    0 -0.15421275273E+03 -0.46402493913E+03  0.59932570293E+03  0.77349338423E+03  0.50400001928E-02 0.  1.
       -1    1    3    3    0  502  0.15421275273E+03  0.46402493913E+03 -0.66435918027E+03  0.82490838138E+03  0.50400001928E-02 0. -1.
</event>
<event>
 5   0  0.8037548E-05  0.1601358E+04  0.7818609E-02  0.8819714E-01
        2   -1    0    0  501    0  0.00000000000E+00  0.00000000000E+00  0.90482244056E+03  0.90482244057E+03  0.25500000920E-02 0. -1.
       -2   -1    0    0    0  501  0.00000000000E+00  0.00000000000E+00 -0.70852256072E+03  0.70852256072E+03  0.25500000920E-02 0.  1.
    10030    2    1    2    0    0  0.00000000000E+00  0.00000000000E+00  0.19629987985E+03  0.16133450013E+04  0.16013583142E+04 0.  0.
        5    1    3    3  502    0 -0.78289588701E+03  0.11975495260E+03 -0.20193370816E+02  0.79227336242E+03  0.46999998093E+01 0. -1.
       -5    1    3    3    0  502  0.78289588701E+03 -0.11975495260E+03  0.21649325066E+03  0.82107163887E+03  0.46999998093E+01 0.  1.
</event>
<event>
 5   0  0.3042125E-05  0.1599176E+04  0.7818609E-02  0.8821055E-01
       -3   -1    0    0    0  501  0.00000000000E+00  0.00000000000E+00  0.86914309067E+03  0.86914309653E+03  0.10100000352E+00 0. -1.
        3   -1    0    0  501    0  0.00000000000E+00  0.00000000000E+00 -0.73559895388E+03  0.73559896081E+03  0.10100000352E+00 0.  1.
    10030    2    1    2    0    0  0.00000000000E+00  0.00000000000E+00  0.13354413679E+03  0.16047420573E+04  0.15991757359E+04 0.  0.
        1    1    3    3  502    0 -0.25681276921E+03 -0.58219979911E+03  0.55263849589E+03  0.84280407669E+03  0.50400001928E-02 0. -1.
       -1    1    3    3    0  502  0.25681276921E+03  0.58219979911E+03 -0.41909435911E+03  0.76193798066E+03  0.50400001928E-02 0.  1.
</event>
<event>
 5   0  0.3042125E-05  0.1597606E+04  0.7818609E-02  0.8822020E-01
       -4   -1    0    0    0  501  0.00000000000E+00  0.00000000000E+00  0.10609869874E+04  0.10609877475E+04  0.12699999809E+01 0. -1.
        4   -1    0    0  501    0  0.00000000000E+00  0.00000000000E+00 -0.60140657909E+03  0.60140792003E+03  0.12699999809E+01 0.  1.
    10030    2    1    2    0    0  0.00000000000E+00  0.00000000000E+00  0.45958040831E+03  0.16623956675E+04  0.15976060853E+04 0.  0.
        1    1    3    3  502    0  0.43985510137E+02  0.18338990642E+03  0.10374906533E+04  0.10544920287E+04  0.50400001928E-02 0. -1.
       -1    1    3    3    0  502 -0.43985510137E+02 -0.18338990642E+03 -0.57791024496E+03  0.60790363885E+03  0.50400001928E-02 0.  1.
</event>
<event>
 5   0  0.8620155E-05  0.1607255E+04  0.7818609E-02  0.8816103E-01
        2   -1    0    0  501    0  0.00000000000E+00  0.00000000000E+00  0.10062750570E+04  0.10062750570E+04  0.25500000920E-02 0.  1.
       -2   -1    0    0    0  501  0.00000000000E+00  0.00000000000E+00 -0.64179020882E+03  0.64179020882E+03  0.25500000920E-02 0. -1.
    10030    2    1    2    0    0  0.00000000000E+00  0.00000000000E+00  0.36448484817E+03  0.16480652658E+04  0.16072553984E+04 0.  0.
        4    1    3    3  502    0  0.35947313865E+03  0.71287551519E+03  0.27624024107E+03  0.84482111790E+03  0.12699999809E+01 0. -1.
       -4    1    3    3    0  502 -0.35947313865E+03 -0.71287551519E+03  0.88244607102E+02  0.80324414791E+03  0.12699999809E+01 0.  1.
</event>
<event>
 5   0  0.8694033E-05  0.1570462E+04  0.7818609E-02  0.8838903E-01
       -2   -1    0    0    0  501  0.00000000000E+00  0.00000000000E+00  0.44327434582E+03  0.44327434583E+03  0.25500000920E-02 0.  1.
        2   -1    0    0  501    0  0.00000000000E+00  0.00000000000E+00 -0.13909845111E+04  0.13909845111E+04  0.25500000920E-02 0. -1.
    10030    2    1    2    0    0  0.00000000000E+00  0.00000000000E+00 -0.94771016529E+03  0.18342588569E+04  0.15704620329E+04 0.  0.
        1    1    3    3  502    0 -0.59300547143E+02  0.57091748416E+03  0.15199202463E+03  0.59377176102E+03  0.50400001928E-02 0.  1.
       -1    1    3    3    0  502  0.59300547143E+02 -0.57091748416E+03 -0.10997021899E+04  0.12404870959E+04  0.50400001928E-02 0. -1.
</event>
<event>
 5   0  0.4504463E-05  0.1603441E+04  0.7818609E-02  0.8818437E-01
       -1   -1    0    0    0  501  0.00000000000E+00  0.00000000000E+00  0.13827165536E+04  0.13827165536E+04  0.50400001928E-02 0.  1.
        1   -1    0    0  501    0  0.00000000000E+00  0.00000000000E+00 -0.46485018959E+03  0.46485018962E+03  0.50400001928E-02 0. -1.
    10030    2    1    2    0    0  0.00000000000E+00  0.00000000000E+00  0.91786636397E+03  0.18475667432E+04  0.16034413642E+04 0.  0.
        1    1    3    3  502    0  0.67575666647E+03 -0.11289507580E+03  0.93869547764E+03  0.11621280352E+04  0.50400001928E-02 0.  1.
       -1    1    3    3    0  502 -0.67575666647E+03  0.11289507580E+03 -0.20829113673E+02  0.68543870799E+03  0.50400001928E-02 0. -1.
</event>
<event>
 5   0  0.4314657E-05  0.1601827E+04  0.7818609E-02  0.8819426E-01
       -1   -1    0    0    0  501  0.00000000000E+00  0.00000000000E+00  0.69326257315E+03  0.69326257316E+03  0.50400001928E-02 0. -1.
        1   -1    0    0  501    0  0.00000000000E+00  0.00000000000E+00 -0.92528057968E+03  0.92528057969E+03  0.50400001928E-02 0.  1.
    10030    2    1    2    0    0  0.00000000000E+00  0.00000000000E+00 -0.23201800653E+03  0.16185431529E+04  0.16018269514E+04 0.  0.
        5    1    3    3  502    0  0.66715389332E+03 -0.44277923011E+03 -0.13329134131E+03  0.81174899794E+03  0.46999998093E+01 0.  1.
       -5    1    3    3    0  502 -0.66715389332E+03  0.44277923011E+03 -0.98726665229E+02  0.80679415492E+03  0.46999998093E+01 0. -1.
</event>
<event>
 5   0  0.8037548E-05  0.1599795E+04  0.7818609E-02  0.8820674E-01
       -2   -1    0    0    0  501  0.00000000000E+00  0.00000000000E+00  0.94056152942E+03  0.94056152943E+03  0.25500000920E-02 0.  1.
        2   -1    0    0  501    0  0.00000000000E+00  0.00000000000E+00 -0.68027010445E+03  0.68027010446E+03  0.25500000920E-02 0. -1.
    10030    2    1    2    0    0  0.00000000000E+00  0.00000000000E+00  0.26029142497E+03  0.16208316339E+04  0.15997948492E+04 0.  0.
        5    1    3    3  502    0  0.45963673179E+03 -0.62888171446E+02 -0.53003069617E+03  0.70439724317E+03  0.46999998093E+01 0. -1.
       -5    1    3    3    0  502 -0.45963673179E+03  0.62888171446E+02  0.79032212114E+03  0.91643439071E+03  0.46999998093E+01 0.  1.
</event>
<event>
 5   0  0.8037548E-05  0.1599408E+04  0.7818609E-02  0.8820911E-01
       -2   -1    0    0    0  501  0.00000000000E+00  0.00000000000E+00  0.48270590149E+03  0.48270590150E+03  0.25500000920E-02 0.  1.
        2   -1    0    0  501    0  0.00000000000E+00  0.00000000000E+00 -0.13248789065E+04  0.13248789065E+04  0.25500000920E-02 0. -1.
    10030    2    1    2    0    0  0.00000000000E+00  0.00000000000E+00 -0.84217300500E+03  0.18075848080E+04  0.15994084743E+04 0.  0.
        5    1    3    3  502    0  0.45672870779E+03  0.12949142118E+03  0.30620847986E+03  0.56493792917E+03  0.46999998093E+01 0.  1.
       -5    1    3    3    0  502 -0.45672870779E+03 -0.12949142118E+03 -0.11483814849E+04  0.12426468788E+04  0.46999998093E+01 0. -1.
</event>
<event>
 5   0  0.8037548E-05  0.1599549E+04  0.7818609E-02  0.8820825E-01
        2   -1    0    0  501    0  0.00000000000E+00  0.00000000000E+00  0.50308419469E+03  0.50308419469E+03  0.25500000920E-02 0.  1.
       -2   -1    0    0    0  501  0.00000000000E+00  0.00000000000E+00 -0.12714352735E+04  0.12714352735E+04  0.25500000920E-02 0. -1.
    10030    2    1    2    0    0  0.00000000000E+00  0.00000000000E+00 -0.76835107885E+03  0.17745194682E+04  0.15995486747E+04 0.  0.
        5    1    3    3  502    0  0.46436525220E+03  0.65036105065E+03 -0.41947284722E+03  0.90254315310E+03  0.46999998093E+01 0. -1.
       -5    1    3    3    0  502 -0.46436525220E+03 -0.65036105065E+03 -0.34887823163E+03  0.87197631513E+03  0.46999998093E+01 0.  1.
</event>
<event>
 5   0  0.8620155E-05  0.1621285E+04  0.7818609E-02  0.8807578E-01
       -2   -1    0    0    0  501  0.00000000000E+00  0.00000000000E+00  0.97847002175E+03  0.97847002175E+03  0.25500000920E-02 0. -1.
        2   -1    0    0  501    0  0.00000000000E+00  0.00000000000E+00 -0.67160053310E+03  0.67160053310E+03  0.25500000920E-02 0.  1.
    10030    2    1    2    0    0  0.00000000000E+00  0.00000000000E+00  0.30686948865E+03  0.16500705549E+04  0.16212846613E+04 0.  0.
        4    1    3    3  502    0  0.67625773125E+02 -0.66328317004E+03 -0.31586130401E+03  0.73775862253E+03  0.12699999809E+01 0.  1.
       -4    1    3    3    0  502 -0.67625773125E+02  0.66328317004E+03  0.62273079265E+03  0.91231193233E+03  0.12699999809E+01 0. -1.
</event>
<event>
 5   0  0.8620155E-05  0.1601727E+04  0.7818609E-02  0.8819488E-01
        2   -1    0    0  501    0  0.00000000000E+00  0.00000000000E+00  0.78822797476E+03  0.78822797477E+03  0.25500000920E-02 0. -1.
       -2   -1    0    0    0  501  0.00000000000E+00  0.00000000000E+00 -0.81370194155E+03  0.81370194155E+03  0.25500000920E-02 0.  1.
    10030    2    1    2    0    0  0.00000000000E+00  0.00000000000E+00 -0.25473966788E+02  0.16019299163E+04  0.16017273594E+04 0.  0.
        4    1    3    3  502    0 -0.36979094122E+03  0.62699178282E+03 -0.34672080279E+03  0.80627598496E+03  0.12699999809E+01 0.  1.
       -4    1    3    3    0  502  0.36979094122E+03 -0.62699178282E+03  0.32124683600E+03  0.79565393136E+03  0.12699999809E+01 0. -1.
</event>
<event>
 5   0  0.4314657E-05  0.1599923E+04  0.7818609E-02  0.8820595E-01
        1   -1    0    0  501    0  0.00000000000E+00  0.00000000000E+00  0.12246217280E+04  0.12246217280E+04  0.50400001928E-02 0.  1.
       -1   -1    0    0    0  501  0.00000000000E+00  0.00000000000E+00 -0.52255988472E+03  0.52255988475E+03  0.50400001928E-02 0. -1.
    10030    2    1    2    0    0  0.00000000000E+00  0.00000000000E+00  0.70206184324E+03  0.17471816127E+04  0.15999227344E+04 0.  0.
        5    1    3    3  502    0  0.20789609868E+03  0.18056698896E+03 -0.46915739318E+03  0.54401835900E+03  0.46999998093E+01 0. -1.
       -5    1    3    3    0  502 -0.20789609868E+03 -0.18056698896E+03  0.11712192364E+04  0.12031632537E+04  0.46999998093E+01 0.  1.
</event>
<event>
 5   0  0.7849690E-05  0.1600183E+04  0.7818609E-02  0.8820436E-01
        2   -1    0    0  501    0  0.00000000000E+00  0.00000000000E+00  0.11775855106E+04  0.11775855106E+04  0.25500000920E-02 0.  1.
       -2   -1    0    0    0  501  0.00000000000E+00  0.00000000000E+00 -0.54360924618E+03  0.54360924619E+03  0.25500000920E-02 0. -1.
    10030    2    1    2    0    0  0.00000000000E+00  0.00000000000E+00  0.63397626441E+03  0.17211947568E+04  0.16001829542E+04 0.  0.
        3    1    3    3  502    0  0.24144120216E+03  0.14634735647E+03  0.11222237626E+04  0.11571938414E+04  0.10100000352E+00 0.  1.
       -3    1    3    3    0  502 -0.24144120216E+03 -0.14634735647E+03 -0.48824749824E+03  0.56400091541E+03  0.10100000352E+00 0. -1.
</event>
<event>
 5   0  0.7901257E-05  0.1624658E+04  0.7818609E-02  0.8805541E-01
        2   -1    0    0  501    0  0.00000000000E+00  0.00000000000E+00  0.13696990325E+04  0.13696990325E+04  0.25500000920E-02 0. -1.
       -2   -1    0    0    0  501  0.00000000000E+00  0.00000000000E+00 -0.48176914830E+03  0.48176914831E+03  0.25500000920E-02 0.  1.
    10030    2    1    2    0    0  0.00000000000E+00  0.00000000000E+00  0.88792988422E+03  0.18514681808E+04  0.16246584088E+04 0.  0.
        2    1    3    3  502    0 -0.36991258521E+03 -0.34578779464E+03 -0.27990756712E+03  0.57857822786E+03  0.25500000920E-02 0.  1.
       -2    1    3    3    0  502  0.36991258521E+03  0.34578779464E+03  0.11678374513E+04  0.12728899530E+04  0.25500000920E-02 0. -1.
</event>
<event>
 5   0  0.4256406E-05  0.1600990E+04  0.7818609E-02  0.8819940E-01
        1   -1    0    0  501    0  0.00000000000E+00  0.00000000000E+00  0.14026055093E+04  0.14026055093E+04  0.50400001928E-02 0.  1.
       -1   -1    0    0    0  501  0.00000000000E+00  0.00000000000E+00 -0.45685850857E+03  0.45685850859E+03  0.50400001928E-02 0. -1.
    10030    2    1    2    0    0  0.00000000000E+00  0.00000000000E+00  0.94574700069E+03  0.18594640179E+04  0.16009900201E+04 0.  0.
        3    1    3    3  502    0 -0.14799434284E+03  0.47917382193E+02 -0.43913471070E+03  0.46587305715E+03  0.10100000352E+00 0. -1.
       -3    1    3    3    0  502  0.14799434284E+03 -0.47917382193E+02  0.13848817114E+04  0.13935909607E+04  0.10100000352E+00 0.  1.
</event>
<event>
 5   0  0.8037548E-05  0.1597712E+04  0.7818609E-02  0.8821955E-01
        2   -1    0    0  501    0  0.00000000000E+00  0.00000000000E+00  0.98471946724E+03  0.98471946724E+03  0.25500000920E-02 0.  1.
       -2   -1    0    0    0  501  0.00000000000E+00  0.00000000000E+00 -0.64807378522E+03  0.64807378522E+03  0.25500000920E-02 0. -1.
    10030    2    1    2    0    0  0.00000000000E+00  0.00000000000E+00  0.33664568202E+03  0.16327932525E+04  0.15977119547E+04 0.  0.
        5    1    3    3  502    0  0.75522458327E+03  0.20569979555E+03  0.52183246865E+01  0.78276809974E+03  0.46999998093E+01 0. -1.
       -5    1    3    3    0  502 -0.75522458327E+03 -0.20569979555E+03  0.33142735734E+03  0.85002515272E+03  0.46999998093E+01 0.  1.
</event>
<event>
 5   0  0.7901257E-05  0.1601471E+04  0.7818609E-02  0.8819645E-01
        2   -1    0    0  501    0  0.00000000000E+00  0.00000000000E+00  0.12846868534E+04  0.12846868534E+04  0.25500000920E-02 0. -1.
       -2   -1    0    0    0  501  0.00000000000E+00  0.00000000000E+00 -0.49909227939E+03  0.49909227939E+03  0.25500000920E-02 0.  1.
    10030    2    1    2    0    0  0.00000000000E+00  0.00000000000E+00  0.78559457402E+03  0.17837791328E+04  0.16014709363E+04 0.  0.
        2    1    3    3  502    0 -0.37289877876E+03  0.57298160924E+03 -0.71575462339E+02  0.68737505813E+03  0.25500000920E-02 0.  1.
       -2    1    3    3    0  502  0.37289877876E+03 -0.57298160924E+03  0.85717003636E+03  0.10964040747E+04  0.25500000920E-02 0. -1.
</event>
<event>
 5   0  0.4504463E-05  0.1618278E+04  0.7818609E-02  0.8809397E-01
        1   -1    0    0  501    0  0.00000000000E+00  0.00000000000E+00  0.17807916577E+04  0.17807916577E+04  0.50400001928E-02 0. -1.
       -1   -1    0    0    0  501  0.00000000000E+00  0.00000000000E+00 -0.36764878423E+03  0.36764878427E+03  0.50400001928E-02 0.  1.
    10030    2    1    2    0    0  0.00000000000E+00  0.00000000000E+00  0.14131428735E+04  0.21484404420E+04  0.16182779588E+04 0.  0.
        1    1    3    3  502    0  0.79776023932E+03 -0.13153504762E+03  0.74819615658E+03  0.11015990001E+04  0.50400001928E-02 0. -1.
       -1    1    3    3    0  502 -0.79776023932E+03  0.13153504762E+03  0.66494671689E+03  0.10468414419E+04  0.50400001928E-02 0.  1.
</event>
<event>
 5   0  0.8037548E-05  0.1599367E+04  0.7818609E-02  0.8820937E-01
        2   -1    0    0  501    0  0.00000000000E+00  0.00000000000E+00  0.18897815234E+04  0.18897815234E+04  0.25500000920E-02 0. -1.
       -2   -1    0    0    0  501  0.00000000000E+00  0.00000000000E+00 -0.33839559578E+03  0.33839559579E+03  0.25500000920E-02 0.  1.
    10030    2    1    2    0    0  0.00000000000E+00  0.00000000000E+00  0.15513859276E+04  0.22281771192E+04  0.15993670554E+04 0.  0.
        5    1    3    3  502    0 -0.24578789819E+03 -0.73926253816E+03  0.10270452384E+04  0.12890945671E+04  0.46999998093E+01 0. -1.
       -5    1    3    3    0  502  0.24578789819E+03  0.73926253816E+03  0.52434068918E+03  0.93908255204E+03  0.46999998093E+01 0.  1.
</event>
<event>
 5   0  0.8037548E-05  0.1601949E+04  0.7818609E-02  0.8819352E-01
       -2   -1    0    0    0  501  0.00000000000E+00  0.00000000000E+00  0.10288116321E+04  0.10288116321E+04  0.25500000920E-02 0. -1.
        2   -1    0    0  501    0  0.00000000000E+00  0.00000000000E+00 -0.62359318073E+03  0.62359318074E+03  0.25500000920E-02 0.  1.
    10030    2    1    2    0    0  0.00000000000E+00  0.00000000000E+00  0.40521845136E+03  0.16524048128E+04  0.16019487108E+04 0.  0.
        5    1    3    3  502    0 -0.70139988564E+03  0.25961034965E+03 -0.93087785739E+02  0.75368876805E+03  0.46999998093E+01 0.  1.
       -5    1    3    3    0  502  0.70139988564E+03 -0.25961034965E+03  0.49830623710E+03  0.89871604479E+03  0.46999998093E+01 0. -1.
</event>
<event>
 5   0  0.7849690E-05  0.1567748E+04  0.7818609E-02  0.8840610E-01
        2   -1    0    0  501    0  0.00000000000E+00  0.00000000000E+00  0.16357303490E+04  0.16357303490E+04  0.25500000920E-02 0. -1.
       -2   -1    0    0    0  501  0.00000000000E+00  0.00000000000E+00 -0.37564789241E+03  0.37564789242E+03  0.25500000920E-02 0.  1.
    10030    2    1    2    0    0  0.00000000000E+00  0.00000000000E+00  0.12600824566E+04  0.20113782414E+04  0.15677482683E+04 0.  0.
        3    1    3    3  502    0  0.11333615822E+03  0.69369176055E+03  0.18485653029E+03  0.72679109131E+03  0.10100000352E+00 0. -1.
       -3    1    3    3    0  502 -0.11333615822E+03 -0.69369176055E+03  0.10752259263E+04  0.12845871501E+04  0.10100000352E+00 0.  1.
</event>
<event>
 5   0  0.4211419E-05  0.1600701E+04  0.7818609E-02  0.8820117E-01
        1   -1    0    0  501    0  0.00000000000E+00  0.00000000000E+00  0.97427420704E+03  0.97427420705E+03  0.50400001928E-02 0. -1.
       -1   -1    0    0    0  501  0.00000000000E+00  0.00000000000E+00 -0.65747526814E+03  0.65747526815E+03  0.50400001928E-02 0.  1.
    10030    2    1    2    0    0  0.00000000000E+00  0.00000000000E+00  0.31679893891E+03  0.16317494752E+04  0.16007013407E+04 0.  0.
        2    1    3    3  502    0  0.70965501425E+03  0.27635184445E+03  0.40930487018E+03  0.86458721824E+03  0.25500000920E-02 0. -1.
       -2    1    3    3    0  502 -0.70965501425E+03 -0.27635184445E+03 -0.92505931278E+02  0.76716225697E+03  0.25500000920E-02 0.  1.
</event>
<event>
 5   0  0.4314657E-05  0.1600284E+04  0.7818609E-02  0.8820374E-01
       -1   -1    0    0    0  501  0.00000000000E+00  0.00000000000E+00  0.12233633199E+04  0.12233633199E+04  0.50400001928E-02 0. -1.
        1   -1    0    0  501    0  0.00000000000E+00  0.00000000000E+00 -0.52333347601E+03  0.52333347603E+03  0.50400001928E-02 0.  1.
    10030    2    1    2    0    0  0.00000000000E+00  0.00000000000E+00  0.70002984392E+03  0.17466967960E+04  0.16002836982E+04 0.  0.
        5    1    3    3  502    0 -0.40229052596E+03  0.64138819022E+03  0.63251617600E+03  0.98656742331E+03  0.46999998093E+01 0. -1.
       -5    1    3    3    0  502  0.40229052596E+03 -0.64138819022E+03  0.67513667918E+02  0.76012937266E+03  0.46999998093E+01 0.  1.
</event>
<event>
 5   0  0.7901257E-05  0.1606362E+04  0.7818609E-02  0.8816649E-01
        2   -1    0    0  501    0  0.00000000000E+00  0.00000000000E+00  0.15703555942E+04  0.15703555942E+04  0.25500000920E-02 0. -1.
       -2   -1    0    0    0  501  0.00000000000E+00  0.00000000000E+00 -0.41079826498E+03  0.41079826499E+03  0.25500000920E-02 0.  1.
    10030    2    1    2    0    0  0.00000000000E+00  0.00000000000E+00  0.11595573293E+04  0.19811538592E+04  0.16063615453E+04 0.  0.
        2    1    3    3  502    0 -0.48591403277E+03 -0.19128890705E+02 -0.20860068951E+03  0.52914327868E+03  0.25500000920E-02 0.  1.
       -2    1    3    3    0  502  0.48591403277E+03  0.19128890705E+02  0.13681580188E+04  0.14520105806E+04  0.25500000920E-02 0. -1.
</event>
<event>
 5   0  0.8694033E-05  0.1599091E+04  0.7818609E-02  0.8821107E-01
        2   -1    0    0  501    0  0.00000000000E+00  0.00000000000E+00  0.92456831537E+03  0.92456831537E+03  0.25500000920E-02 0. -1.
       -2   -1    0    0    0  501  0.00000000000E+00  0.00000000000E+00 -0.69142834764E+03  0.69142834764E+03  0.25500000920E-02 0.  1.
    10030    2    1    2    0    0  0.00000000000E+00  0.00000000000E+00  0.23313996773E+03  0.16159966630E+04  0.15990906698E+04 0.  0.
        1    1    3    3  502    0  0.15306310740E+03  0.69751790127E+03  0.47997323503E+03  0.86042654760E+03  0.50400001928E-02 0. -1.
       -1    1    3    3    0  502 -0.15306310740E+03 -0.69751790127E+03 -0.24683326729E+03  0.75557011542E+03  0.50400001928E-02 0.  1.
</event>
<event>
 5   0  0.4211419E-05  0.1596071E+04  0.7818609E-02  0.8822965E-01
        1   -1    0    0  501    0  0.00000000000E+00  0.00000000000E+00  0.15118506736E+04  0.15118506736E+04  0.50400001928E-02 0. -1.
       -1   -1    0    0    0  501  0.00000000000E+00  0.00000000000E+00 -0.42124571263E+03  0.42124571266E+03  0.50400001928E-02 0.  1.
    10030    2    1    2    0    0  0.00000000000E+00  0.00000000000E+00  0.10906049610E+04  0.19330963863E+04  0.15960709438E+04 0.  0.
        2    1    3    3  502    0 -0.40033025995E+03  0.67528621215E+03  0.71907254018E+03  0.10645849442E+04  0.25500000920E-02 0. -1.
       -2    1    3    3    0  502  0.40033025995E+03 -0.67528621215E+03  0.37153242082E+03  0.86851144211E+03  0.25500000920E-02 0.  1.
</event>
<event>
 5   0  0.4256406E-05  0.1590875E+04  0.7818609E-02  0.8826174E-01
       -1   -1    0    0    0  501  0.00000000000E+00  0.00000000000E+00  0.45738027593E+03  0.45738027596E+03  0.50400001928E-02 0. -1.
        1   -1    0    0  501    0  0.00000000000E+00  0.00000000000E+00 -0.13833576281E+04  0.13833576281E+04  0.50400001928E-02 0.  1.
    10030    2    1    2    0    0  0.00000000000E+00  0.00000000000E+00 -0.92597735214E+03  0.18407379040E+04  0.15908745943E+04 0.  0.
        3    1    3    3  502    0  0.78874076641E+03 -0.36688277419E+02 -0.35163126755E+03  0.86435096159E+03  0.10100000352E+00 0. -1.
       -3    1    3    3    0  502 -0.78874076641E+03  0.36688277419E+02 -0.57434608460E+03  0.97638694245E+03  0.10100000352E+00 0.  1.
</event>
<event>
 5   0  0.7901257E-05  0.1644835E+04  0.7818609E-02  0.8793468E-01
        2   -1    0    0  501    0  0.00000000000E+00  0.00000000000E+00  0.11771618175E+04  0.11771618175E+04  0.25500000920E-02 0.  1.
       -2   -1    0    0    0  501  0.00000000000E+00  0.00000000000E+00 -0.57457751499E+03  0.57457751499E+03  0.25500000920E-02 0. -1.
    10030    2    1    2    0    0  0.00000000000E+00  0.00000000000E+00  0.60258430247E+03  0.17517393325E+04  0.16448352037E+04 0.  0.
        2    1    3    3  502    0 -0.46576857420E+03 -0.36886698063E+03  0.90690526687E+03  0.10841957283E+04  0.25500000920E-02 0.  1.
       -2    1    3    3    0  502  0.46576857420E+03  0.36886698063E+03 -0.30432096440E+03  0.66754360418E+03  0.25500000920E-02 0. -1.
</event>
<event>
 5   0  0.4504463E-05  0.1601664E+04  0.7818609E-02  0.8819526E-01
       -1   -1    0    0    0  501  0.00000000000E+00  0.00000000000E+00  0.70884490194E+03  0.70884490196E+03  0.50400001928E-02 0. -1.
        1   -1    0    0  501    0  0.00000000000E+00  0.00000000000E+00 -0.90475647659E+03  0.90475647660E+03  0.50400001928E-02 0.  1.
    10030    2    1    2    0    0  0.00000000000E+00  0.00000000000E+00 -0.19591157465E+03  0.16136013786E+04  0.16016641545E+04 0.  0.
        1    1    3    3  502    0  0.50999918631E+03 -0.24583705200E+03 -0.66856652819E+03  0.87608003562E+03  0.50400001928E-02 0.  1.
       -1    1    3    3    0  502 -0.50999918631E+03  0.24583705200E+03  0.47265495354E+03  0.73752134295E+03  0.50400001928E-02 0. -1.
</event>
<event>
 5   0  0.4504463E-05  0.1598556E+04  0.7818609E-02  0.8821436E-01
       -1   -1    0    0    0  501  0.00000000000E+00  0.00000000000E+00  0.48857125325E+03  0.48857125328E+03  0.50400001928E-02 0.  1.
        1   -1    0    0  501    0  0.00000000000E+00  0.00000000000E+00 -0.13075778762E+04  0.13075778762E+04  0.50400001928E-02 0. -1.
    10030    2    1    2    0    0  0.00000000000E+00  0.00000000000E+00 -0.81900662290E+03  0.17961491294E+04  0.15985555501E+04 0.  0.
        1    1    3    3  502    0  0.40785199291E+03  0.38985472979E+03  0.22661638233E+03  0.60801722281E+03  0.50400001928E-02 0.  1.
       -1    1    3    3    0  502 -0.40785199291E+03 -0.38985472979E+03 -0.10456230052E+04  0.11881319066E+04  0.50400001928E-02 0. -1.
</event>
<event>
 5   0  0.4211419E-05  0.1597333E+04  0.7818609E-02  0.8822188E-01
        1   -1    0    0  501    0  0.00000000000E+00  0.00000000000E+00  0.71718889682E+03  0.71718889684E+03  0.50400001928E-02 0.  1.
       -1   -1    0    0    0  501  0.00000000000E+00  0.00000000000E+00 -0.88940023350E+03  0.88940023352E+03  0.50400001928E-02 0. -1.
    10030    2    1    2    0    0  0.00000000000E+00  0.00000000000E+00 -0.17221133668E+03  0.16065891304E+04  0.15973327422E+04 0.  0.
        2    1    3    3  502    0  0.64653218308E+03 -0.35757970375E+03  0.21896846304E+03  0.77059347007E+03  0.25500000920E-02 0.  1.
       -2    1    3    3    0  502 -0.64653218308E+03  0.35757970375E+03 -0.39117979972E+03  0.83599566029E+03  0.25500000920E-02 0. -1.
</event>
<event>
 5   0  0.8620155E-05  0.1600260E+04  0.7818609E-02  0.8820388E-01
       -2   -1    0    0    0  501  0.00000000000E+00  0.00000000000E+00  0.37522169491E+03  0.37522169492E+03  0.25500000920E-02 0.  1.
        2   -1    0    0  501    0  0.00000000000E+00  0.00000000000E+00 -0.17062128530E+04  0.17062128530E+04  0.25500000920E-02 0. -1.
    10030    2    1    2    0    0  0.00000000000E+00  0.00000000000E+00 -0.13309911581E+04  0.20814345480E+04  0.16002600771E+04 0.  0.
        4    1    3    3  502    0 -0.45892725636E+03  0.62184600452E+03 -0.93489691782E+03  0.12129882686E+04  0.12699999809E+01 0. -1.
       -4    1    3    3    0  502  0.45892725636E+03 -0.62184600452E+03 -0.39609424031E+03  0.86844627933E+03  0.12699999809E+01 0.  1.
</event>
<event>
 5   0  0.3042125E-05  0.1603382E+04  0.7818609E-02  0.8818473E-01
        4   -1    0    0  501    0  0.00000000000E+00  0.00000000000E+00  0.69394973467E+03  0.69395089679E+03  0.12699999809E+01 0. -1.
       -4   -1    0    0    0  501  0.00000000000E+00  0.00000000000E+00 -0.92615811989E+03  0.92615899064E+03  0.12699999809E+01 0.  1.
    10030    2    1    2    0    0  0.00000000000E+00  0.00000000000E+00 -0.23220838522E+03  0.16201098874E+04  0.16033824600E+04 0.  0.
        2    1    3    3  502    0  0.20787638442E+03  0.40099589830E+03  0.55314896979E+03  0.71413169965E+03  0.25500000920E-02 0. -1.
       -2    1    3    3    0  502 -0.20787638442E+03 -0.40099589830E+03 -0.78535735501E+03  0.90597818777E+03  0.25500000920E-02 0.  1.
</event>
<event>
 5   0  0.8620155E-05  0.1621770E+04  0.7818609E-02  0.8807284E-01
       -2   -1    0    0    0  501  0.00000000000E+00  0.00000000000E+00  0.86360752534E+03  0.86360752534E+03  0.25500000920E-02 0.  1.
        2   -1    0    0  501    0  0.00000000000E+00  0.00000000000E+00 -0.76138136389E+03  0.76138136389E+03  0.25500000920E-02 0. -1.
    10030    2    1    2    0    0  0.00000000000E+00  0.00000000000E+00  0.10222616145E+03  0.16249888892E+04  0.16217702371E+04 0.  0.
        4    1    3    3  502    0 -0.46181601498E+03 -0.58798589650E+03  0.36563352012E+03  0.83228055973E+03  0.12699999809E+01 0. -1.
       -4    1    3    3    0  502  0.46181601498E+03  0.58798589650E+03 -0.26340735866E+03  0.79270832950E+03  0.12699999809E+01 0.  1.
</event>
<event>
 5   0  0.8694033E-05  0.1601442E+04  0.7818609E-02  0.8819663E-01
       -2   -1    0    0    0  501  0.00000000000E+00  0.00000000000E+00  0.62062524468E+03  0.62062524469E+03  0.25500000920E-02 0. -1.
        2   -1    0    0  501    0  0.00000000000E+00  0.00000000000E+00 -0.10330776087E+04  0.10330776087E+04  0.25500000920E-02 0.  1.
    10030    2    1    2    0    0  0.00000000000E+00  0.00000000000E+00 -0.41245236403E+03  0.16537028534E+04  0.16014419049E+04 0.  0.
        1    1    3    3  502    0 -0.62713324705E+03 -0.29055861989E+03 -0.62368822174E+03  0.93097122357E+03  0.50400001928E-02 0.  1.
       -1    1    3    3    0  502  0.62713324705E+03  0.29055861989E+03  0.21123585772E+03  0.72273162983E+03  0.50400001928E-02 0. -1.
</event>
<event>
 5   0  0.8037548E-05  0.1598672E+04  0.7818609E-02  0.8821364E-01
       -2   -1    0    0    0  501  0.00000000000E+00  0.00000000000E+00  0.89290489666E+03  0.89290489667E+03  0.25500000920E-02 0.  1.
        2   -1    0    0  501    0  0.00000000000E+00  0.00000000000E+00 -0.71557262323E+03  0.71557262324E+03  0.25500000920E-02 0. -1.
    10030    2    1    2    0    0  0.00000000000E+00  0.00000000000E+00  0.17733227343E+03  0.16084775199E+04  0.15986723232E+04 0.  0.
        5    1    3    3  502    0 -0.56876833999E+03 -0.53957373829E+03  0.24543890564E+03  0.82152272642E+03  0.46999998093E+01 0. -1.
       -5    1    3    3    0  502  0.56876833999E+03  0.53957373829E+03 -0.68106632207E+02  0.78695479348E+03  0.46999998093E+01 0.  1.
</event>
<event>
 5   0  0.7849690E-05  0.1624474E+04  0.7818609E-02  0.8805652E-01
        2   -1    0    0  501    0  0.00000000000E+00  0.00000000000E+00  0.23774300722E+04  0.23774300722E+04  0.25500000920E-02 0. -1.
       -2   -1    0    0    0  501  0.00000000000E+00  0.00000000000E+00 -0.27749669386E+03  0.27749669387E+03  0.25500000920E-02 0.  1.
    10030    2    1    2    0    0  0.00000000000E+00  0.00000000000E+00  0.20999333784E+04  0.26549267661E+04  0.16244740502E+04 0.  0.
        3    1    3    3  502    0  0.10738442722E+03  0.71909859162E+03  0.16417087762E+04  0.17955060333E+04  0.10100000352E+00 0. -1.
       -3    1    3    3    0  502 -0.10738442722E+03 -0.71909859162E+03  0.45822460215E+03  0.85942073275E+03  0.10100000352E+00 0.  1.
</event>
<event>
 5   0  0.8620155E-05  0.1600502E+04  0.7818609E-02  0.8820239E-01
       -2   -1    0    0    0  501  0.00000000000E+00  0.00000000000E+00  0.36870842987E+03  0.36870842988E+03  0.25500000920E-02 0. -1.
        2   -1    0    0  501    0  0.00000000000E+00  0.00000000000E+00 -0.17368791928E+04  0.17368791928E+04  0.25500000920E-02 0.  1.
    10030    2    1    2    0    0  0.00000000000E+00  0.00000000000E+00 -0.13681707629E+04  0.21055876227E+04  0.16005024212E+04 0.  0.
        4    1    3    3  502    0  0.10239761921E+03 -0.52565661592E+03  0.98214486941E+02  0.54447024586E+03  0.12699999809E+01 0. -1.
       -4    1    3    3    0  502 -0.10239761921E+03  0.52565661592E+03 -0.14663852499E+04  0.15611173768E+04  0.12699999809E+01 0.  1.
</event>
<event>
 5   0  0.4256406E-05  0.1589482E+04  0.7818609E-02  0.8827036E-01
        1   -1    0    0  501    0  0.00000000000E+00  0.00000000000E+00  0.10616372713E+04  0.10616372713E+04  0.50400001928E-02 0.  1.
       -1   -1    0    0    0  501  0.00000000000E+00  0.00000000000E+00 -0.59494293968E+03  0.59494293971E+03  0.50400001928E-02 0. -1.
    10030    2    1    2    0    0  0.00000000000E+00  0.00000000000E+00  0.46669433165E+03  0.16565802110E+04  0.15894824304E+04 0.  0.
        3    1    3    3  502    0 -0.36206522616E+03  0.85329313813E+02 -0.49861130415E+03  0.62208163662E+03  0.10100000352E+00 0. -1.
       -3    1    3    3    0  502  0.36206522616E+03 -0.85329313813E+02  0.96530563580E+03  0.10344985744E+04  0.10100000352E+00 0.  1.
</event>
<event>
 5   0  0.4211419E-05  0.1600539E+04  0.7818609E-02  0.8820217E-01
       -1   -1    0    0    0  501  0.00000000000E+00  0.00000000000E+00  0.74448513384E+03  0.74448513386E+03  0.50400001928E-02 0.  1.
        1   -1    0    0  501    0  0.00000000000E+00  0.00000000000E+00 -0.86023362210E+03  0.86023362212E+03  0.50400001928E-02 0. -1.
    10030    2    1    2    0    0  0.00000000000E+00  0.00000000000E+00 -0.11574848826E+03  0.16047187560E+04  0.16005388384E+04 0.  0.
        2    1    3    3  502    0  0.45731888814E+02 -0.74856017693E+03  0.22213525981E+03  0.78216227076E+03  0.25500000920E-02 0.  1.
       -2    1    3    3    0  502 -0.45731888814E+02  0.74856017693E+03 -0.33788374807E+03  0.82255648521E+03  0.25500000920E-02 0. -1.
</event>
<event>
 5   0  0.4314657E-05  0.1601701E+04  0.7818609E-02  0.8819504E-01
       -1   -1    0    0    0  501  0.00000000000E+00  0.00000000000E+00  0.91150155550E+03  0.91150155552E+03  0.50400001928E-02 0. -1.
        1   -1    0    0  501    0  0.00000000000E+00  0.00000000000E+00 -0.70363188761E+03  0.70363188763E+03  0.50400001928E-02 0.  1.
    10030    2    1    2    0    0  0.00000000000E+00  0.00000000000E+00  0.20786966789E+03  0.16151334431E+04  0.16017010459E+04 0.  0.
        5    1    3    3  502    0 -0.59273356557E+03 -0.76391234871E+02  0.64148209372E+03  0.87674971747E+03  0.46999998093E+01 0. -1.
       -5    1    3    3    0  502  0.59273356557E+03  0.76391234871E+02 -0.43361242583E+03  0.73838372568E+03  0.46999998093E+01 0.  1.
</event>
<event>
 5   0  0.8620155E-05  0.1599007E+04  0.7818609E-02  0.8821158E-01
        2   -1    0    0  501    0  0.00000000000E+00  0.00000000000E+00  0.22014212937E+04  0.22014212937E+04  0.25500000920E-02 0.  1.
       -2   -1    0    0    0  501  0.00000000000E+00  0.00000000000E+00 -0.29036057528E+03  0.29036057529E+03  0.25500000920E-02 0. -1.
    10030    2    1    2    0    0  0.00000000000E+00  0.00000000000E+00  0.19110607184E+04  0.24917818689E+04  0.15990071335E+04 0.  0.
        4    1    3    3  502    0  0.20604355896E+03  0.66120204050E+02  0.21549171679E+04  0.21657551669E+04  0.12699999809E+01 0.  1.
       -4    1    3    3    0  502 -0.20604355896E+03 -0.66120204050E+02 -0.24385644952E+03  0.32602670204E+03  0.12699999809E+01 0. -1.
</event>
<event>
 5   0  0.4504463E-05  0.1598135E+04  0.7818609E-02  0.8821695E-01
       -1   -1    0    0    0  501  0.00000000000E+00  0.00000000000E+00  0.56936734334E+03  0.56936734336E+03  0.50400001928E-02 0. -1.
        1   -1    0    0  501    0  0.00000000000E+00  0.00000000000E+00 -0.11214352655E+04  0.11214352655E+04  0.50400001928E-02 0.  1.
    10030    2    1    2    0    0  0.00000000000E+00  0.00000000000E+00 -0.55206792218E+03  0.16908026089E+04  0.15981346850E+04 0.  0.
        1    1    3    3  502    0  0.50539284147E+03  0.49534638142E+03 -0.66865712637E+03  0.97359761425E+03  0.50400001928E-02 0.  1.
       -1    1    3    3    0  502 -0.50539284147E+03 -0.49534638142E+03  0.11658920419E+03  0.71720499465E+03  0.50400001928E-02 0. -1.
</event>
<event>
 5   0  0.4314657E-05  0.1610599E+04  0.7818609E-02  0.8814063E-01
        1   -1    0    0  501    0  0.00000000000E+00  0.00000000000E+00  0.21695957111E+03  0.21695957117E+03  0.50400001928E-02 0.  1.
       -1   -1    0    0    0  501  0.00000000000E+00  0.00000000000E+00 -0.29890697463E+04  0.29890697463E+04  0.50400001928E-02 0. -1.
    10030    2    1    2    0    0  0.00000000000E+00  0.00000000000E+00 -0.27721101752E+04  0.32060293175E+04  0.16105990069E+04 0.  0.
        5    1    3    3  502    0 -0.46933487503E+03  0.15438035991E+03 -0.26518784694E+04  0.26975155286E+04  0.46999998093E+01 0. -1.
       -5    1    3    3    0  502  0.46933487503E+03 -0.15438035991E+03 -0.12023170580E+03  0.50851378892E+03  0.46999998093E+01 0.  1.
</event>
<event>
 5   0  0.4504463E-05  0.1601163E+04  0.7818609E-02  0.8819834E-01
       -1   -1    0    0    0  501  0.00000000000E+00  0.00000000000E+00  0.91941920080E+03  0.91941920081E+03  0.50400001928E-02 0.  1.
        1   -1    0    0  501    0  0.00000000000E+00  0.00000000000E+00 -0.69710420893E+03  0.69710420894E+03  0.50400001928E-02 0. -1.
    10030    2    1    2    0    0  0.00000000000E+00  0.00000000000E+00  0.22231499187E+03  0.16165234098E+04  0.16011633204E+04 0.  0.
        1    1    3    3  502    0 -0.72664856351E+03  0.15171020640E+03  0.41386184342E+03  0.84989160900E+03  0.50400001928E-02 0.  1.
       -1    1    3    3    0  502  0.72664856351E+03 -0.15171020640E+03 -0.19154685155E+03  0.76663180076E+03  0.50400001928E-02 0. -1.
</event>
<event>
 5   0  0.4211419E-05  0.1607018E+04  0.7818609E-02  0.8816248E-01
        1   -1    0    0  501    0  0.00000000000E+00  0.00000000000E+00  0.17103917432E+04  0.17103917432E+04  0.50400001928E-02 0.  1.
       -1   -1    0    0    0  501  0.00000000000E+00  0.00000000000E+00 -0.37747284854E+03  0.37747284858E+03  0.50400001928E-02 0. -1.
    10030    2    1    2    0    0  0.00000000000E+00  0.00000000000E+00  0.13329188947E+04  0.20878645918E+04  0.16070176645E+04 0.  0.
        2    1    3    3  502    0 -0.47230737634E+03  0.35894882131E+03 -0.37648934606E+02  0.59442068970E+03  0.25500000920E-02 0. -1.
       -2    1    3    3    0  502  0.47230737634E+03 -0.35894882131E+03  0.13705678293E+04  0.14934439021E+04  0.25500000920E-02 0.  1.
</event>
<event>
 5   0  0.8037548E-05  0.1603427E+04  0.7818609E-02  0.8818445E-01
        2   -1    0    0  501    0  0.00000000000E+00  0.00000000000E+00  0.18005598461E+04  0.18005598461E+04  0.25500000920E-02 0.  1.
       -2   -1    0    0    0  501  0.00000000000E+00  0.00000000000E+00 -0.35696924322E+03  0.35696924323E+03  0.25500000920E-02 0. -1.
    10030    2    1    2    0    0  0.00000000000E+00  0.00000000000E+00  0.14435906028E+04  0.21575290893E+04  0.16034269371E+04 0.  0.
        5    1    3    3  502    0 -0.30847391231E+02  0.67335174495E+03  0.13057932876E+04  0.14695143191E+04  0.46999998093E+01 0.  1.
       -5    1    3    3    0  502  0.30847391231E+02 -0.67335174495E+03  0.13779731524E+03  0.68801477023E+03  0.46999998093E+01 0. -1.
</event>
<event>
 5   0  0.8620155E-05  0.1597970E+04  0.7818609E-02  0.8821796E-01
        2   -1    0    0  501    0  0.00000000000E+00  0.00000000000E+00  0.82528281640E+03  0.82528281641E+03  0.25500000920E-02 0.  1.
       -2   -1    0    0    0  501  0.00000000000E+00  0.00000000000E+00 -0.77352474082E+03  0.77352474083E+03  0.25500000920E-02 0. -1.
    10030    2    1    2    0    0  0.00000000000E+00  0.00000000000E+00  0.51758075581E+02  0.15988075572E+04  0.15979695575E+04 0.  0.
        4    1    3    3  502    0 -0.71173273733E+02  0.40117652350E+01 -0.77033558544E+03  0.77362798311E+03  0.12699999809E+01 0. -1.
       -4    1    3    3    0  502  0.71173273733E+02 -0.40117652350E+01  0.82209366102E+03  0.82517957412E+03  0.12699999809E+01 0.  1.
</event>
<event>
 5   0  0.4256406E-05  0.1596511E+04  0.7818609E-02  0.8822694E-01
       -1   -1    0    0    0  501  0.00000000000E+00  0.00000000000E+00  0.59107679759E+03  0.59107679761E+03  0.50400001928E-02 0.  1.
        1   -1    0    0  501    0  0.00000000000E+00  0.00000000000E+00 -0.10780521200E+04  0.10780521200E+04  0.50400001928E-02 0. -1.
    10030    2    1    2    0    0  0.00000000000E+00  0.00000000000E+00 -0.48697532237E+03  0.16691289176E+04  0.15965106886E+04 0.  0.
        3    1    3    3  502    0  0.35161119312E+03 -0.60158605393E+03  0.16368216521E+03  0.71577096394E+03  0.10100000352E+00 0.  1.
       -3    1    3    3    0  502 -0.35161119312E+03  0.60158605393E+03 -0.65065748758E+03  0.95335795364E+03  0.10100000352E+00 0. -1.
</event>
<event>
 5   0  0.4211419E-05  0.1599722E+04  0.7818609E-02  0.8820719E-01
       -1   -1    0    0    0  501  0.00000000000E+00  0.00000000000E+00  0.42689102433E+03  0.42689102436E+03  0.50400001928E-02 0. -1.
        1   -1    0    0  501    0  0.00000000000E+00  0.00000000000E+00 -0.14986916534E+04  0.14986916534E+04  0.50400001928E-02 0.  1.
    10030    2    1    2    0    0  0.00000000000E+00  0.00000000000E+00 -0.10718006291E+04  0.19255826778E+04  0.15997224948E+04 0.  0.
        2    1    3    3  502    0  0.71275843155E+03  0.20550411760E+03 -0.17575217791E+03  0.76232890024E+03  0.25500000920E-02 0. -1.
       -2    1    3    3    0  502 -0.71275843155E+03 -0.20550411760E+03 -0.89604845116E+03  0.11632537775E+04  0.25500000920E-02 0.  1.
</event>
<event>
 5   0  0.8620155E-05  0.1598544E+04  0.7818609E-02  0.8821443E-01
       -2   -1    0    0    0  501  0.00000000000E+00  0.00000000000E+00  0.37792181093E+03  0.37792181094E+03  0.25500000920E-02 0. -1.
        2   -1    0    0  501    0  0.00000000000E+00  0.00000000000E+00 -0.16903904908E+04  0.16903904908E+04  0.25500000920E-02 0.  1.
    10030    2    1    2    0    0  0.00000000000E+00  0.00000000000E+00 -0.13124686798E+04  0.20683123017E+04  0.15985436315E+04 0.  0.
        4    1    3    3  502    0  0.65801914895E+02  0.66199163881E+03 -0.12294521673E+04  0.13978973734E+04  0.12699999809E+01 0.  1.
       -4    1    3    3    0  502 -0.65801914895E+02 -0.66199163881E+03 -0.83016512498E+02  0.67041492831E+03  0.12699999809E+01 0. -1.
</event>
<event>
 5   0  0.4504463E-05  0.1571271E+04  0.7818609E-02  0.8838394E-01
       -1   -1    0    0    0  501  0.00000000000E+00  0.00000000000E+00  0.39275315214E+03  0.39275315217E+03  0.50400001928E-02 0.  1.
        1   -1    0    0  501    0  0.00000000000E+00  0.00000000000E+00 -0.15715298512E+04  0.15715298512E+04  0.50400001928E-02 0. -1.
    10030    2    1    2    0    0  0.00000000000E+00  0.00000000000E+00 -0.11787766990E+04  0.19642830033E+04  0.15712712086E+04 0.  0.
        1    1    3    3  502    0  0.72453611429E+03 -0.95832544879E+02 -0.94973379772E+03  0.11983867256E+04  0.50400001928E-02 0. -1.
       -1    1    3    3    0  502 -0.72453611429E+03  0.95832544879E+02 -0.22904290131E+03  0.76589627773E+03  0.50400001928E-02 0.  1.
</event>
<event>
 5   0  0.8694033E-05  0.1599480E+04  0.7818609E-02  0.8820867E-01
       -2   -1    0    0    0  501  0.00000000000E+00  0.00000000000E+00  0.32941845253E+03  0.32941845254E+03  0.25500000920E-02 0.  1.
        2   -1    0    0  501    0  0.00000000000E+00  0.00000000000E+00 -0.19415557898E+04  0.19415557898E+04  0.25500000920E-02 0. -1.
    10030    2    1    2    0    0  0.00000000000E+00  0.00000000000E+00 -0.16121373373E+04  0.22709742424E+04  0.15994802953E+04 0.  0.
        1    1    3    3  502    0  0.35464983057E+03  0.57131594861E+03 -0.19142285157E+03  0.69915743834E+03  0.50400001928E-02 0.  1.
       -1    1    3    3    0  502 -0.35464983057E+03 -0.57131594861E+03 -0.14207144857E+04  0.15718168040E+04  0.50400001928E-02 0. -1.
</event>
<event>
 5   0  0.4504463E-05  0.1603483E+04  0.7818609E-02  0.8818411E-01
        1   -1    0    0  501    0  0.00000000000E+00  0.00000000000E+00  0.18827630353E+04  0.18827630353E+04  0.50400001928E-02 0.  1.
       -1   -1    0    0    0  501  0.00000000000E+00  0.00000000000E+00 -0.34140748746E+03  0.34140748749E+03  0.50400001928E-02 0. -1.
    10030    2    1    2    0    0  0.00000000000E+00  0.00000000000E+00  0.15413555478E+04  0.22241705228E+04  0.16034829558E+04 0.  0.
        1    1    3    3  502    0  0.37425502698E+03  0.59885349254E+03  0.12972176934E+04  0.14769786982E+04  0.50400001928E-02 0.  1.
       -1    1    3    3    0  502 -0.37425502698E+03 -0.59885349254E+03  0.24413785439E+03  0.74719182458E+03  0.50400001928E-02 0. -1.
</event>
<event>
 5   0  0.4504463E-05  0.1594011E+04  0.7818609E-02  0.8824236E-01
        1   -1    0    0  501    0  0.00000000000E+00  0.00000000000E+00  0.63275996454E+03  0.63275996456E+03  0.50400001928E-02 0. -1.
       -1   -1    0    0    0  501  0.00000000000E+00  0.00000000000E+00 -0.10038844634E+04  0.10038844634E+04  0.50400001928E-02 0.  1.
    10030    2    1    2    0    0  0.00000000000E+00  0.00000000000E+00 -0.37112449886E+03  0.16366444280E+04  0.15940111637E+04 0.  0.
        1    1    3    3  502    0  0.14111409177E+03  0.75898247406E+03  0.17853487712E+02  0.77219578468E+03  0.50400001928E-02 0. -1.
       -1    1    3    3    0  502 -0.14111409177E+03 -0.75898247406E+03 -0.38897798657E+03  0.86444864329E+03  0.50400001928E-02 0.  1.
</event>
<event>
 5   0  0.7849690E-05  0.1599878E+04  0.7818609E-02  0.8820623E-01
        2   -1    0    0  501    0  0.00000000000E+00  0.00000000000E+00  0.16917704236E+04  0.16917704236E+04  0.25500000920E-02 0. -1.
       -2   -1    0    0    0  501  0.00000000000E+00  0.00000000000E+00 -0.37824430631E+03  0.37824430632E+03  0.25500000920E-02 0.  1.
    10030    2    1    2    0    0  0.00000000000E+00  0.00000000000E+00  0.13135261173E+04  0.20700147299E+04  0.15998781583E+04 0.  0.
        3    1    3    3  502    0 -0.68586941821E+02  0.58183674981E+03  0.13614872912E+04  0.14821895379E+04  0.10100000352E+00 0. -1.
       -3    1    3    3    0  502  0.68586941821E+02 -0.58183674981E+03 -0.47961173852E+02  0.58782519205E+03  0.10100000352E+00 0.  1.
</event>
<event>
 5   0  0.4314657E-05  0.1598742E+04  0.7818609E-02  0.8821321E-01
        1   -1    0    0  501    0  0.00000000000E+00  0.00000000000E+00  0.10274236061E+04  0.10274236062E+04  0.50400001928E-02 0.  1.
       -1   -1    0    0    0  501  0.00000000000E+00  0.00000000000E+00 -0.62193814303E+03  0.62193814305E+03  0.50400001928E-02 0. -1.
    10030    2    1    2    0    0  0.00000000000E+00  0.00000000000E+00  0.40548546312E+03  0.16493617492E+04  0.15987419176E+04 0.  0.
        5    1    3    3  502    0  0.77407937854E+03  0.15321804053E+03  0.71040271331E+02  0.79230263308E+03  0.46999998093E+01 0. -1.
       -5    1    3    3    0  502 -0.77407937854E+03 -0.15321804053E+03  0.33444519179E+03  0.85705911613E+03  0.46999998093E+01 0.  1.
</event>
<event>
 5   0  0.7849690E-05  0.1599725E+04  0.7818609E-02  0.8820717E-01
       -2   -1    0    0    0  501  0.00000000000E+00  0.00000000000E+00  0.50413306212E+03  0.50413306212E+03  0.25500000920E-02 0.  1.
        2   -1    0    0  501    0  0.00000000000E+00  0.00000000000E+00 -0.12690694585E+04  0.12690694585E+04  0.25500000920E-02 0. -1.
    10030    2    1    2    0    0  0.00000000000E+00  0.00000000000E+00 -0.76493639634E+03  0.17732025206E+04  0.15997248165E+04 0.  0.
        3    1    3    3  502    0 -0.29044165296E+03 -0.24537500441E+03 -0.11624954658E+04  0.12230948307E+04  0.10100000352E+00 0. -1.
       -3    1    3    3    0  502  0.29044165296E+03  0.24537500441E+03  0.39755906949E+03  0.55010768991E+03  0.10100000352E+00 0.  1.
</event>
<event>
 5   0  0.8620155E-05  0.1601645E+04  0.7818609E-02  0.8819538E-01
        2   -1    0    0  501    0  0.00000000000E+00  0.00000000000E+00  0.17254448522E+04  0.17254448523E+04  0.25500000920E-02 0. -1.
       -2   -1    0    0    0  501  0.00000000000E+00  0.00000000000E+00 -0.37168184975E+03  0.37168184975E+03  0.25500000920E-02 0.  1.
    10030    2    1    2    0    0  0.00000000000E+00  0.00000000000E+00  0.13537630025E+04  0.20971267020E+04  0.16016448225E+04 0.  0.
        4    1    3    3  502    0  0.32756456524E+03  0.11760455316E+03 -0.26747852637E+03  0.43894845972E+03  0.12699999809E+01 0.  1.
       -4    1    3    3    0  502 -0.32756456524E+03 -0.11760455316E+03  0.16212415289E+04  0.16581782423E+04  0.12699999809E+01 0. -1.
</event>
<event>
 5   0  0.7849690E-05  0.1596117E+04  0.7818609E-02  0.8822937E-01
       -2   -1    0    0    0  501  0.00000000000E+00  0.00000000000E+00  0.63302946497E+03  0.63302946497E+03  0.25500000920E-02 0. -1.
        2   -1    0    0  501    0  0.00000000000E+00  0.00000000000E+00 -0.10061106247E+04  0.10061106247E+04  0.25500000920E-02 0.  1.
    10030    2    1    2    0    0  0.00000000000E+00  0.00000000000E+00 -0.37308115969E+03  0.16391400896E+04  0.15961173772E+04 0.  0.
        3    1    3    3  502    0  0.10602393130E+03 -0.51403972305E+03 -0.80392716201E+03  0.96009208043E+03  0.10100000352E+00 0.  1.
       -3    1    3    3    0  502 -0.10602393130E+03  0.51403972305E+03  0.43084600232E+03  0.67904800920E+03  0.10100000352E+00 0. -1.
</event>
<event>
 5   0  0.8694033E-05  0.1600061E+04  0.7818609E-02  0.8820510E-01
       -2   -1    0    0    0  501  0.00000000000E+00  0.00000000000E+00  0.47750373073E+03  0.47750373074E+03  0.25500000920E-02 0.  1.
        2   -1    0    0  501    0  0.00000000000E+00  0.00000000000E+00 -0.13404060688E+04  0.13404060688E+04  0.25500000920E-02 0. -1.
    10030    2    1    2    0    0  0.00000000000E+00  0.00000000000E+00 -0.86290233811E+03  0.18179097996E+04  0.16000611220E+04 0.  0.
        1    1    3    3  502    0  0.49110878295E+03  0.23457472754E+03  0.23475903231E+03  0.59272670158E+03  0.50400001928E-02 0.  1.
       -1    1    3    3    0  502 -0.49110878295E+03 -0.23457472754E+03 -0.10976613704E+04  0.12251830980E+04  0.50400001928E-02 0. -1.
</event>
<event>
 5   0  0.4211419E-05  0.1600542E+04  0.7818609E-02  0.8820215E-01
       -1   -1    0    0    0  501  0.00000000000E+00  0.00000000000E+00  0.94746513196E+03  0.94746513198E+03  0.50400001928E-02 0.  1.
        1   -1    0    0  501    0  0.00000000000E+00  0.00000000000E+00 -0.67594440733E+03  0.67594440734E+03  0.50400001928E-02 0. -1.
    10030    2    1    2    0    0  0.00000000000E+00  0.00000000000E+00  0.27152072464E+03  0.16234095393E+04  0.16005421046E+04 0.  0.
        2    1    3    3  502    0  0.58653369932E+03 -0.37639504044E+03  0.53474900415E+03  0.87843696664E+03  0.25500000920E-02 0.  1.
       -2    1    3    3    0  502 -0.58653369932E+03  0.37639504044E+03 -0.26322827951E+03  0.74497257268E+03  0.25500000920E-02 0. -1.
</event>
<event>
 5   0  0.4373026E-05  0.1596588E+04  0.7818609E-02  0.8822647E-01
       -1   -1    0    0    0  501  0.00000000000E+00  0.00000000000E+00  0.42422032103E+03  0.42422032106E+03  0.50400001928E-02 0. -1.
        1   -1    0    0  501    0  0.00000000000E+00  0.00000000000E+00 -0.15022222776E+04  0.15022222776E+04  0.50400001928E-02 0.  1.
    10030    2    1    2    0    0  0.00000000000E+00  0.00000000000E+00 -0.10780019566E+04  0.19264425987E+04  0.15965878828E+04 0.  0.
        4    1    3    3  502    0  0.14926060123E+03  0.75858081097E+03 -0.29904826095E+03  0.82894815829E+03  0.12699999809E+01 0.  1.
       -4    1    3    3    0  502 -0.14926060123E+03 -0.75858081097E+03 -0.77895369565E+03  0.10974944404E+04  0.12699999809E+01 0. -1.
</event>
<event>
 5   0  0.8037548E-05  0.1600440E+04  0.7818609E-02  0.8820278E-01
        2   -1    0    0  501    0  0.00000000000E+00  0.00000000000E+00  0.14026309577E+04  0.14026309577E+04  0.25500000920E-02 0.  1.
       -2   -1    0    0    0  501  0.00000000000E+00  0.00000000000E+00 -0.45653645815E+03  0.45653645816E+03  0.25500000920E-02 0. -1.
    10030    2    1    2    0    0  0.00000000000E+00  0.00000000000E+00  0.94609449950E+03  0.18591674158E+04  0.16004401514E+04 0.  0.
        5    1    3    3  502    0  0.25902364431E+02 -0.79710169171E+03  0.54911638520E+03  0.96829382622E+03  0.46999998093E+01 0. -1.
       -5    1    3    3    0  502 -0.25902364431E+02  0.79710169171E+03  0.39697811430E+03  0.89087358960E+03  0.46999998093E+01 0.  1.
</event>
<event>
 5   0  0.4504463E-05  0.1606843E+04  0.7818609E-02  0.8816355E-01
       -1   -1    0    0    0  501  0.00000000000E+00  0.00000000000E+00  0.70690228443E+03  0.70690228445E+03  0.50400001928E-02 0. -1.
        1   -1    0    0  501    0  0.00000000000E+00  0.00000000000E+00 -0.91311968191E+03  0.91311968193E+03  0.50400001928E-02 0.  1.
    10030    2    1    2    0    0  0.00000000000E+00  0.00000000000E+00 -0.20621739749E+03  0.16200219664E+04  0.16068433516E+04 0.  0.
        1    1    3    3  502    0  0.13468208301E+03 -0.78968126910E+03 -0.16485327714E+03  0.81787063357E+03  0.50400001928E-02 0.  1.
       -1    1    3    3    0  502 -0.13468208301E+03  0.78968126910E+03 -0.41364120349E+02  0.80215133281E+03  0.50400001928E-02 0. -1.
</event>
<event>
 5   0  0.4373026E-05  0.1597294E+04  0.7818609E-02  0.8822212E-01
        1   -1    0    0  501    0  0.00000000000E+00  0.00000000000E+00  0.76070267156E+03  0.76070267158E+03  0.50400001928E-02 0. -1.
       -1   -1    0    0    0  501  0.00000000000E+00  0.00000000000E+00 -0.83848391855E+03  0.83848391856E+03  0.50400001928E-02 0.  1.
    10030    2    1    2    0    0  0.00000000000E+00  0.00000000000E+00 -0.77781246989E+02  0.15991865901E+04  0.15972939077E+04 0.  0.
        4    1    3    3  502    0 -0.27299849625E+03  0.13444584871E+03 -0.77816348739E+03  0.83555005307E+03  0.12699999809E+01 0.  1.
       -4    1    3    3    0  502  0.27299849625E+03 -0.13444584871E+03  0.70038224040E+03  0.76363653707E+03  0.12699999809E+01 0. -1.
</event>
<event>
 5   0  0.4314657E-05  0.1600583E+04  0.7818609E-02  0.8820190E-01
       -1   -1    0    0    0  501  0.00000000000E+00  0.00000000000E+00  0.67741253401E+03  0.67741253403E+03  0.50400001928E-02 0. -1.
        1   -1    0    0  501    0  0.00000000000E+00  0.00000000000E+00 -0.94545996151E+03  0.94545996153E+03  0.50400001928E-02 0.  1.
    10030    2    1    2    0    0  0.00000000000E+00  0.00000000000E+00 -0.26804742750E+03  0.16228724956E+04  0.16005829293E+04 0.  0.
        5    1    3    3  502    0 -0.33570850450E+03  0.88676402990E+02 -0.86509215908E+03  0.93218573157E+03  0.46999998093E+01 0.  1.
       -5    1    3    3    0  502  0.33570850450E+03 -0.88676402990E+02  0.59704473158E+03  0.69068676399E+03  0.46999998093E+01 0. -1.
</event>
<event>
 5   0  0.8620155E-05  0.1602300E+04  0.7818609E-02  0.8819136E-01
       -2   -1    0    0    0  501  0.00000000000E+00  0.00000000000E+00  0.11259032905E+04  0.11259032905E+04  0.25500000920E-02 0. -1.
        2   -1    0    0  501    0  0.00000000000E+00  0.00000000000E+00 -0.57006767388E+03  0.57006767388E+03  0.25500000920E-02 0.  1.
    10030    2    1    2    0    0  0.00000000000E+00  0.00000000000E+00  0.55583561665E+03  0.16959709644E+04  0.16022996846E+04 0.  0.
        4    1    3    3  502    0 -0.67399276925E+03 -0.33829350308E+03  0.56415400960E+03  0.94179621292E+03  0.12699999809E+01 0.  1.
       -4    1    3    3    0  502  0.67399276925E+03  0.33829350308E+03 -0.83183929582E+01  0.75417475149E+03  0.12699999809E+01 0. -1.
</event>
<event>
 5   0  0.4504463E-05  0.1622728E+04  0.7818609E-02  0.8806706E-01
       -1   -1    0    0    0  501  0.00000000000E+00  0.00000000000E+00  0.63657271430E+03  0.63657271432E+03  0.50400001928E-02 0. -1.
        1   -1    0    0  501    0  0.00000000000E+00  0.00000000000E+00 -0.10341497358E+04  0.10341497358E+04  0.50400001928E-02 0.  1.
    10030    2    1    2    0    0  0.00000000000E+00  0.00000000000E+00 -0.39757702148E+03  0.16707224501E+04  0.16227279554E+04 0.  0.
        1    1    3    3  502    0  0.67150321636E+03  0.32914650060E+03 -0.52283125895E+03  0.91247274688E+03  0.50400001928E-02 0.  1.
       -1    1    3    3    0  502 -0.67150321636E+03 -0.32914650060E+03  0.12525423747E+03  0.75824970324E+03  0.50400001928E-02 0. -1.
</event>
<event>
 5   0  0.7901257E-05  0.1600003E+04  0.7818609E-02  0.8820546E-01
       -2   -1    0    0    0  501  0.00000000000E+00  0.00000000000E+00  0.40734572116E+03  0.40734572116E+03  0.25500000920E-02 0. -1.
        2   -1    0    0  501    0  0.00000000000E+00  0.00000000000E+00 -0.15711528029E+04  0.15711528029E+04  0.25500000920E-02 0.  1.
    10030    2    1    2    0    0  0.00000000000E+00  0.00000000000E+00 -0.11638070817E+04  0.19784985240E+04  0.16000029644E+04 0.  0.
        2    1    3    3  502    0  0.33420763695E+03  0.62247374950E+02 -0.14773918167E+04  0.15160000199E+04  0.25500000920E-02 0.  1.
       -2    1    3    3    0  502 -0.33420763695E+03 -0.62247374950E+02  0.31358473500E+03  0.46249850412E+03  0.25500000920E-02 0. -1.
</event>
<event>
 5   0  0.8037548E-05  0.1600816E+04  0.7818609E-02  0.8820047E-01
        2   -1    0    0  501    0  0.00000000000E+00  0.00000000000E+00  0.66975631958E+03  0.66975631959E+03  0.25500000920E-02 0. -1.
       -2   -1    0    0    0  501  0.00000000000E+00  0.00000000000E+00 -0.95654658464E+03  0.95654658464E+03  0.25500000920E-02 0.  1.
    10030    2    1    2    0    0  0.00000000000E+00  0.00000000000E+00 -0.28679026506E+03  0.16263029042E+04  0.16008161919E+04 0.  0.
        5    1    3    3  502    0 -0.47219684755E+03  0.62871197274E+03 -0.29538460733E+03  0.83995402478E+03  0.46999998093E+01 0.  1.
       -5    1    3    3    0  502  0.47219684755E+03 -0.62871197274E+03  0.85943422682E+01  0.78634887945E+03  0.46999998093E+01 0. -1.
</event>
<event>
 5   0  0.4256406E-05  0.1595505E+04  0.7818609E-02  0.8823314E-01
       -1   -1    0    0    0  501  0.00000000000E+00  0.00000000000E+00  0.10938290884E+04  0.10938290884E+04  0.50400001928E-02 0. -1.
        1   -1    0    0  501    0  0.00000000000E+00  0.00000000000E+00 -0.58181772147E+03  0.58181772149E+03  0.50400001928E-02 0.  1.
    10030    2    1    2    0    0  0.00000000000E+00  0.00000000000E+00  0.51201136690E+03  0.16756468099E+04  0.15955051211E+04 0.  0.
        3    1    3    3  502    0  0.54995865502E+03  0.29381063792E+02  0.86213595050E+03  0.10230328326E+04  0.10100000352E+00 0. -1.
       -3    1    3    3    0  502 -0.54995865502E+03 -0.29381063792E+02 -0.35012458360E+03  0.65261397731E+03  0.10100000352E+00 0.  1.
</event>
<event>
 5   0  0.4314657E-05  0.1595942E+04  0.7818609E-02  0.8823045E-01
        1   -1    0    0  501    0  0.00000000000E+00  0.00000000000E+00  0.11731291466E+04  0.11731291466E+04  0.50400001928E-02 0. -1.
       -1   -1    0    0    0  501  0.00000000000E+00  0.00000000000E+00 -0.54278591712E+03  0.54278591714E+03  0.50400001928E-02 0.  1.
    10030    2    1    2    0    0  0.00000000000E+00  0.00000000000E+00  0.63034322949E+03  0.17159150638E+04  0.15959423295E+04 0.  0.
        5    1    3    3  502    0  0.49492249875E+03 -0.62420447810E+03  0.26524395700E+03  0.83961655354E+03  0.46999998093E+01 0.  1.
       -5    1    3    3    0  502 -0.49492249875E+03  0.62420447810E+03  0.36509927249E+03  0.87629851022E+03  0.46999998093E+01 0. -1.
</event>
<event>
 5   0  0.7901257E-05  0.1598600E+04  0.7818609E-02  0.8821408E-01
       -2   -1    0    0    0  501  0.00000000000E+00  0.00000000000E+00  0.34734484935E+03  0.34734484935E+03  0.25500000920E-02 0. -1.
        2   -1    0    0  501    0  0.00000000000E+00  0.00000000000E+00 -0.18393266771E+04  0.18393266771E+04  0.25500000920E-02 0.  1.
    10030    2    1    2    0    0  0.00000000000E+00  0.00000000000E+00 -0.14919818278E+04  0.21866715265E+04  0.15986001971E+04 0.  0.
        2    1    3    3  502    0 -0.76492598366E+03  0.16715520858E+03 -0.52615974318E+03  0.94334336250E+03  0.25500000920E-02 0. -1.
       -2    1    3    3    0  502  0.76492598366E+03 -0.16715520858E+03 -0.96582208461E+03  0.12433281640E+04  0.25500000920E-02 0.  1.
</event>
<event>
 5   0  0.4373026E-05  0.1599872E+04  0.7818609E-02  0.8820627E-01
       -1   -1    0    0    0  501  0.00000000000E+00  0.00000000000E+00  0.70779351223E+03  0.70779351225E+03  0.50400001928E-02 0. -1.
        1   -1    0    0  501    0  0.00000000000E+00  0.00000000000E+00 -0.90407341208E+03  0.90407341209E+03  0.50400001928E-02 0.  1.
    10030    2    1    2    0    0  0.00000000000E+00  0.00000000000E+00 -0.19627989985E+03  0.16118669243E+04  0.15998716144E+04 0.  0.
        4    1    3    3  502    0  0.27650964997E+03  0.33448365651E+03  0.57887957852E+03  0.72349159105E+03  0.12699999809E+01 0. -1.
       -4    1    3    3    0  502 -0.27650964997E+03 -0.33448365651E+03 -0.77515947837E+03  0.88837533329E+03  0.12699999809E+01 0.  1.
</event>
<event>
 5   0  0.7849690E-05  0.1598265E+04  0.7818609E-02  0.8821615E-01
       -2   -1    0    0    0  501  0.00000000000E+00  0.00000000000E+00  0.36212864196E+03  0.36212864197E+03  0.25500000920E-02 0. -1.
        2   -1    0    0  501    0  0.00000000000E+00  0.00000000000E+00 -0.17634966692E+04  0.17634966692E+04  0.25500000920E-02 0.  1.
    10030    2    1    2    0    0  0.00000000000E+00  0.00000000000E+00 -0.14013680272E+04  0.21256253112E+04  0.15982648766E+04 0.  0.
        3    1    3    3  502    0  0.35428835428E+02 -0.99531274513E+02  0.35279976724E+03  0.36827892005E+03  0.10100000352E+00 0. -1.
       -3    1    3    3    0  502 -0.35428835428E+02  0.99531274513E+02 -0.17541677945E+04  0.17573463911E+04  0.10100000352E+00 0.  1.
</event>
<event>
 5   0  0.8037548E-05  0.1597002E+04  0.7818609E-02  0.8822392E-01
       -2   -1    0    0    0  501  0.00000000000E+00  0.00000000000E+00  0.81531248169E+03  0.81531248170E+03  0.25500000920E-02 0.  1.
        2   -1    0    0  501    0  0.00000000000E+00  0.00000000000E+00 -0.78203655115E+03  0.78203655116E+03  0.25500000920E-02 0. -1.
    10030    2    1    2    0    0  0.00000000000E+00  0.00000000000E+00  0.33275930543E+02  0.15973490329E+04  0.15970023936E+04 0.  0.
        5    1    3    3  502    0 -0.28620055307E+03  0.15473848489E+03  0.74599259127E+03  0.81386841167E+03  0.46999998093E+01 0.  1.
       -5    1    3    3    0  502  0.28620055307E+03 -0.15473848489E+03 -0.71271666073E+03  0.78348062118E+03  0.46999998093E+01 0. -1.
</event>
<event>
 5   0  0.8694033E-05  0.1600721E+04  0.7818609E-02  0.8820105E-01
       -2   -1    0    0    0  501  0.00000000000E+00  0.00000000000E+00  0.47651350103E+03  0.47651350103E+03  0.25500000920E-02 0. -1.
        2   -1    0    0  501    0  0.00000000000E+00  0.00000000000E+00 -0.13442996715E+04  0.13442996715E+04  0.25500000920E-02 0.  1.
    10030    2    1    2    0    0  0.00000000000E+00  0.00000000000E+00 -0.86778617047E+03  0.18208131725E+04  0.16007210162E+04 0.  0.
        1    1    3    3  502    0 -0.65462609830E+03  0.45886944526E+03 -0.39012615382E+03  0.88954758855E+03  0.50400001928E-02 0.  1.
       -1    1    3    3    0  502  0.65462609830E+03 -0.45886944526E+03 -0.47766001665E+03  0.93126558398E+03  0.50400001928E-02 0. -1.
</event>
<event>
 5   0  0.4373026E-05  0.1604716E+04  0.7818609E-02  0.8817656E-01
       -1   -1    0    0    0  501  0.00000000000E+00  0.00000000000E+00  0.88765323962E+03  0.88765323963E+03  0.50400001928E-02 0. -1.
        1   -1    0    0  501    0  0.00000000000E+00  0.00000000000E+00 -0.72525913200E+03  0.72525913202E+03  0.50400001928E-02 0.  1.
    10030    2    1    2    0    0  0.00000000000E+00  0.00000000000E+00  0.16239410761E+03  0.16129123717E+04  0.16047163215E+04 0.  0.
        4    1    3    3  502    0  0.42574583374E+03 -0.34588259516E+03  0.66974968164E+03  0.86571388665E+03  0.12699999809E+01 0. -1.
       -4    1    3    3    0  502 -0.42574583374E+03  0.34588259516E+03 -0.50735557403E+03  0.74719848500E+03  0.12699999809E+01 0.  1.
</event>
<event>
 5   0  0.8694033E-05  0.1598451E+04  0.7818609E-02  0.8821500E-01
       -2   -1    0    0    0  501  0.00000000000E+00  0.00000000000E+00  0.68169266384E+03  0.68169266385E+03  0.25500000920E-02 0.  1.
        2   -1    0    0  501    0  0.00000000000E+00  0.00000000000E+00 -0.93702275355E+03  0.93702275356E+03  0.25500000920E-02 0. -1.
    10030    2    1    2    0    0  0.00000000000E+00  0.00000000000E+00 -0.25533008971E+03  0.16187154174E+04  0.15984511716E+04 0.  0.
        1    1    3    3  502    0 -0.67161270808E+03  0.41588932549E+03 -0.25058746757E+03  0.82874702994E+03  0.50400001928E-02 0. -1.
       -1    1    3    3    0  502  0.67161270808E+03 -0.41588932549E+03 -0.47426221386E+01  0.78996838747E+03  0.50400001928E-02 0.  1.
</event>
<event>
 5   0  0.4373026E-05  0.1601630E+04  0.7818609E-02  0.8819547E-01
        1   -1    0    0  501    0  0.00000000000E+00  0.00000000000E+00  0.11351189194E+04  0.11351189194E+04  0.50400001928E-02 0.  1.
       -1   -1    0    0    0  501  0.00000000000E+00  0.00000000000E+00 -0.56496671190E+03  0.56496671192E+03  0.50400001928E-02 0. -1.
    10030    2    1    2    0    0  0.00000000000E+00  0.00000000000E+00  0.57015220750E+03  0.17000856313E+04  0.16016296745E+04 0.  0.
        4    1    3    3  502    0  0.63415699003E+03  0.15356173955E+03  0.77790858144E+03  0.10153224462E+04  0.12699999809E+01 0.  1.
       -4    1    3    3    0  502 -0.63415699003E+03 -0.15356173955E+03 -0.20775637394E+03  0.68476318510E+03  0.12699999809E+01 0. -1.
</event>
<event>
 5   0  0.8620155E-05  0.1598896E+04  0.7818609E-02  0.8821226E-01
       -2   -1    0    0    0  501  0.00000000000E+00  0.00000000000E+00  0.37385215858E+03  0.37385215858E+03  0.25500000920E-02 0.  1.
        2   -1    0    0  501    0  0.00000000000E+00  0.00000000000E+00 -0.17095459530E+04  0.17095459530E+04  0.25500000920E-02 0. -1.
    10030    2    1    2    0    0  0.00000000000E+00  0.00000000000E+00 -0.13356937944E+04  0.20833981116E+04  0.15988964253E+04 0.  0.
        4    1    3    3  502    0  0.34496785390E+03 -0.30297127242E+03 -0.15206265533E+04  0.15884272535E+04  0.12699999809E+01 0. -1.
       -4    1    3    3    0  502 -0.34496785390E+03  0.30297127242E+03  0.18493275889E+03  0.49497085808E+03  0.12699999809E+01 0.  1.
</event>
<event>
 5   0  0.4504463E-05  0.1599783E+04  0.7818609E-02  0.8820681E-01
       -1   -1    0    0    0  501  0.00000000000E+00  0.00000000000E+00  0.28350850178E+03  0.28350850183E+03  0.50400001928E-02 0.  1.
        1   -1    0    0  501    0  0.00000000000E+00  0.00000000000E+00 -0.22568162745E+04  0.22568162745E+04  0.50400001928E-02 0. -1.
    10030    2    1    2    0    0  0.00000000000E+00  0.00000000000E+00 -0.19733077727E+04  0.25403247763E+04  0.15997832364E+04 0.  0.
        1    1    3    3  502    0 -0.31191968340E+03  0.68470866009E+02  0.17789158029E+03  0.36555103987E+03  0.50400001928E-02 0.  1.
       -1    1    3    3    0  502  0.31191968340E+03 -0.68470866009E+02 -0.21511993530E+04  0.21747737365E+04  0.50400001928E-02 0. -1.
</event>
<event>
 5   0  0.8037548E-05  0.1595230E+04  0.7818609E-02  0.8823484E-01
        2   -1    0    0  501    0  0.00000000000E+00  0.00000000000E+00  0.50750919179E+03  0.50750919179E+03  0.25500000920E-02 0. -1.
       -2   -1    0    0    0  501  0.00000000000E+00  0.00000000000E+00 -0.12535526263E+04  0.12535526263E+04  0.25500000920E-02 0.  1.
    10030    2    1    2    0    0  0.00000000000E+00  0.00000000000E+00 -0.74604343452E+03  0.17610618181E+04  0.15952297393E+04 0.  0.
        5    1    3    3  502    0 -0.29940762205E+03  0.63412671892E+03  0.46489557845E+02  0.70281220021E+03  0.46999998093E+01 0. -1.
       -5    1    3    3    0  502  0.29940762205E+03 -0.63412671892E+03 -0.79253299237E+03  0.10582496179E+04  0.46999998093E+01 0.  1.
</event>
<event>
 5   0  0.8037548E-05  0.1603437E+04  0.7818609E-02  0.8818440E-01
       -2   -1    0    0    0  501  0.00000000000E+00  0.00000000000E+00  0.81385887807E+03  0.81385887808E+03  0.25500000920E-02 0. -1.
        2   -1    0    0  501    0  0.00000000000E+00  0.00000000000E+00 -0.78975873853E+03  0.78975873854E+03  0.25500000920E-02 0.  1.
    10030    2    1    2    0    0  0.00000000000E+00  0.00000000000E+00  0.24100139542E+02  0.16036176166E+04  0.16034365106E+04 0.  0.
        5    1    3    3  502    0  0.23810599415E+03 -0.59390253427E+03  0.49513194123E+03  0.80906885608E+03  0.46999998093E+01 0. -1.
       -5    1    3    3    0  502 -0.23810599415E+03  0.59390253427E+03 -0.47103180169E+03  0.79454876053E+03  0.46999998093E+01 0.  1.
</event>
<event>
 5   0  0.7901257E-05  0.1599292E+04  0.7818609E-02  0.8820983E-01
       -2   -1    0    0    0  501  0.00000000000E+00  0.00000000000E+00  0.52579804220E+03  0.52579804221E+03  0.25500000920E-02 0. -1.
        2   -1    0    0  501    0  0.00000000000E+00  0.00000000000E+00 -0.12161202348E+04  0.12161202348E+04  0.25500000920E-02 0.  1.
    10030    2    1    2    0    0  0.00000000000E+00  0.00000000000E+00 -0.69032219264E+03  0.17419182770E+04  0.15992918915E+04 0.  0.
        2    1    3    3  502    0 -0.53511355639E+03 -0.58767036609E+03 -0.24939575528E+03  0.83300733500E+03  0.25500000920E-02 0. -1.
       -2    1    3    3    0  502  0.53511355639E+03  0.58767036609E+03 -0.44092643735E+03  0.90891094205E+03  0.25500000920E-02 0.  1.
</event>
<event>
 5   0  0.7901257E-05  0.1599327E+04  0.7818609E-02  0.8820962E-01
       -2   -1    0    0    0  501  0.00000000000E+00  0.00000000000E+00  0.80508734243E+03  0.80508734243E+03  0.25500000920E-02 0.  1.
        2   -1    0    0  501    0  0.00000000000E+00  0.00000000000E+00 -0.79427601741E+03  0.79427601742E+03  0.25500000920E-02 0. -1.
    10030    2    1    2    0    0  0.00000000000E+00  0.00000000000E+00  0.10811325016E+02  0.15993633599E+04  0.15993268184E+04 0.  0.
        2    1    3    3  502    0  0.77842222409E+03  0.16657736640E+03 -0.70572320073E+02  0.79916808640E+03  0.25500000920E-02 0.  1.
       -2    1    3    3    0  502 -0.77842222409E+03 -0.16657736640E+03  0.81383645089E+02  0.80019527345E+03  0.25500000920E-02 0. -1.
</event>
<event>
 5   0  0.8694033E-05  0.1599798E+04  0.7818609E-02  0.8820672E-01
        2   -1    0    0  501    0  0.00000000000E+00  0.00000000000E+00  0.56471887710E+03  0.56471887711E+03  0.25500000920E-02 0. -1.
       -2   -1    0    0    0  501  0.00000000000E+00  0.00000000000E+00 -0.11330208522E+04  0.11330208522E+04  0.25500000920E-02 0.  1.
    10030    2    1    2    0    0  0.00000000000E+00  0.00000000000E+00 -0.56830197506E+03  0.16977397293E+04  0.15997978164E+04 0.  0.
        1    1    3    3  502    0  0.31529053299E+03  0.25332738344E+03 -0.10165132530E+04  0.10940210588E+04  0.50400001928E-02 0.  1.
       -1    1    3    3    0  502 -0.31529053299E+03 -0.25332738344E+03  0.44821127797E+03  0.60371867051E+03  0.50400001928E-02 0. -1.
</event>
<event>
 5   0  0.4256406E-05  0.1598266E+04  0.7818609E-02  0.8821614E-01
        1   -1    0    0  501    0  0.00000000000E+00  0.00000000000E+00  0.16696132190E+04  0.16696132190E+04  0.50400001928E-02 0.  1.
       -1   -1    0    0    0  501  0.00000000000E+00  0.00000000000E+00 -0.38249195222E+03  0.38249195225E+03  0.50400001928E-02 0. -1.
    10030    2    1    2    0    0  0.00000000000E+00  0.00000000000E+00  0.12871212667E+04  0.20521051712E+04  0.15982660850E+04 0.  0.
        3    1    3    3  502    0 -0.24754029773E+03 -0.71306283415E+03  0.30658900802E+03  0.81469726554E+03  0.10100000352E+00 0. -1.
       -3    1    3    3    0  502  0.24754029773E+03  0.71306283415E+03  0.98053225871E+03  0.12374079057E+04  0.10100000352E+00 0.  1.
</event>
<event>
 5   0  0.4256406E-05  0.1602719E+04  0.7818609E-02  0.8818880E-01
       -1   -1    0    0    0  501  0.00000000000E+00  0.00000000000E+00  0.57841726157E+03  0.57841726159E+03  0.50400001928E-02 0. -1.
        1   -1    0    0  501    0  0.00000000000E+00  0.00000000000E+00 -0.11102310766E+04  0.11102310767E+04  0.50400001928E-02 0.  1.
    10030    2    1    2    0    0  0.00000000000E+00  0.00000000000E+00 -0.53181381508E+03  0.16886483382E+04  0.16027187141E+04 0.  0.
        3    1    3    3  502    0  0.14768932154E+02 -0.48503600395E+03 -0.93782809292E+03  0.10559354093E+04  0.10100000352E+00 0.  1.
       -3    1    3    3    0  502 -0.14768932154E+02  0.48503600395E+03  0.40601427784E+03  0.63271292898E+03  0.10100000352E+00 0. -1.
</event>
<event>
 5   0  0.3042125E-05  0.1600829E+04  0.7818609E-02  0.8820039E-01
       -3   -1    0    0    0  501  0.00000000000E+00  0.00000000000E+00  0.55682532407E+03  0.55682533323E+03  0.10100000352E+00 0.  1.
        3   -1    0    0  501    0  0.00000000000E+00  0.00000000000E+00 -0.11505642335E+04  0.11505642380E+04  0.10100000352E+00 0. -1.
    10030    2    1    2    0    0  0.00000000000E+00  0.00000000000E+00 -0.59373890945E+03  0.17073895712E+04  0.16008289275E+04 0.  0.
        3    1    3    3  502    0  0.52666550059E+03  0.11696443863E+03  0.33376426076E+03  0.63439405844E+03  0.10100000352E+00 0.  1.
       -3    1    3    3    0  502 -0.52666550059E+03 -0.11696443863E+03 -0.92750317021E+03  0.10729955127E+04  0.10100000352E+00 0. -1.
</event>
<event>
 5   0  0.7849690E-05  0.1601307E+04  0.7818609E-02  0.8819745E-01
       -2   -1    0    0    0  501  0.00000000000E+00  0.00000000000E+00  0.72735044564E+03  0.72735044565E+03  0.25500000920E-02 0.  1.
        2   -1    0    0  501    0  0.00000000000E+00  0.00000000000E+00 -0.88134421981E+03  0.88134421982E+03  0.25500000920E-02 0. -1.
    10030    2    1    2    0    0  0.00000000000E+00  0.00000000000E+00 -0.15399377417E+03  0.16086946655E+04  0.16013071049E+04 0.  0.
        3    1    3    3  502    0 -0.18407404344E+03  0.20388851763E+03  0.67853142401E+03  0.73202369133E+03  0.10100000352E+00 0.  1.
       -3    1    3    3    0  502  0.18407404344E+03 -0.20388851763E+03 -0.83252519818E+03  0.87667097414E+03  0.10100000352E+00 0. -1.
</event>
<event>
 5   0  0.4504463E-05  0.1599228E+04  0.7818609E-02  0.8821023E-01
        1   -1    0    0  501    0  0.00000000000E+00  0.00000000000E+00  0.12909720466E+04  0.12909720467E+04  0.50400001928E-02 0. -1.
       -1   -1    0    0    0  501  0.00000000000E+00  0.00000000000E+00 -0.49527191094E+03  0.49527191096E+03  0.50400001928E-02 0.  1.
    10030    2    1    2    0    0  0.00000000000E+00  0.00000000000E+00  0.79570013571E+03  0.17862439576E+04  0.15992275542E+04 0.  0.
        1    1    3    3  502    0  0.17197379895E+03 -0.14365637049E+03 -0.45948549797E+03  0.51121332453E+03  0.50400001928E-02 0.  1.
       -1    1    3    3    0  502 -0.17197379895E+03  0.14365637049E+03  0.12551856337E+04  0.12750306331E+04  0.50400001928E-02 0. -1.
</event>
<event>
 5   0  0.7901257E-05  0.1599284E+04  0.7818609E-02  0.8820988E-01
        2   -1    0    0  501    0  0.00000000000E+00  0.00000000000E+00  0.14402634860E+04  0.14402634860E+04  0.25500000920E-02 0.  1.
       -2   -1    0    0    0  501  0.00000000000E+00  0.00000000000E+00 -0.44396564948E+03  0.44396564949E+03  0.25500000920E-02 0. -1.
    10030    2    1    2    0    0  0.00000000000E+00  0.00000000000E+00  0.99629783656E+03  0.18842291355E+04  0.15992842324E+04 0.  0.
        2    1    3    3  502    0 -0.47264542902E+03  0.18786321235E+03 -0.22883199949E+03  0.55771890063E+03  0.25500000920E-02 0. -1.
       -2    1    3    3    0  502  0.47264542902E+03 -0.18786321235E+03  0.12251298360E+04  0.13265102349E+04  0.25500000920E-02 0.  1.
</event>
<event>
 5   0  0.4373026E-05  0.1588679E+04  0.7818609E-02  0.8827533E-01
        1   -1    0    0  501    0  0.00000000000E+00  0.00000000000E+00  0.68379060003E+03  0.68379060004E+03  0.50400001928E-02 0. -1.
       -1   -1    0    0    0  501  0.00000000000E+00  0.00000000000E+00 -0.92276061803E+03  0.92276061805E+03  0.50400001928E-02 0.  1.
    10030    2    1    2    0    0  0.00000000000E+00  0.00000000000E+00 -0.23897001801E+03  0.16065512181E+04  0.15886787425E+04 0.  0.
        4    1    3    3  502    0 -0.18475798718E+03  0.51915516755E+02  0.65999300517E+03  0.68733042598E+03  0.12699999809E+01 0. -1.
       -4    1    3    3    0  502  0.18475798718E+03 -0.51915516755E+02 -0.89896302318E+03  0.91922079211E+03  0.12699999809E+01 0.  1.
</event>
<event>
 5   0  0.4504463E-05  0.1558053E+04  0.7818609E-02  0.8846741E-01
       -1   -1    0    0    0  501  0.00000000000E+00  0.00000000000E+00  0.31434742527E+03  0.31434742531E+03  0.50400001928E-02 0. -1.
        1   -1    0    0  501    0  0.00000000000E+00  0.00000000000E+00 -0.19306091077E+04  0.19306091077E+04  0.50400001928E-02 0.  1.
    10030    2    1    2    0    0  0.00000000000E+00  0.00000000000E+00 -0.16162616825E+04  0.22449565331E+04  0.15580526336E+04 0.  0.
        1    1    3    3  502    0  0.24931621969E+03  0.93766523408E+02  0.24669402242E+03  0.36305465020E+03  0.50400001928E-02 0. -1.
       -1    1    3    3    0  502 -0.24931621969E+03 -0.93766523408E+02 -0.18629557049E+04  0.18819018829E+04  0.50400001928E-02 0.  1.
</event>
<event>
 5   0  0.4211419E-05  0.1592288E+04  0.7818609E-02  0.8825300E-01
        1   -1    0    0  501    0  0.00000000000E+00  0.00000000000E+00  0.77181113198E+03  0.77181113200E+03  0.50400001928E-02 0.  1.
       -1   -1    0    0    0  501  0.00000000000E+00  0.00000000000E+00 -0.82124403136E+03  0.82124403138E+03  0.50400001928E-02 0. -1.
    10030    2    1    2    0    0  0.00000000000E+00  0.00000000000E+00 -0.49432899380E+02  0.15930551634E+04  0.15922880211E+04 0.  0.
        2    1    3    3  502    0  0.76245874330E+03  0.94470619191E+02  0.18413577635E+03  0.79004684498E+03  0.25500000920E-02 0.  1.
       -2    1    3    3    0  502 -0.76245874330E+03 -0.94470619191E+02 -0.23356867573E+03  0.80300831840E+03  0.25500000920E-02 0. -1.
</event>
<event>
 5   0  0.4256406E-05  0.1598118E+04  0.7818609E-02  0.8821705E-01
        1   -1    0    0  501    0  0.00000000000E+00  0.00000000000E+00  0.72370603766E+03  0.72370603768E+03  0.50400001928E-02 0.  1.
       -1   -1    0    0    0  501  0.00000000000E+00  0.00000000000E+00 -0.88225729916E+03  0.88225729918E+03  0.50400001928E-02 0. -1.
    10030    2    1    2    0    0  0.00000000000E+00  0.00000000000E+00 -0.15855126150E+03  0.16059633369E+04  0.15981175604E+04 0.  0.
        3    1    3    3  502    0  0.51120737313E+03 -0.53070614579E+03  0.23129328964E+03  0.77232026229E+03  0.10100000352E+00 0.  1.
       -3    1    3    3    0  502 -0.51120737313E+03  0.53070614579E+03 -0.38984455114E+03  0.83364307456E+03  0.10100000352E+00 0. -1.
</event>
<event>
 5   0  0.8620155E-05  0.1597481E+04  0.7818609E-02  0.8822097E-01
        2   -1    0    0  501    0  0.00000000000E+00  0.00000000000E+00  0.12870052937E+04  0.12870052937E+04  0.25500000920E-02 0. -1.
       -2   -1    0    0    0  501  0.00000000000E+00  0.00000000000E+00 -0.49571360983E+03  0.49571360984E+03  0.25500000920E-02 0.  1.
    10030    2    1    2    0    0  0.00000000000E+00  0.00000000000E+00  0.79129168390E+03  0.17827189036E+04  0.15974805664E+04 0.  0.
        4    1    3    3  502    0 -0.40628482543E+03 -0.11127578394E+03  0.11529642221E+04  0.12275087657E+04  0.12699999809E+01 0. -1.
       -4    1    3    3    0  502  0.40628482543E+03  0.11127578394E+03 -0.36167253819E+03  0.55521013791E+03  0.12699999809E+01 0.  1.
</event>
<event>
 5   0  0.8620155E-05  0.1600249E+04  0.7818609E-02  0.8820395E-01
        2   -1    0    0  501    0  0.00000000000E+00  0.00000000000E+00  0.70204875639E+03  0.70204875639E+03  0.25500000920E-02 0.  1.
       -2   -1    0    0    0  501  0.00000000000E+00  0.00000000000E+00 -0.91190124289E+03  0.91190124289E+03  0.25500000920E-02 0. -1.
    10030    2    1    2    0    0  0.00000000000E+00  0.00000000000E+00 -0.20985248650E+03  0.16139499993E+04  0.16002488975E+04 0.  0.
        4    1    3    3  502    0 -0.40430925288E+03 -0.30633168633E+03 -0.72900721173E+03  0.88812060085E+03  0.12699999809E+01 0. -1.
       -4    1    3    3    0  502  0.40430925288E+03  0.30633168633E+03  0.51915472522E+03  0.72582939843E+03  0.12699999809E+01 0.  1.
</event>
<event>
 5   0  0.4211419E-05  0.1598364E+04  0.7818609E-02  0.8821553E-01
        1   -1    0    0  501    0  0.00000000000E+00  0.00000000000E+00  0.12174172816E+04  0.12174172816E+04  0.50400001928E-02 0.  1.
       -1   -1    0    0    0  501  0.00000000000E+00  0.00000000000E+00 -0.52462887177E+03  0.52462887179E+03  0.50400001928E-02 0. -1.
    10030    2    1    2    0    0  0.00000000000E+00  0.00000000000E+00  0.69278840982E+03  0.17420461534E+04  0.15983644828E+04 0.  0.
        2    1    3    3  502    0 -0.53133260477E+03  0.16816177988E+02 -0.30398531346E+03  0.61237585806E+03  0.25500000920E-02 0. -1.
       -2    1    3    3    0  502  0.53133260477E+03 -0.16816177988E+02  0.99677372328E+03  0.11296702953E+04  0.25500000920E-02 0.  1.
</event>
<event>
 5   0  0.8620155E-05  0.1603633E+04  0.7818609E-02  0.8818319E-01
       -2   -1    0    0    0  501  0.00000000000E+00  0.00000000000E+00  0.11950332127E+04  0.11950332127E+04  0.25500000920E-02 0.  1.
        2   -1    0    0  501    0  0.00000000000E+00  0.00000000000E+00 -0.53798493294E+03  0.53798493295E+03  0.25500000920E-02 0. -1.
    10030    2    1    2    0    0  0.00000000000E+00  0.00000000000E+00  0.65704827975E+03  0.17330181456E+04  0.16036332035E+04 0.  0.
        4    1    3    3  502    0 -0.30008797957E+03 -0.33790228140E+03 -0.38724134354E+03  0.59513714243E+03  0.12699999809E+01 0. -1.
       -4    1    3    3    0  502  0.30008797957E+03  0.33790228140E+03  0.10442896233E+04  0.11378810032E+04  0.12699999809E+01 0.  1.
</event>
<event>
 5   0  0.8694033E-05  0.1599410E+04  0.7818609E-02  0.8820911E-01
        2   -1    0    0  501    0  0.00000000000E+00  0.00000000000E+00  0.16275359363E+04  0.16275359363E+04  0.25500000920E-02 0.  1.
       -2   -1    0    0    0  501  0.00000000000E+00  0.00000000000E+00 -0.39294251725E+03  0.39294251726E+03  0.25500000920E-02 0. -1.
    10030    2    1    2    0    0  0.00000000000E+00  0.00000000000E+00  0.12345934191E+04  0.20204784536E+04  0.15994099759E+04 0.  0.
        1    1    3    3  502    0 -0.38256082928E+03 -0.41012945951E+03 -0.10284084712E+03  0.57020627980E+03  0.50400001928E-02 0. -1.
       -1    1    3    3    0  502  0.38256082928E+03  0.41012945951E+03  0.13374342662E+04  0.14502721738E+04  0.50400001928E-02 0.  1.
</event>
<event>
 5   0  0.8620155E-05  0.1599091E+04  0.7818609E-02  0.8821107E-01
       -2   -1    0    0    0  501  0.00000000000E+00  0.00000000000E+00  0.62956535670E+03  0.62956535671E+03  0.25500000920E-02 0.  1.
        2   -1    0    0  501    0  0.00000000000E+00  0.00000000000E+00 -0.10154193109E+04  0.10154193109E+04  0.25500000920E-02 0. -1.
    10030    2    1    2    0    0  0.00000000000E+00  0.00000000000E+00 -0.38585395418E+03  0.16449846676E+04  0.15990907675E+04 0.  0.
        4    1    3    3  502    0  0.74733821673E+03 -0.27647129024E+03 -0.26054335234E+03  0.83835269181E+03  0.12699999809E+01 0.  1.
       -4    1    3    3    0  502 -0.74733821673E+03  0.27647129024E+03 -0.12531060184E+03  0.80663197578E+03  0.12699999809E+01 0. -1.
</event>
<event>
 5   0  0.4256406E-05  0.1598376E+04  0.7818609E-02  0.8821546E-01
        1   -1    0    0  501    0  0.00000000000E+00  0.00000000000E+00  0.71500811303E+03  0.71500811305E+03  0.50400001928E-02 0.  1.
       -1   -1    0    0    0  501  0.00000000000E+00  0.00000000000E+00 -0.89327868385E+03  0.89327868387E+03  0.50400001928E-02 0. -1.
    10030    2    1    2    0    0  0.00000000000E+00  0.00000000000E+00 -0.17827057082E+03  0.16082867969E+04  0.15983760586E+04 0.  0.
        3    1    3    3  502    0 -0.67695124675E+03 -0.18851448508E+03  0.29388335830E+03  0.76168769194E+03  0.10100000352E+00 0.  1.
       -3    1    3    3    0  502  0.67695124675E+03  0.18851448508E+03 -0.47215392912E+03  0.84659910498E+03  0.10100000352E+00 0. -1.
</event>
<event>
 5   0  0.8037548E-05  0.1597995E+04  0.7818609E-02  0.8821781E-01
        2   -1    0    0  501    0  0.00000000000E+00  0.00000000000E+00  0.58805797703E+03  0.58805797703E+03  0.25500000920E-02 0. -1.
       -2   -1    0    0    0  501  0.00000000000E+00  0.00000000000E+00 -0.10856021256E+04  0.10856021256E+04  0.25500000920E-02 0.  1.
    10030    2    1    2    0    0  0.00000000000E+00  0.00000000000E+00 -0.49754414855E+03  0.16736601026E+04  0.15979949810E+04 0.  0.
        5    1    3    3  502    0  0.35552951120E+03 -0.39907575335E+03 -0.87078885214E+03  0.10217426316E+04  0.46999998093E+01 0.  1.
       -5    1    3    3    0  502 -0.35552951120E+03  0.39907575335E+03  0.37324470359E+03  0.65191747100E+03  0.46999998093E+01 0. -1.
</event>
<event>
 5   0  0.4314657E-05  0.1600785E+04  0.7818609E-02  0.8820066E-01
       -1   -1    0    0    0  501  0.00000000000E+00  0.00000000000E+00  0.32283935478E+03  0.32283935482E+03  0.50400001928E-02 0.  1.
        1   -1    0    0  501    0  0.00000000000E+00  0.00000000000E+00 -0.19843550295E+04  0.19843550295E+04  0.50400001928E-02 0. -1.
    10030    2    1    2    0    0  0.00000000000E+00  0.00000000000E+00 -0.16615156747E+04  0.23071943843E+04  0.16007846794E+04 0.  0.
        5    1    3    3  502    0 -0.96264785991E+02  0.53272976150E+03 -0.16804318839E+04  0.17654861410E+04  0.46999998093E+01 0. -1.
       -5    1    3    3    0  502  0.96264785991E+02 -0.53272976150E+03  0.18916209218E+02  0.54170824323E+03  0.46999998093E+01 0.  1.
</event>
<event>
 5   0  0.4256406E-05  0.1599658E+04  0.7818609E-02  0.8820758E-01
       -1   -1    0    0    0  501  0.00000000000E+00  0.00000000000E+00  0.77545141102E+03  0.77545141103E+03  0.50400001928E-02 0. -1.
        1   -1    0    0  501    0  0.00000000000E+00  0.00000000000E+00 -0.82497344318E+03  0.82497344319E+03  0.50400001928E-02 0.  1.
    10030    2    1    2    0    0  0.00000000000E+00  0.00000000000E+00 -0.49522032157E+02  0.16004248542E+04  0.15996584893E+04 0.  0.
        3    1    3    3  502    0 -0.43420881360E+03  0.28558848749E+03  0.58350124722E+03  0.78139093525E+03  0.10100000352E+00 0. -1.
       -3    1    3    3    0  502  0.43420881360E+03 -0.28558848749E+03 -0.63302327937E+03  0.81903391897E+03  0.10100000352E+00 0.  1.
</event>
<event>
 5   0  0.7849690E-05  0.1598511E+04  0.7818609E-02  0.8821463E-01
        2   -1    0    0  501    0  0.00000000000E+00  0.00000000000E+00  0.75386761801E+03  0.75386761802E+03  0.25500000920E-02 0. -1.
       -2   -1    0    0    0  501  0.00000000000E+00  0.00000000000E+00 -0.84737592709E+03  0.84737592709E+03  0.25500000920E-02 0.  1.
    10030    2    1    2    0    0  0.00000000000E+00  0.00000000000E+00 -0.93508309076E+02  0.16012435451E+04  0.15985108967E+04 0.  0.
        3    1    3    3  502    0 -0.31885359783E+03 -0.49185527000E+03 -0.59102454313E+03  0.83240569691E+03  0.10100000352E+00 0.  1.
       -3    1    3    3    0  502  0.31885359783E+03  0.49185527000E+03  0.49751623405E+03  0.76883784819E+03  0.10100000352E+00 0. -1.
</event>
<event>
 5   0  0.4504463E-05  0.1602212E+04  0.7818609E-02  0.8819190E-01
       -1   -1    0    0    0  501  0.00000000000E+00  0.00000000000E+00  0.11917524968E+04  0.11917524968E+04  0.50400001928E-02 0. -1.
        1   -1    0    0  501    0  0.00000000000E+00  0.00000000000E+00 -0.53851047402E+03  0.53851047404E+03  0.50400001928E-02 0.  1.
    10030    2    1    2    0    0  0.00000000000E+00  0.00000000000E+00  0.65324202281E+03  0.17302629709E+04  0.16022124728E+04 0.  0.
        1    1    3    3  502    0  0.25995052208E+03 -0.75367192730E+03  0.24175574695E+03  0.83309152507E+03  0.50400001928E-02 0.  1.
       -1    1    3    3    0  502 -0.25995052208E+03  0.75367192730E+03  0.41148627586E+03  0.89717144581E+03  0.50400001928E-02 0. -1.
</event>
<event>
 5   0  0.4373026E-05  0.1601477E+04  0.7818609E-02  0.8819641E-01
       -1   -1    0    0    0  501  0.00000000000E+00  0.00000000000E+00  0.33223194711E+03  0.33223194714E+03  0.50400001928E-02 0.  1.
        1   -1    0    0  501    0  0.00000000000E+00  0.00000000000E+00 -0.19299224040E+04  0.19299224040E+04  0.50400001928E-02 0. -1.
    10030    2    1    2    0    0  0.00000000000E+00  0.00000000000E+00 -0.15976904569E+04  0.22621543512E+04  0.16014766662E+04 0.  0.
        4    1    3    3  502    0 -0.38762602100E+03  0.21681070481E+03  0.14229363281E+03  0.46637957151E+03  0.12699999809E+01 0.  1.
       -4    1    3    3    0  502  0.38762602100E+03 -0.21681070481E+03 -0.17399840897E+04  0.17957747797E+04  0.12699999809E+01 0. -1.
</event>
<event>
 5   0  0.4314657E-05  0.1600594E+04  0.7818609E-02  0.8820183E-01
       -1   -1    0    0    0  501  0.00000000000E+00  0.00000000000E+00  0.91571622276E+03  0.91571622277E+03  0.50400001928E-02 0. -1.
        1   -1    0    0  501    0  0.00000000000E+00  0.00000000000E+00 -0.69942508947E+03  0.69942508949E+03  0.50400001928E-02 0.  1.
    10030    2    1    2    0    0  0.00000000000E+00  0.00000000000E+00  0.21629113328E+03  0.16151413123E+04  0.16005935162E+04 0.  0.
        5    1    3    3  502    0 -0.14886850759E+03  0.10941082152E+03 -0.67759741259E+03  0.70234813587E+03  0.46999998093E+01 0.  1.
       -5    1    3    3    0  502  0.14886850759E+03 -0.10941082152E+03  0.89388854587E+03  0.91279317639E+03  0.46999998093E+01 0. -1.
</event>
<event>
 5   0  0.4373026E-05  0.1598612E+04  0.7818609E-02  0.8821401E-01
        1   -1    0    0  501    0  0.00000000000E+00  0.00000000000E+00  0.71219161792E+03  0.71219161793E+03  0.50400001928E-02 0. -1.
       -1   -1    0    0    0  501  0.00000000000E+00  0.00000000000E+00 -0.89707557307E+03  0.89707557309E+03  0.50400001928E-02 0.  1.
    10030    2    1    2    0    0  0.00000000000E+00  0.00000000000E+00 -0.18488395516E+03  0.16092671910E+04  0.15986115273E+04 0.  0.
        4    1    3    3  502    0  0.10746629853E+03  0.33388181854E+03 -0.81546477777E+03  0.88769954983E+03  0.12699999809E+01 0.  1.
       -4    1    3    3    0  502 -0.10746629853E+03 -0.33388181854E+03  0.63058082261E+03  0.72156764120E+03  0.12699999809E+01 0. -1.
</event>
<event>
 5   0  0.4504463E-05  0.1602409E+04  0.7818609E-02  0.8819069E-01
       -1   -1    0    0    0  501  0.00000000000E+00  0.00000000000E+00  0.71847475309E+03  0.71847475311E+03  0.50400001928E-02 0. -1.
        1   -1    0    0  501    0  0.00000000000E+00  0.00000000000E+00 -0.89346045751E+03  0.89346045752E+03  0.50400001928E-02 0.  1.
    10030    2    1    2    0    0  0.00000000000E+00  0.00000000000E+00 -0.17498570442E+03  0.16119352106E+04  0.16024091633E+04 0.  0.
        1    1    3    3  502    0 -0.23426202387E+03  0.68977415774E+03 -0.42303493982E+03  0.84239280912E+03  0.50400001928E-02 0.  1.
       -1    1    3    3    0  502  0.23426202387E+03 -0.68977415774E+03  0.24804923540E+03  0.76954240151E+03  0.50400001928E-02 0. -1.
</event>
<event>
 5   0  0.8620155E-05  0.1603198E+04  0.7818609E-02  0.8818586E-01
       -2   -1    0    0    0  501  0.00000000000E+00  0.00000000000E+00  0.85706488693E+03  0.85706488694E+03  0.25500000920E-02 0.  1.
        2   -1    0    0  501    0  0.00000000000E+00  0.00000000000E+00 -0.74972233473E+03  0.74972233474E+03  0.25500000920E-02 0. -1.
    10030    2    1    2    0    0  0.00000000000E+00  0.00000000000E+00  0.10734255220E+03  0.16067872217E+04  0.16031976647E+04 0.  0.
        4    1    3    3  502    0  0.63345605548E+03 -0.46370449410E+03 -0.10877383657E+03  0.79254135066E+03  0.12699999809E+01 0. -1.
       -4    1    3    3    0  502 -0.63345605548E+03  0.46370449410E+03  0.21611638877E+03  0.81424587102E+03  0.12699999809E+01 0.  1.
</event>
<event>
 5   0  0.4373026E-05  0.1624707E+04  0.7818609E-02  0.8805512E-01
        1   -1    0    0  501    0  0.00000000000E+00  0.00000000000E+00  0.12087415909E+04  0.12087415909E+04  0.50400001928E-02 0. -1.
       -1   -1    0    0    0  501  0.00000000000E+00  0.00000000000E+00 -0.54595488750E+03  0.54595488752E+03  0.50400001928E-02 0.  1.
    10030    2    1    2    0    0  0.00000000000E+00  0.00000000000E+00  0.66278670343E+03  0.17546964785E+04  0.16247072097E+04 0.  0.
        4    1    3    3  502    0  0.58733297450E+03  0.53189976798E+03  0.13807683969E+03  0.80432842339E+03  0.12699999809E+01 0.  1.
       -4    1    3    3    0  502 -0.58733297450E+03 -0.53189976798E+03  0.52470986375E+03  0.95036805508E+03  0.12699999809E+01 0. -1.
</event>
<event>
 5   0  0.4504463E-05  0.1598971E+04  0.7818609E-02  0.8821181E-01
        1   -1    0    0  501    0  0.00000000000E+00  0.00000000000E+00  0.11389660073E+04  0.11389660074E+04  0.50400001928E-02 0. -1.
       -1   -1    0    0    0  501  0.00000000000E+00  0.00000000000E+00 -0.56119048211E+03  0.56119048214E+03  0.50400001928E-02 0.  1.
    10030    2    1    2    0    0  0.00000000000E+00  0.00000000000E+00  0.57777552523E+03  0.17001564895E+04  0.15989707725E+04 0.  0.
        1    1    3    3  502    0 -0.31474253192E+03  0.53641535756E+03  0.82304542258E+03  0.10316046069E+04  0.50400001928E-02 0. -1.
       -1    1    3    3    0  502  0.31474253192E+03 -0.53641535756E+03 -0.24526989735E+03  0.66855188265E+03  0.50400001928E-02 0.  1.
</event>
<event>
 5   0  0.4256406E-05  0.1601044E+04  0.7818609E-02  0.8819907E-01
       -1   -1    0    0    0  501  0.00000000000E+00  0.00000000000E+00  0.57912460472E+03  0.57912460474E+03  0.50400001928E-02 0. -1.
        1   -1    0    0  501    0  0.00000000000E+00  0.00000000000E+00 -0.11065594050E+04  0.11065594050E+04  0.50400001928E-02 0.  1.
    10030    2    1    2    0    0  0.00000000000E+00  0.00000000000E+00 -0.52743480031E+03  0.16856840098E+04  0.16010443817E+04 0.  0.
        3    1    3    3  502    0  0.38832675132E+02  0.17816374690E+03 -0.10844023820E+04  0.10996266793E+04  0.10100000352E+00 0.  1.
       -3    1    3    3    0  502 -0.38832675132E+02 -0.17816374690E+03  0.55696758172E+03  0.58605733052E+03  0.10100000352E+00 0. -1.
</event>
<event>
 5   0  0.4256406E-05  0.1597699E+04  0.7818609E-02  0.8821963E-01
        1   -1    0    0  501    0  0.00000000000E+00  0.00000000000E+00  0.68499534224E+03  0.68499534226E+03  0.50400001928E-02 0. -1.
       -1   -1    0    0    0  501  0.00000000000E+00  0.00000000000E+00 -0.93162726578E+03  0.93162726579E+03  0.50400001928E-02 0.  1.
    10030    2    1    2    0    0  0.00000000000E+00  0.00000000000E+00 -0.24663192354E+03  0.16166226080E+04  0.15976987673E+04 0.  0.
        3    1    3    3  502    0  0.65585000832E+03 -0.24961799100E+03 -0.50955959802E+03  0.86723662802E+03  0.10100000352E+00 0. -1.
       -3    1    3    3    0  502 -0.65585000832E+03  0.24961799100E+03  0.26292767448E+03  0.74938598003E+03  0.10100000352E+00 0.  1.
</event>
<event>
 5   0  0.8620155E-05  0.1601114E+04  0.7818609E-02  0.8819864E-01
        2   -1    0    0  501    0  0.00000000000E+00  0.00000000000E+00  0.78115543837E+03  0.78115543837E+03  0.25500000920E-02 0.  1.
       -2   -1    0    0    0  501  0.00000000000E+00  0.00000000000E+00 -0.82044024288E+03  0.82044024289E+03  0.25500000920E-02 0. -1.
    10030    2    1    2    0    0  0.00000000000E+00  0.00000000000E+00 -0.39284804514E+02  0.16015956813E+04  0.16011138093E+04 0.  0.
        4    1    3    3  502    0  0.59297529996E+03  0.87429156040E+02  0.51120194706E+03  0.78777700352E+03  0.12699999809E+01 0.  1.
       -4    1    3    3    0  502 -0.59297529996E+03 -0.87429156040E+02 -0.55048675158E+03  0.81381867775E+03  0.12699999809E+01 0. -1.
</event>
<event>
 5   0  0.4211419E-05  0.1599682E+04  0.7818609E-02  0.8820743E-01
       -1   -1    0    0    0  501  0.00000000000E+00  0.00000000000E+00  0.37966136920E+03  0.37966136924E+03  0.50400001928E-02 0. -1.
        1   -1    0    0  501    0  0.00000000000E+00  0.00000000000E+00 -0.16850435733E+04  0.16850435733E+04  0.50400001928E-02 0.  1.
    10030    2    1    2    0    0  0.00000000000E+00  0.00000000000E+00 -0.13053822041E+04  0.20647049425E+04  0.15996824063E+04 0.  0.
        2    1    3    3  502    0  0.46307542269E+03  0.64369100255E+03 -0.78786961835E+03  0.11178172880E+04  0.25500000920E-02 0.  1.
       -2    1    3    3    0  502 -0.46307542269E+03 -0.64369100255E+03 -0.51751258572E+03  0.94688765450E+03  0.25500000920E-02 0. -1.
</event>
<event>
 5   0  0.4373026E-05  0.1598394E+04  0.7818609E-02  0.8821535E-01
        1   -1    0    0  501    0  0.00000000000E+00  0.00000000000E+00  0.13520562299E+04  0.13520562299E+04  0.50400001928E-02 0.  1.
       -1   -1    0    0    0  501  0.00000000000E+00  0.00000000000E+00 -0.47240313271E+03  0.47240313274E+03  0.50400001928E-02 0. -1.
    10030    2    1    2    0    0  0.00000000000E+00  0.00000000000E+00  0.87965309719E+03  0.18244593627E+04  0.15983936920E+04 0.  0.
        4    1    3    3  502    0  0.13170189606E+03 -0.50015832698E+03 -0.25561464818E+03  0.57692651416E+03  0.12699999809E+01 0. -1.
       -4    1    3    3    0  502 -0.13170189606E+03  0.50015832698E+03  0.11352677454E+04  0.12475328485E+04  0.12699999809E+01 0.  1.
</event>
<event>
 5   0  0.8620155E-05  0.1600297E+04  0.7818609E-02  0.8820366E-01
       -2   -1    0    0    0  501  0.00000000000E+00  0.00000000000E+00  0.10012257585E+04  0.10012257585E+04  0.25500000920E-02 0.  1.
        2   -1    0    0  501    0  0.00000000000E+00  0.00000000000E+00 -0.63945372124E+03  0.63945372125E+03  0.25500000920E-02 0. -1.
    10030    2    1    2    0    0  0.00000000000E+00  0.00000000000E+00  0.36177203723E+03  0.16406794797E+04  0.16002968938E+04 0.  0.
        4    1    3    3  502    0  0.41968556978E+03  0.25234990869E+03 -0.46786907016E+03  0.67728836814E+03  0.12699999809E+01 0. -1.
       -4    1    3    3    0  502 -0.41968556978E+03 -0.25234990869E+03  0.82964110739E+03  0.96339111158E+03  0.12699999809E+01 0.  1.
</event>
<event>
 5   0  0.8037548E-05  0.1597826E+04  0.7818609E-02  0.8821885E-01
       -2   -1    0    0    0  501  0.00000000000E+00  0.00000000000E+00  0.62240990914E+03  0.62240990914E+03  0.25500000920E-02 0.  1.
        2   -1    0    0  501    0  0.00000000000E+00  0.00000000000E+00 -0.10254690276E+04  0.10254690276E+04  0.25500000920E-02 0. -1.
    10030    2    1    2    0    0  0.00000000000E+00  0.00000000000E+00 -0.40305911846E+03  0.16478789367E+04  0.15978261286E+04 0.  0.
        5    1    3    3  502    0 -0.11103366519E+02  0.34120318821E+03 -0.94644159720E+03  0.10061394969E+04  0.46999998093E+01 0. -1.
       -5    1    3    3    0  502  0.11103366519E+02 -0.34120318821E+03  0.54338247874E+03  0.64173943980E+03  0.46999998093E+01 0.  1.
</event>
<event>
 5   0  0.4373026E-05  0.1604046E+04  0.7818609E-02  0.8818066E-01
       -1   -1    0    0    0  501  0.00000000000E+00  0.00000000000E+00  0.59423417302E+03  0.59423417305E+03  0.50400001928E-02 0.  1.
        1   -1    0    0  501    0  0.00000000000E+00  0.00000000000E+00 -0.10824704428E+04  0.10824704428E+04  0.50400001928E-02 0. -1.
    10030    2    1    2    0    0  0.00000000000E+00  0.00000000000E+00 -0.48823626973E+03  0.16767046158E+04  0.16040460447E+04 0.  0.
        4    1    3    3  502    0  0.73431230341E+03 -0.31571947331E+03 -0.17520799551E+03  0.81828650200E+03  0.12699999809E+01 0.  1.
       -4    1    3    3    0  502 -0.73431230341E+03  0.31571947331E+03 -0.31302827422E+03  0.85841811381E+03  0.12699999809E+01 0. -1.
</event>
<event>
 5   0  0.8620155E-05  0.1597857E+04  0.7818609E-02  0.8821866E-01
        2   -1    0    0  501    0  0.00000000000E+00  0.00000000000E+00  0.92294263122E+03  0.92294263123E+03  0.25500000920E-02 0. -1.
       -2   -1    0    0    0  501  0.00000000000E+00  0.00000000000E+00 -0.69157784598E+03  0.69157784598E+03  0.25500000920E-02 0.  1.
    10030    2    1    2    0    0  0.00000000000E+00  0.00000000000E+00  0.23136478525E+03  0.16145204772E+04  0.15978569108E+04 0.  0.
        4    1    3    3  502    0  0.55278348914E+03 -0.57331332474E+03  0.51559487409E+02  0.79807126739E+03  0.12699999809E+01 0.  1.
       -4    1    3    3    0  502 -0.55278348914E+03  0.57331332474E+03  0.17980529784E+03  0.81644920982E+03  0.12699999809E+01 0. -1.
</event>
<event>
 5   0  0.7849690E-05  0.1597115E+04  0.7818609E-02  0.8822323E-01
       -2   -1    0    0    0  501  0.00000000000E+00  0.00000000000E+00  0.60241911714E+03  0.60241911714E+03  0.25500000920E-02 0.  1.
        2   -1    0    0  501    0  0.00000000000E+00  0.00000000000E+00 -0.10585549653E+04  0.10585549653E+04  0.25500000920E-02 0. -1.
    10030    2    1    2    0    0  0.00000000000E+00  0.00000000000E+00 -0.45613584812E+03  0.16609740824E+04  0.15971145828E+04 0.  0.
        3    1    3    3  502    0 -0.10940400620E+03 -0.13066139352E+03  0.58328787301E+03  0.60767292956E+03  0.10100000352E+00 0.  1.
       -3    1    3    3    0  502  0.10940400620E+03  0.13066139352E+03 -0.10394237211E+04  0.10533011528E+04  0.10100000352E+00 0. -1.
</event>
<event>
 5   0  0.4314657E-05  0.1568211E+04  0.7818609E-02  0.8840319E-01
        1   -1    0    0  501    0  0.00000000000E+00  0.00000000000E+00  0.13927763068E+04  0.13927763068E+04  0.50400001928E-02 0.  1.
       -1   -1    0    0    0  501  0.00000000000E+00  0.00000000000E+00 -0.44143576204E+03  0.44143576207E+03  0.50400001928E-02 0. -1.
    10030    2    1    2    0    0  0.00000000000E+00  0.00000000000E+00  0.95134054477E+03  0.18342120689E+04  0.15682107899E+04 0.  0.
        5    1    3    3  502    0  0.77178455014E+02  0.48956880567E+03  0.11863196807E+04  0.12856945999E+04  0.46999998093E+01 0.  1.
       -5    1    3    3    0  502 -0.77178455014E+02 -0.48956880567E+03 -0.23497913597E+03  0.54851746895E+03  0.46999998093E+01 0. -1.
</event>
<event>
 5   0  0.7901257E-05  0.1599476E+04  0.7818609E-02  0.8820870E-01
       -2   -1    0    0    0  501  0.00000000000E+00  0.00000000000E+00  0.73546550078E+03  0.73546550078E+03  0.25500000920E-02 0.  1.
        2   -1    0    0  501    0  0.00000000000E+00  0.00000000000E+00 -0.86962708508E+03  0.86962708509E+03  0.25500000920E-02 0. -1.
    10030    2    1    2    0    0  0.00000000000E+00  0.00000000000E+00 -0.13416158430E+03  0.16050925859E+04  0.15994758137E+04 0.  0.
        2    1    3    3  502    0 -0.79972012207E+03 -0.53327344372E+01 -0.66991438725E+02  0.80253882433E+03  0.25500000920E-02 0. -1.
       -2    1    3    3    0  502  0.79972012207E+03  0.53327344372E+01 -0.67170145579E+02  0.80255376154E+03  0.25500000920E-02 0.  1.
</event>
<event>
 5   0  0.4314657E-05  0.1597620E+04  0.7818609E-02  0.8822011E-01
        1   -1    0    0  501    0  0.00000000000E+00  0.00000000000E+00  0.73651516724E+03  0.73651516726E+03  0.50400001928E-02 0. -1.
       -1   -1    0    0    0  501  0.00000000000E+00  0.00000000000E+00 -0.86637370802E+03  0.86637370804E+03  0.50400001928E-02 0.  1.
    10030    2    1    2    0    0  0.00000000000E+00  0.00000000000E+00 -0.12985854078E+03  0.16028888753E+04  0.15976199504E+04 0.  0.
        5    1    3    3  502    0  0.61786729719E+03 -0.43142679995E+03 -0.33072978804E+03  0.82297834926E+03  0.46999998093E+01 0.  1.
       -5    1    3    3    0  502 -0.61786729719E+03  0.43142679995E+03  0.20087124726E+03  0.77991052604E+03  0.46999998093E+01 0. -1.
</event>
<event>
 5   0  0.7901257E-05  0.1582891E+04  0.7818609E-02  0.8831128E-01
        2   -1    0    0  501    0  0.00000000000E+00  0.00000000000E+00  0.10441252135E+04  0.10441252135E+04  0.25500000920E-02 0. -1.
       -2   -1    0    0    0  501  0.00000000000E+00  0.00000000000E+00 -0.59991484913E+03  0.59991484914E+03  0.25500000920E-02 0.  1.
    10030    2    1    2    0    0  0.00000000000E+00  0.00000000000E+00  0.44421036435E+03  0.16440400626E+04  0.15828913038E+04 0.  0.
        2    1    3    3  502    0 -0.37336718693E+03  0.13868459663E+03 -0.48823778257E+03  0.63008936347E+03  0.25500000920E-02 0.  1.
       -2    1    3    3    0  502  0.37336718693E+03 -0.13868459663E+03  0.93244814692E+03  0.10139506992E+04  0.25500000920E-02 0. -1.
</event>
<event>
 5   0  0.4256406E-05  0.1607956E+04  0.7818609E-02  0.8815675E-01
        1   -1    0    0  501    0  0.00000000000E+00  0.00000000000E+00  0.85041779975E+03  0.85041779977E+03  0.50400001928E-02 0. -1.
       -1   -1    0    0    0  501  0.00000000000E+00  0.00000000000E+00 -0.76007442163E+03  0.76007442164E+03  0.50400001928E-02 0.  1.
    10030    2    1    2    0    0  0.00000000000E+00  0.00000000000E+00  0.90343378126E+02  0.16104922214E+04  0.16079562398E+04 0.  0.
        3    1    3    3  502    0  0.44600545374E+03  0.58168331283E+03  0.37600228714E+03  0.82380463177E+03  0.10100000352E+00 0. -1.
       -3    1    3    3    0  502 -0.44600545374E+03 -0.58168331283E+03 -0.28565890902E+03  0.78668758964E+03  0.10100000352E+00 0.  1.
</event>
<event>
 5   0  0.7849690E-05  0.1599890E+04  0.7818609E-02  0.8820615E-01
       -2   -1    0    0    0  501  0.00000000000E+00  0.00000000000E+00  0.24442806595E+03  0.24442806596E+03  0.25500000920E-02 0.  1.
        2   -1    0    0  501    0  0.00000000000E+00  0.00000000000E+00 -0.26179979302E+04  0.26179979302E+04  0.25500000920E-02 0. -1.
    10030    2    1    2    0    0  0.00000000000E+00  0.00000000000E+00 -0.23735698643E+04  0.28624259962E+04  0.15998902097E+04 0.  0.
        3    1    3    3  502    0 -0.75871309126E+03  0.16373588916E+03 -0.84051758898E+03  0.11440825249E+04  0.10100000352E+00 0.  1.
       -3    1    3    3    0  502  0.75871309126E+03 -0.16373588916E+03 -0.15330522753E+04  0.17183434713E+04  0.10100000352E+00 0. -1.
</event>
<event>
 5   0  0.4211419E-05  0.1599145E+04  0.7818609E-02  0.8821074E-01
       -1   -1    0    0    0  501  0.00000000000E+00  0.00000000000E+00  0.14276080899E+04  0.14276080899E+04  0.50400001928E-02 0. -1.
        1   -1    0    0  501    0  0.00000000000E+00  0.00000000000E+00 -0.44782315554E+03  0.44782315557E+03  0.50400001928E-02 0.  1.
    10030    2    1    2    0    0  0.00000000000E+00  0.00000000000E+00  0.97978493432E+03  0.18754312454E+04  0.15991447210E+04 0.  0.
        2    1    3    3  502    0 -0.59923275599E+03  0.62622802646E+01  0.11106828796E+04  0.12620362796E+04  0.25500000920E-02 0. -1.
       -2    1    3    3    0  502  0.59923275599E+03 -0.62622802646E+01 -0.13089794528E+03  0.61339496582E+03  0.25500000920E-02 0.  1.
</event>
<event>
 5   0  0.4504463E-05  0.1601259E+04  0.7818609E-02  0.8819775E-01
       -1   -1    0    0    0  501  0.00000000000E+00  0.00000000000E+00  0.85029151033E+03  0.85029151034E+03  0.50400001928E-02 0. -1.
        1   -1    0    0  501    0  0.00000000000E+00  0.00000000000E+00 -0.75386806830E+03  0.75386806832E+03  0.50400001928E-02 0.  1.
    10030    2    1    2    0    0  0.00000000000E+00  0.00000000000E+00  0.96423442025E+02  0.16041595787E+04  0.16012590277E+04 0.  0.
        1    1    3    3  502    0 -0.11908353375E+03 -0.25419449696E+03 -0.70295439605E+03  0.75692840695E+03  0.50400001928E-02 0.  1.
       -1    1    3    3    0  502  0.11908353375E+03  0.25419449696E+03  0.79937783808E+03  0.84723117172E+03  0.50400001928E-02 0. -1.
</event>
<event>
 5   0  0.7901257E-05  0.1598813E+04  0.7818609E-02  0.8821277E-01
        2   -1    0    0  501    0  0.00000000000E+00  0.00000000000E+00  0.21588746254E+04  0.21588746254E+04  0.25500000920E-02 0. -1.
       -2   -1    0    0    0  501  0.00000000000E+00  0.00000000000E+00 -0.29601116355E+03  0.29601116356E+03  0.25500000920E-02 0.  1.
    10030    2    1    2    0    0  0.00000000000E+00  0.00000000000E+00  0.18628634618E+04  0.24548857889E+04  0.15988132972E+04 0.  0.
        2    1    3    3  502    0  0.50017898659E+03 -0.62318562873E+03  0.96616272414E+03  0.12537981321E+04  0.25500000920E-02 0.  1.
       -2    1    3    3    0  502 -0.50017898659E+03  0.62318562873E+03  0.89670073768E+03  0.12010876569E+04  0.25500000920E-02 0. -1.
</event>
<event>
 5   0  0.4256406E-05  0.1596840E+04  0.7818609E-02  0.8822492E-01
       -1   -1    0    0    0  501  0.00000000000E+00  0.00000000000E+00  0.75149607070E+03  0.75149607072E+03  0.50400001928E-02 0. -1.
        1   -1    0    0  501    0  0.00000000000E+00  0.00000000000E+00 -0.84827348509E+03  0.84827348510E+03  0.50400001928E-02 0.  1.
    10030    2    1    2    0    0  0.00000000000E+00  0.00000000000E+00 -0.96777414387E+02  0.15997695558E+04  0.15968396174E+04 0.  0.
        3    1    3    3  502    0  0.72050744799E+03  0.66596569309E+02  0.28973328835E+03  0.77943022409E+03  0.10100000352E+00 0. -1.
       -3    1    3    3    0  502 -0.72050744799E+03 -0.66596569309E+02 -0.38651070274E+03  0.82033933173E+03  0.10100000352E+00 0.  1.
</event>
<event>
 5   0  0.8620155E-05  0.1601195E+04  0.7818609E-02  0.8819814E-01
        2   -1    0    0  501    0  0.00000000000E+00  0.00000000000E+00  0.77240160681E+03  0.77240160681E+03  0.25500000920E-02 0.  1.
       -2   -1    0    0    0  501  0.00000000000E+00  0.00000000000E+00 -0.82982315801E+03  0.82982315801E+03  0.25500000920E-02 0. -1.
    10030    2    1    2    0    0  0.00000000000E+00  0.00000000000E+00 -0.57421551197E+02  0.16022247648E+04  0.16011954792E+04 0.  0.
        4    1    3    3  502    0 -0.75868260425E+03  0.24102520177E+03 -0.11398695099E+03  0.80416856428E+03  0.12699999809E+01 0. -1.
       -4    1    3    3    0  502  0.75868260425E+03 -0.24102520177E+03  0.56565399793E+02  0.79805620055E+03  0.12699999809E+01 0.  1.
</event>
<event>
 5   0  0.7849690E-05  0.1601903E+04  0.7818609E-02  0.8819380E-01
        2   -1    0    0  501    0  0.00000000000E+00  0.00000000000E+00  0.83131827585E+03  0.83131827585E+03  0.25500000920E-02 0. -1.
       -2   -1    0    0    0  501  0.00000000000E+00  0.00000000000E+00 -0.77169372095E+03  0.77169372095E+03  0.25500000920E-02 0.  1.
    10030    2    1    2    0    0  0.00000000000E+00  0.00000000000E+00  0.59624554900E+02  0.16030119968E+04  0.16019027356E+04 0.  0.
        3    1    3    3  502    0  0.57190384456E+03  0.14713525049E+03  0.57129721925E+03  0.82164670771E+03  0.10100000352E+00 0. -1.
       -3    1    3    3    0  502 -0.57190384456E+03 -0.14713525049E+03 -0.51167266435E+03  0.78136528910E+03  0.10100000352E+00 0.  1.
</event>
<event>
 5   0  0.8037548E-05  0.1589867E+04  0.7818609E-02  0.8826797E-01
       -2   -1    0    0    0  501  0.00000000000E+00  0.00000000000E+00  0.64204367512E+03  0.64204367512E+03  0.25500000920E-02 0.  1.
        2   -1    0    0  501    0  0.00000000000E+00  0.00000000000E+00 -0.98423074889E+03  0.98423074889E+03  0.25500000920E-02 0. -1.
    10030    2    1    2    0    0  0.00000000000E+00  0.00000000000E+00 -0.34218707377E+03  0.16262744240E+04  0.15898668211E+04 0.  0.
        5    1    3    3  502    0  0.45634047785E+03 -0.20920846520E+03 -0.80155358611E+03  0.94579334691E+03  0.46999998093E+01 0. -1.
       -5    1    3    3    0  502 -0.45634047785E+03  0.20920846520E+03  0.45936651234E+03  0.68048107711E+03  0.46999998093E+01 0.  1.
</event>
<event>
 5   0  0.4373026E-05  0.1600252E+04  0.7818609E-02  0.8820393E-01
       -1   -1    0    0    0  501  0.00000000000E+00  0.00000000000E+00  0.89642496079E+03  0.89642496080E+03  0.50400001928E-02 0.  1.
        1   -1    0    0  501    0  0.00000000000E+00  0.00000000000E+00 -0.71417238591E+03  0.71417238593E+03  0.50400001928E-02 0. -1.
    10030    2    1    2    0    0  0.00000000000E+00  0.00000000000E+00  0.18225257488E+03  0.16105973467E+04  0.16002524214E+04 0.  0.
        4    1    3    3  502    0  0.39666163930E+02 -0.10902149334E+02 -0.71310633309E+03  0.71429301873E+03  0.12699999809E+01 0. -1.
       -4    1    3    3    0  502 -0.39666163930E+02  0.10902149334E+02  0.89535890797E+03  0.89630432800E+03  0.12699999809E+01 0.  1.
</event>
<event>
 5   0  0.4256406E-05  0.1594983E+04  0.7818609E-02  0.8823636E-01
        1   -1    0    0  501    0  0.00000000000E+00  0.00000000000E+00  0.13319571507E+04  0.13319571507E+04  0.50400001928E-02 0.  1.
       -1   -1    0    0    0  501  0.00000000000E+00  0.00000000000E+00 -0.47748740391E+03  0.47748740393E+03  0.50400001928E-02 0. -1.
    10030    2    1    2    0    0  0.00000000000E+00  0.00000000000E+00  0.85446974678E+03  0.18094445546E+04  0.15949830871E+04 0.  0.
        3    1    3    3  502    0 -0.61914055750E+03  0.22307801952E+02  0.99691014462E+03  0.11737386909E+04  0.10100000352E+00 0.  1.
       -3    1    3    3    0  502  0.61914055750E+03 -0.22307801952E+02 -0.14244039785E+03  0.63570586368E+03  0.10100000352E+00 0. -1.
</event>
<event>
 5   0  0.4314657E-05  0.1603069E+04  0.7818609E-02  0.8818665E-01
       -1   -1    0    0    0  501  0.00000000000E+00  0.00000000000E+00  0.89505181793E+03  0.89505181794E+03  0.50400001928E-02 0. -1.
        1   -1    0    0  501    0  0.00000000000E+00  0.00000000000E+00 -0.71778845359E+03  0.71778845361E+03  0.50400001928E-02 0.  1.
    10030    2    1    2    0    0  0.00000000000E+00  0.00000000000E+00  0.17726336433E+03  0.16128402716E+04  0.16030693813E+04 0.  0.
        5    1    3    3  502    0 -0.68824210236E+03  0.40003117105E+03 -0.53918816914E+01  0.79608623381E+03  0.46999998093E+01 0. -1.
       -5    1    3    3    0  502  0.68824210236E+03 -0.40003117105E+03  0.18265524602E+03  0.81675403774E+03  0.46999998093E+01 0.  1.
</event>
<event>
 5   0  0.7901257E-05  0.1599404E+04  0.7818609E-02  0.8820914E-01
       -2   -1    0    0    0  501  0.00000000000E+00  0.00000000000E+00  0.11824966163E+04  0.11824966163E+04  0.25500000920E-02 0. -1.
        2   -1    0    0  501    0  0.00000000000E+00  0.00000000000E+00 -0.54082489115E+03  0.54082489115E+03  0.25500000920E-02 0.  1.
    10030    2    1    2    0    0  0.00000000000E+00  0.00000000000E+00  0.64167172517E+03  0.17233215075E+04  0.15994043939E+04 0.  0.
        2    1    3    3  502    0  0.15308297442E+03  0.23273679383E+03 -0.48685718958E+03  0.56091954442E+03  0.25500000920E-02 0.  1.
       -2    1    3    3    0  502 -0.15308297442E+03 -0.23273679383E+03  0.11285289148E+04  0.11624019631E+04  0.25500000920E-02 0. -1.
</event>
<event>
 5   0  0.8694033E-05  0.1597969E+04  0.7818609E-02  0.8821797E-01
       -2   -1    0    0    0  501  0.00000000000E+00  0.00000000000E+00  0.59348482364E+03  0.59348482365E+03  0.25500000920E-02 0.  1.
        2   -1    0    0  501    0  0.00000000000E+00  0.00000000000E+00 -0.10756406828E+04  0.10756406828E+04  0.25500000920E-02 0. -1.
    10030    2    1    2    0    0  0.00000000000E+00  0.00000000000E+00 -0.48215585914E+03  0.16691255064E+04  0.15979692374E+04 0.  0.
        1    1    3    3  502    0  0.56949423975E+03  0.49537523875E+03 -0.51476870427E+03  0.91362308158E+03  0.50400001928E-02 0. -1.
       -1    1    3    3    0  502 -0.56949423975E+03 -0.49537523875E+03  0.32612845129E+02  0.75550242486E+03  0.50400001928E-02 0.  1.
</event>
<event>
 5   0  0.8037548E-05  0.1601449E+04  0.7818609E-02  0.8819658E-01
       -2   -1    0    0    0  501  0.00000000000E+00  0.00000000000E+00  0.35272519276E+03  0.35272519277E+03  0.25500000920E-02 0. -1.
        2   -1    0    0  501    0  0.00000000000E+00  0.00000000000E+00 -0.18177314428E+04  0.18177314428E+04  0.25500000920E-02 0.  1.
    10030    2    1    2    0    0  0.00000000000E+00  0.00000000000E+00 -0.14650062500E+04  0.21704566356E+04  0.16014489359E+04 0.  0.
        5    1    3    3  502    0  0.28873823969E+03 -0.17438987829E+03 -0.17167180733E+04  0.17495498375E+04  0.46999998093E+01 0.  1.
       -5    1    3    3    0  502 -0.28873823969E+03  0.17438987829E+03  0.25171182325E+03  0.42090679808E+03  0.46999998093E+01 0. -1.
</event>
<event>
 5   0  0.8620155E-05  0.1598292E+04  0.7818609E-02  0.8821598E-01
        2   -1    0    0  501    0  0.00000000000E+00  0.00000000000E+00  0.15386329705E+04  0.15386329705E+04  0.25500000920E-02 0. -1.
       -2   -1    0    0    0  501  0.00000000000E+00  0.00000000000E+00 -0.41506603763E+03  0.41506603764E+03  0.25500000920E-02 0.  1.
    10030    2    1    2    0    0  0.00000000000E+00  0.00000000000E+00  0.11235669328E+04  0.19536990081E+04  0.15982919513E+04 0.  0.
        4    1    3    3  502    0  0.64401595508E+03  0.35747579052E+03  0.94069190871E+03  0.11947587084E+04  0.12699999809E+01 0.  1.
       -4    1    3    3    0  502 -0.64401595508E+03 -0.35747579052E+03  0.18287502413E+03  0.75894029973E+03  0.12699999809E+01 0. -1.
</event>
<event>
 5   0  0.7901257E-05  0.1607912E+04  0.7818609E-02  0.8815702E-01
       -2   -1    0    0    0  501  0.00000000000E+00  0.00000000000E+00  0.46354157079E+03  0.46354157080E+03  0.25500000920E-02 0. -1.
        2   -1    0    0  501    0  0.00000000000E+00  0.00000000000E+00 -0.13943627754E+04  0.13943627754E+04  0.25500000920E-02 0.  1.
    10030    2    1    2    0    0  0.00000000000E+00  0.00000000000E+00 -0.93082120464E+03  0.18579043462E+04  0.16079118274E+04 0.  0.
        2    1    3    3  502    0 -0.23666527427E+03  0.39193184616E+03 -0.12290084467E+04  0.13115192664E+04  0.25500000920E-02 0.  1.
       -2    1    3    3    0  502  0.23666527427E+03 -0.39193184616E+03  0.29818724209E+03  0.54638507980E+03  0.25500000920E-02 0. -1.
</event>
<event>
 5   0  0.8037548E-05  0.1600684E+04  0.7818609E-02  0.8820128E-01
        2   -1    0    0  501    0  0.00000000000E+00  0.00000000000E+00  0.15950714616E+04  0.15950714616E+04  0.25500000920E-02 0. -1.
       -2   -1    0    0    0  501  0.00000000000E+00  0.00000000000E+00 -0.40157889783E+03  0.40157889784E+03  0.25500000920E-02 0.  1.
    10030    2    1    2    0    0  0.00000000000E+00  0.00000000000E+00  0.11934925637E+04  0.19966503594E+04  0.16006836533E+04 0.  0.
        5    1    3    3  502    0  0.13367448120E+03  0.69414137471E+02 -0.38372241928E+03  0.41225256149E+03  0.46999998093E+01 0.  1.
       -5    1    3    3    0  502 -0.13367448120E+03 -0.69414137471E+02  0.15772149830E+04  0.15843977979E+04  0.46999998093E+01 0. -1.
</event>
<event>
 5   0  0.8037548E-05  0.1596732E+04  0.7818609E-02  0.8822558E-01
       -2   -1    0    0    0  501  0.00000000000E+00  0.00000000000E+00  0.85073761650E+03  0.85073761651E+03  0.25500000920E-02 0. -1.
        2   -1    0    0  501    0  0.00000000000E+00  0.00000000000E+00 -0.74921840114E+03  0.74921840114E+03  0.25500000920E-02 0.  1.
    10030    2    1    2    0    0  0.00000000000E+00  0.00000000000E+00  0.10151921536E+03  0.15999560176E+04  0.15967320086E+04 0.  0.
        5    1    3    3  502    0 -0.45272895309E+03  0.33418075811E+03 -0.51671055430E+03  0.76397131555E+03  0.46999998093E+01 0.  1.
       -5    1    3    3    0  502  0.45272895309E+03 -0.33418075811E+03  0.61822976966E+03  0.83598470210E+03  0.46999998093E+01 0. -1.
</event>
<event>
 5   0  0.4211419E-05  0.1599364E+04  0.7818609E-02  0.8820939E-01
        1   -1    0    0  501    0  0.00000000000E+00  0.00000000000E+00  0.10614630762E+04  0.10614630762E+04  0.50400001928E-02 0. -1.
       -1   -1    0    0    0  501  0.00000000000E+00  0.00000000000E+00 -0.60246248747E+03  0.60246248749E+03  0.50400001928E-02 0.  1.
    10030    2    1    2    0    0  0.00000000000E+00  0.00000000000E+00  0.45900058870E+03  0.16639255637E+04  0.15993644804E+04 0.  0.
        2    1    3    3  502    0 -0.58518355826E+03  0.37895133873E+03 -0.17803642007E+03  0.71954213279E+03  0.25500000920E-02 0.  1.
       -2    1    3    3    0  502  0.58518355826E+03 -0.37895133873E+03  0.63703700877E+03  0.94438343088E+03  0.25500000920E-02 0. -1.
</event>
<event>
 5   0  0.4211419E-05  0.1596209E+04  0.7818609E-02  0.8822880E-01
       -1   -1    0    0    0  501  0.00000000000E+00  0.00000000000E+00  0.14110228588E+04  0.14110228588E+04  0.50400001928E-02 0.  1.
        1   -1    0    0  501    0  0.00000000000E+00  0.00000000000E+00 -0.45142478008E+03  0.45142478011E+03  0.50400001928E-02 0. -1.
    10030    2    1    2    0    0  0.00000000000E+00  0.00000000000E+00  0.95959807867E+03  0.18624476389E+04  0.15962088632E+04 0.  0.
        2    1    3    3  502    0 -0.18587372412E+03 -0.20969644078E+03  0.13517380935E+04  0.13804772769E+04  0.25500000920E-02 0.  1.
       -2    1    3    3    0  502  0.18587372412E+03  0.20969644078E+03 -0.39214001483E+03  0.48197036198E+03  0.25500000920E-02 0. -1.
</event>
<event>
 5   0  0.3042125E-05  0.1599613E+04  0.7818609E-02  0.8820786E-01
        4   -1    0    0  501    0  0.00000000000E+00  0.00000000000E+00  0.91699078294E+03  0.91699166240E+03  0.12699999809E+01 0.  1.
       -4   -1    0    0    0  501  0.00000000000E+00  0.00000000000E+00 -0.69759589572E+03  0.69759705176E+03  0.12699999809E+01 0. -1.
    10030    2    1    2    0    0  0.00000000000E+00  0.00000000000E+00  0.21939488723E+03  0.16145887142E+04  0.15996132656E+04 0.  0.
        3    1    3    3  502    0  0.70550787524E+01 -0.79648371162E+03  0.36530451476E+02  0.79735221897E+03  0.10100000352E+00 0.  1.
       -3    1    3    3    0  502 -0.70550787524E+01  0.79648371162E+03  0.18286443575E+03  0.81723649519E+03  0.10100000352E+00 0. -1.
</event>
<event>
 5   0  0.4314657E-05  0.1603924E+04  0.7818609E-02  0.8818141E-01
       -1   -1    0    0    0  501  0.00000000000E+00  0.00000000000E+00  0.41713275396E+03  0.41713275399E+03  0.50400001928E-02 0.  1.
        1   -1    0    0  501    0  0.00000000000E+00  0.00000000000E+00 -0.15418186839E+04  0.15418186839E+04  0.50400001928E-02 0. -1.
    10030    2    1    2    0    0  0.00000000000E+00  0.00000000000E+00 -0.11246859299E+04  0.19589514379E+04  0.16039240303E+04 0.  0.
        5    1    3    3  502    0  0.68799502197E+03 -0.40316792157E+03 -0.66626149081E+03  0.10391380983E+04  0.46999998093E+01 0. -1.
       -5    1    3    3    0  502 -0.68799502197E+03  0.40316792157E+03 -0.45842443910E+03  0.91981333954E+03  0.46999998093E+01 0.  1.
</event>
<event>
 5   0  0.7849690E-05  0.1601235E+04  0.7818609E-02  0.8819790E-01
        2   -1    0    0  501    0  0.00000000000E+00  0.00000000000E+00  0.35309821239E+03  0.35309821240E+03  0.25500000920E-02 0. -1.
       -2   -1    0    0    0  501  0.00000000000E+00  0.00000000000E+00 -0.18153265408E+04  0.18153265408E+04  0.25500000920E-02 0.  1.
    10030    2    1    2    0    0  0.00000000000E+00  0.00000000000E+00 -0.14622283284E+04  0.21684247532E+04  0.16012352188E+04 0.  0.
        3    1    3    3  502    0  0.62205700002E+03 -0.26769641831E+03 -0.15279362637E+03  0.69423496463E+03  0.10100000352E+00 0. -1.
       -3    1    3    3    0  502 -0.62205700002E+03  0.26769641831E+03 -0.13094347020E+04  0.14741897885E+04  0.10100000352E+00 0.  1.
</event>
<event>
 5   0  0.4504463E-05  0.1599447E+04  0.7818609E-02  0.8820888E-01
        1   -1    0    0  501    0  0.00000000000E+00  0.00000000000E+00  0.93935445345E+03  0.93935445346E+03  0.50400001928E-02 0.  1.
       -1   -1    0    0    0  501  0.00000000000E+00  0.00000000000E+00 -0.68084841789E+03  0.68084841791E+03  0.50400001928E-02 0. -1.
    10030    2    1    2    0    0  0.00000000000E+00  0.00000000000E+00  0.25850603556E+03  0.16202028714E+04  0.15994473964E+04 0.  0.
        1    1    3    3  502    0  0.37329991514E+03  0.35085813450E+03  0.75130954840E+03  0.90935157927E+03  0.50400001928E-02 0.  1.
       -1    1    3    3    0  502 -0.37329991514E+03 -0.35085813450E+03 -0.49280351284E+03  0.71085129210E+03  0.50400001928E-02 0. -1.
</event>
<event>
 5   0  0.4211419E-05  0.1600820E+04  0.7818609E-02  0.8820044E-01
       -1   -1    0    0    0  501  0.00000000000E+00  0.00000000000E+00  0.52849548481E+03  0.52849548483E+03  0.50400001928E-02 0.  1.
        1   -1    0    0  501    0  0.00000000000E+00  0.00000000000E+00 -0.12122262448E+04  0.12122262448E+04  0.50400001928E-02 0. -1.
    10030    2    1    2    0    0  0.00000000000E+00  0.00000000000E+00 -0.68373075999E+03  0.17407217296E+04  0.16008199111E+04 0.  0.
        2    1    3    3  502    0 -0.78929718984E+03  0.36333012894E+02 -0.20284066096E+03  0.81575393071E+03  0.25500000920E-02 0.  1.
       -2    1    3    3    0  502  0.78929718984E+03 -0.36333012894E+02 -0.48089009903E+03  0.92496779894E+03  0.25500000920E-02 0. -1.
</event>
<event>
 5   0  0.4314657E-05  0.1601412E+04  0.7818609E-02  0.8819681E-01
       -1   -1    0    0    0  501  0.00000000000E+00  0.00000000000E+00  0.61677417758E+03  0.61677417760E+03  0.50400001928E-02 0.  1.
        1   -1    0    0  501    0  0.00000000000E+00  0.00000000000E+00 -0.10394893351E+04  0.10394893351E+04  0.50400001928E-02 0. -1.
    10030    2    1    2    0    0  0.00000000000E+00  0.00000000000E+00 -0.42271515753E+03  0.16562635127E+04  0.16014121016E+04 0.  0.
        5    1    3    3  502    0 -0.39711328442E+03  0.49931211257E+03 -0.71176510039E+03  0.95584684681E+03  0.46999998093E+01 0. -1.
       -5    1    3    3    0  502  0.39711328442E+03 -0.49931211257E+03  0.28904994286E+03  0.70041666591E+03  0.46999998093E+01 0.  1.
</event>
<event>
 5   0  0.7901257E-05  0.1620453E+04  0.7818609E-02  0.8808080E-01
       -2   -1    0    0    0  501  0.00000000000E+00  0.00000000000E+00  0.42694636079E+03  0.42694636080E+03  0.25500000920E-02 0. -1.
        2   -1    0    0  501    0  0.00000000000E+00  0.00000000000E+00 -0.15375868785E+04  0.15375868785E+04  0.25500000920E-02 0.  1.
    10030    2    1    2    0    0  0.00000000000E+00  0.00000000000E+00 -0.11106405177E+04  0.19645332393E+04  0.16204531739E+04 0.  0.
        2    1    3    3  502    0 -0.39735437044E+03  0.75698703144E+02 -0.14064164761E+04  0.14634302490E+04  0.25500000920E-02 0.  1.
       -2    1    3    3    0  502  0.39735437044E+03 -0.75698703144E+02  0.29577595838E+03  0.50110299034E+03  0.25500000920E-02 0. -1.
</event>
<event>
 5   0  0.8620155E-05  0.1588005E+04  0.7818609E-02  0.8827951E-01
        2   -1    0    0  501    0  0.00000000000E+00  0.00000000000E+00  0.90347251757E+03  0.90347251758E+03  0.25500000920E-02 0.  1.
       -2   -1    0    0    0  501  0.00000000000E+00  0.00000000000E+00 -0.69779665028E+03  0.69779665028E+03  0.25500000920E-02 0. -1.
    10030    2    1    2    0    0  0.00000000000E+00  0.00000000000E+00  0.20567586730E+03  0.16012691679E+04  0.15880051592E+04 0.  0.
        4    1    3    3  502    0 -0.44306822921E+03  0.65837916652E+03  0.76817339060E+02  0.79729235486E+03  0.12699999809E+01 0. -1.
       -4    1    3    3    0  502  0.44306822921E+03 -0.65837916652E+03  0.12885852824E+03  0.80397681300E+03  0.12699999809E+01 0.  1.
</event>
<event>
 5   0  0.4256406E-05  0.1591185E+04  0.7818609E-02  0.8825982E-01
       -1   -1    0    0    0  501  0.00000000000E+00  0.00000000000E+00  0.79377762542E+03  0.79377762543E+03  0.50400001928E-02 0.  1.
        1   -1    0    0  501    0  0.00000000000E+00  0.00000000000E+00 -0.79741137302E+03  0.79741137304E+03  0.50400001928E-02 0. -1.
    10030    2    1    2    0    0  0.00000000000E+00  0.00000000000E+00 -0.36337476078E+01  0.15911889985E+04  0.15911848493E+04 0.  0.
        3    1    3    3  502    0  0.30319735968E+03  0.48136109079E+03 -0.55799289860E+03  0.79686462070E+03  0.10100000352E+00 0. -1.
       -3    1    3    3    0  502 -0.30319735968E+03 -0.48136109079E+03  0.55435915099E+03  0.79432437777E+03  0.10100000352E+00 0.  1.
</event>
<event>
 5   0  0.7901257E-05  0.1581146E+04  0.7818609E-02  0.8832215E-01
        2   -1    0    0  501    0  0.00000000000E+00  0.00000000000E+00  0.54192357045E+03  0.54192357045E+03  0.25500000920E-02 0.  1.
       -2   -1    0    0    0  501  0.00000000000E+00  0.00000000000E+00 -0.11533102157E+04  0.11533102157E+04  0.25500000920E-02 0. -1.
    10030    2    1    2    0    0  0.00000000000E+00  0.00000000000E+00 -0.61138664528E+03  0.16952337862E+04  0.15811464068E+04 0.  0.
        2    1    3    3  502    0  0.73467431825E+03  0.28676327137E+03 -0.24671055552E+03  0.82634473794E+03  0.25500000920E-02 0.  1.
       -2    1    3    3    0  502 -0.73467431825E+03 -0.28676327137E+03 -0.36467608975E+03  0.86888904824E+03  0.25500000920E-02 0. -1.
</event>
<event>
 5   0  0.4314657E-05  0.1599201E+04  0.7818609E-02  0.8821039E-01
       -1   -1    0    0    0  501  0.00000000000E+00  0.00000000000E+00  0.81222342532E+03  0.81222342534E+03  0.50400001928E-02 0.  1.
        1   -1    0    0  501    0  0.00000000000E+00  0.00000000000E+00 -0.78717366434E+03  0.78717366436E+03  0.50400001928E-02 0. -1.
    10030    2    1    2    0    0  0.00000000000E+00  0.00000000000E+00  0.25049760984E+02  0.15993970897E+04  0.15992009130E+04 0.  0.
        5    1    3    3  502    0 -0.19025015671E+03  0.83074018282E+02 -0.75973717251E+03  0.78760337476E+03  0.46999998093E+01 0. -1.
       -5    1    3    3    0  502  0.19025015671E+03 -0.83074018282E+02  0.78478693349E+03  0.81179371494E+03  0.46999998093E+01 0.  1.
</event>
<event>
 5   0  0.3042125E-05  0.1563364E+04  0.7818609E-02  0.8843377E-01
        3   -1    0    0  501    0  0.00000000000E+00  0.00000000000E+00  0.64393878072E+03  0.64393878864E+03  0.10100000352E+00 0. -1.
       -3   -1    0    0    0  501  0.00000000000E+00  0.00000000000E+00 -0.94888918210E+03  0.94888918748E+03  0.10100000352E+00 0.  1.
    10030    2    1    2    0    0  0.00000000000E+00  0.00000000000E+00 -0.30495040138E+03  0.15928279761E+04  0.15633637498E+04 0.  0.
        3    1    3    3  502    0 -0.37818701943E+03 -0.61787515475E+03  0.14671102374E+03  0.73913413073E+03  0.10100000352E+00 0.  1.
       -3    1    3    3    0  502  0.37818701943E+03  0.61787515475E+03 -0.45166142512E+03  0.85369384539E+03  0.10100000352E+00 0. -1.
</event>
<event>
 5   0  0.4373026E-05  0.1601866E+04  0.7818609E-02  0.8819402E-01
        1   -1    0    0  501    0  0.00000000000E+00  0.00000000000E+00  0.73741185932E+03  0.73741185934E+03  0.50400001928E-02 0. -1.
       -1   -1    0    0    0  501  0.00000000000E+00  0.00000000000E+00 -0.86992628757E+03  0.86992628759E+03  0.50400001928E-02 0.  1.
    10030    2    1    2    0    0  0.00000000000E+00  0.00000000000E+00 -0.13251442826E+03  0.16073381469E+04  0.16018663630E+04 0.  0.
        4    1    3    3  502    0  0.32288848493E-01 -0.75392625980E+03  0.20501333618E+03  0.78130460588E+03  0.12699999809E+01 0. -1.
       -4    1    3    3    0  502 -0.32288848493E-01  0.75392625980E+03 -0.33752776444E+03  0.82603354104E+03  0.12699999809E+01 0.  1.
</event>
<event>
 5   0  0.4211419E-05  0.1600106E+04  0.7818609E-02  0.8820483E-01
        1   -1    0    0  501    0  0.00000000000E+00  0.00000000000E+00  0.14859269159E+04  0.14859269159E+04  0.50400001928E-02 0.  1.
       -1   -1    0    0    0  501  0.00000000000E+00  0.00000000000E+00 -0.43076449204E+03  0.43076449207E+03  0.50400001928E-02 0. -1.
    10030    2    1    2    0    0  0.00000000000E+00  0.00000000000E+00  0.10551624239E+04  0.19166914080E+04  0.16001056880E+04 0.  0.
        2    1    3    3  502    0 -0.34240015405E+03 -0.43718251859E+03  0.12174843705E+04  0.13381459608E+04  0.25500000920E-02 0.  1.
       -2    1    3    3    0  502  0.34240015405E+03  0.43718251859E+03 -0.16232194664E+03  0.57854544715E+03  0.25500000920E-02 0. -1.
</event>
<event>
 5   0  0.4314657E-05  0.1601901E+04  0.7818609E-02  0.8819381E-01
       -1   -1    0    0    0  501  0.00000000000E+00  0.00000000000E+00  0.49506648255E+03  0.49506648258E+03  0.50400001928E-02 0. -1.
        1   -1    0    0  501    0  0.00000000000E+00  0.00000000000E+00 -0.12958294238E+04  0.12958294238E+04  0.50400001928E-02 0.  1.
    10030    2    1    2    0    0  0.00000000000E+00  0.00000000000E+00 -0.80076294127E+03  0.17908959064E+04  0.16019010143E+04 0.  0.
        5    1    3    3  502    0 -0.58364987649E+02  0.51676096179E+03 -0.10813885453E+04  0.11999465152E+04  0.46999998093E+01 0.  1.
       -5    1    3    3    0  502  0.58364987649E+02 -0.51676096179E+03  0.28062560398E+03  0.59094939126E+03  0.46999998093E+01 0. -1.
</event>
<event>
 5   0  0.4504463E-05  0.1598329E+04  0.7818609E-02  0.8821576E-01
       -1   -1    0    0    0  501  0.00000000000E+00  0.00000000000E+00  0.45424761097E+03  0.45424761100E+03  0.50400001928E-02 0. -1.
        1   -1    0    0  501    0  0.00000000000E+00  0.00000000000E+00 -0.14059810584E+04  0.14059810584E+04  0.50400001928E-02 0.  1.
    10030    2    1    2    0    0  0.00000000000E+00  0.00000000000E+00 -0.95173344743E+03  0.18602286694E+04  0.15983285481E+04 0.  0.
        1    1    3    3  502    0 -0.15796423158E+03 -0.65726891942E+03  0.20254476950E+02  0.67628793776E+03  0.50400001928E-02 0. -1.
       -1    1    3    3    0  502  0.15796423158E+03  0.65726891942E+03 -0.97198792438E+03  0.11839407317E+04  0.50400001928E-02 0.  1.
</event>
<event>
 5   0  0.7849690E-05  0.1599023E+04  0.7818609E-02  0.8821148E-01
       -2   -1    0    0    0  501  0.00000000000E+00  0.00000000000E+00  0.47560241230E+03  0.47560241230E+03  0.25500000920E-02 0. -1.
        2   -1    0    0  501    0  0.00000000000E+00  0.00000000000E+00 -0.13440189130E+04  0.13440189130E+04  0.25500000920E-02 0.  1.
    10030    2    1    2    0    0  0.00000000000E+00  0.00000000000E+00 -0.86841650067E+03  0.18196213253E+04  0.15990229982E+04 0.  0.
        3    1    3    3  502    0 -0.27679313680E+03 -0.10062947400E+03  0.41162306713E+03  0.50613663295E+03  0.10100000352E+00 0. -1.
       -3    1    3    3    0  502  0.27679313680E+03  0.10062947400E+03 -0.12800395678E+04  0.13134846923E+04  0.10100000352E+00 0.  1.
</event>
<event>
 5   0  0.7849690E-05  0.1583071E+04  0.7818609E-02  0.8831016E-01
       -2   -1    0    0    0  501  0.00000000000E+00  0.00000000000E+00  0.25398514110E+03  0.25398514111E+03  0.25500000920E-02 0. -1.
        2   -1    0    0  501    0  0.00000000000E+00  0.00000000000E+00 -0.24667923675E+04  0.24667923675E+04  0.25500000920E-02 0.  1.
    10030    2    1    2    0    0  0.00000000000E+00  0.00000000000E+00 -0.22128072264E+04  0.27207775086E+04  0.15830712018E+04 0.  0.
        3    1    3    3  502    0 -0.55995177063E+03 -0.90136537523E+02 -0.20553493741E+04  0.21321659505E+04  0.10100000352E+00 0.  1.
       -3    1    3    3    0  502  0.55995177063E+03  0.90136537523E+02 -0.15745785229E+03  0.58861155806E+03  0.10100000352E+00 0. -1.
</event>
<event>
 5   0  0.4314657E-05  0.1604177E+04  0.7818609E-02  0.8817986E-01
        1   -1    0    0  501    0  0.00000000000E+00  0.00000000000E+00  0.68090673418E+03  0.68090673420E+03  0.50400001928E-02 0.  1.
       -1   -1    0    0    0  501  0.00000000000E+00  0.00000000000E+00 -0.94483668242E+03  0.94483668244E+03  0.50400001928E-02 0. -1.
    10030    2    1    2    0    0  0.00000000000E+00  0.00000000000E+00 -0.26392994824E+03  0.16257434166E+04  0.16041766234E+04 0.  0.
        5    1    3    3  502    0 -0.10126380505E+03 -0.74649261257E+03 -0.41101749924E+03  0.85817425592E+03  0.46999998093E+01 0. -1.
       -5    1    3    3    0  502  0.10126380505E+03  0.74649261257E+03  0.14708755100E+03  0.76756916073E+03  0.46999998093E+01 0.  1.
</event>
<event>
 5   0  0.4256406E-05  0.1600496E+04  0.7818609E-02  0.8820243E-01
       -1   -1    0    0    0  501  0.00000000000E+00  0.00000000000E+00  0.82779293690E+03  0.82779293692E+03  0.50400001928E-02 0. -1.
        1   -1    0    0  501    0  0.00000000000E+00  0.00000000000E+00 -0.77362005753E+03  0.77362005755E+03  0.50400001928E-02 0.  1.
    10030    2    1    2    0    0  0.00000000000E+00  0.00000000000E+00  0.54172879369E+02  0.16014129945E+04  0.16004964474E+04 0.  0.
        3    1    3    3  502    0 -0.15750521412E+03  0.54634460248E+03  0.59052248420E+03  0.81976651047E+03  0.10100000352E+00 0. -1.
       -3    1    3    3    0  502  0.15750521412E+03 -0.54634460248E+03 -0.53634960484E+03  0.78164648400E+03  0.10100000352E+00 0.  1.
</event>
<event>
 5   0  0.4256406E-05  0.1602749E+04  0.7818609E-02  0.8818861E-01
       -1   -1    0    0    0  501  0.00000000000E+00  0.00000000000E+00  0.11556717839E+04  0.11556717839E+04  0.50400001928E-02 0. -1.
        1   -1    0    0  501    0  0.00000000000E+00  0.00000000000E+00 -0.55569491190E+03  0.55569491193E+03  0.50400001928E-02 0.  1.
    10030    2    1    2    0    0  0.00000000000E+00  0.00000000000E+00  0.59997687203E+03  0.17113666959E+04  0.16027488015E+04 0.  0.
        3    1    3    3  502    0  0.43281659795E+03 -0.55362885610E+03 -0.11129812591E+03  0.71149307853E+03  0.10100000352E+00 0.  1.
       -3    1    3    3    0  502 -0.43281659795E+03  0.55362885610E+03  0.71127499793E+03  0.99987361734E+03  0.10100000352E+00 0. -1.
</event>
<event>
 5   0  0.7901257E-05  0.1600124E+04  0.7818609E-02  0.8820472E-01
        2   -1    0    0  501    0  0.00000000000E+00  0.00000000000E+00  0.11937937760E+04  0.11937937760E+04  0.25500000920E-02 0.  1.
       -2   -1    0    0    0  501  0.00000000000E+00  0.00000000000E+00 -0.53618935559E+03  0.53618935560E+03  0.25500000920E-02 0. -1.
    10030    2    1    2    0    0  0.00000000000E+00  0.00000000000E+00  0.65760442036E+03  0.17299831315E+04  0.16001243895E+04 0.  0.
        2    1    3    3  502    0  0.13394847426E+03 -0.61974635920E+03  0.85632603150E+03  0.10655149064E+04  0.25500000920E-02 0.  1.
       -2    1    3    3    0  502 -0.13394847426E+03  0.61974635920E+03 -0.19872161114E+03  0.66446822516E+03  0.25500000920E-02 0. -1.
</event>
<event>
 5   0  0.7901257E-05  0.1600956E+04  0.7818609E-02  0.8819961E-01
        2   -1    0    0  501    0  0.00000000000E+00  0.00000000000E+00  0.10717880053E+04  0.10717880053E+04  0.25500000920E-02 0.  1.
       -2   -1    0    0    0  501  0.00000000000E+00  0.00000000000E+00 -0.59784700084E+03  0.59784700084E+03  0.25500000920E-02 0. -1.
    10030    2    1    2    0    0  0.00000000000E+00  0.00000000000E+00  0.47394100449E+03  0.16696350062E+04  0.16009562699E+04 0.  0.
        2    1    3    3  502    0 -0.66122095907E+03  0.23444999350E+02  0.70685669066E+03  0.96819894952E+03  0.25500000920E-02 0.  1.
       -2    1    3    3    0  502  0.66122095907E+03 -0.23444999350E+02 -0.23291568616E+03  0.70143605666E+03  0.25500000920E-02 0. -1.
</event>
<event>
 5   0  0.4373026E-05  0.1602783E+04  0.7818609E-02  0.8818840E-01
        1   -1    0    0  501    0  0.00000000000E+00  0.00000000000E+00  0.55760684462E+03  0.55760684464E+03  0.50400001928E-02 0. -1.
       -1   -1    0    0    0  501  0.00000000000E+00  0.00000000000E+00 -0.11517587630E+04  0.11517587630E+04  0.50400001928E-02 0.  1.
    10030    2    1    2    0    0  0.00000000000E+00  0.00000000000E+00 -0.59415191837E+03  0.17093656076E+04  0.16027832912E+04 0.  0.
        4    1    3    3  502    0 -0.18936707667E+03  0.21325593718E+03  0.50165148331E+03  0.57705615678E+03  0.12699999809E+01 0. -1.
       -4    1    3    3    0  502  0.18936707667E+03 -0.21325593718E+03 -0.10958034017E+04  0.11323094509E+04  0.12699999809E+01 0.  1.
</event>
<event>
 5   0  0.8694033E-05  0.1628469E+04  0.7818609E-02  0.8803247E-01
       -2   -1    0    0    0  501  0.00000000000E+00  0.00000000000E+00  0.75987122652E+03  0.75987122653E+03  0.25500000920E-02 0. -1.
        2   -1    0    0  501    0  0.00000000000E+00  0.00000000000E+00 -0.87248670465E+03  0.87248670466E+03  0.25500000920E-02 0.  1.
    10030    2    1    2    0    0  0.00000000000E+00  0.00000000000E+00 -0.11261547813E+03  0.16323579312E+04  0.16284686578E+04 0.  0.
        1    1    3    3  502    0  0.62382085813E+03 -0.24910257571E+03 -0.51759479647E+03  0.84800290661E+03  0.50400001928E-02 0.  1.
       -1    1    3    3    0  502 -0.62382085813E+03  0.24910257571E+03  0.40497931834E+03  0.78435502457E+03  0.50400001928E-02 0. -1.
</event>
<event>
 5   0  0.3042125E-05  0.1598119E+04  0.7818609E-02  0.8821704E-01
        3   -1    0    0  501    0  0.00000000000E+00  0.00000000000E+00  0.54514620606E+03  0.54514621541E+03  0.10100000352E+00 0. -1.
       -3   -1    0    0    0  501  0.00000000000E+00  0.00000000000E+00 -0.11712380697E+04  0.11712380740E+04  0.10100000352E+00 0.  1.
    10030    2    1    2    0    0  0.00000000000E+00  0.00000000000E+00 -0.62609186362E+03  0.17163842894E+04  0.15981188965E+04 0.  0.
        3    1    3    3  502    0 -0.17956725473E+03  0.69715754712E+03  0.59345027587E+02  0.72235371320E+03  0.10100000352E+00 0. -1.
       -3    1    3    3    0  502  0.17956725473E+03 -0.69715754712E+03 -0.68543689121E+03  0.99403057624E+03  0.10100000352E+00 0.  1.
</event>
<event>
 5   0  0.8037548E-05  0.1599553E+04  0.7818609E-02  0.8820823E-01
        2   -1    0    0  501    0  0.00000000000E+00  0.00000000000E+00  0.20176060932E+04  0.20176060932E+04  0.25500000920E-02 0. -1.
       -2   -1    0    0    0  501  0.00000000000E+00  0.00000000000E+00 -0.31703022703E+03  0.31703022704E+03  0.25500000920E-02 0.  1.
    10030    2    1    2    0    0  0.00000000000E+00  0.00000000000E+00  0.17005758662E+04  0.23346363202E+04  0.15995525847E+04 0.  0.
        5    1    3    3  502    0  0.25810003085E+03  0.67190782382E+03  0.13591358196E+04  0.15379687955E+04  0.46999998093E+01 0. -1.
       -5    1    3    3    0  502 -0.25810003085E+03 -0.67190782382E+03  0.34144004653E+03  0.79666752477E+03  0.46999998093E+01 0.  1.
</event>
<event>
 5   0  0.8037548E-05  0.1607692E+04  0.7818609E-02  0.8815836E-01
        2   -1    0    0  501    0  0.00000000000E+00  0.00000000000E+00  0.84068692043E+03  0.84068692043E+03  0.25500000920E-02 0. -1.
       -2   -1    0    0    0  501  0.00000000000E+00  0.00000000000E+00 -0.76861984224E+03  0.76861984225E+03  0.25500000920E-02 0.  1.
    10030    2    1    2    0    0  0.00000000000E+00  0.00000000000E+00  0.72067078188E+02  0.16093067627E+04  0.16076923190E+04 0.  0.
        5    1    3    3  502    0 -0.70962027119E+03  0.37746080794E+03  0.46482763967E+02  0.80512131270E+03  0.46999998093E+01 0.  1.
       -5    1    3    3    0  502  0.70962027119E+03 -0.37746080794E+03  0.25584314221E+02  0.80418544998E+03  0.46999998093E+01 0. -1.
</event>
<event>
 5   0  0.7901257E-05  0.1599331E+04  0.7818609E-02  0.8820959E-01
        2   -1    0    0  501    0  0.00000000000E+00  0.00000000000E+00  0.81769183709E+03  0.81769183709E+03  0.25500000920E-02 0.  1.
       -2   -1    0    0    0  501  0.00000000000E+00  0.00000000000E+00 -0.78203700317E+03  0.78203700318E+03  0.25500000920E-02 0. -1.
    10030    2    1    2    0    0  0.00000000000E+00  0.00000000000E+00  0.35654833914E+02  0.15997288403E+04  0.15993314526E+04 0.  0.
        2    1    3    3  502    0 -0.43921134839E+03 -0.66420110905E+03  0.91300089347E+02  0.80150198262E+03  0.25500000920E-02 0.  1.
       -2    1    3    3    0  502  0.43921134839E+03  0.66420110905E+03 -0.55645255433E+02  0.79822685765E+03  0.25500000920E-02 0. -1.
</event>
<event>
 5   0  0.4314657E-05  0.1593966E+04  0.7818609E-02  0.8824263E-01
       -1   -1    0    0    0  501  0.00000000000E+00  0.00000000000E+00  0.48807972717E+03  0.48807972720E+03  0.50400001928E-02 0.  1.
        1   -1    0    0  501    0  0.00000000000E+00  0.00000000000E+00 -0.13013903321E+04  0.13013903321E+04  0.50400001928E-02 0. -1.
    10030    2    1    2    0    0  0.00000000000E+00  0.00000000000E+00 -0.81331060490E+03  0.17894700593E+04  0.15939664215E+04 0.  0.
        5    1    3    3  502    0  0.11173000102E+03 -0.77167879207E+03 -0.22154223845E+03  0.81060150794E+03  0.46999998093E+01 0.  1.
       -5    1    3    3    0  502 -0.11173000102E+03  0.77167879207E+03 -0.59176836644E+03  0.97886855133E+03  0.46999998093E+01 0. -1.
</event>
<event>
 5   0  0.7849690E-05  0.1598582E+04  0.7818609E-02  0.8821419E-01
       -2   -1    0    0    0  501  0.00000000000E+00  0.00000000000E+00  0.64843097294E+03  0.64843097295E+03  0.25500000920E-02 0.  1.
        2   -1    0    0  501    0  0.00000000000E+00  0.00000000000E+00 -0.98524953001E+03  0.98524953001E+03  0.25500000920E-02 0. -1.
    10030    2    1    2    0    0  0.00000000000E+00  0.00000000000E+00 -0.33681855707E+03  0.16336805030E+04  0.15985822611E+04 0.  0.
        3    1    3    3  502    0 -0.35460847484E+03  0.68067942977E+03 -0.39645580159E+03  0.86385697274E+03  0.10100000352E+00 0. -1.
       -3    1    3    3    0  502  0.35460847484E+03 -0.68067942977E+03  0.59637244525E+02  0.76982353021E+03  0.10100000352E+00 0.  1.
</event>
<event>
 5   0  0.4256406E-05  0.1596116E+04  0.7818609E-02  0.8822938E-01
       -1   -1    0    0    0  501  0.00000000000E+00  0.00000000000E+00  0.41920410144E+03  0.41920410147E+03  0.50400001928E-02 0. -1.
        1   -1    0    0  501    0  0.00000000000E+00  0.00000000000E+00 -0.15192994413E+04  0.15192994413E+04  0.50400001928E-02 0.  1.
    10030    2    1    2    0    0  0.00000000000E+00  0.00000000000E+00 -0.11000953399E+04  0.19385035428E+04  0.15961159822E+04 0.  0.
        3    1    3    3  502    0  0.14755367740E+03  0.23037404088E+03 -0.14605697927E+04  0.14859705299E+04  0.10100000352E+00 0.  1.
       -3    1    3    3    0  502 -0.14755367740E+03 -0.23037404088E+03  0.36047445277E+03  0.45253301286E+03  0.10100000352E+00 0. -1.
</event>
<event>
 5   0  0.8620155E-05  0.1598763E+04  0.7818609E-02  0.8821309E-01
       -2   -1    0    0    0  501  0.00000000000E+00  0.00000000000E+00  0.91368227822E+03  0.91368227822E+03  0.25500000920E-02 0.  1.
        2   -1    0    0  501    0  0.00000000000E+00  0.00000000000E+00 -0.69937924116E+03  0.69937924117E+03  0.25500000920E-02 0. -1.
    10030    2    1    2    0    0  0.00000000000E+00  0.00000000000E+00  0.21430303706E+03  0.16130615194E+04  0.15987625445E+04 0.  0.
        4    1    3    3  502    0 -0.74666250436E+03 -0.24194263174E+03  0.26005784840E+03  0.82684510635E+03  0.12699999809E+01 0.  1.
       -4    1    3    3    0  502  0.74666250436E+03  0.24194263174E+03 -0.45754811346E+02  0.78621641304E+03  0.12699999809E+01 0. -1.
</event>
<event>
 5   0  0.4211419E-05  0.1596500E+04  0.7818609E-02  0.8822701E-01
       -1   -1    0    0    0  501  0.00000000000E+00  0.00000000000E+00  0.12691478613E+04  0.12691478613E+04  0.50400001928E-02 0.  1.
        1   -1    0    0  501    0  0.00000000000E+00  0.00000000000E+00 -0.50207158668E+03  0.50207158670E+03  0.50400001928E-02 0. -1.
    10030    2    1    2    0    0  0.00000000000E+00  0.00000000000E+00  0.76707627461E+03  0.17712194480E+04  0.15965000225E+04 0.  0.
        2    1    3    3  502    0 -0.62439168602E+03 -0.16055585978E+03  0.90575277597E+03  0.11117694243E+04  0.25500000920E-02 0.  1.
       -2    1    3    3    0  502  0.62439168602E+03  0.16055585978E+03 -0.13867650136E+03  0.65945002367E+03  0.25500000920E-02 0. -1.
</event>
<event>
 5   0  0.4504463E-05  0.1606679E+04  0.7818609E-02  0.8816455E-01
       -1   -1    0    0    0  501  0.00000000000E+00  0.00000000000E+00  0.10239804591E+04  0.10239804591E+04  0.50400001928E-02 0. -1.
        1   -1    0    0  501    0  0.00000000000E+00  0.00000000000E+00 -0.63024123380E+03  0.63024123382E+03  0.50400001928E-02 0.  1.
    10030    2    1    2    0    0  0.00000000000E+00  0.00000000000E+00  0.39373922531E+03  0.16542216929E+04  0.16066794428E+04 0.  0.
        1    1    3    3  502    0  0.77912886866E+03 -0.15686305157E+03  0.31741040713E+03  0.85580206678E+03  0.50400001928E-02 0. -1.
       -1    1    3    3    0  502 -0.77912886866E+03  0.15686305157E+03  0.76328818176E+02  0.79841962616E+03  0.50400001928E-02 0.  1.
</event>
<event>
 5   0  0.8037548E-05  0.1601886E+04  0.7818609E-02  0.8819390E-01
       -2   -1    0    0    0  501  0.00000000000E+00  0.00000000000E+00  0.87037788730E+03  0.87037788731E+03  0.25500000920E-02 0.  1.
        2   -1    0    0  501    0  0.00000000000E+00  0.00000000000E+00 -0.73704720723E+03  0.73704720723E+03  0.25500000920E-02 0. -1.
    10030    2    1    2    0    0  0.00000000000E+00  0.00000000000E+00  0.13333068008E+03  0.16074250945E+04  0.16018858774E+04 0.  0.
        5    1    3    3  502    0  0.16277189378E+03  0.17589871842E+02 -0.72006322083E+03  0.73845597363E+03  0.46999998093E+01 0. -1.
       -5    1    3    3    0  502 -0.16277189378E+03 -0.17589871842E+02  0.85339390091E+03  0.86896912091E+03  0.46999998093E+01 0.  1.
</event>
<event>
 5   0  0.4314657E-05  0.1604127E+04  0.7818609E-02  0.8818017E-01
       -1   -1    0    0    0  501  0.00000000000E+00  0.00000000000E+00  0.49090429951E+03  0.49090429954E+03  0.50400001928E-02 0. -1.
        1   -1    0    0  501    0  0.00000000000E+00  0.00000000000E+00 -0.13104500371E+04  0.13104500371E+04  0.50400001928E-02 0.  1.
    10030    2    1    2    0    0  0.00000000000E+00  0.00000000000E+00 -0.81954573756E+03  0.18013543366E+04  0.16041266253E+04 0.  0.
        5    1    3    3  502    0  0.32708840071E+03 -0.22078386142E+03  0.37432556569E+03  0.54394306179E+03  0.46999998093E+01 0. -1.
       -5    1    3    3    0  502 -0.32708840071E+03  0.22078386142E+03 -0.11938713033E+04  0.12574112748E+04  0.46999998093E+01 0.  1.
</event>
<event>
 5   0  0.7849690E-05  0.1596646E+04  0.7818609E-02  0.8822611E-01
       -2   -1    0    0    0  501  0.00000000000E+00  0.00000000000E+00  0.62498478980E+03  0.62498478981E+03  0.25500000920E-02 0. -1.
        2   -1    0    0  501    0  0.00000000000E+00  0.00000000000E+00 -0.10197364830E+04  0.10197364830E+04  0.25500000920E-02 0.  1.
    10030    2    1    2    0    0  0.00000000000E+00  0.00000000000E+00 -0.39475169322E+03  0.16447212728E+04  0.15966462244E+04 0.  0.
        3    1    3    3  502    0 -0.28777573046E+03  0.32217938077E+03  0.49418432155E+03  0.65637838043E+03  0.10100000352E+00 0. -1.
       -3    1    3    3    0  502  0.28777573046E+03 -0.32217938077E+03 -0.88893601477E+03  0.98834289241E+03  0.10100000352E+00 0.  1.
</event>
<event>
 5   0  0.8694033E-05  0.1600198E+04  0.7818609E-02  0.8820427E-01
        2   -1    0    0  501    0  0.00000000000E+00  0.00000000000E+00  0.76467605910E+03  0.76467605910E+03  0.25500000920E-02 0.  1.
       -2   -1    0    0    0  501  0.00000000000E+00  0.00000000000E+00 -0.83716258459E+03  0.83716258459E+03  0.25500000920E-02 0. -1.
    10030    2    1    2    0    0  0.00000000000E+00  0.00000000000E+00 -0.72486525491E+02  0.16018386437E+04  0.16001977203E+04 0.  0.
        1    1    3    3  502    0  0.52144261479E+03 -0.58769085585E+03 -0.18764399699E+03  0.80777051951E+03  0.50400001928E-02 0. -1.
       -1    1    3    3    0  502 -0.52144261479E+03  0.58769085585E+03  0.11515747150E+03  0.79406812418E+03  0.50400001928E-02 0.  1.
</event>
<event>
 5   0  0.4211419E-05  0.1598796E+04  0.7818609E-02  0.8821288E-01
       -1   -1    0    0    0  501  0.00000000000E+00  0.00000000000E+00  0.24254687943E+03  0.24254687949E+03  0.50400001928E-02 0. -1.
        1   -1    0    0  501    0  0.00000000000E+00  0.00000000000E+00 -0.26346966930E+04  0.26346966930E+04  0.50400001928E-02 0.  1.
    10030    2    1    2    0    0  0.00000000000E+00  0.00000000000E+00 -0.23921498136E+04  0.28772435725E+04  0.15987963738E+04 0.  0.
        2    1    3    3  502    0 -0.67303651569E+03 -0.10163891945E+02 -0.19721228957E+04  0.20838306485E+04  0.25500000920E-02 0.  1.
       -2    1    3    3    0  502  0.67303651569E+03  0.10163891945E+02 -0.42002691791E+03  0.79341292397E+03  0.25500000920E-02 0. -1.
</event>
<event>
 5   0  0.4211419E-05  0.1601532E+04  0.7818609E-02  0.8819607E-01
        1   -1    0    0  501    0  0.00000000000E+00  0.00000000000E+00  0.74414486938E+03  0.74414486940E+03  0.50400001928E-02 0.  1.
       -1   -1    0    0    0  501  0.00000000000E+00  0.00000000000E+00 -0.86169570600E+03  0.86169570602E+03  0.50400001928E-02 0. -1.
    10030    2    1    2    0    0  0.00000000000E+00  0.00000000000E+00 -0.11755083663E+03  0.16058405754E+04  0.16015323145E+04 0.  0.
        2    1    3    3  502    0  0.54460568690E+03  0.30977817812E+03  0.44123282592E+03  0.76631865469E+03  0.25500000920E-02 0.  1.
       -2    1    3    3    0  502 -0.54460568690E+03 -0.30977817812E+03 -0.55878366255E+03  0.83952192073E+03  0.25500000920E-02 0. -1.
</event>
<event>
 5   0  0.7849690E-05  0.1597149E+04  0.7818609E-02  0.8822301E-01
        2   -1    0    0  501    0  0.00000000000E+00  0.00000000000E+00  0.97670357628E+03  0.97670357628E+03  0.25500000920E-02 0.  1.
       -2   -1    0    0    0  501  0.00000000000E+00  0.00000000000E+00 -0.65293246817E+03  0.65293246818E+03  0.25500000920E-02 0. -1.
    10030    2    1    2    0    0  0.00000000000E+00  0.00000000000E+00  0.32377110811E+03  0.16296360445E+04  0.15971493064E+04 0.  0.
        3    1    3    3  502    0 -0.69451129548E+03 -0.31805468375E+03 -0.75695511256E+02  0.76761614238E+03  0.10100000352E+00 0.  1.
       -3    1    3    3    0  502  0.69451129548E+03  0.31805468375E+03  0.39946661936E+03  0.86201990209E+03  0.10100000352E+00 0. -1.
</event>
<event>
 5   0  0.8037548E-05  0.1583024E+04  0.7818609E-02  0.8831046E-01
       -2   -1    0    0    0  501  0.00000000000E+00  0.00000000000E+00  0.11030658096E+04  0.11030658096E+04  0.25500000920E-02 0.  1.
        2   -1    0    0  501    0  0.00000000000E+00  0.00000000000E+00 -0.56795437895E+03  0.56795437896E+03  0.25500000920E-02 0. -1.
    10030    2    1    2    0    0  0.00000000000E+00  0.00000000000E+00  0.53511143069E+03  0.16710201886E+04  0.15830237609E+04 0.  0.
        5    1    3    3  502    0  0.75001224329E+03  0.98645246768E+01  0.81708750034E+00  0.75009228203E+03  0.46999998093E+01 0. -1.
       -5    1    3    3    0  502 -0.75001224329E+03 -0.98645246768E+01  0.53429434319E+03  0.92092790657E+03  0.46999998093E+01 0.  1.
</event>
<event>
 5   0  0.4373026E-05  0.1598963E+04  0.7818609E-02  0.8821185E-01
       -1   -1    0    0    0  501  0.00000000000E+00  0.00000000000E+00  0.40527496605E+03  0.40527496609E+03  0.50400001928E-02 0.  1.
        1   -1    0    0  501    0  0.00000000000E+00  0.00000000000E+00 -0.15771282261E+04  0.15771282261E+04  0.50400001928E-02 0. -1.
    10030    2    1    2    0    0  0.00000000000E+00  0.00000000000E+00 -0.11718532600E+04  0.19824031922E+04  0.15989628993E+04 0.  0.
        4    1    3    3  502    0  0.13240456060E+03  0.24846336310E+03  0.34177938594E+03  0.44280895657E+03  0.12699999809E+01 0.  1.
       -4    1    3    3    0  502 -0.13240456060E+03 -0.24846336310E+03 -0.15136326459E+04  0.15395942356E+04  0.12699999809E+01 0. -1.
</event>
<event>
 5   0  0.4373026E-05  0.1601593E+04  0.7818609E-02  0.8819570E-01
       -1   -1    0    0    0  501  0.00000000000E+00  0.00000000000E+00  0.30050124648E+03  0.30050124652E+03  0.50400001928E-02 0.  1.
        1   -1    0    0  501    0  0.00000000000E+00  0.00000000000E+00 -0.21340171275E+04  0.21340171275E+04  0.50400001928E-02 0. -1.
    10030    2    1    2    0    0  0.00000000000E+00  0.00000000000E+00 -0.18335158811E+04  0.24345183741E+04  0.16015927159E+04 0.  0.
        4    1    3    3  502    0  0.27961796233E+03  0.39357928454E+03 -0.18879118774E+04  0.19486671670E+04  0.12699999809E+01 0. -1.
       -4    1    3    3    0  502 -0.27961796233E+03 -0.39357928454E+03  0.54395996341E+02  0.48585120705E+03  0.12699999809E+01 0.  1.
</event>
<event>
 5   0  0.4504463E-05  0.1601460E+04  0.7818609E-02  0.8819651E-01
        1   -1    0    0  501    0  0.00000000000E+00  0.00000000000E+00  0.17358954358E+04  0.17358954358E+04  0.50400001928E-02 0. -1.
       -1   -1    0    0    0  501  0.00000000000E+00  0.00000000000E+00 -0.36935917275E+03  0.36935917278E+03  0.50400001928E-02 0.  1.
    10030    2    1    2    0    0  0.00000000000E+00  0.00000000000E+00  0.13665362630E+04  0.21052546085E+04  0.16014604612E+04 0.  0.
        1    1    3    3  502    0  0.13983902010E+03  0.37654438063E+03  0.15938758483E+04  0.16437094762E+04  0.50400001928E-02 0. -1.
       -1    1    3    3    0  502 -0.13983902010E+03 -0.37654438063E+03 -0.22733958533E+03  0.46154513237E+03  0.50400001928E-02 0.  1.
</event>
<event>
 5   0  0.4504463E-05  0.1600203E+04  0.7818609E-02  0.8820423E-01
        1   -1    0    0  501    0  0.00000000000E+00  0.00000000000E+00  0.22773779899E+04  0.22773779899E+04  0.50400001928E-02 0. -1.
       -1   -1    0    0    0  501  0.00000000000E+00  0.00000000000E+00 -0.28109627856E+03  0.28109627860E+03  0.50400001928E-02 0.  1.
    10030    2    1    2    0    0  0.00000000000E+00  0.00000000000E+00  0.19962817113E+04  0.25584742685E+04  0.16002030845E+04 0.  0.
        1    1    3    3  502    0  0.38425744192E+03  0.22029806384E+03 -0.67194673424E+02  0.44799569502E+03  0.50400001928E-02 0.  1.
       -1    1    3    3    0  502 -0.38425744192E+03 -0.22029806384E+03  0.20634763847E+04  0.21104785735E+04  0.50400001928E-02 0. -1.
</event>
<event>
 5   0  0.4211419E-05  0.1599120E+04  0.7818609E-02  0.8821089E-01
        1   -1    0    0  501    0  0.00000000000E+00  0.00000000000E+00  0.55163323651E+03  0.55163323653E+03  0.50400001928E-02 0. -1.
       -1   -1    0    0    0  501  0.00000000000E+00  0.00000000000E+00 -0.11589151902E+04  0.11589151902E+04  0.50400001928E-02 0.  1.
    10030    2    1    2    0    0  0.00000000000E+00  0.00000000000E+00 -0.60728195365E+03  0.17105484267E+04  0.15991199295E+04 0.  0.
        2    1    3    3  502    0  0.35977084182E+03 -0.24291802276E+03 -0.10218838019E+04  0.11102660623E+04  0.25500000920E-02 0.  1.
       -2    1    3    3    0  502 -0.35977084182E+03  0.24291802276E+03  0.41460184829E+03  0.60028236441E+03  0.25500000920E-02 0. -1.
</event>
<event>
 5   0  0.4314657E-05  0.1599308E+04  0.7818609E-02  0.8820973E-01
       -1   -1    0    0    0  501  0.00000000000E+00  0.00000000000E+00  0.52965931231E+03  0.52965931234E+03  0.50400001928E-02 0. -1.
        1   -1    0    0  501    0  0.00000000000E+00  0.00000000000E+00 -0.12072789568E+04  0.12072789568E+04  0.50400001928E-02 0.  1.
    10030    2    1    2    0    0  0.00000000000E+00  0.00000000000E+00 -0.67761964445E+03  0.17369382691E+04  0.15993080279E+04 0.  0.
        5    1    3    3  502    0  0.43374928088E+03  0.66491792108E+03 -0.44281165626E+03  0.90904264661E+03  0.46999998093E+01 0. -1.
       -5    1    3    3    0  502 -0.43374928088E+03 -0.66491792108E+03 -0.23480798819E+03  0.82789562250E+03  0.46999998093E+01 0.  1.
</event>
<event>
 5   0  0.4211419E-05  0.1597931E+04  0.7818609E-02  0.8821820E-01
       -1   -1    0    0    0  501  0.00000000000E+00  0.00000000000E+00  0.98417365288E+03  0.98417365289E+03  0.50400001928E-02 0. -1.
        1   -1    0    0  501    0  0.00000000000E+00  0.00000000000E+00 -0.64861076474E+03  0.64861076476E+03  0.50400001928E-02 0.  1.
    10030    2    1    2    0    0  0.00000000000E+00  0.00000000000E+00  0.33556288814E+03  0.16327844177E+04  0.15979306939E+04 0.  0.
        2    1    3    3  502    0  0.44075498311E+03  0.53852847166E+03 -0.23329465866E+03  0.73396475916E+03  0.25500000920E-02 0.  1.
       -2    1    3    3    0  502 -0.44075498311E+03 -0.53852847166E+03  0.56885754680E+03  0.89881965849E+03  0.25500000920E-02 0. -1.
</event>
<event>
 5   0  0.8694033E-05  0.1600279E+04  0.7818609E-02  0.8820377E-01
        2   -1    0    0  501    0  0.00000000000E+00  0.00000000000E+00  0.14857761306E+04  0.14857761306E+04  0.25500000920E-02 0.  1.
       -2   -1    0    0    0  501  0.00000000000E+00  0.00000000000E+00 -0.43090149023E+03  0.43090149024E+03  0.25500000920E-02 0. -1.
    10030    2    1    2    0    0  0.00000000000E+00  0.00000000000E+00  0.10548746404E+04  0.19166776209E+04  0.16002789117E+04 0.  0.
        1    1    3    3  502    0  0.14274292242E+03  0.13123799898E+03 -0.40233512630E+03  0.44662345232E+03  0.50400001928E-02 0. -1.
       -1    1    3    3    0  502 -0.14274292242E+03 -0.13123799898E+03  0.14572097667E+04  0.14700541686E+04  0.50400001928E-02 0.  1.
</event>
<event>
 5   0  0.8694033E-05  0.1598892E+04  0.7818609E-02  0.8821229E-01
        2   -1    0    0  501    0  0.00000000000E+00  0.00000000000E+00  0.74014571446E+03  0.74014571446E+03  0.25500000920E-02 0. -1.
       -2   -1    0    0    0  501  0.00000000000E+00  0.00000000000E+00 -0.86349756952E+03  0.86349756952E+03  0.25500000920E-02 0.  1.
    10030    2    1    2    0    0  0.00000000000E+00  0.00000000000E+00 -0.12335185506E+03  0.16036432840E+04  0.15988921484E+04 0.  0.
        1    1    3    3  502    0 -0.15649618803E+03  0.37852225967E+03 -0.75026088407E+03  0.85478743096E+03  0.50400001928E-02 0.  1.
       -1    1    3    3    0  502  0.15649618803E+03 -0.37852225967E+03  0.62690902901E+03  0.74885585303E+03  0.50400001928E-02 0. -1.
</event>
<event>
 5   0  0.7901257E-05  0.1595823E+04  0.7818609E-02  0.8823118E-01
       -2   -1    0    0    0  501  0.00000000000E+00  0.00000000000E+00  0.39484177943E+03  0.39484177943E+03  0.25500000920E-02 0. -1.
        2   -1    0    0  501    0  0.00000000000E+00  0.00000000000E+00 -0.16124498053E+04  0.16124498053E+04  0.25500000920E-02 0.  1.
    10030    2    1    2    0    0  0.00000000000E+00  0.00000000000E+00 -0.12176080259E+04  0.20072915847E+04  0.15958227350E+04 0.  0.
        2    1    3    3  502    0 -0.72123473479E+03  0.29238562536E+02 -0.10365220226E+04  0.12630963302E+04  0.25500000920E-02 0.  1.
       -2    1    3    3    0  502  0.72123473479E+03 -0.29238562536E+02 -0.18108600330E+03  0.74419525449E+03  0.25500000920E-02 0. -1.
</event>
<event>
 5   0  0.4373026E-05  0.1600752E+04  0.7818609E-02  0.8820086E-01
       -1   -1    0    0    0  501  0.00000000000E+00  0.00000000000E+00  0.45559726285E+03  0.45559726288E+03  0.50400001928E-02 0. -1.
        1   -1    0    0  501    0  0.00000000000E+00  0.00000000000E+00 -0.14060704682E+04  0.14060704682E+04  0.50400001928E-02 0.  1.
    10030    2    1    2    0    0  0.00000000000E+00  0.00000000000E+00 -0.95047320535E+03  0.18616677311E+04  0.16007521441E+04 0.  0.
        4    1    3    3  502    0  0.78451716315E+03  0.13331728811E+03 -0.57500756441E+03  0.98177186281E+03  0.12699999809E+01 0. -1.
       -4    1    3    3    0  502 -0.78451716315E+03 -0.13331728811E+03 -0.37546564094E+03  0.87989586828E+03  0.12699999809E+01 0.  1.
</event>
<event>
 5   0  0.4373026E-05  0.1599692E+04  0.7818609E-02  0.8820737E-01
       -1   -1    0    0    0  501  0.00000000000E+00  0.00000000000E+00  0.36356979421E+03  0.36356979424E+03  0.50400001928E-02 0. -1.
        1   -1    0    0  501    0  0.00000000000E+00  0.00000000000E+00 -0.17596438304E+04  0.17596438304E+04  0.50400001928E-02 0.  1.
    10030    2    1    2    0    0  0.00000000000E+00  0.00000000000E+00 -0.13960740362E+04  0.21232136247E+04  0.15996916520E+04 0.  0.
        4    1    3    3  502    0  0.98233598981E+02 -0.36378285802E+03  0.23837962304E+03  0.44588593310E+03  0.12699999809E+01 0. -1.
       -4    1    3    3    0  502 -0.98233598981E+02  0.36378285802E+03 -0.16344536592E+04  0.16773276916E+04  0.12699999809E+01 0.  1.
</event>
<event>
 5   0  0.4504463E-05  0.1608507E+04  0.7818609E-02  0.8815339E-01
        1   -1    0    0  501    0  0.00000000000E+00  0.00000000000E+00  0.89519530762E+03  0.89519530763E+03  0.50400001928E-02 0. -1.
       -1   -1    0    0    0  501  0.00000000000E+00  0.00000000000E+00 -0.72255044462E+03  0.72255044463E+03  0.50400001928E-02 0.  1.
    10030    2    1    2    0    0  0.00000000000E+00  0.00000000000E+00  0.17264486301E+03  0.16177457523E+04  0.16085070936E+04 0.  0.
        1    1    3    3  502    0 -0.45284476457E+03 -0.50983536760E+03 -0.34253410834E+03  0.76310556167E+03  0.50400001928E-02 0.  1.
       -1    1    3    3    0  502  0.45284476457E+03  0.50983536760E+03  0.51517897135E+03  0.85464019060E+03  0.50400001928E-02 0. -1.
</event>
<event>
 5   0  0.4211419E-05  0.1599734E+04  0.7818609E-02  0.8820712E-01
        1   -1    0    0  501    0  0.00000000000E+00  0.00000000000E+00  0.20124063914E+04  0.20124063914E+04  0.50400001928E-02 0.  1.
       -1   -1    0    0    0  501  0.00000000000E+00  0.00000000000E+00 -0.31792143182E+03  0.31792143186E+03  0.50400001928E-02 0. -1.
    10030    2    1    2    0    0  0.00000000000E+00  0.00000000000E+00  0.16944849596E+04  0.23303278232E+04  0.15997338796E+04 0.  0.
        2    1    3    3  502    0 -0.50709688274E+03 -0.19524842804E+03 -0.77753849239E+01  0.54344241071E+03  0.25500000920E-02 0. -1.
       -2    1    3    3    0  502  0.50709688274E+03  0.19524842804E+03  0.17022603445E+04  0.17868854125E+04  0.25500000920E-02 0.  1.
</event>
<event>
 5   0  0.4211419E-05  0.1599694E+04  0.7818609E-02  0.8820736E-01
        1   -1    0    0  501    0  0.00000000000E+00  0.00000000000E+00  0.98052017969E+03  0.98052017971E+03  0.50400001928E-02 0. -1.
       -1   -1    0    0    0  501  0.00000000000E+00  0.00000000000E+00 -0.65246487446E+03  0.65246487448E+03  0.50400001928E-02 0.  1.
    10030    2    1    2    0    0  0.00000000000E+00  0.00000000000E+00  0.32805530524E+03  0.16329850542E+04  0.15996936906E+04 0.  0.
        2    1    3    3  502    0  0.32809792630E+03 -0.52796761551E+02 -0.57865659651E+03  0.66729244261E+03  0.25500000920E-02 0.  1.
       -2    1    3    3    0  502 -0.32809792630E+03  0.52796761551E+02  0.90671190175E+03  0.96569261157E+03  0.25500000920E-02 0. -1.
</event>
<event>
 5   0  0.7849690E-05  0.1592666E+04  0.7818609E-02  0.8825066E-01
        2   -1    0    0  501    0  0.00000000000E+00  0.00000000000E+00  0.11233619171E+04  0.11233619171E+04  0.25500000920E-02 0.  1.
       -2   -1    0    0    0  501  0.00000000000E+00  0.00000000000E+00 -0.56450726370E+03  0.56450726370E+03  0.25500000920E-02 0. -1.
    10030    2    1    2    0    0  0.00000000000E+00  0.00000000000E+00  0.55885465342E+03  0.16878691808E+04  0.15926656422E+04 0.  0.
        3    1    3    3  502    0 -0.49934683450E+03  0.17709675029E+03  0.90946891054E+03  0.10525417947E+04  0.10100000352E+00 0.  1.
       -3    1    3    3    0  502  0.49934683450E+03 -0.17709675029E+03 -0.35061425712E+03  0.63532738615E+03  0.10100000352E+00 0. -1.
</event>
<event>
 5   0  0.8694033E-05  0.1605828E+04  0.7818609E-02  0.8816976E-01
        2   -1    0    0  501    0  0.00000000000E+00  0.00000000000E+00  0.14929018105E+04  0.14929018105E+04  0.25500000920E-02 0. -1.
       -2   -1    0    0    0  501  0.00000000000E+00  0.00000000000E+00 -0.43182402788E+03  0.43182402789E+03  0.25500000920E-02 0.  1.
    10030    2    1    2    0    0  0.00000000000E+00  0.00000000000E+00  0.10610777826E+04  0.19247258384E+04  0.16058279772E+04 0.  0.
        1    1    3    3  502    0 -0.50836167920E+03  0.59782303361E+03  0.32696625275E+03  0.85013581671E+03  0.50400001928E-02 0.  1.
       -1    1    3    3    0  502  0.50836167920E+03 -0.59782303361E+03  0.73411152990E+03  0.10745900217E+04  0.50400001928E-02 0. -1.
</event>
<event>
 5   0  0.7849690E-05  0.1596558E+04  0.7818609E-02  0.8822665E-01
        2   -1    0    0  501    0  0.00000000000E+00  0.00000000000E+00  0.64754359611E+03  0.64754359612E+03  0.25500000920E-02 0. -1.
       -2   -1    0    0    0  501  0.00000000000E+00  0.00000000000E+00 -0.98410298469E+03  0.98410298469E+03  0.25500000920E-02 0.  1.
    10030    2    1    2    0    0  0.00000000000E+00  0.00000000000E+00 -0.33655938857E+03  0.16316465808E+04  0.15965582804E+04 0.  0.
        3    1    3    3  502    0  0.13750409507E+03 -0.70414754802E+03 -0.52599871238E+03  0.88960991517E+03  0.10100000352E+00 0.  1.
       -3    1    3    3    0  502 -0.13750409507E+03  0.70414754802E+03  0.18943932381E+03  0.74203666564E+03  0.10100000352E+00 0. -1.
</event>
<event>
 5   0  0.4504463E-05  0.1600843E+04  0.7818609E-02  0.8820030E-01
        1   -1    0    0  501    0  0.00000000000E+00  0.00000000000E+00  0.56030589889E+03  0.56030589891E+03  0.50400001928E-02 0. -1.
       -1   -1    0    0    0  501  0.00000000000E+00  0.00000000000E+00 -0.11434377133E+04  0.11434377133E+04  0.50400001928E-02 0.  1.
    10030    2    1    2    0    0  0.00000000000E+00  0.00000000000E+00 -0.58313181445E+03  0.17037436123E+04  0.16008433975E+04 0.  0.
        1    1    3    3  502    0 -0.47337091283E+03 -0.47627008813E+03 -0.75518322200E+03  0.10105517883E+04  0.50400001928E-02 0.  1.
       -1    1    3    3    0  502  0.47337091283E+03  0.47627008813E+03  0.17205140756E+03  0.69319182398E+03  0.50400001928E-02 0. -1.
</event>
<event>
 5   0  0.7901257E-05  0.1598855E+04  0.7818609E-02  0.8821252E-01
        2   -1    0    0  501    0  0.00000000000E+00  0.00000000000E+00  0.71516485417E+03  0.71516485417E+03  0.25500000920E-02 0. -1.
       -2   -1    0    0    0  501  0.00000000000E+00  0.00000000000E+00 -0.89361772187E+03  0.89361772188E+03  0.25500000920E-02 0.  1.
    10030    2    1    2    0    0  0.00000000000E+00  0.00000000000E+00 -0.17845286771E+03  0.16087825760E+04  0.15988545747E+04 0.  0.
        2    1    3    3  502    0 -0.51369914349E+03 -0.47273872271E+03  0.30269863958E+03  0.76091732559E+03  0.25500000920E-02 0. -1.
       -2    1    3    3    0  502  0.51369914349E+03  0.47273872271E+03 -0.48115150728E+03  0.84786525046E+03  0.25500000920E-02 0.  1.
</event>
<event>
 5   0  0.7901257E-05  0.1613051E+04  0.7818609E-02  0.8812570E-01
       -2   -1    0    0    0  501  0.00000000000E+00  0.00000000000E+00  0.50638599518E+03  0.50638599518E+03  0.25500000920E-02 0. -1.
        2   -1    0    0  501    0  0.00000000000E+00  0.00000000000E+00 -0.12845607495E+04  0.12845607495E+04  0.25500000920E-02 0.  1.
    10030    2    1    2    0    0  0.00000000000E+00  0.00000000000E+00 -0.77817475434E+03  0.17909467447E+04  0.16130512373E+04 0.  0.
        2    1    3    3  502    0 -0.60474729666E+03 -0.52287351276E+03 -0.27071010321E+03  0.84403789201E+03  0.25500000920E-02 0.  1.
       -2    1    3    3    0  502  0.60474729666E+03  0.52287351276E+03 -0.50746465112E+03  0.94690885269E+03  0.25500000920E-02 0. -1.
</event>
<event>
 5   0  0.4373026E-05  0.1598753E+04  0.7818609E-02  0.8821314E-01
       -1   -1    0    0    0  501  0.00000000000E+00  0.00000000000E+00  0.58380465751E+03  0.58380465753E+03  0.50400001928E-02 0. -1.
        1   -1    0    0  501    0  0.00000000000E+00  0.00000000000E+00 -0.10945492388E+04  0.10945492389E+04  0.50400001928E-02 0.  1.
    10030    2    1    2    0    0  0.00000000000E+00  0.00000000000E+00 -0.51074458133E+03  0.16783538964E+04  0.15987531936E+04 0.  0.
        4    1    3    3  502    0 -0.41309634722E+03 -0.11177687231E+03  0.45341712784E+03  0.62348325237E+03  0.12699999809E+01 0. -1.
       -4    1    3    3    0  502  0.41309634722E+03  0.11177687231E+03 -0.96416170917E+03  0.10548706440E+04  0.12699999809E+01 0.  1.
</event>
<event>
 5   0  0.4211419E-05  0.1610464E+04  0.7818609E-02  0.8814145E-01
        1   -1    0    0  501    0  0.00000000000E+00  0.00000000000E+00  0.10226846120E+04  0.10226846120E+04  0.50400001928E-02 0.  1.
       -1   -1    0    0    0  501  0.00000000000E+00  0.00000000000E+00 -0.63401599735E+03  0.63401599737E+03  0.50400001928E-02 0. -1.
    10030    2    1    2    0    0  0.00000000000E+00  0.00000000000E+00  0.38866861462E+03  0.16567006093E+04  0.16104637894E+04 0.  0.
        2    1    3    3  502    0  0.63441305513E+03  0.44173724973E+03 -0.37494813146E+02  0.77396226222E+03  0.25500000920E-02 0.  1.
       -2    1    3    3    0  502 -0.63441305513E+03 -0.44173724973E+03  0.42616342776E+03  0.88273834713E+03  0.25500000920E-02 0. -1.
</event>
<event>
 5   0  0.4314657E-05  0.1601665E+04  0.7818609E-02  0.8819526E-01
       -1   -1    0    0    0  501  0.00000000000E+00  0.00000000000E+00  0.75436746614E+03  0.75436746616E+03  0.50400001928E-02 0. -1.
        1   -1    0    0  501    0  0.00000000000E+00  0.00000000000E+00 -0.85015977340E+03  0.85015977341E+03  0.50400001928E-02 0.  1.
    10030    2    1    2    0    0  0.00000000000E+00  0.00000000000E+00 -0.95792307258E+02  0.16045272396E+04  0.16016652261E+04 0.  0.
        5    1    3    3  502    0 -0.58113940481E+02 -0.62210657519E+03  0.45391505659E+03  0.77230485533E+03  0.46999998093E+01 0. -1.
       -5    1    3    3    0  502  0.58113940481E+02  0.62210657519E+03 -0.54970736385E+03  0.83222238424E+03  0.46999998093E+01 0.  1.
</event>
<event>
 5   0  0.8620155E-05  0.1600357E+04  0.7818609E-02  0.8820329E-01
       -2   -1    0    0    0  501  0.00000000000E+00  0.00000000000E+00  0.51445375583E+03  0.51445375584E+03  0.25500000920E-02 0.  1.
        2   -1    0    0  501    0  0.00000000000E+00  0.00000000000E+00 -0.12445933424E+04  0.12445933424E+04  0.25500000920E-02 0. -1.
    10030    2    1    2    0    0  0.00000000000E+00  0.00000000000E+00 -0.73013958653E+03  0.17590470982E+04  0.16003571095E+04 0.  0.
        4    1    3    3  502    0 -0.19004950747E+03 -0.75863567557E+03 -0.55107532643E+03  0.95673012487E+03  0.12699999809E+01 0. -1.
       -4    1    3    3    0  502  0.19004950747E+03  0.75863567557E+03 -0.17906426010E+03  0.80231697333E+03  0.12699999809E+01 0.  1.
</event>
<event>
 5   0  0.4314657E-05  0.1598756E+04  0.7818609E-02  0.8821312E-01
       -1   -1    0    0    0  501  0.00000000000E+00  0.00000000000E+00  0.60412973978E+03  0.60412973980E+03  0.50400001928E-02 0.  1.
        1   -1    0    0  501    0  0.00000000000E+00  0.00000000000E+00 -0.10577288879E+04  0.10577288879E+04  0.50400001928E-02 0. -1.
    10030    2    1    2    0    0  0.00000000000E+00  0.00000000000E+00 -0.45359914811E+03  0.16618586277E+04  0.15987563640E+04 0.  0.
        5    1    3    3  502    0  0.41143869699E+03  0.68145241216E+03 -0.15095250130E+03  0.81022709104E+03  0.46999998093E+01 0.  1.
       -5    1    3    3    0  502 -0.41143869699E+03 -0.68145241216E+03 -0.30264664681E+03  0.85163153666E+03  0.46999998093E+01 0. -1.
</event>
<event>
 5   0  0.7849690E-05  0.1606846E+04  0.7818609E-02  0.8816353E-01
        2   -1    0    0  501    0  0.00000000000E+00  0.00000000000E+00  0.50646244729E+03  0.50646244729E+03  0.25500000920E-02 0. -1.
       -2   -1    0    0    0  501  0.00000000000E+00  0.00000000000E+00 -0.12745047902E+04  0.12745047902E+04  0.25500000920E-02 0.  1.
    10030    2    1    2    0    0  0.00000000000E+00  0.00000000000E+00 -0.76804234289E+03  0.17809672375E+04  0.16068463712E+04 0.  0.
        3    1    3    3  502    0  0.30517285823E+03  0.52963471558E+03  0.19386535366E+03  0.64126998284E+03  0.10100000352E+00 0. -1.
       -3    1    3    3    0  502 -0.30517285823E+03 -0.52963471558E+03 -0.96190769655E+03  0.11396972546E+04  0.10100000352E+00 0.  1.
</event>
<event>
 5   0  0.4314657E-05  0.1599608E+04  0.7818609E-02  0.8820789E-01
        1   -1    0    0  501    0  0.00000000000E+00  0.00000000000E+00  0.51856572598E+03  0.51856572600E+03  0.50400001928E-02 0.  1.
       -1   -1    0    0    0  501  0.00000000000E+00  0.00000000000E+00 -0.12335693219E+04  0.12335693219E+04  0.50400001928E-02 0. -1.
    10030    2    1    2    0    0  0.00000000000E+00  0.00000000000E+00 -0.71500359589E+03  0.17521350479E+04  0.15996084158E+04 0.  0.
        5    1    3    3  502    0 -0.78758578593E+03 -0.62313352117E+02 -0.49382965524E+03  0.93169959882E+03  0.46999998093E+01 0.  1.
       -5    1    3    3    0  502  0.78758578593E+03  0.62313352117E+02 -0.22117394065E+03  0.82043544905E+03  0.46999998093E+01 0. -1.
</event>
<event>
 5   0  0.4256406E-05  0.1598729E+04  0.7818609E-02  0.8821329E-01
        1   -1    0    0  501    0  0.00000000000E+00  0.00000000000E+00  0.14473272860E+04  0.14473272860E+04  0.50400001928E-02 0. -1.
       -1   -1    0    0    0  501  0.00000000000E+00  0.00000000000E+00 -0.44149204570E+03  0.44149204573E+03  0.50400001928E-02 0.  1.
    10030    2    1    2    0    0  0.00000000000E+00  0.00000000000E+00  0.10058352403E+04  0.18888193317E+04  0.15987288505E+04 0.  0.
        3    1    3    3  502    0  0.32827689219E+03  0.50450287710E+03 -0.11854634406E+03  0.61346729077E+03  0.10100000352E+00 0.  1.
       -3    1    3    3    0  502 -0.32827689219E+03 -0.50450287710E+03  0.11243815843E+04  0.12753520409E+04  0.10100000352E+00 0. -1.
</event>
<event>
 5   0  0.4256406E-05  0.1599732E+04  0.7818609E-02  0.8820713E-01
       -1   -1    0    0    0  501  0.00000000000E+00  0.00000000000E+00  0.33449574311E+03  0.33449574315E+03  0.50400001928E-02 0. -1.
        1   -1    0    0  501    0  0.00000000000E+00  0.00000000000E+00 -0.19126858724E+04  0.19126858724E+04  0.50400001928E-02 0.  1.
    10030    2    1    2    0    0  0.00000000000E+00  0.00000000000E+00 -0.15781901293E+04  0.22471816156E+04  0.15997315803E+04 0.  0.
        3    1    3    3  502    0 -0.51503817215E+03 -0.42610656100E+03 -0.17204824399E+03  0.69024034116E+03  0.10100000352E+00 0. -1.
       -3    1    3    3    0  502  0.51503817215E+03  0.42610656100E+03 -0.14061418853E+04  0.15569412744E+04  0.10100000352E+00 0.  1.
</event>
<event>
 5   0  0.4314657E-05  0.1600448E+04  0.7818609E-02  0.8820273E-01
        1   -1    0    0  501    0  0.00000000000E+00  0.00000000000E+00  0.57992825417E+03  0.57992825420E+03  0.50400001928E-02 0. -1.
       -1   -1    0    0    0  501  0.00000000000E+00  0.00000000000E+00 -0.11042028906E+04  0.11042028906E+04  0.50400001928E-02 0.  1.
    10030    2    1    2    0    0  0.00000000000E+00  0.00000000000E+00 -0.52427463639E+03  0.16841311448E+04  0.16004480055E+04 0.  0.
        5    1    3    3  502    0  0.14967667811E+03 -0.48267865867E+03 -0.91502590561E+03  0.10453115772E+04  0.46999998093E+01 0.  1.
       -5    1    3    3    0  502 -0.14967667811E+03  0.48267865867E+03  0.39075126922E+03  0.63881956756E+03  0.46999998093E+01 0. -1.
</event>
<event>
 5   0  0.8620155E-05  0.1586681E+04  0.7818609E-02  0.8828773E-01
       -2   -1    0    0    0  501  0.00000000000E+00  0.00000000000E+00  0.33296723288E+03  0.33296723289E+03  0.25500000920E-02 0.  1.
        2   -1    0    0  501    0  0.00000000000E+00  0.00000000000E+00 -0.18902424787E+04  0.18902424788E+04  0.25500000920E-02 0. -1.
    10030    2    1    2    0    0  0.00000000000E+00  0.00000000000E+00 -0.15572752459E+04  0.22232097116E+04  0.15866805698E+04 0.  0.
        4    1    3    3  502    0  0.57808927459E+03  0.21684254661E+03 -0.80608245278E+02  0.62266138593E+03  0.12699999809E+01 0.  1.
       -4    1    3    3    0  502 -0.57808927459E+03 -0.21684254661E+03 -0.14766670006E+04  0.16005483257E+04  0.12699999809E+01 0. -1.
</event>
<event>
 5   0  0.7849690E-05  0.1593611E+04  0.7818609E-02  0.8824482E-01
        2   -1    0    0  501    0  0.00000000000E+00  0.00000000000E+00  0.89275068389E+03  0.89275068389E+03  0.25500000920E-02 0. -1.
       -2   -1    0    0    0  501  0.00000000000E+00  0.00000000000E+00 -0.71117212389E+03  0.71117212389E+03  0.25500000920E-02 0.  1.
    10030    2    1    2    0    0  0.00000000000E+00  0.00000000000E+00  0.18157856000E+03  0.16039228078E+04  0.15936114959E+04 0.  0.
        3    1    3    3  502    0 -0.45501306456E+02  0.65295770485E+03 -0.36654632759E+03  0.75018687917E+03  0.10100000352E+00 0.  1.
       -3    1    3    3    0  502  0.45501306456E+02 -0.65295770485E+03  0.54812488759E+03  0.85373592861E+03  0.10100000352E+00 0. -1.
</event>
<event>
 5   0  0.7901257E-05  0.1601632E+04  0.7818609E-02  0.8819546E-01
        2   -1    0    0  501    0  0.00000000000E+00  0.00000000000E+00  0.88899614229E+03  0.88899614230E+03  0.25500000920E-02 0.  1.
       -2   -1    0    0    0  501  0.00000000000E+00  0.00000000000E+00 -0.72138234474E+03  0.72138234475E+03  0.25500000920E-02 0. -1.
    10030    2    1    2    0    0  0.00000000000E+00  0.00000000000E+00  0.16761379755E+03  0.16103784870E+04  0.16016318199E+04 0.  0.
        2    1    3    3  502    0  0.54420306660E+03  0.42495342584E+03 -0.32407302806E+03  0.76273568119E+03  0.25500000920E-02 0.  1.
       -2    1    3    3    0  502 -0.54420306660E+03 -0.42495342584E+03  0.49168682561E+03  0.84764280586E+03  0.25500000920E-02 0. -1.
</event>
<event>
 5   0  0.8694033E-05  0.1596519E+04  0.7818609E-02  0.8822689E-01
        2   -1    0    0  501    0  0.00000000000E+00  0.00000000000E+00  0.11561985603E+04  0.11561985603E+04  0.25500000920E-02 0.  1.
       -2   -1    0    0    0  501  0.00000000000E+00  0.00000000000E+00 -0.55113229583E+03  0.55113229583E+03  0.25500000920E-02 0. -1.
    10030    2    1    2    0    0  0.00000000000E+00  0.00000000000E+00  0.60506626445E+03  0.17073308561E+04  0.15965191724E+04 0.  0.
        1    1    3    3  502    0 -0.53171104237E+03  0.24228366457E+03 -0.27909164644E+03  0.64754162324E+03  0.50400001928E-02 0. -1.
       -1    1    3    3    0  502  0.53171104237E+03 -0.24228366457E+03  0.88415791089E+03  0.10597892329E+04  0.50400001928E-02 0.  1.
</event>
<event>
 5   0  0.8037548E-05  0.1600173E+04  0.7818609E-02  0.8820441E-01
       -2   -1    0    0    0  501  0.00000000000E+00  0.00000000000E+00  0.53358813964E+03  0.53358813965E+03  0.25500000920E-02 0.  1.
        2   -1    0    0  501    0  0.00000000000E+00  0.00000000000E+00 -0.11996870865E+04  0.11996870865E+04  0.25500000920E-02 0. -1.
    10030    2    1    2    0    0  0.00000000000E+00  0.00000000000E+00 -0.66609894685E+03  0.17332752261E+04  0.16001734914E+04 0.  0.
        5    1    3    3  502    0 -0.12846797706E+03 -0.63651114926E+03  0.17323269496E+03  0.67207300262E+03  0.46999998093E+01 0.  1.
       -5    1    3    3    0  502  0.12846797706E+03  0.63651114926E+03 -0.83933164180E+03  0.10612022235E+04  0.46999998093E+01 0. -1.
</event>
<event>
 5   0  0.7849690E-05  0.1601940E+04  0.7818609E-02  0.8819357E-01
        2   -1    0    0  501    0  0.00000000000E+00  0.00000000000E+00  0.10043820599E+04  0.10043820599E+04  0.25500000920E-02 0.  1.
       -2   -1    0    0    0  501  0.00000000000E+00  0.00000000000E+00 -0.63875391258E+03  0.63875391259E+03  0.25500000920E-02 0. -1.
    10030    2    1    2    0    0  0.00000000000E+00  0.00000000000E+00  0.36562814727E+03  0.16431359724E+04  0.16019400369E+04 0.  0.
        3    1    3    3  502    0 -0.59133806366E+03  0.27834308496E+03  0.65775214745E+03  0.92725049267E+03  0.10100000352E+00 0.  1.
       -3    1    3    3    0  502  0.59133806366E+03 -0.27834308496E+03 -0.29212400018E+03  0.71588547978E+03  0.10100000352E+00 0. -1.
</event>
<event>
 5   0  0.4504463E-05  0.1599070E+04  0.7818609E-02  0.8821120E-01
       -1   -1    0    0    0  501  0.00000000000E+00  0.00000000000E+00  0.48081127127E+03  0.48081127130E+03  0.50400001928E-02 0. -1.
        1   -1    0    0  501    0  0.00000000000E+00  0.00000000000E+00 -0.13295362746E+04  0.13295362746E+04  0.50400001928E-02 0.  1.
    10030    2    1    2    0    0  0.00000000000E+00  0.00000000000E+00 -0.84872500332E+03  0.18103475459E+04  0.15990697626E+04 0.  0.
        1    1    3    3  502    0 -0.54991210620E+03 -0.55189186489E+03 -0.22099523544E+03  0.80983137083E+03  0.50400001928E-02 0.  1.
       -1    1    3    3    0  502  0.54991210620E+03  0.55189186489E+03 -0.62772976789E+03  0.10005161751E+04  0.50400001928E-02 0. -1.
</event>
<event>
 5   0  0.4256406E-05  0.1594658E+04  0.7818609E-02  0.8823837E-01
       -1   -1    0    0    0  501  0.00000000000E+00  0.00000000000E+00  0.12318769621E+04  0.12318769621E+04  0.50400001928E-02 0. -1.
        1   -1    0    0  501    0  0.00000000000E+00  0.00000000000E+00 -0.51606873299E+03  0.51606873302E+03  0.50400001928E-02 0.  1.
    10030    2    1    2    0    0  0.00000000000E+00  0.00000000000E+00  0.71580822909E+03  0.17479456951E+04  0.15946575596E+04 0.  0.
        3    1    3    3  502    0  0.31569612704E+03  0.64711263127E+03 -0.17532052639E+02  0.72022648191E+03  0.10100000352E+00 0.  1.
       -3    1    3    3    0  502 -0.31569612704E+03 -0.64711263127E+03  0.73334028173E+03  0.10277192132E+04  0.10100000352E+00 0. -1.
</event>
<event>
 5   0  0.4314657E-05  0.1599245E+04  0.7818609E-02  0.8821012E-01
       -1   -1    0    0    0  501  0.00000000000E+00  0.00000000000E+00  0.31371496726E+04  0.31371496726E+04  0.50400001928E-02 0. -1.
        1   -1    0    0  501    0  0.00000000000E+00  0.00000000000E+00 -0.20381442436E+03  0.20381442443E+03  0.50400001928E-02 0.  1.
    10030    2    1    2    0    0  0.00000000000E+00  0.00000000000E+00  0.29333352482E+04  0.33409640970E+04  0.15992452655E+04 0.  0.
        5    1    3    3  502    0  0.38475653347E+03  0.26232361320E+03  0.10872346758E+03  0.47821977217E+03  0.46999998093E+01 0.  1.
       -5    1    3    3    0  502 -0.38475653347E+03 -0.26232361320E+03  0.28246117807E+04  0.28627443249E+04  0.46999998093E+01 0. -1.
</event>
<event>
 5   0  0.4256406E-05  0.1602349E+04  0.7818609E-02  0.8819106E-01
       -1   -1    0    0    0  501  0.00000000000E+00  0.00000000000E+00  0.63712901970E+03  0.63712901972E+03  0.50400001928E-02 0.  1.
        1   -1    0    0  501    0  0.00000000000E+00  0.00000000000E+00 -0.10074578091E+04  0.10074578091E+04  0.50400001928E-02 0. -1.
    10030    2    1    2    0    0  0.00000000000E+00  0.00000000000E+00 -0.37032878943E+03  0.16445868289E+04  0.16023490336E+04 0.  0.
        3    1    3    3  502    0 -0.13801532435E+03  0.94485982691E+02  0.61900990087E+03  0.64120909091E+03  0.10100000352E+00 0.  1.
       -3    1    3    3    0  502  0.13801532435E+03 -0.94485982691E+02 -0.98933869031E+03  0.10033777380E+04  0.10100000352E+00 0. -1.
</event>
<event>
 5   0  0.7901257E-05  0.1598589E+04  0.7818609E-02  0.8821415E-01
        2   -1    0    0  501    0  0.00000000000E+00  0.00000000000E+00  0.16854077482E+04  0.16854077482E+04  0.25500000920E-02 0. -1.
       -2   -1    0    0    0  501  0.00000000000E+00  0.00000000000E+00 -0.37906079064E+03  0.37906079065E+03  0.25500000920E-02 0.  1.
    10030    2    1    2    0    0  0.00000000000E+00  0.00000000000E+00  0.13063469575E+04  0.20644685388E+04  0.15985893702E+04 0.  0.
        2    1    3    3  502    0  0.69271590695E+03 -0.40821630089E+02  0.11654507424E+04  0.13563912290E+04  0.25500000920E-02 0. -1.
       -2    1    3    3    0  502 -0.69271590695E+03  0.40821630089E+02  0.14089621516E+03  0.70807730982E+03  0.25500000920E-02 0.  1.
</event>
<event>
 5   0  0.7849690E-05  0.1610001E+04  0.7818609E-02  0.8814427E-01
       -2   -1    0    0    0  501  0.00000000000E+00  0.00000000000E+00  0.13453469024E+04  0.13453469024E+04  0.25500000920E-02 0. -1.
        2   -1    0    0  501    0  0.00000000000E+00  0.00000000000E+00 -0.48167961368E+03  0.48167961369E+03  0.25500000920E-02 0.  1.
    10030    2    1    2    0    0  0.00000000000E+00  0.00000000000E+00  0.86366728876E+03  0.18270265161E+04  0.16100014612E+04 0.  0.
        3    1    3    3  502    0  0.15447503071E+03  0.20311520688E+03 -0.43456652772E+03  0.50395079084E+03  0.10100000352E+00 0.  1.
       -3    1    3    3    0  502 -0.15447503071E+03 -0.20311520688E+03  0.12982338165E+04  0.13230757253E+04  0.10100000352E+00 0. -1.
</event>
<event>
 5   0  0.4256406E-05  0.1597871E+04  0.7818609E-02  0.8821857E-01
       -1   -1    0    0    0  501  0.00000000000E+00  0.00000000000E+00  0.47169410140E+03  0.47169410142E+03  0.50400001928E-02 0.  1.
        1   -1    0    0  501    0  0.00000000000E+00  0.00000000000E+00 -0.13532036067E+04  0.13532036067E+04  0.50400001928E-02 0. -1.
    10030    2    1    2    0    0  0.00000000000E+00  0.00000000000E+00 -0.88150950533E+03  0.18248977082E+04  0.15978712831E+04 0.  0.
        3    1    3    3  502    0  0.68826646117E+03  0.40405714510E+03 -0.48233104997E+03  0.93253211743E+03  0.10100000352E+00 0. -1.
       -3    1    3    3    0  502 -0.68826646117E+03 -0.40405714510E+03 -0.39917845536E+03  0.89236559072E+03  0.10100000352E+00 0.  1.
</event>
<event>
 5   0  0.4211419E-05  0.1602083E+04  0.7818609E-02  0.8819269E-01
       -1   -1    0    0    0  501  0.00000000000E+00  0.00000000000E+00  0.14760511821E+04  0.14760511821E+04  0.50400001928E-02 0.  1.
        1   -1    0    0  501    0  0.00000000000E+00  0.00000000000E+00 -0.43471909706E+03  0.43471909709E+03  0.50400001928E-02 0. -1.
    10030    2    1    2    0    0  0.00000000000E+00  0.00000000000E+00  0.10413320851E+04  0.19107702792E+04  0.16020831903E+04 0.  0.
        2    1    3    3  502    0 -0.14732242971E+03  0.65593166356E+03  0.10401557966E+04  0.12384968012E+04  0.25500000920E-02 0.  1.
       -2    1    3    3    0  502  0.14732242971E+03 -0.65593166356E+03  0.11762885152E+01  0.67227347800E+03  0.25500000920E-02 0. -1.
</event>
<event>
 5   0  0.7901257E-05  0.1598154E+04  0.7818609E-02  0.8821683E-01
        2   -1    0    0  501    0  0.00000000000E+00  0.00000000000E+00  0.22333793856E+04  0.22333793856E+04  0.25500000920E-02 0. -1.
       -2   -1    0    0    0  501  0.00000000000E+00  0.00000000000E+00 -0.28590023452E+03  0.28590023453E+03  0.25500000920E-02 0.  1.
    10030    2    1    2    0    0  0.00000000000E+00  0.00000000000E+00  0.19474791510E+04  0.25192796201E+04  0.15981535472E+04 0.  0.
        2    1    3    3  502    0  0.24426535867E+03 -0.10676003936E+03 -0.21373865707E+03  0.34168331095E+03  0.25500000920E-02 0.  1.
       -2    1    3    3    0  502 -0.24426535867E+03  0.10676003936E+03  0.21612178081E+04  0.21775963091E+04  0.25500000920E-02 0. -1.
</event>
<event>
 5   0  0.4373026E-05  0.1598707E+04  0.7818609E-02  0.8821343E-01
        1   -1    0    0  501    0  0.00000000000E+00  0.00000000000E+00  0.62175371427E+03  0.62175371429E+03  0.50400001928E-02 0. -1.
       -1   -1    0    0    0  501  0.00000000000E+00  0.00000000000E+00 -0.10276836553E+04  0.10276836553E+04  0.50400001928E-02 0.  1.
    10030    2    1    2    0    0  0.00000000000E+00  0.00000000000E+00 -0.40592994102E+03  0.16494373696E+04  0.15987071399E+04 0.  0.
        4    1    3    3  502    0  0.24212433911E+03  0.88563989123E+02 -0.98360968681E+03  0.10168369607E+04  0.12699999809E+01 0.  1.
       -4    1    3    3    0  502 -0.24212433911E+03 -0.88563989123E+02  0.57767974579E+03  0.63260040891E+03  0.12699999809E+01 0. -1.
</event>
<event>
 5   0  0.3042125E-05  0.1603420E+04  0.7818609E-02  0.8818449E-01
       -3   -1    0    0    0  501  0.00000000000E+00  0.00000000000E+00  0.31624621529E+03  0.31624623142E+03  0.10100000352E+00 0. -1.
        3   -1    0    0  501    0  0.00000000000E+00  0.00000000000E+00 -0.20324013033E+04  0.20324013058E+04  0.10100000352E+00 0.  1.
    10030    2    1    2    0    0  0.00000000000E+00  0.00000000000E+00 -0.17161550880E+04  0.23486475372E+04  0.16034203965E+04 0.  0.
        5    1    3    3  502    0  0.66242212024E+03  0.32516453596E+03 -0.39910508491E+03  0.83895291860E+03  0.46999998093E+01 0. -1.
       -5    1    3    3    0  502 -0.66242212024E+03 -0.32516453596E+03 -0.13170500031E+04  0.15096946186E+04  0.46999998093E+01 0.  1.
</event>
<event>
 5   0  0.8694033E-05  0.1600540E+04  0.7818609E-02  0.8820216E-01
        2   -1    0    0  501    0  0.00000000000E+00  0.00000000000E+00  0.86456474409E+03  0.86456474409E+03  0.25500000920E-02 0. -1.
       -2   -1    0    0    0  501  0.00000000000E+00  0.00000000000E+00 -0.74075688207E+03  0.74075688207E+03  0.25500000920E-02 0.  1.
    10030    2    1    2    0    0  0.00000000000E+00  0.00000000000E+00  0.12380786202E+03  0.16053216262E+04  0.16005402640E+04 0.  0.
        1    1    3    3  502    0 -0.47361071920E+03  0.37404259133E+03  0.58903777285E+03  0.84331516726E+03  0.50400001928E-02 0. -1.
       -1    1    3    3    0  502  0.47361071920E+03 -0.37404259133E+03 -0.46522991083E+03  0.76200645891E+03  0.50400001928E-02 0.  1.
</event>
<event>
 5   0  0.4373026E-05  0.1588995E+04  0.7818609E-02  0.8827337E-01
        1   -1    0    0  501    0  0.00000000000E+00  0.00000000000E+00  0.15850362108E+04  0.15850362108E+04  0.50400001928E-02 0. -1.
       -1   -1    0    0    0  501  0.00000000000E+00  0.00000000000E+00 -0.39824088561E+03  0.39824088564E+03  0.50400001928E-02 0.  1.
    10030    2    1    2    0    0  0.00000000000E+00  0.00000000000E+00  0.11867953252E+04  0.19832770964E+04  0.15889949331E+04 0.  0.
        4    1    3    3  502    0  0.62257279672E+03  0.48659922822E+03  0.49010445059E+03  0.92982776981E+03  0.12699999809E+01 0.  1.
       -4    1    3    3    0  502 -0.62257279672E+03 -0.48659922822E+03  0.69669087457E+03  0.10534493266E+04  0.12699999809E+01 0. -1.
</event>
<event>
 5   0  0.4256406E-05  0.1601280E+04  0.7818609E-02  0.8819762E-01
        1   -1    0    0  501    0  0.00000000000E+00  0.00000000000E+00  0.58105458645E+03  0.58105458648E+03  0.50400001928E-02 0. -1.
       -1   -1    0    0    0  501  0.00000000000E+00  0.00000000000E+00 -0.11032084925E+04  0.11032084926E+04  0.50400001928E-02 0.  1.
    10030    2    1    2    0    0  0.00000000000E+00  0.00000000000E+00 -0.52215390609E+03  0.16842630790E+04  0.16012799311E+04 0.  0.
        3    1    3    3  502    0  0.54123261289E+03  0.21744601679E+03 -0.83796024401E+03  0.10209764406E+04  0.10100000352E+00 0.  1.
       -3    1    3    3    0  502 -0.54123261289E+03 -0.21744601679E+03  0.31580633792E+03  0.66328663845E+03  0.10100000352E+00 0. -1.
</event>
<event>
 5   0  0.4211419E-05  0.1596140E+04  0.7818609E-02  0.8822923E-01
       -1   -1    0    0    0  501  0.00000000000E+00  0.00000000000E+00  0.62643029443E+03  0.62643029445E+03  0.50400001928E-02 0. -1.
        1   -1    0    0  501    0  0.00000000000E+00  0.00000000000E+00 -0.10167382418E+04  0.10167382418E+04  0.50400001928E-02 0.  1.
    10030    2    1    2    0    0  0.00000000000E+00  0.00000000000E+00 -0.39030794740E+03  0.16431685363E+04  0.15961398889E+04 0.  0.
        2    1    3    3  502    0 -0.80642636968E+01 -0.22195996502E+03 -0.98427984085E+03  0.10090282769E+04  0.25500000920E-02 0.  1.
       -2    1    3    3    0  502  0.80642636968E+01  0.22195996502E+03  0.59397189344E+03  0.63414025943E+03  0.25500000920E-02 0. -1.
</event>
<event>
 5   0  0.8694033E-05  0.1600746E+04  0.7818609E-02  0.8820090E-01
        2   -1    0    0  501    0  0.00000000000E+00  0.00000000000E+00  0.18648627938E+04  0.18648627938E+04  0.25500000920E-02 0.  1.
       -2   -1    0    0    0  501  0.00000000000E+00  0.00000000000E+00 -0.34350874162E+03  0.34350874163E+03  0.25500000920E-02 0. -1.
    10030    2    1    2    0    0  0.00000000000E+00  0.00000000000E+00  0.15213540521E+04  0.22083715354E+04  0.16007456657E+04 0.  0.
        1    1    3    3  502    0 -0.24667931010E+03  0.68006838667E+03  0.12330790492E+04  0.14296249977E+04  0.50400001928E-02 0.  1.
       -1    1    3    3    0  502  0.24667931010E+03 -0.68006838667E+03  0.28827500296E+03  0.77874653767E+03  0.50400001928E-02 0. -1.
</event>
<event>
 5   0  0.8037548E-05  0.1601757E+04  0.7818609E-02  0.8819469E-01
        2   -1    0    0  501    0  0.00000000000E+00  0.00000000000E+00  0.13868292381E+04  0.13868292381E+04  0.25500000920E-02 0.  1.
       -2   -1    0    0    0  501  0.00000000000E+00  0.00000000000E+00 -0.46249851288E+03  0.46249851289E+03  0.25500000920E-02 0. -1.
    10030    2    1    2    0    0  0.00000000000E+00  0.00000000000E+00  0.92433072523E+03  0.18493277510E+04  0.16017571105E+04 0.  0.
        5    1    3    3  502    0 -0.29021142053E+03 -0.26026934940E+03  0.12698815338E+04  0.13283764537E+04  0.46999998093E+01 0.  1.
       -5    1    3    3    0  502  0.29021142053E+03  0.26026934940E+03 -0.34555080858E+03  0.52095129730E+03  0.46999998093E+01 0. -1.
</event>
<event>
 5   0  0.4314657E-05  0.1600654E+04  0.7818609E-02  0.8820146E-01
       -1   -1    0    0    0  501  0.00000000000E+00  0.00000000000E+00  0.60703394895E+03  0.60703394897E+03  0.50400001928E-02 0. -1.
        1   -1    0    0  501    0  0.00000000000E+00  0.00000000000E+00 -0.10551685626E+04  0.10551685626E+04  0.50400001928E-02 0.  1.
    10030    2    1    2    0    0  0.00000000000E+00  0.00000000000E+00 -0.44813461367E+03  0.16622025116E+04  0.16006537907E+04 0.  0.
        5    1    3    3  502    0  0.51429892147E+03  0.33741256768E+03  0.30762675778E+03  0.68775499530E+03  0.46999998093E+01 0. -1.
       -5    1    3    3    0  502 -0.51429892147E+03 -0.33741256768E+03 -0.75576137145E+03  0.97444751630E+03  0.46999998093E+01 0.  1.
</event>
<event>
 5   0  0.8620155E-05  0.1600465E+04  0.7818609E-02  0.8820263E-01
        2   -1    0    0  501    0  0.00000000000E+00  0.00000000000E+00  0.14145930377E+04  0.14145930377E+04  0.25500000920E-02 0. -1.
       -2   -1    0    0    0  501  0.00000000000E+00  0.00000000000E+00 -0.45268981381E+03  0.45268981382E+03  0.25500000920E-02 0.  1.
    10030    2    1    2    0    0  0.00000000000E+00  0.00000000000E+00  0.96190322390E+03  0.18672828515E+04  0.16004647561E+04 0.  0.
        4    1    3    3  502    0  0.20508378788E+03 -0.70545585195E+03  0.11082047351E+03  0.74297382817E+03  0.12699999809E+01 0.  1.
       -4    1    3    3    0  502 -0.20508378788E+03  0.70545585195E+03  0.85108275038E+03  0.11243090234E+04  0.12699999809E+01 0. -1.
</event>
<event>
 5   0  0.4504463E-05  0.1601270E+04  0.7818609E-02  0.8819768E-01
        1   -1    0    0  501    0  0.00000000000E+00  0.00000000000E+00  0.10813267925E+04  0.10813267925E+04  0.50400001928E-02 0. -1.
       -1   -1    0    0    0  501  0.00000000000E+00  0.00000000000E+00 -0.59280531415E+03  0.59280531418E+03  0.50400001928E-02 0.  1.
    10030    2    1    2    0    0  0.00000000000E+00  0.00000000000E+00  0.48852147830E+03  0.16741321066E+04  0.16012698323E+04 0.  0.
        1    1    3    3  502    0  0.38626700522E+03 -0.58629978412E+03  0.64656423249E+03  0.95446055075E+03  0.50400001928E-02 0. -1.
       -1    1    3    3    0  502 -0.38626700522E+03  0.58629978412E+03 -0.15804275419E+03  0.71967155589E+03  0.50400001928E-02 0.  1.
</event>
<event>
 5   0  0.4314657E-05  0.1595373E+04  0.7818609E-02  0.8823395E-01
       -1   -1    0    0    0  501  0.00000000000E+00  0.00000000000E+00  0.67331293281E+03  0.67331293283E+03  0.50400001928E-02 0. -1.
        1   -1    0    0  501    0  0.00000000000E+00  0.00000000000E+00 -0.94503464089E+03  0.94503464090E+03  0.50400001928E-02 0.  1.
    10030    2    1    2    0    0  0.00000000000E+00  0.00000000000E+00 -0.27172170807E+03  0.16183475737E+04  0.15953733678E+04 0.  0.
        5    1    3    3  502    0  0.61039686930E+03 -0.45080370841E+03  0.11359430904E+03  0.76729008765E+03  0.46999998093E+01 0. -1.
       -5    1    3    3    0  502 -0.61039686930E+03  0.45080370841E+03 -0.38531601711E+03  0.85105748608E+03  0.46999998093E+01 0.  1.
</event>
<event>
 5   0  0.4211419E-05  0.1600847E+04  0.7818609E-02  0.8820028E-01
       -1   -1    0    0    0  501  0.00000000000E+00  0.00000000000E+00  0.88015738210E+03  0.88015738211E+03  0.50400001928E-02 0.  1.
        1   -1    0    0  501    0  0.00000000000E+00  0.00000000000E+00 -0.72791279416E+03  0.72791279418E+03  0.50400001928E-02 0. -1.
    10030    2    1    2    0    0  0.00000000000E+00  0.00000000000E+00  0.15224458793E+03  0.16080701763E+04  0.16008470499E+04 0.  0.
        2    1    3    3  502    0 -0.17559703496E+03 -0.77960720922E+03  0.12167112873E+03  0.80834743949E+03  0.25500000920E-02 0.  1.
       -2    1    3    3    0  502  0.17559703496E+03  0.77960720922E+03  0.30573459201E+02  0.79972273681E+03  0.25500000920E-02 0. -1.
</event>
<event>
 5   0  0.4211419E-05  0.1604348E+04  0.7818609E-02  0.8817881E-01
        1   -1    0    0  501    0  0.00000000000E+00  0.00000000000E+00  0.74062182512E+03  0.74062182514E+03  0.50400001928E-02 0. -1.
       -1   -1    0    0    0  501  0.00000000000E+00  0.00000000000E+00 -0.86884163813E+03  0.86884163814E+03  0.50400001928E-02 0.  1.
    10030    2    1    2    0    0  0.00000000000E+00  0.00000000000E+00 -0.12821981300E+03  0.16094634633E+04  0.16043479421E+04 0.  0.
        2    1    3    3  502    0 -0.14446507427E+03  0.62348523494E+03 -0.54926238303E+03  0.84338197828E+03  0.25500000920E-02 0.  1.
       -2    1    3    3    0  502  0.14446507427E+03 -0.62348523494E+03  0.42104257002E+03  0.76608148500E+03  0.25500000920E-02 0. -1.
</event>
<event>
 5   0  0.4314657E-05  0.1607414E+04  0.7818609E-02  0.8816006E-01
       -1   -1    0    0    0  501  0.00000000000E+00  0.00000000000E+00  0.42503118472E+03  0.42503118475E+03  0.50400001928E-02 0.  1.
        1   -1    0    0  501    0  0.00000000000E+00  0.00000000000E+00 -0.15197588477E+04  0.15197588477E+04  0.50400001928E-02 0. -1.
    10030    2    1    2    0    0  0.00000000000E+00  0.00000000000E+00 -0.10947276630E+04  0.19447900325E+04  0.16074139524E+04 0.  0.
        5    1    3    3  502    0  0.27899549290E+03 -0.75095190789E+02  0.36000745543E+03  0.46163322097E+03  0.46999998093E+01 0.  1.
       -5    1    3    3    0  502 -0.27899549290E+03  0.75095190789E+02 -0.14547351184E+04  0.14831568115E+04  0.46999998093E+01 0. -1.
</event>
<event>
 5   0  0.4314657E-05  0.1600657E+04  0.7818609E-02  0.8820145E-01
       -1   -1    0    0    0  501  0.00000000000E+00  0.00000000000E+00  0.53889260908E+03  0.53889260911E+03  0.50400001928E-02 0.  1.
        1   -1    0    0  501    0  0.00000000000E+00  0.00000000000E+00 -0.11885958746E+04  0.11885958746E+04  0.50400001928E-02 0. -1.
    10030    2    1    2    0    0  0.00000000000E+00  0.00000000000E+00 -0.64970326554E+03  0.17274884837E+04  0.16006567803E+04 0.  0.
        5    1    3    3  502    0  0.36136451840E+02 -0.51026839113E+03 -0.98910773372E+03  0.11135689799E+04  0.46999998093E+01 0. -1.
       -5    1    3    3    0  502 -0.36136451840E+02  0.51026839113E+03  0.33940446818E+03  0.61391950381E+03  0.46999998093E+01 0.  1.
</event>
<event>
 5   0  0.4211419E-05  0.1599697E+04  0.7818609E-02  0.8820734E-01
        1   -1    0    0  501    0  0.00000000000E+00  0.00000000000E+00  0.76254816698E+03  0.76254816699E+03  0.50400001928E-02 0.  1.
       -1   -1    0    0    0  501  0.00000000000E+00  0.00000000000E+00 -0.83897319231E+03  0.83897319233E+03  0.50400001928E-02 0. -1.
    10030    2    1    2    0    0  0.00000000000E+00  0.00000000000E+00 -0.76425025337E+02  0.16015213593E+04  0.15996968087E+04 0.  0.
        2    1    3    3  502    0  0.59616316937E+03  0.16155083490E+03  0.47054843764E+03  0.77648247176E+03  0.25500000920E-02 0.  1.
       -2    1    3    3    0  502 -0.59616316937E+03 -0.16155083490E+03 -0.54697346298E+03  0.82503888756E+03  0.25500000920E-02 0. -1.
</event>
<event>
 5   0  0.4211419E-05  0.1597671E+04  0.7818609E-02  0.8821980E-01
        1   -1    0    0  501    0  0.00000000000E+00  0.00000000000E+00  0.18030430591E+04  0.18030430591E+04  0.50400001928E-02 0. -1.
       -1   -1    0    0    0  501  0.00000000000E+00  0.00000000000E+00 -0.35392292967E+03  0.35392292970E+03  0.50400001928E-02 0.  1.
    10030    2    1    2    0    0  0.00000000000E+00  0.00000000000E+00  0.14491201294E+04  0.21569659888E+04  0.15976711574E+04 0.  0.
        2    1    3    3  502    0 -0.10624546582E+03 -0.51548742213E+03 -0.86743561507E+02  0.53342274685E+03  0.25500000920E-02 0. -1.
       -2    1    3    3    0  502  0.10624546582E+03  0.51548742213E+03  0.15358636909E+04  0.16235432419E+04  0.25500000920E-02 0.  1.
</event>
<event>
 5   0  0.3042125E-05  0.1602462E+04  0.7818609E-02  0.8819037E-01
        4   -1    0    0  501    0  0.00000000000E+00  0.00000000000E+00  0.61105829342E+03  0.61105961318E+03  0.12699999809E+01 0.  1.
       -4   -1    0    0    0  501  0.00000000000E+00  0.00000000000E+00 -0.10505858070E+04  0.10505865746E+04  0.12699999809E+01 0. -1.
    10030    2    1    2    0    0  0.00000000000E+00  0.00000000000E+00 -0.43952751355E+03  0.16616461878E+04  0.16024617369E+04 0.  0.
        3    1    3    3  502    0 -0.66706926264E+03 -0.27742287559E+03 -0.57900701638E+03  0.92584771333E+03  0.10100000352E+00 0. -1.
       -3    1    3    3    0  502  0.66706926264E+03  0.27742287559E+03  0.13947950283E+03  0.73579847443E+03  0.10100000352E+00 0.  1.
</event>
<event>
 5   0  0.8694033E-05  0.1599781E+04  0.7818609E-02  0.8820683E-01
        2   -1    0    0  501    0  0.00000000000E+00  0.00000000000E+00  0.60786268087E+03  0.60786268087E+03  0.25500000920E-02 0. -1.
       -2   -1    0    0    0  501  0.00000000000E+00  0.00000000000E+00 -0.10525812870E+04  0.10525812870E+04  0.25500000920E-02 0.  1.
    10030    2    1    2    0    0  0.00000000000E+00  0.00000000000E+00 -0.44471860611E+03  0.16604439679E+04  0.15997810887E+04 0.  0.
        1    1    3    3  502    0  0.74005432190E+03  0.29645891161E+03 -0.15464273376E+03  0.81208537776E+03  0.50400001928E-02 0. -1.
       -1    1    3    3    0  502 -0.74005432190E+03 -0.29645891161E+03 -0.29007587235E+03  0.84835859009E+03  0.50400001928E-02 0.  1.
</event>
<event>
 5   0  0.4314657E-05  0.1606074E+04  0.7818609E-02  0.8816825E-01
       -1   -1    0    0    0  501  0.00000000000E+00  0.00000000000E+00  0.10083035138E+04  0.10083035138E+04  0.50400001928E-02 0. -1.
        1   -1    0    0  501    0  0.00000000000E+00  0.00000000000E+00 -0.63955785158E+03  0.63955785160E+03  0.50400001928E-02 0.  1.
    10030    2    1    2    0    0  0.00000000000E+00  0.00000000000E+00  0.36874566226E+03  0.16478613654E+04  0.16060740071E+04 0.  0.
        5    1    3    3  502    0  0.28405994453E+02  0.59157896429E+03  0.74076788552E+03  0.94843646161E+03  0.46999998093E+01 0. -1.
       -5    1    3    3    0  502 -0.28405994453E+02 -0.59157896429E+03 -0.37202222326E+03  0.69942490383E+03  0.46999998093E+01 0.  1.
</event>
<event>
 5   0  0.4211419E-05  0.1600140E+04  0.7818609E-02  0.8820462E-01
       -1   -1    0    0    0  501  0.00000000000E+00  0.00000000000E+00  0.70520899840E+03  0.70520899842E+03  0.50400001928E-02 0. -1.
        1   -1    0    0  501    0  0.00000000000E+00  0.00000000000E+00 -0.90769151770E+03  0.90769151771E+03  0.50400001928E-02 0.  1.
    10030    2    1    2    0    0  0.00000000000E+00  0.00000000000E+00 -0.20248251930E+03  0.16129005161E+04  0.16001402765E+04 0.  0.
        2    1    3    3  502    0 -0.24948589991E+03 -0.59224163844E+03 -0.58161152581E+03  0.86675564003E+03  0.25500000920E-02 0.  1.
       -2    1    3    3    0  502  0.24948589991E+03  0.59224163844E+03  0.37912900652E+03  0.74614487611E+03  0.25500000920E-02 0. -1.
</event>
<event>
 5   0  0.4504463E-05  0.1597306E+04  0.7818609E-02  0.8822205E-01
        1   -1    0    0  501    0  0.00000000000E+00  0.00000000000E+00  0.96628270484E+03  0.96628270485E+03  0.50400001928E-02 0. -1.
       -1   -1    0    0    0  501  0.00000000000E+00  0.00000000000E+00 -0.66010383356E+03  0.66010383358E+03  0.50400001928E-02 0.  1.
    10030    2    1    2    0    0  0.00000000000E+00  0.00000000000E+00  0.30617887128E+03  0.16263865384E+04  0.15973063799E+04 0.  0.
        1    1    3    3  502    0 -0.56661658483E+03 -0.37307968207E+03 -0.27601406340E+03  0.73241147356E+03  0.50400001928E-02 0.  1.
       -1    1    3    3    0  502  0.56661658483E+03  0.37307968207E+03  0.58219293468E+03  0.89397506487E+03  0.50400001928E-02 0. -1.
</event>
<event>
 5   0  0.8037548E-05  0.1598368E+04  0.7818609E-02  0.8821551E-01
        2   -1    0    0  501    0  0.00000000000E+00  0.00000000000E+00  0.33781615211E+03  0.33781615212E+03  0.25500000920E-02 0. -1.
       -2   -1    0    0    0  501  0.00000000000E+00  0.00000000000E+00 -0.18906578117E+04  0.18906578117E+04  0.25500000920E-02 0.  1.
    10030    2    1    2    0    0  0.00000000000E+00  0.00000000000E+00 -0.15528416596E+04  0.22284739638E+04  0.15983676009E+04 0.  0.
        5    1    3    3  502    0  0.18738844847E+03  0.55764025638E+02  0.30393996284E+03  0.36142170408E+03  0.46999998093E+01 0. -1.
       -5    1    3    3    0  502 -0.18738844847E+03 -0.55764025638E+02 -0.18567816224E+04  0.18670522597E+04  0.46999998093E+01 0.  1.
</event>
<event>
 5   0  0.8037548E-05  0.1595425E+04  0.7818609E-02  0.8823363E-01
       -2   -1    0    0    0  501  0.00000000000E+00  0.00000000000E+00  0.48917601301E+03  0.48917601301E+03  0.25500000920E-02 0. -1.
        2   -1    0    0  501    0  0.00000000000E+00  0.00000000000E+00 -0.13008517726E+04  0.13008517726E+04  0.25500000920E-02 0.  1.
    10030    2    1    2    0    0  0.00000000000E+00  0.00000000000E+00 -0.81167575957E+03  0.17900277856E+04  0.15954253146E+04 0.  0.
        5    1    3    3  502    0  0.44857239298E+02  0.17152325183E+03 -0.12784512310E+04  0.12906944014E+04  0.46999998093E+01 0.  1.
       -5    1    3    3    0  502 -0.44857239298E+02 -0.17152325183E+03  0.46677547142E+03  0.49933338418E+03  0.46999998093E+01 0. -1.
</event>
<event>
 5   0  0.8620155E-05  0.1599503E+04  0.7818609E-02  0.8820853E-01
        2   -1    0    0  501    0  0.00000000000E+00  0.00000000000E+00  0.73809944003E+03  0.73809944003E+03  0.25500000920E-02 0. -1.
       -2   -1    0    0    0  501  0.00000000000E+00  0.00000000000E+00 -0.86655373436E+03  0.86655373437E+03  0.25500000920E-02 0.  1.
    10030    2    1    2    0    0  0.00000000000E+00  0.00000000000E+00 -0.12845429434E+03  0.16046531744E+04  0.15995034556E+04 0.  0.
        4    1    3    3  502    0 -0.22841205910E+03  0.75990537655E+03 -0.16441339322E+03  0.81034660906E+03  0.12699999809E+01 0.  1.
       -4    1    3    3    0  502  0.22841205910E+03 -0.75990537655E+03  0.35959098888E+02  0.79430656534E+03  0.12699999809E+01 0. -1.
</event>
<event>
 5   0  0.4314657E-05  0.1602214E+04  0.7818609E-02  0.8819189E-01
        1   -1    0    0  501    0  0.00000000000E+00  0.00000000000E+00  0.12290515059E+04  0.12290515059E+04  0.50400001928E-02 0.  1.
       -1   -1    0    0    0  501  0.00000000000E+00  0.00000000000E+00 -0.52216915850E+03  0.52216915852E+03  0.50400001928E-02 0. -1.
    10030    2    1    2    0    0  0.00000000000E+00  0.00000000000E+00  0.70688234735E+03  0.17512206644E+04  0.16022144558E+04 0.  0.
        5    1    3    3  502    0  0.52932633980E+03 -0.46594814238E+03 -0.61980360131E+02  0.70792492571E+03  0.46999998093E+01 0.  1.
       -5    1    3    3    0  502 -0.52932633980E+03  0.46594814238E+03  0.76886270748E+03  0.10432957387E+04  0.46999998093E+01 0. -1.
</event>
<event>
 5   0  0.7901257E-05  0.1599628E+04  0.7818609E-02  0.8820777E-01
       -2   -1    0    0    0  501  0.00000000000E+00  0.00000000000E+00  0.89674239703E+03  0.89674239704E+03  0.25500000920E-02 0. -1.
        2   -1    0    0  501    0  0.00000000000E+00  0.00000000000E+00 -0.71336225206E+03  0.71336225206E+03  0.25500000920E-02 0.  1.
    10030    2    1    2    0    0  0.00000000000E+00  0.00000000000E+00  0.18338014498E+03  0.16101046491E+04  0.15996276765E+04 0.  0.
        2    1    3    3  502    0 -0.76872252936E+03  0.90535214740E+02  0.29443231572E+03  0.82814330933E+03  0.25500000920E-02 0.  1.
       -2    1    3    3    0  502  0.76872252936E+03 -0.90535214740E+02 -0.11105217074E+03  0.78196133976E+03  0.25500000920E-02 0. -1.
</event>
<event>
 5   0  0.4211419E-05  0.1601399E+04  0.7818609E-02  0.8819689E-01
        1   -1    0    0  501    0  0.00000000000E+00  0.00000000000E+00  0.66645704322E+03  0.66645704324E+03  0.50400001928E-02 0.  1.
       -1   -1    0    0    0  501  0.00000000000E+00  0.00000000000E+00 -0.96198194744E+03  0.96198194746E+03  0.50400001928E-02 0. -1.
    10030    2    1    2    0    0  0.00000000000E+00  0.00000000000E+00 -0.29552490422E+03  0.16284389907E+04  0.16013989439E+04 0.  0.
        2    1    3    3  502    0 -0.12424585101E+02 -0.47818533841E+03  0.50518879894E+03  0.69572358790E+03  0.25500000920E-02 0.  1.
       -2    1    3    3    0  502  0.12424585101E+02  0.47818533841E+03 -0.80071370316E+03  0.93271540280E+03  0.25500000920E-02 0. -1.
</event>
<event>
 5   0  0.7901257E-05  0.1601593E+04  0.7818609E-02  0.8819570E-01
        2   -1    0    0  501    0  0.00000000000E+00  0.00000000000E+00  0.65599906213E+03  0.65599906213E+03  0.25500000920E-02 0. -1.
       -2   -1    0    0    0  501  0.00000000000E+00  0.00000000000E+00 -0.97755512750E+03  0.97755512751E+03  0.25500000920E-02 0.  1.
    10030    2    1    2    0    0  0.00000000000E+00  0.00000000000E+00 -0.32155606538E+03  0.16335541896E+04  0.16015932653E+04 0.  0.
        2    1    3    3  502    0  0.71673748780E+03 -0.18757500486E+03  0.14922514742E+03  0.75575469135E+03  0.25500000920E-02 0. -1.
       -2    1    3    3    0  502 -0.71673748780E+03  0.18757500486E+03 -0.47078121279E+03  0.87779949829E+03  0.25500000920E-02 0.  1.
</event>
<event>
 5   0  0.4314657E-05  0.1602324E+04  0.7818609E-02  0.8819121E-01
        1   -1    0    0  501    0  0.00000000000E+00  0.00000000000E+00  0.16504340658E+04  0.16504340658E+04  0.50400001928E-02 0.  1.
       -1   -1    0    0    0  501  0.00000000000E+00  0.00000000000E+00 -0.38890424132E+03  0.38890424136E+03  0.50400001928E-02 0. -1.
    10030    2    1    2    0    0  0.00000000000E+00  0.00000000000E+00  0.12615298245E+04  0.20393383072E+04  0.16023243220E+04 0.  0.
        5    1    3    3  502    0  0.15979850722E+02  0.76770556977E+03  0.92158340800E+03  0.11995687831E+04  0.46999998093E+01 0.  1.
       -5    1    3    3    0  502 -0.15979850722E+02 -0.76770556977E+03  0.33994641647E+03  0.83976952407E+03  0.46999998093E+01 0. -1.
</event>
<event>
 5   0  0.8620155E-05  0.1599354E+04  0.7818609E-02  0.8820945E-01
        2   -1    0    0  501    0  0.00000000000E+00  0.00000000000E+00  0.14664792076E+04  0.14664792076E+04  0.25500000920E-02 0.  1.
       -2   -1    0    0    0  501  0.00000000000E+00  0.00000000000E+00 -0.43606705137E+03  0.43606705138E+03  0.25500000920E-02 0. -1.
    10030    2    1    2    0    0  0.00000000000E+00  0.00000000000E+00  0.10304121562E+04  0.19025462590E+04  0.15993539495E+04 0.  0.
        4    1    3    3  502    0 -0.36224980285E+03 -0.51661692927E+03 -0.69215977058E+02  0.63475226321E+03  0.12699999809E+01 0. -1.
       -4    1    3    3    0  502  0.36224980285E+03  0.51661692927E+03  0.10996281333E+04  0.12677939958E+04  0.12699999809E+01 0.  1.
</event>
<event>
 5   0  0.4504463E-05  0.1600698E+04  0.7818609E-02  0.8820120E-01
       -1   -1    0    0    0  501  0.00000000000E+00  0.00000000000E+00  0.22770558513E+03  0.22770558519E+03  0.50400001928E-02 0. -1.
        1   -1    0    0  501    0  0.00000000000E+00  0.00000000000E+00 -0.28130980797E+04  0.28130980797E+04  0.50400001928E-02 0.  1.
    10030    2    1    2    0    0  0.00000000000E+00  0.00000000000E+00 -0.25853924945E+04  0.30408036649E+04  0.16006975284E+04 0.  0.
        1    1    3    3  502    0  0.85748162704E+02 -0.78741578023E+03 -0.15108015546E+04  0.17058422247E+04  0.50400001928E-02 0.  1.
       -1    1    3    3    0  502 -0.85748162704E+02  0.78741578023E+03 -0.10745909400E+04  0.13349614401E+04  0.50400001928E-02 0. -1.
</event>
<event>
 5   0  0.4314657E-05  0.1599573E+04  0.7818609E-02  0.8820811E-01
        1   -1    0    0  501    0  0.00000000000E+00  0.00000000000E+00  0.58293132513E+03  0.58293132515E+03  0.50400001928E-02 0.  1.
       -1   -1    0    0    0  501  0.00000000000E+00  0.00000000000E+00 -0.10973129896E+04  0.10973129896E+04  0.50400001928E-02 0. -1.
    10030    2    1    2    0    0  0.00000000000E+00  0.00000000000E+00 -0.51438166448E+03  0.16802443148E+04  0.15995725868E+04 0.  0.
        5    1    3    3  502    0  0.89671223845E+02  0.54555470487E+03  0.34985162015E+03  0.65428519051E+03  0.46999998093E+01 0.  1.
       -5    1    3    3    0  502 -0.89671223845E+02 -0.54555470487E+03 -0.86423328463E+03  0.10259591243E+04  0.46999998093E+01 0. -1.
</event>
<event>
 5   0  0.4373026E-05  0.1606175E+04  0.7818609E-02  0.8816763E-01
        1   -1    0    0  501    0  0.00000000000E+00  0.00000000000E+00  0.97061241072E+03  0.97061241074E+03  0.50400001928E-02 0.  1.
       -1   -1    0    0    0  501  0.00000000000E+00  0.00000000000E+00 -0.66447709312E+03  0.66447709314E+03  0.50400001928E-02 0. -1.
    10030    2    1    2    0    0  0.00000000000E+00  0.00000000000E+00  0.30613531760E+03  0.16350895039E+04  0.16061752249E+04 0.  0.
        4    1    3    3  502    0  0.13723492395E+03  0.43082046439E+03 -0.52258844874E+03  0.69104268793E+03  0.12699999809E+01 0. -1.
       -4    1    3    3    0  502 -0.13723492395E+03 -0.43082046439E+03  0.82872376634E+03  0.94404681594E+03  0.12699999809E+01 0.  1.
</event>
<event>
 5   0  0.7901257E-05  0.1596991E+04  0.7818609E-02  0.8822399E-01
       -2   -1    0    0    0  501  0.00000000000E+00  0.00000000000E+00  0.36715379299E+03  0.36715379300E+03  0.25500000920E-02 0.  1.
        2   -1    0    0  501    0  0.00000000000E+00  0.00000000000E+00 -0.17365887976E+04  0.17365887976E+04  0.25500000920E-02 0. -1.
    10030    2    1    2    0    0  0.00000000000E+00  0.00000000000E+00 -0.13694350046E+04  0.21037425906E+04  0.15969911257E+04 0.  0.
        2    1    3    3  502    0  0.79253135947E+02  0.56218361154E+03 -0.14243688871E+04  0.15333486880E+04  0.25500000920E-02 0. -1.
       -2    1    3    3    0  502 -0.79253135947E+02 -0.56218361154E+03  0.54933882456E+02  0.57039390257E+03  0.25500000920E-02 0.  1.
</event>
<event>
 5   0  0.7849690E-05  0.1600065E+04  0.7818609E-02  0.8820508E-01
       -2   -1    0    0    0  501  0.00000000000E+00  0.00000000000E+00  0.70039930094E+03  0.70039930095E+03  0.25500000920E-02 0.  1.
        2   -1    0    0  501    0  0.00000000000E+00  0.00000000000E+00 -0.91383852068E+03  0.91383852069E+03  0.25500000920E-02 0. -1.
    10030    2    1    2    0    0  0.00000000000E+00  0.00000000000E+00 -0.21343921974E+03  0.16142378216E+04  0.16000648250E+04 0.  0.
        3    1    3    3  502    0  0.37365420647E+03 -0.46046248424E+03 -0.64851350624E+03  0.87875647559E+03  0.10100000352E+00 0. -1.
       -3    1    3    3    0  502 -0.37365420647E+03  0.46046248424E+03  0.43507428650E+03  0.73548134605E+03  0.10100000352E+00 0.  1.
</event>
<event>
 5   0  0.4314657E-05  0.1600385E+04  0.7818609E-02  0.8820312E-01
       -1   -1    0    0    0  501  0.00000000000E+00  0.00000000000E+00  0.56101815178E+03  0.56101815180E+03  0.50400001928E-02 0.  1.
        1   -1    0    0  501    0  0.00000000000E+00  0.00000000000E+00 -0.11413314582E+04  0.11413314582E+04  0.50400001928E-02 0. -1.
    10030    2    1    2    0    0  0.00000000000E+00  0.00000000000E+00 -0.58031330644E+03  0.17023496100E+04  0.16003845354E+04 0.  0.
        5    1    3    3  502    0 -0.52145306847E+03 -0.59284339659E+03 -0.42847605823E+03  0.89832645401E+03  0.46999998093E+01 0. -1.
       -5    1    3    3    0  502  0.52145306847E+03  0.59284339659E+03 -0.15183724821E+03  0.80402315603E+03  0.46999998093E+01 0.  1.
</event>
<event>
 5   0  0.8037548E-05  0.1599198E+04  0.7818609E-02  0.8821041E-01
       -2   -1    0    0    0  501  0.00000000000E+00  0.00000000000E+00  0.12782472083E+04  0.12782472083E+04  0.25500000920E-02 0.  1.
        2   -1    0    0  501    0  0.00000000000E+00  0.00000000000E+00 -0.50018395377E+03  0.50018395377E+03  0.25500000920E-02 0. -1.
    10030    2    1    2    0    0  0.00000000000E+00  0.00000000000E+00  0.77806325449E+03  0.17784311620E+04  0.15991982273E+04 0.  0.
        5    1    3    3  502    0  0.52574381658E+02 -0.15846034100E+03 -0.48056894786E+03  0.50876551468E+03  0.46999998093E+01 0. -1.
       -5    1    3    3    0  502 -0.52574381658E+02  0.15846034100E+03  0.12586322024E+04  0.12696656474E+04  0.46999998093E+01 0.  1.
</event>
<event>
 5   0  0.8037548E-05  0.1593749E+04  0.7818609E-02  0.8824397E-01
        2   -1    0    0  501    0  0.00000000000E+00  0.00000000000E+00  0.70490047189E+03  0.70490047189E+03  0.25500000920E-02 0.  1.
       -2   -1    0    0    0  501  0.00000000000E+00  0.00000000000E+00 -0.90084904388E+03  0.90084904389E+03  0.25500000920E-02 0. -1.
    10030    2    1    2    0    0  0.00000000000E+00  0.00000000000E+00 -0.19594857200E+03  0.16057495158E+04  0.15937489340E+04 0.  0.
        5    1    3    3  502    0  0.66554605794E+02  0.44318727225E+03  0.56588184416E+03  0.72186482487E+03  0.46999998093E+01 0.  1.
       -5    1    3    3    0  502 -0.66554605794E+02 -0.44318727225E+03 -0.76183041616E+03  0.88388469091E+03  0.46999998093E+01 0. -1.
</event>
<event>
 5   0  0.8037548E-05  0.1607907E+04  0.7818609E-02  0.8815705E-01
        2   -1    0    0  501    0  0.00000000000E+00  0.00000000000E+00  0.16374790081E+04  0.16374790081E+04  0.25500000920E-02 0.  1.
       -2   -1    0    0    0  501  0.00000000000E+00  0.00000000000E+00 -0.39471738590E+03  0.39471738591E+03  0.25500000920E-02 0. -1.
    10030    2    1    2    0    0  0.00000000000E+00  0.00000000000E+00  0.12427616222E+04  0.20321963940E+04  0.16079072530E+04 0.  0.
        5    1    3    3  502    0  0.56888467915E+03  0.52313128607E+03  0.90121811755E+03  0.11872288347E+04  0.46999998093E+01 0.  1.
       -5    1    3    3    0  502 -0.56888467915E+03 -0.52313128607E+03  0.34154350462E+03  0.84496755925E+03  0.46999998093E+01 0. -1.
</event>
<event>
 5   0  0.4504463E-05  0.1605519E+04  0.7818609E-02  0.8817164E-01
        1   -1    0    0  501    0  0.00000000000E+00  0.00000000000E+00  0.58790685610E+03  0.58790685612E+03  0.50400001928E-02 0. -1.
       -1   -1    0    0    0  501  0.00000000000E+00  0.00000000000E+00 -0.10961311580E+04  0.10961311580E+04  0.50400001928E-02 0.  1.
    10030    2    1    2    0    0  0.00000000000E+00  0.00000000000E+00 -0.50822430185E+03  0.16840380141E+04  0.16055192593E+04 0.  0.
        1    1    3    3  502    0 -0.17438741467E+03 -0.13698451578E+03 -0.10633665825E+04  0.10862431665E+04  0.50400001928E-02 0.  1.
       -1    1    3    3    0  502  0.17438741467E+03  0.13698451578E+03  0.55514228067E+03  0.59779484756E+03  0.50400001928E-02 0. -1.
</event>
<event>
 5   0  0.8620155E-05  0.1602875E+04  0.7818609E-02  0.8818784E-01
       -2   -1    0    0    0  501  0.00000000000E+00  0.00000000000E+00  0.68428942879E+03  0.68428942879E+03  0.25500000920E-02 0. -1.
        2   -1    0    0  501    0  0.00000000000E+00  0.00000000000E+00 -0.93864039153E+03  0.93864039153E+03  0.25500000920E-02 0.  1.
    10030    2    1    2    0    0  0.00000000000E+00  0.00000000000E+00 -0.25435096274E+03  0.16229298203E+04  0.16028745395E+04 0.  0.
        4    1    3    3  502    0  0.38784318228E+03 -0.69059179695E+03 -0.25101990689E+03  0.83087422070E+03  0.12699999809E+01 0. -1.
       -4    1    3    3    0  502 -0.38784318228E+03  0.69059179695E+03 -0.33310558503E+01  0.79205559963E+03  0.12699999809E+01 0.  1.
</event>
<event>
 5   0  0.4504463E-05  0.1598760E+04  0.7818609E-02  0.8821310E-01
       -1   -1    0    0    0  501  0.00000000000E+00  0.00000000000E+00  0.77650099650E+03  0.77650099651E+03  0.50400001928E-02 0. -1.
        1   -1    0    0  501    0  0.00000000000E+00  0.00000000000E+00 -0.82293278782E+03  0.82293278784E+03  0.50400001928E-02 0.  1.
    10030    2    1    2    0    0  0.00000000000E+00  0.00000000000E+00 -0.46431791327E+02  0.15994337844E+04  0.15987596815E+04 0.  0.
        1    1    3    3  502    0  0.31250671915E+03  0.71171799563E+03  0.16342421725E+03  0.79429870303E+03  0.50400001928E-02 0. -1.
       -1    1    3    3    0  502 -0.31250671915E+03 -0.71171799563E+03 -0.20985600857E+03  0.80513508133E+03  0.50400001928E-02 0.  1.
</event>
<event>
 5   0  0.4504463E-05  0.1601549E+04  0.7818609E-02  0.8819597E-01
        1   -1    0    0  501    0  0.00000000000E+00  0.00000000000E+00  0.52255879051E+03  0.52255879053E+03  0.50400001928E-02 0.  1.
       -1   -1    0    0    0  501  0.00000000000E+00  0.00000000000E+00 -0.12271147405E+04  0.12271147405E+04  0.50400001928E-02 0. -1.
    10030    2    1    2    0    0  0.00000000000E+00  0.00000000000E+00 -0.70455595003E+03  0.17496735311E+04  0.16015487438E+04 0.  0.
        1    1    3    3  502    0 -0.37040824474E+03  0.68563476542E+03 -0.55355187632E+03  0.95588544247E+03  0.50400001928E-02 0.  1.
       -1    1    3    3    0  502  0.37040824474E+03 -0.68563476542E+03 -0.15100407371E+03  0.79378808861E+03  0.50400001928E-02 0. -1.
</event>
<event>
 5   0  0.4211419E-05  0.1597536E+04  0.7818609E-02  0.8822063E-01
        1   -1    0    0  501    0  0.00000000000E+00  0.00000000000E+00  0.75568012191E+03  0.75568012192E+03  0.50400001928E-02 0.  1.
       -1   -1    0    0    0  501  0.00000000000E+00  0.00000000000E+00 -0.84431292260E+03  0.84431292261E+03  0.50400001928E-02 0. -1.
    10030    2    1    2    0    0  0.00000000000E+00  0.00000000000E+00 -0.88632800690E+02  0.15999930445E+04  0.15975362184E+04 0.  0.
        2    1    3    3  502    0 -0.28903655616E+03 -0.48251919913E+03 -0.61234255078E+03  0.83146275192E+03  0.25500000920E-02 0. -1.
       -2    1    3    3    0  502  0.28903655616E+03  0.48251919913E+03  0.52370975009E+03  0.76853029262E+03  0.25500000920E-02 0.  1.
</event>
<event>
 5   0  0.8620155E-05  0.1598030E+04  0.7818609E-02  0.8821759E-01
       -2   -1    0    0    0  501  0.00000000000E+00  0.00000000000E+00  0.56922407597E+03  0.56922407597E+03  0.25500000920E-02 0.  1.
        2   -1    0    0  501    0  0.00000000000E+00  0.00000000000E+00 -0.11215701903E+04  0.11215701903E+04  0.25500000920E-02 0. -1.
    10030    2    1    2    0    0  0.00000000000E+00  0.00000000000E+00 -0.55234611431E+03  0.16907942663E+04  0.15980297309E+04 0.  0.
        4    1    3    3  502    0 -0.33967893632E+03 -0.41105176358E+03  0.35341323949E+03  0.63972483371E+03  0.12699999809E+01 0.  1.
       -4    1    3    3    0  502  0.33967893632E+03  0.41105176358E+03 -0.90575935381E+03  0.10510694325E+04  0.12699999809E+01 0. -1.
</event>
<event>
 5   0  0.4373026E-05  0.1611107E+04  0.7818609E-02  0.8813754E-01
        1   -1    0    0  501    0  0.00000000000E+00  0.00000000000E+00  0.86649799077E+03  0.86649799078E+03  0.50400001928E-02 0.  1.
       -1   -1    0    0    0  501  0.00000000000E+00  0.00000000000E+00 -0.74889534467E+03  0.74889534469E+03  0.50400001928E-02 0. -1.
    10030    2    1    2    0    0  0.00000000000E+00  0.00000000000E+00  0.11760264610E+03  0.16153933355E+04  0.16111068388E+04 0.  0.
        4    1    3    3  502    0 -0.62132653029E+03 -0.59632699861E+02  0.56938301525E+03  0.84486765063E+03  0.12699999809E+01 0.  1.
       -4    1    3    3    0  502  0.62132653029E+03  0.59632699861E+02 -0.45178036915E+03  0.77052568483E+03  0.12699999809E+01 0. -1.
</event>
<event>
 5   0  0.4256406E-05  0.1601658E+04  0.7818609E-02  0.8819530E-01
       -1   -1    0    0    0  501  0.00000000000E+00  0.00000000000E+00  0.65295109369E+03  0.65295109371E+03  0.50400001928E-02 0. -1.
        1   -1    0    0  501    0  0.00000000000E+00  0.00000000000E+00 -0.98219801166E+03  0.98219801168E+03  0.50400001928E-02 0.  1.
    10030    2    1    2    0    0  0.00000000000E+00  0.00000000000E+00 -0.32924691798E+03  0.16351491054E+04  0.16016582232E+04 0.  0.
        3    1    3    3  502    0 -0.51922233807E+03  0.24051715594E+02  0.45734205163E+03  0.69233812820E+03  0.10100000352E+00 0. -1.
       -3    1    3    3    0  502  0.51922233807E+03 -0.24051715594E+02 -0.78658896961E+03  0.94281097718E+03  0.10100000352E+00 0.  1.
</event>
<event>
 5   0  0.8694033E-05  0.1601749E+04  0.7818609E-02  0.8819474E-01
       -2   -1    0    0    0  501  0.00000000000E+00  0.00000000000E+00  0.63505875411E+03  0.63505875412E+03  0.25500000920E-02 0. -1.
        2   -1    0    0  501    0  0.00000000000E+00  0.00000000000E+00 -0.10099850782E+04  0.10099850782E+04  0.25500000920E-02 0.  1.
    10030    2    1    2    0    0  0.00000000000E+00  0.00000000000E+00 -0.37492632407E+03  0.16450438323E+04  0.16017488760E+04 0.  0.
        1    1    3    3  502    0  0.95514241100E+02 -0.37660235034E+03  0.53178595534E+03  0.65859593292E+03  0.50400001928E-02 0. -1.
       -1    1    3    3    0  502 -0.95514241100E+02  0.37660235034E+03 -0.90671227941E+03  0.98644789938E+03  0.50400001928E-02 0.  1.
</event>
<event>
 5   0  0.8037548E-05  0.1601924E+04  0.7818609E-02  0.8819367E-01
       -2   -1    0    0    0  501  0.00000000000E+00  0.00000000000E+00  0.99348518278E+03  0.99348518279E+03  0.25500000920E-02 0.  1.
        2   -1    0    0  501    0  0.00000000000E+00  0.00000000000E+00 -0.64574679558E+03  0.64574679559E+03  0.25500000920E-02 0. -1.
    10030    2    1    2    0    0  0.00000000000E+00  0.00000000000E+00  0.34773838720E+03  0.16392319784E+04  0.16019236851E+04 0.  0.
        5    1    3    3  502    0 -0.27606854045E+03 -0.74923727873E+03  0.23816114458E+03  0.83325455874E+03  0.46999998093E+01 0.  1.
       -5    1    3    3    0  502  0.27606854045E+03  0.74923727873E+03  0.10957724262E+03  0.80597741964E+03  0.46999998093E+01 0. -1.
</event>
<event>
 5   0  0.4373026E-05  0.1600490E+04  0.7818609E-02  0.8820247E-01
        1   -1    0    0  501    0  0.00000000000E+00  0.00000000000E+00  0.10100033451E+04  0.10100033451E+04  0.50400001928E-02 0.  1.
       -1   -1    0    0    0  501  0.00000000000E+00  0.00000000000E+00 -0.63404922595E+03  0.63404922597E+03  0.50400001928E-02 0. -1.
    10030    2    1    2    0    0  0.00000000000E+00  0.00000000000E+00  0.37595411916E+03  0.16440525711E+04  0.16004897241E+04 0.  0.
        4    1    3    3  502    0 -0.27628855874E+03 -0.74759772455E+03  0.11424237157E+03  0.80516498794E+03  0.12699999809E+01 0.  1.
       -4    1    3    3    0  502  0.27628855874E+03  0.74759772455E+03  0.26171174759E+03  0.83888758316E+03  0.12699999809E+01 0. -1.
</event>
<event>
 5   0  0.8620155E-05  0.1610557E+04  0.7818609E-02  0.8814089E-01
       -2   -1    0    0    0  501  0.00000000000E+00  0.00000000000E+00  0.30770151082E+03  0.30770151083E+03  0.25500000920E-02 0.  1.
        2   -1    0    0  501    0  0.00000000000E+00  0.00000000000E+00 -0.21074750045E+04  0.21074750045E+04  0.25500000920E-02 0. -1.
    10030    2    1    2    0    0  0.00000000000E+00  0.00000000000E+00 -0.17997734937E+04  0.24151765153E+04  0.16105567272E+04 0.  0.
        4    1    3    3  502    0  0.26812543829E+02 -0.68735099711E+03 -0.27202293945E+03  0.73970831969E+03  0.12699999809E+01 0.  1.
       -4    1    3    3    0  502 -0.26812543829E+02  0.68735099711E+03 -0.15277505542E+04  0.16754681956E+04  0.12699999809E+01 0. -1.
</event>
<event>
 5   0  0.7901257E-05  0.1600333E+04  0.7818609E-02  0.8820343E-01
        2   -1    0    0  501    0  0.00000000000E+00  0.00000000000E+00  0.84346594199E+03  0.84346594199E+03  0.25500000920E-02 0. -1.
       -2   -1    0    0    0  501  0.00000000000E+00  0.00000000000E+00 -0.75909004159E+03  0.75909004159E+03  0.25500000920E-02 0.  1.
    10030    2    1    2    0    0  0.00000000000E+00  0.00000000000E+00  0.84375900397E+02  0.16025559836E+04  0.16003332115E+04 0.  0.
        2    1    3    3  502    0 -0.69888424552E+03 -0.10416379474E+03  0.41817891174E+03  0.82107422746E+03  0.25500000920E-02 0.  1.
       -2    1    3    3    0  502  0.69888424552E+03  0.10416379474E+03 -0.33380301134E+03  0.78148175612E+03  0.25500000920E-02 0. -1.
</event>
<event>
 5   0  0.4504463E-05  0.1598433E+04  0.7818609E-02  0.8821511E-01
       -1   -1    0    0    0  501  0.00000000000E+00  0.00000000000E+00  0.23226433346E+04  0.23226433347E+04  0.50400001928E-02 0.  1.
        1   -1    0    0  501    0  0.00000000000E+00  0.00000000000E+00 -0.27500874749E+03  0.27500874753E+03  0.50400001928E-02 0. -1.
    10030    2    1    2    0    0  0.00000000000E+00  0.00000000000E+00  0.20476345872E+04  0.25976520822E+04  0.15984332759E+04 0.  0.
        1    1    3    3  502    0  0.13630284060E+03  0.40925809942E+03  0.21172208528E+04  0.21607162692E+04  0.50400001928E-02 0.  1.
       -1    1    3    3    0  502 -0.13630284060E+03 -0.40925809942E+03 -0.69586265646E+02  0.43693581301E+03  0.50400001928E-02 0. -1.
</event>
<event>
 5   0  0.7901257E-05  0.1598583E+04  0.7818609E-02  0.8821419E-01
        2   -1    0    0  501    0  0.00000000000E+00  0.00000000000E+00  0.22577934721E+04  0.22577934721E+04  0.25500000920E-02 0. -1.
       -2   -1    0    0    0  501  0.00000000000E+00  0.00000000000E+00 -0.28296079104E+03  0.28296079105E+03  0.25500000920E-02 0.  1.
    10030    2    1    2    0    0  0.00000000000E+00  0.00000000000E+00  0.19748326810E+04  0.25407542631E+04  0.15985831563E+04 0.  0.
        2    1    3    3  502    0  0.72582155196E+03  0.23446202232E+03  0.60769892456E+03  0.97523707278E+03  0.25500000920E-02 0.  1.
       -2    1    3    3    0  502 -0.72582155196E+03 -0.23446202232E+03  0.13671337565E+04  0.15655171904E+04  0.25500000920E-02 0. -1.
</event>
<event>
 5   0  0.4211419E-05  0.1601635E+04  0.7818609E-02  0.8819544E-01
        1   -1    0    0  501    0  0.00000000000E+00  0.00000000000E+00  0.13167372401E+04  0.13167372401E+04  0.50400001928E-02 0. -1.
       -1   -1    0    0    0  501  0.00000000000E+00  0.00000000000E+00 -0.48704386434E+03  0.48704386436E+03  0.50400001928E-02 0.  1.
    10030    2    1    2    0    0  0.00000000000E+00  0.00000000000E+00  0.82969337572E+03  0.18037811044E+04  0.16016351566E+04 0.  0.
        2    1    3    3  502    0 -0.24828356158E+03 -0.64451152633E+03  0.87130171308E+03  0.11118482404E+04  0.25500000920E-02 0. -1.
       -2    1    3    3    0  502  0.24828356158E+03  0.64451152633E+03 -0.41608337362E+02  0.69193286399E+03  0.25500000920E-02 0.  1.
</event>
<event>
 5   0  0.4373026E-05  0.1590353E+04  0.7818609E-02  0.8826496E-01
        1   -1    0    0  501    0  0.00000000000E+00  0.00000000000E+00  0.68561442658E+03  0.68561442660E+03  0.50400001928E-02 0. -1.
       -1   -1    0    0    0  501  0.00000000000E+00  0.00000000000E+00 -0.92224695684E+03  0.92224695685E+03  0.50400001928E-02 0.  1.
    10030    2    1    2    0    0  0.00000000000E+00  0.00000000000E+00 -0.23663253026E+03  0.16078613835E+04  0.15903531916E+04 0.  0.
        4    1    3    3  502    0 -0.12649859743E+03  0.12439996136E+03 -0.90197995718E+03  0.91926421751E+03  0.12699999809E+01 0.  1.
       -4    1    3    3    0  502  0.12649859743E+03 -0.12439996136E+03  0.66534742692E+03  0.68859716594E+03  0.12699999809E+01 0. -1.
</event>
<event>
 5   0  0.8694033E-05  0.1599101E+04  0.7818609E-02  0.8821100E-01
        2   -1    0    0  501    0  0.00000000000E+00  0.00000000000E+00  0.14168742608E+04  0.14168742608E+04  0.25500000920E-02 0.  1.
       -2   -1    0    0    0  501  0.00000000000E+00  0.00000000000E+00 -0.45119120942E+03  0.45119120943E+03  0.25500000920E-02 0. -1.
    10030    2    1    2    0    0  0.00000000000E+00  0.00000000000E+00  0.96568305137E+03  0.18680654702E+04  0.15991012618E+04 0.  0.
        1    1    3    3  502    0 -0.16582715276E+03 -0.72034926609E+03  0.12682015738E+03  0.74999004133E+03  0.50400001928E-02 0. -1.
       -1    1    3    3    0  502  0.16582715276E+03  0.72034926609E+03  0.83886289399E+03  0.11180754289E+04  0.50400001928E-02 0.  1.
</event>
<event>
 5   0  0.7901257E-05  0.1599725E+04  0.7818609E-02  0.8820717E-01
        2   -1    0    0  501    0  0.00000000000E+00  0.00000000000E+00  0.22163283845E+04  0.22163283846E+04  0.25500000920E-02 0.  1.
       -2   -1    0    0    0  501  0.00000000000E+00  0.00000000000E+00 -0.28866644527E+03  0.28866644528E+03  0.25500000920E-02 0. -1.
    10030    2    1    2    0    0  0.00000000000E+00  0.00000000000E+00  0.19276619393E+04  0.25049948298E+04  0.15997245217E+04 0.  0.
        2    1    3    3  502    0 -0.22269861592E+03  0.67055131595E+02 -0.23455028459E+03  0.33031030897E+03  0.25500000920E-02 0. -1.
       -2    1    3    3    0  502  0.22269861592E+03 -0.67055131595E+02  0.21622122239E+04  0.21746845209E+04  0.25500000920E-02 0.  1.
</event>
<event>
 5   0  0.4504463E-05  0.1597977E+04  0.7818609E-02  0.8821792E-01
       -1   -1    0    0    0  501  0.00000000000E+00  0.00000000000E+00  0.21665662534E+04  0.21665662534E+04  0.50400001928E-02 0. -1.
        1   -1    0    0  501    0  0.00000000000E+00  0.00000000000E+00 -0.29465167140E+03  0.29465167144E+03  0.50400001928E-02 0.  1.
    10030    2    1    2    0    0  0.00000000000E+00  0.00000000000E+00  0.18719145820E+04  0.24612179249E+04  0.15979766805E+04 0.  0.
        1    1    3    3  502    0 -0.30462799816E+03  0.12400802434E+03 -0.18554978177E+03  0.37763067792E+03  0.50400001928E-02 0. -1.
       -1    1    3    3    0  502  0.30462799816E+03 -0.12400802434E+03  0.20574643638E+04  0.20835872469E+04  0.50400001928E-02 0.  1.
</event>
<event>
 5   0  0.4211419E-05  0.1598948E+04  0.7818609E-02  0.8821194E-01
        1   -1    0    0  501    0  0.00000000000E+00  0.00000000000E+00  0.10943840116E+04  0.10943840116E+04  0.50400001928E-02 0. -1.
       -1   -1    0    0    0  501  0.00000000000E+00  0.00000000000E+00 -0.58403529368E+03  0.58403529370E+03  0.50400001928E-02 0.  1.
    10030    2    1    2    0    0  0.00000000000E+00  0.00000000000E+00  0.51034871793E+03  0.16784193053E+04  0.15989482639E+04 0.  0.
        2    1    3    3  502    0  0.49263885660E+01  0.76578483519E+03  0.14180949671E+02  0.76593196986E+03  0.25500000920E-02 0.  1.
       -2    1    3    3    0  502 -0.49263885660E+01 -0.76578483519E+03  0.49616776826E+03  0.91248733546E+03  0.25500000920E-02 0. -1.
</event>
<event>
 5   0  0.8694033E-05  0.1596888E+04  0.7818609E-02  0.8822462E-01
        2   -1    0    0  501    0  0.00000000000E+00  0.00000000000E+00  0.65631375626E+03  0.65631375627E+03  0.25500000920E-02 0.  1.
       -2   -1    0    0    0  501  0.00000000000E+00  0.00000000000E+00 -0.97135426485E+03  0.97135426486E+03  0.25500000920E-02 0. -1.
    10030    2    1    2    0    0  0.00000000000E+00  0.00000000000E+00 -0.31504050859E+03  0.16276680211E+04  0.15968884322E+04 0.  0.
        1    1    3    3  502    0 -0.29741369085E+03 -0.72151551498E+03 -0.32951399087E+03  0.84712396499E+03  0.50400001928E-02 0. -1.
       -1    1    3    3    0  502  0.29741369085E+03  0.72151551498E+03  0.14473482273E+02  0.78054405614E+03  0.50400001928E-02 0.  1.
</event>
<event>
 5   0  0.4211419E-05  0.1596396E+04  0.7818609E-02  0.8822765E-01
        1   -1    0    0  501    0  0.00000000000E+00  0.00000000000E+00  0.10173468570E+04  0.10173468570E+04  0.50400001928E-02 0.  1.
       -1   -1    0    0    0  501  0.00000000000E+00  0.00000000000E+00 -0.62625665209E+03  0.62625665211E+03  0.50400001928E-02 0. -1.
    10030    2    1    2    0    0  0.00000000000E+00  0.00000000000E+00  0.39109020492E+03  0.16436035091E+04  0.15963962374E+04 0.  0.
        2    1    3    3  502    0  0.69666158102E+03  0.38829161299E+03  0.22830588046E+03  0.82959707705E+03  0.25500000920E-02 0.  1.
       -2    1    3    3    0  502 -0.69666158102E+03 -0.38829161299E+03  0.16278432446E+03  0.81400643209E+03  0.25500000920E-02 0. -1.
</event>
<event>
 5   0  0.4256406E-05  0.1600064E+04  0.7818609E-02  0.8820509E-01
        1   -1    0    0  501    0  0.00000000000E+00  0.00000000000E+00  0.15379081175E+04  0.15379081175E+04  0.50400001928E-02 0.  1.
       -1   -1    0    0    0  501  0.00000000000E+00  0.00000000000E+00 -0.41618278779E+03  0.41618278782E+03  0.50400001928E-02 0. -1.
    10030    2    1    2    0    0  0.00000000000E+00  0.00000000000E+00  0.11217253297E+04  0.19540909053E+04  0.16000636084E+04 0.  0.
        3    1    3    3  502    0 -0.66832870486E+03 -0.36921347992E+03  0.85261056976E+03  0.11445202687E+04  0.10100000352E+00 0.  1.
       -3    1    3    3    0  502  0.66832870486E+03  0.36921347992E+03  0.26911475991E+03  0.80957063664E+03  0.10100000352E+00 0. -1.
</event>
<event>
 5   0  0.8620155E-05  0.1600618E+04  0.7818609E-02  0.8820169E-01
       -2   -1    0    0    0  501  0.00000000000E+00  0.00000000000E+00  0.87587340341E+03  0.87587340341E+03  0.25500000920E-02 0.  1.
        2   -1    0    0  501    0  0.00000000000E+00  0.00000000000E+00 -0.73126362791E+03  0.73126362792E+03  0.25500000920E-02 0. -1.
    10030    2    1    2    0    0  0.00000000000E+00  0.00000000000E+00  0.14460977549E+03  0.16071370313E+04  0.16006178339E+04 0.  0.
        4    1    3    3  502    0  0.60291888270E+02 -0.24498602822E+03 -0.69028799284E+03  0.73495060499E+03  0.12699999809E+01 0. -1.
       -4    1    3    3    0  502 -0.60291888270E+02  0.24498602822E+03  0.83489776834E+03  0.87218642634E+03  0.12699999809E+01 0.  1.
</event>
<event>
 5   0  0.8620155E-05  0.1594685E+04  0.7818609E-02  0.8823820E-01
       -2   -1    0    0    0  501  0.00000000000E+00  0.00000000000E+00  0.50621640204E+03  0.50621640205E+03  0.25500000920E-02 0.  1.
        2   -1    0    0  501    0  0.00000000000E+00  0.00000000000E+00 -0.12558963717E+04  0.12558963717E+04  0.25500000920E-02 0. -1.
    10030    2    1    2    0    0  0.00000000000E+00  0.00000000000E+00 -0.74967996968E+03  0.17621127738E+04  0.15946853516E+04 0.  0.
        4    1    3    3  502    0 -0.39533835895E+03 -0.67037115111E+03 -0.18324644635E+03  0.79954410216E+03  0.12699999809E+01 0.  1.
       -4    1    3    3    0  502  0.39533835895E+03  0.67037115111E+03 -0.56643352332E+03  0.96256867160E+03  0.12699999809E+01 0. -1.
</event>
<event>
 5   0  0.8620155E-05  0.1599329E+04  0.7818609E-02  0.8820960E-01
       -2   -1    0    0    0  501  0.00000000000E+00  0.00000000000E+00  0.57213973116E+03  0.57213973116E+03  0.25500000920E-02 0. -1.
        2   -1    0    0  501    0  0.00000000000E+00  0.00000000000E+00 -0.11176698881E+04  0.11176698881E+04  0.25500000920E-02 0.  1.
    10030    2    1    2    0    0  0.00000000000E+00  0.00000000000E+00 -0.54553015697E+03  0.16898096193E+04  0.15993290460E+04 0.  0.
        4    1    3    3  502    0  0.55705197014E+03 -0.32695996288E+03 -0.77087227160E+03  0.10057113834E+04  0.12699999809E+01 0.  1.
       -4    1    3    3    0  502 -0.55705197014E+03  0.32695996288E+03  0.22534211463E+03  0.68409823585E+03  0.12699999809E+01 0. -1.
</event>
<event>
 5   0  0.7849690E-05  0.1600167E+04  0.7818609E-02  0.8820445E-01
        2   -1    0    0  501    0  0.00000000000E+00  0.00000000000E+00  0.17436014443E+04  0.17436014443E+04  0.25500000920E-02 0. -1.
       -2   -1    0    0    0  501  0.00000000000E+00  0.00000000000E+00 -0.36713316631E+03  0.36713316632E+03  0.25500000920E-02 0.  1.
    10030    2    1    2    0    0  0.00000000000E+00  0.00000000000E+00  0.13764682780E+04  0.21107346107E+04  0.16001673901E+04 0.  0.
        3    1    3    3  502    0  0.38405698315E+03  0.24084091684E+03  0.15578510237E+04  0.16224684699E+04  0.10100000352E+00 0. -1.
       -3    1    3    3    0  502 -0.38405698315E+03 -0.24084091684E+03 -0.18138274572E+03  0.48826614073E+03  0.10100000352E+00 0.  1.
</event>
<event>
 5   0  0.4504463E-05  0.1594311E+04  0.7818609E-02  0.8824050E-01
        1   -1    0    0  501    0  0.00000000000E+00  0.00000000000E+00  0.21148894771E+04  0.21148894771E+04  0.50400001928E-02 0. -1.
       -1   -1    0    0    0  501  0.00000000000E+00  0.00000000000E+00 -0.30046831706E+03  0.30046831711E+03  0.50400001928E-02 0.  1.
    10030    2    1    2    0    0  0.00000000000E+00  0.00000000000E+00  0.18144211600E+04  0.24153577942E+04  0.15943114903E+04 0.  0.
        1    1    3    3  502    0 -0.53292740360E+03 -0.51062368223E+03  0.45092812134E+03  0.86491868577E+03  0.50400001928E-02 0. -1.
       -1    1    3    3    0  502  0.53292740360E+03  0.51062368223E+03  0.13634930387E+04  0.15504391084E+04  0.50400001928E-02 0.  1.
</event>
<event>
 5   0  0.7901257E-05  0.1600128E+04  0.7818609E-02  0.8820469E-01
        2   -1    0    0  501    0  0.00000000000E+00  0.00000000000E+00  0.10611902540E+04  0.10611902540E+04  0.25500000920E-02 0.  1.
       -2   -1    0    0    0  501  0.00000000000E+00  0.00000000000E+00 -0.60319276606E+03  0.60319276606E+03  0.25500000920E-02 0. -1.
    10030    2    1    2    0    0  0.00000000000E+00  0.00000000000E+00  0.45799748798E+03  0.16643830201E+04  0.16001278507E+04 0.  0.
        2    1    3    3  502    0 -0.16737595236E+03  0.19299496777E+03  0.10176268994E+04  0.10492026846E+04  0.25500000920E-02 0.  1.
       -2    1    3    3    0  502  0.16737595236E+03 -0.19299496777E+03 -0.55962941143E+03  0.61518033548E+03  0.25500000920E-02 0. -1.
</event>
<event>
 5   0  0.8694033E-05  0.1593987E+04  0.7818609E-02  0.8824250E-01
        2   -1    0    0  501    0  0.00000000000E+00  0.00000000000E+00  0.16725314004E+04  0.16725314004E+04  0.25500000920E-02 0. -1.
       -2   -1    0    0    0  501  0.00000000000E+00  0.00000000000E+00 -0.37978300077E+03  0.37978300078E+03  0.25500000920E-02 0.  1.
    10030    2    1    2    0    0  0.00000000000E+00  0.00000000000E+00  0.12927483996E+04  0.20523144012E+04  0.15939874455E+04 0.  0.
        1    1    3    3  502    0  0.13946964321E+03 -0.97172443461E+02 -0.35617218187E+03  0.39465540451E+03  0.50400001928E-02 0.  1.
       -1    1    3    3    0  502 -0.13946964321E+03  0.97172443461E+02  0.16489205815E+04  0.16576589967E+04  0.50400001928E-02 0. -1.
</event>
<event>
 5   0  0.4211419E-05  0.1601262E+04  0.7818609E-02  0.8819773E-01
        1   -1    0    0  501    0  0.00000000000E+00  0.00000000000E+00  0.19604382969E+04  0.19604382969E+04  0.50400001928E-02 0.  1.
       -1   -1    0    0    0  501  0.00000000000E+00  0.00000000000E+00 -0.32697295685E+03  0.32697295689E+03  0.50400001928E-02 0. -1.
    10030    2    1    2    0    0  0.00000000000E+00  0.00000000000E+00  0.16334653401E+04  0.22874112538E+04  0.16012623854E+04 0.  0.
        2    1    3    3  502    0 -0.30896006718E+03 -0.52806853873E+03  0.15544522442E+04  0.16705192260E+04  0.25500000920E-02 0.  1.
       -2    1    3    3    0  502  0.30896006718E+03  0.52806853873E+03  0.79013095846E+02  0.61689202786E+03  0.25500000920E-02 0. -1.
</event>
<event>
 5   0  0.4211419E-05  0.1597514E+04  0.7818609E-02  0.8822077E-01
       -1   -1    0    0    0  501  0.00000000000E+00  0.00000000000E+00  0.11034153932E+04  0.11034153932E+04  0.50400001928E-02 0. -1.
        1   -1    0    0  501    0  0.00000000000E+00  0.00000000000E+00 -0.57821650767E+03  0.57821650770E+03  0.50400001928E-02 0.  1.
    10030    2    1    2    0    0  0.00000000000E+00  0.00000000000E+00  0.52519888549E+03  0.16816319009E+04  0.15975143131E+04 0.  0.
        2    1    3    3  502    0 -0.20959987631E+03  0.13645360431E+03 -0.53593608106E+03  0.59142131959E+03  0.25500000920E-02 0.  1.
       -2    1    3    3    0  502  0.20959987631E+03 -0.13645360431E+03  0.10611349666E+04  0.10902105813E+04  0.25500000920E-02 0. -1.
</event>
<event>
 5   0  0.8694033E-05  0.1600211E+04  0.7818609E-02  0.8820418E-01
        2   -1    0    0  501    0  0.00000000000E+00  0.00000000000E+00  0.71842725505E+03  0.71842725506E+03  0.25500000920E-02 0.  1.
       -2   -1    0    0    0  501  0.00000000000E+00  0.00000000000E+00 -0.89106985311E+03  0.89106985311E+03  0.25500000920E-02 0. -1.
    10030    2    1    2    0    0  0.00000000000E+00  0.00000000000E+00 -0.17264259805E+03  0.16094971082E+04  0.16002110719E+04 0.  0.
        1    1    3    3  502    0 -0.40122591906E+03  0.54647169945E+03  0.34106250963E+03  0.75890525886E+03  0.50400001928E-02 0.  1.
       -1    1    3    3    0  502  0.40122591906E+03 -0.54647169945E+03 -0.51370510768E+03  0.85059184931E+03  0.50400001928E-02 0. -1.
</event>
<event>
 5   0  0.8620155E-05  0.1598833E+04  0.7818609E-02  0.8821265E-01
        2   -1    0    0  501    0  0.00000000000E+00  0.00000000000E+00  0.11462430003E+04  0.11462430003E+04  0.25500000920E-02 0. -1.
       -2   -1    0    0    0  501  0.00000000000E+00  0.00000000000E+00 -0.55753136969E+03  0.55753136970E+03  0.25500000920E-02 0.  1.
    10030    2    1    2    0    0  0.00000000000E+00  0.00000000000E+00  0.58871163057E+03  0.17037743700E+04  0.15988326116E+04 0.  0.
        4    1    3    3  502    0  0.21314270389E+02 -0.68848497608E+03  0.72669303143E+03  0.10012743057E+04  0.12699999809E+01 0. -1.
       -4    1    3    3    0  502 -0.21314270389E+02  0.68848497608E+03 -0.13798140086E+03  0.70250006427E+03  0.12699999809E+01 0.  1.
</event>
<event>
 5   0  0.8620155E-05  0.1604233E+04  0.7818609E-02  0.8817952E-01
       -2   -1    0    0    0  501  0.00000000000E+00  0.00000000000E+00  0.98872035156E+03  0.98872035157E+03  0.25500000920E-02 0.  1.
        2   -1    0    0  501    0  0.00000000000E+00  0.00000000000E+00 -0.65073086965E+03  0.65073086965E+03  0.25500000920E-02 0. -1.
    10030    2    1    2    0    0  0.00000000000E+00  0.00000000000E+00  0.33798948192E+03  0.16394512212E+04  0.16042329684E+04 0.  0.
        4    1    3    3  502    0 -0.26097775375E+03 -0.75014052918E+03  0.28356769584E+03  0.84334598623E+03  0.12699999809E+01 0. -1.
       -4    1    3    3    0  502  0.26097775375E+03  0.75014052918E+03  0.54421786075E+02  0.79610523498E+03  0.12699999809E+01 0.  1.
</event>
<event>
 5   0  0.4256406E-05  0.1598257E+04  0.7818609E-02  0.8821620E-01
        1   -1    0    0  501    0  0.00000000000E+00  0.00000000000E+00  0.10181184435E+04  0.10181184435E+04  0.50400001928E-02 0. -1.
       -1   -1    0    0    0  501  0.00000000000E+00  0.00000000000E+00 -0.62724161361E+03  0.62724161363E+03  0.50400001928E-02 0.  1.
    10030    2    1    2    0    0  0.00000000000E+00  0.00000000000E+00  0.39087682987E+03  0.16453600571E+04  0.15982568697E+04 0.  0.
        3    1    3    3  502    0 -0.57045730564E+03 -0.52914755144E+03  0.38298196795E+03  0.86723345572E+03  0.10100000352E+00 0. -1.
       -3    1    3    3    0  502  0.57045730564E+03  0.52914755144E+03  0.78948619249E+01  0.77812660139E+03  0.10100000352E+00 0.  1.
</event>
<event>
 5   0  0.4314657E-05  0.1600464E+04  0.7818609E-02  0.8820263E-01
        1   -1    0    0  501    0  0.00000000000E+00  0.00000000000E+00  0.61681153239E+03  0.61681153241E+03  0.50400001928E-02 0. -1.
       -1   -1    0    0    0  501  0.00000000000E+00  0.00000000000E+00 -0.10381962814E+04  0.10381962815E+04  0.50400001928E-02 0.  1.
    10030    2    1    2    0    0  0.00000000000E+00  0.00000000000E+00 -0.42138474906E+03  0.16550078139E+04  0.16004642318E+04 0.  0.
        5    1    3    3  502    0  0.42457775461E+03 -0.34546932071E+03  0.39292513557E+03  0.67381568208E+03  0.46999998093E+01 0. -1.
       -5    1    3    3    0  502 -0.42457775461E+03  0.34546932071E+03 -0.81430988463E+03  0.98119213178E+03  0.46999998093E+01 0.  1.
</event>
<event>
 5   0  0.7901257E-05  0.1600262E+04  0.7818609E-02  0.8820387E-01
        2   -1    0    0  501    0  0.00000000000E+00  0.00000000000E+00  0.19566369507E+04  0.19566369507E+04  0.25500000920E-02 0.  1.
       -2   -1    0    0    0  501  0.00000000000E+00  0.00000000000E+00 -0.32719906643E+03  0.32719906644E+03  0.25500000920E-02 0. -1.
    10030    2    1    2    0    0  0.00000000000E+00  0.00000000000E+00  0.16294378843E+04  0.22838360171E+04  0.16002622081E+04 0.  0.
        2    1    3    3  502    0  0.42081258027E+03  0.50970877471E+03  0.14582471372E+04  0.16010530834E+04  0.25500000920E-02 0.  1.
       -2    1    3    3    0  502 -0.42081258027E+03 -0.50970877471E+03  0.17119074709E+03  0.68278293376E+03  0.25500000920E-02 0. -1.
</event>
<event>
 5   0  0.4211419E-05  0.1596188E+04  0.7818609E-02  0.8822893E-01
        1   -1    0    0  501    0  0.00000000000E+00  0.00000000000E+00  0.20116123003E+04  0.20116123003E+04  0.50400001928E-02 0. -1.
       -1   -1    0    0    0  501  0.00000000000E+00  0.00000000000E+00 -0.31663857987E+03  0.31663857991E+03  0.50400001928E-02 0.  1.
    10030    2    1    2    0    0  0.00000000000E+00  0.00000000000E+00  0.16949737205E+04  0.23282508802E+04  0.15961880366E+04 0.  0.
        2    1    3    3  502    0  0.33140054033E+03  0.64588122729E+03  0.13311837862E+04  0.15162582730E+04  0.25500000920E-02 0. -1.
       -2    1    3    3    0  502 -0.33140054033E+03 -0.64588122729E+03  0.36378993429E+03  0.81199260723E+03  0.25500000920E-02 0.  1.
</event>
<event>
 5   0  0.4211419E-05  0.1601243E+04  0.7818609E-02  0.8819785E-01
       -1   -1    0    0    0  501  0.00000000000E+00  0.00000000000E+00  0.47119900596E+03  0.47119900599E+03  0.50400001928E-02 0. -1.
        1   -1    0    0  501    0  0.00000000000E+00  0.00000000000E+00 -0.13603475403E+04  0.13603475403E+04  0.50400001928E-02 0.  1.
    10030    2    1    2    0    0  0.00000000000E+00  0.00000000000E+00 -0.88914853437E+03  0.18315465463E+04  0.16012425285E+04 0.  0.
        2    1    3    3  502    0 -0.66010496221E+03  0.86476833111E+02 -0.95325981668E+03  0.11627214120E+04  0.25500000920E-02 0.  1.
       -2    1    3    3    0  502  0.66010496221E+03 -0.86476833111E+02  0.64111282312E+02  0.66882513434E+03  0.25500000920E-02 0. -1.
</event>
<event>
 5   0  0.4504463E-05  0.1600839E+04  0.7818609E-02  0.8820032E-01
        1   -1    0    0  501    0  0.00000000000E+00  0.00000000000E+00  0.11152252890E+04  0.11152252890E+04  0.50400001928E-02 0. -1.
       -1   -1    0    0    0  501  0.00000000000E+00  0.00000000000E+00 -0.57447737359E+03  0.57447737362E+03  0.50400001928E-02 0.  1.
    10030    2    1    2    0    0  0.00000000000E+00  0.00000000000E+00  0.54074791539E+03  0.16897026626E+04  0.16008393986E+04 0.  0.
        1    1    3    3  502    0  0.65424864454E+03  0.35412804904E+03 -0.41356942706E+02  0.74508949848E+03  0.50400001928E-02 0.  1.
       -1    1    3    3    0  502 -0.65424864454E+03 -0.35412804904E+03  0.58210485809E+03  0.94461316413E+03  0.50400001928E-02 0. -1.
</event>
<event>
 5   0  0.7901257E-05  0.1599298E+04  0.7818609E-02  0.8820979E-01
        2   -1    0    0  501    0  0.00000000000E+00  0.00000000000E+00  0.84030586256E+03  0.84030586256E+03  0.25500000920E-02 0.  1.
       -2   -1    0    0    0  501  0.00000000000E+00  0.00000000000E+00 -0.76095955976E+03  0.76095955977E+03  0.25500000920E-02 0. -1.
    10030    2    1    2    0    0  0.00000000000E+00  0.00000000000E+00  0.79346302794E+02  0.16012654223E+04  0.15992983202E+04 0.  0.
        2    1    3    3  502    0  0.58681239845E+03 -0.34761138354E+03  0.45762678623E+03  0.82134325372E+03  0.25500000920E-02 0.  1.
       -2    1    3    3    0  502 -0.58681239845E+03  0.34761138354E+03 -0.37828048343E+03  0.77992216862E+03  0.25500000920E-02 0. -1.
</event>
<event>
 5   0  0.8620155E-05  0.1599485E+04  0.7818609E-02  0.8820864E-01
        2   -1    0    0  501    0  0.00000000000E+00  0.00000000000E+00  0.18925105798E+04  0.18925105798E+04  0.25500000920E-02 0.  1.
       -2   -1    0    0    0  501  0.00000000000E+00  0.00000000000E+00 -0.33795754363E+03  0.33795754364E+03  0.25500000920E-02 0. -1.
    10030    2    1    2    0    0  0.00000000000E+00  0.00000000000E+00  0.15545530362E+04  0.22304681234E+04  0.15994852008E+04 0.  0.
        4    1    3    3  502    0  0.61857703002E+03 -0.50689832619E+03  0.77479808599E+03  0.11135066871E+04  0.12699999809E+01 0. -1.
       -4    1    3    3    0  502 -0.61857703002E+03  0.50689832619E+03  0.77975495018E+03  0.11169614364E+04  0.12699999809E+01 0.  1.
</event>
<event>
 5   0  0.4504463E-05  0.1599128E+04  0.7818609E-02  0.8821084E-01
       -1   -1    0    0    0  501  0.00000000000E+00  0.00000000000E+00  0.26698856399E+04  0.26698856399E+04  0.50400001928E-02 0.  1.
        1   -1    0    0  501    0  0.00000000000E+00  0.00000000000E+00 -0.23944956275E+03  0.23944956280E+03  0.50400001928E-02 0. -1.
    10030    2    1    2    0    0  0.00000000000E+00  0.00000000000E+00  0.24304360771E+04  0.29093352027E+04  0.15991284491E+04 0.  0.
        1    1    3    3  502    0 -0.13296350741E+03  0.39021349618E+03 -0.31195334538E+02  0.41342353081E+03  0.50400001928E-02 0. -1.
       -1    1    3    3    0  502  0.13296350741E+03 -0.39021349618E+03  0.24616314117E+04  0.24959116719E+04  0.50400001928E-02 0.  1.
</event>
<event>
 5   0  0.8694033E-05  0.1599339E+04  0.7818609E-02  0.8820954E-01
        2   -1    0    0  501    0  0.00000000000E+00  0.00000000000E+00  0.10355062792E+04  0.10355062792E+04  0.25500000920E-02 0.  1.
       -2   -1    0    0    0  501  0.00000000000E+00  0.00000000000E+00 -0.61754442421E+03  0.61754442422E+03  0.25500000920E-02 0. -1.
    10030    2    1    2    0    0  0.00000000000E+00  0.00000000000E+00  0.41796185500E+03  0.16530507034E+04  0.15993387746E+04 0.  0.
        1    1    3    3  502    0 -0.36660937393E+03  0.56242732053E+03  0.65801833463E+03  0.94006119624E+03  0.50400001928E-02 0. -1.
       -1    1    3    3    0  502  0.36660937393E+03 -0.56242732053E+03 -0.24005647962E+03  0.71298950720E+03  0.50400001928E-02 0.  1.
</event>
<event>
 5   0  0.4211419E-05  0.1601543E+04  0.7818609E-02  0.8819601E-01
       -1   -1    0    0    0  501  0.00000000000E+00  0.00000000000E+00  0.44702167747E+03  0.44702167749E+03  0.50400001928E-02 0.  1.
        1   -1    0    0  501    0  0.00000000000E+00  0.00000000000E+00 -0.14344610308E+04  0.14344610308E+04  0.50400001928E-02 0. -1.
    10030    2    1    2    0    0  0.00000000000E+00  0.00000000000E+00 -0.98743935335E+03  0.18814827083E+04  0.16015432261E+04 0.  0.
        2    1    3    3  502    0  0.57165621929E+03 -0.55837939941E+03 -0.43316605214E+03  0.90896161386E+03  0.25500000920E-02 0.  1.
       -2    1    3    3    0  502 -0.57165621929E+03  0.55837939941E+03 -0.55427330121E+03  0.97252109446E+03  0.25500000920E-02 0. -1.
</event>
<event>
 5   0  0.4504463E-05  0.1599888E+04  0.7818609E-02  0.8820617E-01
        1   -1    0    0  501    0  0.00000000000E+00  0.00000000000E+00  0.88898956599E+03  0.88898956601E+03  0.50400001928E-02 0.  1.
       -1   -1    0    0    0  501  0.00000000000E+00  0.00000000000E+00 -0.71981723506E+03  0.71981723508E+03  0.50400001928E-02 0. -1.
    10030    2    1    2    0    0  0.00000000000E+00  0.00000000000E+00  0.16917233093E+03  0.16088068011E+04  0.15998875103E+04 0.  0.
        1    1    3    3  502    0 -0.46532895335E+03 -0.44387335583E+03  0.56300679148E+03  0.85471120159E+03  0.50400001928E-02 0.  1.
       -1    1    3    3    0  502  0.46532895335E+03  0.44387335583E+03 -0.39383446055E+03  0.75409559950E+03  0.50400001928E-02 0. -1.
</event>
<event>
 5   0  0.4504463E-05  0.1598943E+04  0.7818609E-02  0.8821198E-01
        1   -1    0    0  501    0  0.00000000000E+00  0.00000000000E+00  0.89933030372E+03  0.89933030373E+03  0.50400001928E-02 0.  1.
       -1   -1    0    0    0  501  0.00000000000E+00  0.00000000000E+00 -0.71070037032E+03  0.71070037033E+03  0.50400001928E-02 0. -1.
    10030    2    1    2    0    0  0.00000000000E+00  0.00000000000E+00  0.18862993340E+03  0.16100306741E+04  0.15989426255E+04 0.  0.
        1    1    3    3  502    0 -0.92118951365E+02 -0.25980500590E+03  0.84996544789E+03  0.89354675587E+03  0.50400001928E-02 0.  1.
       -1    1    3    3    0  502  0.92118951365E+02  0.25980500590E+03 -0.66133551449E+03  0.71648391820E+03  0.50400001928E-02 0. -1.
</event>
<event>
 5   0  0.4504463E-05  0.1615916E+04  0.7818609E-02  0.8810829E-01
       -1   -1    0    0    0  501  0.00000000000E+00  0.00000000000E+00  0.41173425115E+03  0.41173425118E+03  0.50400001928E-02 0. -1.
        1   -1    0    0  501    0  0.00000000000E+00  0.00000000000E+00 -0.15854798369E+04  0.15854798369E+04  0.50400001928E-02 0.  1.
    10030    2    1    2    0    0  0.00000000000E+00  0.00000000000E+00 -0.11737455857E+04  0.19972140880E+04  0.16159162768E+04 0.  0.
        1    1    3    3  502    0 -0.47489607207E+03  0.42079282788E+03  0.31360558137E+02  0.63527660739E+03  0.50400001928E-02 0. -1.
       -1    1    3    3    0  502  0.47489607207E+03 -0.42079282788E+03 -0.12051061438E+04  0.13619374807E+04  0.50400001928E-02 0.  1.
</event>
<event>
 5   0  0.4504463E-05  0.1599480E+04  0.7818609E-02  0.8820867E-01
       -1   -1    0    0    0  501  0.00000000000E+00  0.00000000000E+00  0.11804457788E+04  0.11804457788E+04  0.50400001928E-02 0.  1.
        1   -1    0    0  501    0  0.00000000000E+00  0.00000000000E+00 -0.54181600225E+03  0.54181600227E+03  0.50400001928E-02 0. -1.
    10030    2    1    2    0    0  0.00000000000E+00  0.00000000000E+00  0.63862977652E+03  0.17222617811E+04  0.15994804316E+04 0.  0.
        1    1    3    3  502    0  0.29670642699E+03  0.59758045519E+03  0.79412635762E+03  0.10371951485E+04  0.50400001928E-02 0.  1.
       -1    1    3    3    0  502 -0.29670642699E+03 -0.59758045519E+03 -0.15549658110E+03  0.68506663252E+03  0.50400001928E-02 0. -1.
</event>
<event>
 5   0  0.4211419E-05  0.1599768E+04  0.7818609E-02  0.8820691E-01
        1   -1    0    0  501    0  0.00000000000E+00  0.00000000000E+00  0.10415306413E+04  0.10415306413E+04  0.50400001928E-02 0.  1.
       -1   -1    0    0    0  501  0.00000000000E+00  0.00000000000E+00 -0.61430189797E+03  0.61430189799E+03  0.50400001928E-02 0. -1.
    10030    2    1    2    0    0  0.00000000000E+00  0.00000000000E+00  0.42722874333E+03  0.16558325393E+04  0.15997677954E+04 0.  0.
        2    1    3    3  502    0  0.40835593530E+03 -0.26257388306E+03  0.87159294716E+03  0.99768425842E+03  0.25500000920E-02 0.  1.
       -2    1    3    3    0  502 -0.40835593530E+03  0.26257388306E+03 -0.44436420383E+03  0.65814828087E+03  0.25500000920E-02 0. -1.
</event>
<event>
 5   0  0.4373026E-05  0.1598311E+04  0.7818609E-02  0.8821586E-01
       -1   -1    0    0    0  501  0.00000000000E+00  0.00000000000E+00  0.74216593984E+03  0.74216593985E+03  0.50400001928E-02 0. -1.
        1   -1    0    0  501    0  0.00000000000E+00  0.00000000000E+00 -0.86052133998E+03  0.86052133999E+03  0.50400001928E-02 0.  1.
    10030    2    1    2    0    0  0.00000000000E+00  0.00000000000E+00 -0.11835540014E+03  0.16026872798E+04  0.15983111450E+04 0.  0.
        4    1    3    3  502    0 -0.42671531564E+03  0.48679742628E+02  0.61660545818E+03  0.75143834205E+03  0.12699999809E+01 0. -1.
       -4    1    3    3    0  502  0.42671531564E+03 -0.48679742628E+02 -0.73496085832E+03  0.85124893780E+03  0.12699999809E+01 0.  1.
</event>
<event>
 5   0  0.7901257E-05  0.1598063E+04  0.7818609E-02  0.8821739E-01
       -2   -1    0    0    0  501  0.00000000000E+00  0.00000000000E+00  0.37607781980E+03  0.37607781981E+03  0.25500000920E-02 0.  1.
        2   -1    0    0  501    0  0.00000000000E+00  0.00000000000E+00 -0.16976573418E+04  0.16976573418E+04  0.25500000920E-02 0. -1.
    10030    2    1    2    0    0  0.00000000000E+00  0.00000000000E+00 -0.13215795220E+04  0.20737351616E+04  0.15980629173E+04 0.  0.
        2    1    3    3  502    0  0.59366684231E+03 -0.48232298155E+03 -0.36099062969E+03  0.84580731430E+03  0.25500000920E-02 0.  1.
       -2    1    3    3    0  502 -0.59366684231E+03  0.48232298155E+03 -0.96058889231E+03  0.12279278473E+04  0.25500000920E-02 0. -1.
</event>
<event>
 5   0  0.4211419E-05  0.1600958E+04  0.7818609E-02  0.8819960E-01
       -1   -1    0    0    0  501  0.00000000000E+00  0.00000000000E+00  0.61719201605E+03  0.61719201607E+03  0.50400001928E-02 0.  1.
        1   -1    0    0  501    0  0.00000000000E+00  0.00000000000E+00 -0.10381964081E+04  0.10381964081E+04  0.50400001928E-02 0. -1.
    10030    2    1    2    0    0  0.00000000000E+00  0.00000000000E+00 -0.42100439209E+03  0.16553884242E+04  0.16009578810E+04 0.  0.
        2    1    3    3  502    0 -0.63533401643E+03  0.28097185809E+03  0.20072787145E+03  0.72310868883E+03  0.25500000920E-02 0.  1.
       -2    1    3    3    0  502  0.63533401643E+03 -0.28097185809E+03 -0.62173226354E+03  0.93227973539E+03  0.25500000920E-02 0. -1.
</event>
<event>
 5   0  0.4314657E-05  0.1611228E+04  0.7818609E-02  0.8813680E-01
       -1   -1    0    0    0  501  0.00000000000E+00  0.00000000000E+00  0.53757392856E+03  0.53757392859E+03  0.50400001928E-02 0.  1.
        1   -1    0    0  501    0  0.00000000000E+00  0.00000000000E+00 -0.12073015559E+04  0.12073015559E+04  0.50400001928E-02 0. -1.
    10030    2    1    2    0    0  0.00000000000E+00  0.00000000000E+00 -0.66972762733E+03  0.17448754845E+04  0.16112279049E+04 0.  0.
        5    1    3    3  502    0 -0.51883214008E+03  0.58200150655E+03 -0.55435571100E+03  0.95668431968E+03  0.46999998093E+01 0.  1.
       -5    1    3    3    0  502  0.51883214008E+03 -0.58200150655E+03 -0.11537191634E+03  0.78819116481E+03  0.46999998093E+01 0. -1.
</event>
<event>
 5   0  0.8694033E-05  0.1606564E+04  0.7818609E-02  0.8816526E-01
        2   -1    0    0  501    0  0.00000000000E+00  0.00000000000E+00  0.93633735078E+03  0.93633735078E+03  0.25500000920E-02 0.  1.
       -2   -1    0    0    0  501  0.00000000000E+00  0.00000000000E+00 -0.68913370820E+03  0.68913370820E+03  0.25500000920E-02 0. -1.
    10030    2    1    2    0    0  0.00000000000E+00  0.00000000000E+00  0.24720364258E+03  0.16254710590E+04  0.16065635757E+04 0.  0.
        1    1    3    3  502    0 -0.73852350051E+03  0.61075651652E+02  0.43727373452E+03  0.86043914076E+03  0.50400001928E-02 0.  1.
       -1    1    3    3    0  502  0.73852350051E+03 -0.61075651652E+02 -0.19007009194E+03  0.76503191822E+03  0.50400001928E-02 0. -1.
</event>
<event>
 5   0  0.8694033E-05  0.1598848E+04  0.7818609E-02  0.8821256E-01
       -2   -1    0    0    0  501  0.00000000000E+00  0.00000000000E+00  0.57377788884E+03  0.57377788884E+03  0.25500000920E-02 0. -1.
        2   -1    0    0  501    0  0.00000000000E+00  0.00000000000E+00 -0.11138080232E+04  0.11138080232E+04  0.25500000920E-02 0.  1.
    10030    2    1    2    0    0  0.00000000000E+00  0.00000000000E+00 -0.54003013441E+03  0.16875859121E+04  0.15988476052E+04 0.  0.
        1    1    3    3  502    0 -0.37367526539E+03 -0.46988776771E+03 -0.82718656006E+03  0.10220887062E+04  0.50400001928E-02 0. -1.
       -1    1    3    3    0  502  0.37367526539E+03  0.46988776771E+03  0.28715642565E+03  0.66549720587E+03  0.50400001928E-02 0.  1.
</event>
<event>
 5   0  0.7901257E-05  0.1599821E+04  0.7818609E-02  0.8820658E-01
       -2   -1    0    0    0  501  0.00000000000E+00  0.00000000000E+00  0.36031613970E+03  0.36031613971E+03  0.25500000920E-02 0.  1.
        2   -1    0    0  501    0  0.00000000000E+00  0.00000000000E+00 -0.17758198651E+04  0.17758198651E+04  0.25500000920E-02 0. -1.
    10030    2    1    2    0    0  0.00000000000E+00  0.00000000000E+00 -0.14155037254E+04  0.21361360048E+04  0.15998206882E+04 0.  0.
        2    1    3    3  502    0  0.77155775610E+02  0.66001190153E+03 -0.11317825612E+03  0.67407569422E+03  0.25500000920E-02 0.  1.
       -2    1    3    3    0  502 -0.77155775610E+02 -0.66001190153E+03 -0.13023254693E+04  0.14620603106E+04  0.25500000920E-02 0. -1.
</event>
<event>
 5   0  0.8037548E-05  0.1598303E+04  0.7818609E-02  0.8821591E-01
        2   -1    0    0  501    0  0.00000000000E+00  0.00000000000E+00  0.22790984554E+04  0.22790984554E+04  0.25500000920E-02 0. -1.
       -2   -1    0    0    0  501  0.00000000000E+00  0.00000000000E+00 -0.28021727297E+03  0.28021727298E+03  0.25500000920E-02 0.  1.
    10030    2    1    2    0    0  0.00000000000E+00  0.00000000000E+00  0.19988811825E+04  0.25593157284E+04  0.15983025421E+04 0.  0.
        5    1    3    3  502    0 -0.65540147829E+03 -0.13897438698E+03  0.30191158093E+03  0.73487255404E+03  0.46999998093E+01 0.  1.
       -5    1    3    3    0  502  0.65540147829E+03  0.13897438698E+03  0.16969696015E+04  0.18244431744E+04  0.46999998093E+01 0. -1.
</event>
<event>
 5   0  0.4373026E-05  0.1600581E+04  0.7818609E-02  0.8820191E-01
        1   -1    0    0  501    0  0.00000000000E+00  0.00000000000E+00  0.90120870943E+03  0.90120870945E+03  0.50400001928E-02 0. -1.
       -1   -1    0    0    0  501  0.00000000000E+00  0.00000000000E+00 -0.71067337110E+03  0.71067337111E+03  0.50400001928E-02 0.  1.
    10030    2    1    2    0    0  0.00000000000E+00  0.00000000000E+00  0.19053533833E+03  0.16118820806E+04  0.16005811840E+04 0.  0.
        4    1    3    3  502    0  0.42770783089E+02  0.69376978871E+03  0.49470086933E+03  0.85315673977E+03  0.12699999809E+01 0. -1.
       -4    1    3    3    0  502 -0.42770783089E+02 -0.69376978871E+03 -0.30416553099E+03  0.75872534079E+03  0.12699999809E+01 0.  1.
</event>
<event>
 5   0  0.8694033E-05  0.1641371E+04  0.7818609E-02  0.8795528E-01
       -2   -1    0    0    0  501  0.00000000000E+00  0.00000000000E+00  0.40469668528E+03  0.40469668529E+03  0.25500000920E-02 0.  1.
        2   -1    0    0  501    0  0.00000000000E+00  0.00000000000E+00 -0.16642696264E+04  0.16642696264E+04  0.25500000920E-02 0. -1.
    10030    2    1    2    0    0  0.00000000000E+00  0.00000000000E+00 -0.12595729411E+04  0.20689663117E+04  0.16413706482E+04 0.  0.
        1    1    3    3  502    0  0.18118822196E+02 -0.68979693024E+03 -0.11897945116E+04  0.13754123297E+04  0.50400001928E-02 0. -1.
       -1    1    3    3    0  502 -0.18118822196E+02  0.68979693024E+03 -0.69778429446E+02  0.69355398198E+03  0.50400001928E-02 0.  1.
</event>
<event>
 5   0  0.4504463E-05  0.1597303E+04  0.7818609E-02  0.8822206E-01
       -1   -1    0    0    0  501  0.00000000000E+00  0.00000000000E+00  0.50249890249E+03  0.50249890252E+03  0.50400001928E-02 0.  1.
        1   -1    0    0  501    0  0.00000000000E+00  0.00000000000E+00 -0.12693452617E+04  0.12693452617E+04  0.50400001928E-02 0. -1.
    10030    2    1    2    0    0  0.00000000000E+00  0.00000000000E+00 -0.76684635919E+03  0.17718441642E+04  0.15973034789E+04 0.  0.
        1    1    3    3  502    0 -0.30785196885E+03  0.46784112582E+03 -0.10150233093E+04  0.11592758396E+04  0.50400001928E-02 0. -1.
       -1    1    3    3    0  502  0.30785196885E+03 -0.46784112582E+03  0.24817695014E+03  0.61256832463E+03  0.50400001928E-02 0.  1.
</event>
<event>
 5   0  0.4211419E-05  0.1598934E+04  0.7818609E-02  0.8821203E-01
        1   -1    0    0  501    0  0.00000000000E+00  0.00000000000E+00  0.10806579215E+04  0.10806579215E+04  0.50400001928E-02 0. -1.
       -1   -1    0    0    0  501  0.00000000000E+00  0.00000000000E+00 -0.59144293379E+03  0.59144293381E+03  0.50400001928E-02 0.  1.
    10030    2    1    2    0    0  0.00000000000E+00  0.00000000000E+00  0.48921498770E+03  0.16721008553E+04  0.15989340093E+04 0.  0.
        2    1    3    3  502    0 -0.29832507158E+03  0.14722984860E+03 -0.51561958876E+03  0.61362695261E+03  0.25500000920E-02 0.  1.
       -2    1    3    3    0  502  0.29832507158E+03 -0.14722984860E+03  0.10048345765E+04  0.10584739027E+04  0.25500000920E-02 0. -1.
</event>
<event>
 5   0  0.4504463E-05  0.1605875E+04  0.7818609E-02  0.8816947E-01
       -1   -1    0    0    0  501  0.00000000000E+00  0.00000000000E+00  0.10870514804E+04  0.10870514804E+04  0.50400001928E-02 0.  1.
        1   -1    0    0  501    0  0.00000000000E+00  0.00000000000E+00 -0.59307988048E+03  0.59307988050E+03  0.50400001928E-02 0. -1.
    10030    2    1    2    0    0  0.00000000000E+00  0.00000000000E+00  0.49397159991E+03  0.16801313609E+04  0.16058746677E+04 0.  0.
        1    1    3    3  502    0 -0.11131754040E+02 -0.62743666598E+03  0.77105491386E+03  0.99414604861E+03  0.50400001928E-02 0.  1.
       -1    1    3    3    0  502  0.11131754040E+02  0.62743666598E+03 -0.27708331395E+03  0.68598531228E+03  0.50400001928E-02 0. -1.
</event>
<event>
 5   0  0.4314657E-05  0.1606065E+04  0.7818609E-02  0.8816831E-01
        1   -1    0    0  501    0  0.00000000000E+00  0.00000000000E+00  0.11624556565E+04  0.11624556566E+04  0.50400001928E-02 0.  1.
       -1   -1    0    0    0  501  0.00000000000E+00  0.00000000000E+00 -0.55474044441E+03  0.55474044443E+03  0.50400001928E-02 0. -1.
    10030    2    1    2    0    0  0.00000000000E+00  0.00000000000E+00  0.60771521214E+03  0.17171961010E+04  0.16060649645E+04 0.  0.
        5    1    3    3  502    0 -0.18292485097E+03 -0.24745517465E+02  0.11394489650E+04  0.11543135949E+04  0.46999998093E+01 0.  1.
       -5    1    3    3    0  502  0.18292485097E+03  0.24745517465E+02 -0.53173375281E+03  0.56288250605E+03  0.46999998093E+01 0. -1.
</event>
<event>
 5   0  0.4211419E-05  0.1600488E+04  0.7818609E-02  0.8820248E-01
       -1   -1    0    0    0  501  0.00000000000E+00  0.00000000000E+00  0.70904913210E+03  0.70904913212E+03  0.50400001928E-02 0.  1.
        1   -1    0    0  501    0  0.00000000000E+00  0.00000000000E+00 -0.90316846544E+03  0.90316846545E+03  0.50400001928E-02 0. -1.
    10030    2    1    2    0    0  0.00000000000E+00  0.00000000000E+00 -0.19411933334E+03  0.16122175976E+04  0.16004884462E+04 0.  0.
        2    1    3    3  502    0  0.40107741525E+03  0.37561663424E+03 -0.68307890298E+03  0.87666854435E+03  0.25500000920E-02 0. -1.
       -2    1    3    3    0  502 -0.40107741525E+03 -0.37561663424E+03  0.48895956964E+03  0.73554905322E+03  0.25500000920E-02 0.  1.
</event>
<event>
 5   0  0.8694033E-05  0.1599627E+04  0.7818609E-02  0.8820777E-01
        2   -1    0    0  501    0  0.00000000000E+00  0.00000000000E+00  0.19577451476E+04  0.19577451476E+04  0.25500000920E-02 0. -1.
       -2   -1    0    0    0  501  0.00000000000E+00  0.00000000000E+00 -0.32675436771E+03  0.32675436772E+03  0.25500000920E-02 0.  1.
    10030    2    1    2    0    0  0.00000000000E+00  0.00000000000E+00  0.16309907799E+04  0.22844995153E+04  0.15996271789E+04 0.  0.
        1    1    3    3  502    0 -0.66143200008E+03 -0.43021066930E+03  0.62858690834E+03  0.10088087094E+04  0.50400001928E-02 0.  1.
       -1    1    3    3    0  502  0.66143200008E+03  0.43021066930E+03  0.10024038716E+04  0.12756908060E+04  0.50400001928E-02 0. -1.
</event>
<event>
 5   0  0.7849690E-05  0.1604183E+04  0.7818609E-02  0.8817982E-01
        2   -1    0    0  501    0  0.00000000000E+00  0.00000000000E+00  0.10850951993E+04  0.10850951993E+04  0.25500000920E-02 0.  1.
       -2   -1    0    0    0  501  0.00000000000E+00  0.00000000000E+00 -0.59289796195E+03  0.59289796195E+03  0.25500000920E-02 0. -1.
    10030    2    1    2    0    0  0.00000000000E+00  0.00000000000E+00  0.49219723739E+03  0.16779931613E+04  0.16041829474E+04 0.  0.
        3    1    3    3  502    0  0.44220611787E+03 -0.29559687061E+02 -0.45318987628E+03  0.63387782730E+03  0.10100000352E+00 0. -1.
       -3    1    3    3    0  502 -0.44220611787E+03  0.29559687061E+02  0.94538711366E+03  0.10441153340E+04  0.10100000352E+00 0.  1.
</event>
<event>
 5   0  0.4504463E-05  0.1599820E+04  0.7818609E-02  0.8820659E-01
       -1   -1    0    0    0  501  0.00000000000E+00  0.00000000000E+00  0.30978374427E+03  0.30978374432E+03  0.50400001928E-02 0.  1.
        1   -1    0    0  501    0  0.00000000000E+00  0.00000000000E+00 -0.20654914525E+04  0.20654914525E+04  0.50400001928E-02 0. -1.
    10030    2    1    2    0    0  0.00000000000E+00  0.00000000000E+00 -0.17557077083E+04  0.23752751969E+04  0.15998195848E+04 0.  0.
        1    1    3    3  502    0 -0.25922555482E+03  0.32265797758E+03  0.13844332093E+03  0.43643168069E+03  0.50400001928E-02 0.  1.
       -1    1    3    3    0  502  0.25922555482E+03 -0.32265797758E+03 -0.18941510292E+04  0.19388435162E+04  0.50400001928E-02 0. -1.
</event>
<event>
 5   0  0.4211419E-05  0.1600803E+04  0.7818609E-02  0.8820055E-01
        1   -1    0    0  501    0  0.00000000000E+00  0.00000000000E+00  0.96368604390E+03  0.96368604391E+03  0.50400001928E-02 0.  1.
       -1   -1    0    0    0  501  0.00000000000E+00  0.00000000000E+00 -0.66478384479E+03  0.66478384481E+03  0.50400001928E-02 0. -1.
    10030    2    1    2    0    0  0.00000000000E+00  0.00000000000E+00  0.29890219910E+03  0.16284698887E+04  0.16008034401E+04 0.  0.
        2    1    3    3  502    0 -0.71644979189E+03  0.13403755857E+03 -0.18698595195E+03  0.75248263611E+03  0.25500000920E-02 0.  1.
       -2    1    3    3    0  502  0.71644979189E+03 -0.13403755857E+03  0.48588815105E+03  0.87598725262E+03  0.25500000920E-02 0. -1.
</event>
<event>
 5   0  0.3042125E-05  0.1604464E+04  0.7818609E-02  0.8817810E-01
       -3   -1    0    0    0  501  0.00000000000E+00  0.00000000000E+00  0.17118822953E+04  0.17118822983E+04  0.10100000352E+00 0. -1.
        3   -1    0    0  501    0  0.00000000000E+00  0.00000000000E+00 -0.37594638905E+03  0.37594640262E+03  0.10100000352E+00 0.  1.
    10030    2    1    2    0    0  0.00000000000E+00  0.00000000000E+00  0.13359359063E+04  0.20878287009E+04  0.16044637542E+04 0.  0.
        5    1    3    3  502    0 -0.61596159082E+03  0.28159757085E+03  0.10850368272E+03  0.68593076359E+03  0.46999998093E+01 0.  1.
       -5    1    3    3    0  502  0.61596159082E+03 -0.28159757085E+03  0.12274322235E+04  0.14018979373E+04  0.46999998093E+01 0. -1.
</event>
<event>
 5   0  0.4504463E-05  0.1596789E+04  0.7818609E-02  0.8822523E-01
       -1   -1    0    0    0  501  0.00000000000E+00  0.00000000000E+00  0.59566280800E+03  0.59566280802E+03  0.50400001928E-02 0.  1.
        1   -1    0    0  501    0  0.00000000000E+00  0.00000000000E+00 -0.10701250216E+04  0.10701250216E+04  0.50400001928E-02 0. -1.
    10030    2    1    2    0    0  0.00000000000E+00  0.00000000000E+00 -0.47446221357E+03  0.16657878296E+04  0.15967888718E+04 0.  0.
        1    1    3    3  502    0  0.13317530293E+03 -0.11058465086E+03 -0.10503129538E+04  0.10644819995E+04  0.50400001928E-02 0. -1.
       -1    1    3    3    0  502 -0.13317530293E+03  0.11058465086E+03  0.57585074020E+03  0.60130583012E+03  0.50400001928E-02 0.  1.
</event>
<event>
 5   0  0.4211419E-05  0.1600751E+04  0.7818609E-02  0.8820087E-01
       -1   -1    0    0    0  501  0.00000000000E+00  0.00000000000E+00  0.30797608466E+03  0.30797608471E+03  0.50400001928E-02 0. -1.
        1   -1    0    0  501    0  0.00000000000E+00  0.00000000000E+00 -0.20800344953E+04  0.20800344953E+04  0.50400001928E-02 0.  1.
    10030    2    1    2    0    0  0.00000000000E+00  0.00000000000E+00 -0.17720584107E+04  0.23880105800E+04  0.16007509237E+04 0.  0.
        2    1    3    3  502    0  0.79066329516E+03  0.12283220017E+03 -0.85754061591E+03  0.11728649128E+04  0.25500000920E-02 0. -1.
       -2    1    3    3    0  502 -0.79066329516E+03 -0.12283220017E+03 -0.91451779476E+03  0.12151456673E+04  0.25500000920E-02 0.  1.
</event>
<event>
 5   0  0.4256406E-05  0.1597333E+04  0.7818609E-02  0.8822188E-01
       -1   -1    0    0    0  501  0.00000000000E+00  0.00000000000E+00  0.50123162226E+03  0.50123162229E+03  0.50400001928E-02 0.  1.
        1   -1    0    0  501    0  0.00000000000E+00  0.00000000000E+00 -0.12726023198E+04  0.12726023198E+04  0.50400001928E-02 0. -1.
    10030    2    1    2    0    0  0.00000000000E+00  0.00000000000E+00 -0.77137069751E+03  0.17738339421E+04  0.15973334345E+04 0.  0.
        3    1    3    3  502    0  0.75681613785E+03  0.23197180189E+03 -0.50366451614E+03  0.93822147620E+03  0.10100000352E+00 0. -1.
       -3    1    3    3    0  502 -0.75681613785E+03 -0.23197180189E+03 -0.26770618138E+03  0.83561246588E+03  0.10100000352E+00 0.  1.
</event>
<event>
 5   0  0.8694033E-05  0.1609984E+04  0.7818609E-02  0.8814438E-01
        2   -1    0    0  501    0  0.00000000000E+00  0.00000000000E+00  0.12733094380E+04  0.12733094380E+04  0.25500000920E-02 0. -1.
       -2   -1    0    0    0  501  0.00000000000E+00  0.00000000000E+00 -0.50891927864E+03  0.50891927864E+03  0.25500000920E-02 0.  1.
    10030    2    1    2    0    0  0.00000000000E+00  0.00000000000E+00  0.76439015936E+03  0.17822287166E+04  0.16099835039E+04 0.  0.
        1    1    3    3  502    0  0.37227616638E+03 -0.36682923436E+03 -0.29556453353E+03  0.60042620258E+03  0.50400001928E-02 0.  1.
       -1    1    3    3    0  502 -0.37227616638E+03  0.36682923436E+03  0.10599546929E+04  0.11818025141E+04  0.50400001928E-02 0. -1.
</event>
<event>
 5   0  0.4314657E-05  0.1638182E+04  0.7818609E-02  0.8797429E-01
       -1   -1    0    0    0  501  0.00000000000E+00  0.00000000000E+00  0.73253230328E+03  0.73253230330E+03  0.50400001928E-02 0. -1.
        1   -1    0    0  501    0  0.00000000000E+00  0.00000000000E+00 -0.91587740557E+03  0.91587740558E+03  0.50400001928E-02 0.  1.
    10030    2    1    2    0    0  0.00000000000E+00  0.00000000000E+00 -0.18334510229E+03  0.16484097089E+04  0.16381816571E+04 0.  0.
        5    1    3    3  502    0 -0.31689673594E+03  0.13817352940E+03  0.65550798390E+03  0.74109936745E+03  0.46999998093E+01 0. -1.
       -5    1    3    3    0  502  0.31689673594E+03 -0.13817352940E+03 -0.83885308619E+03  0.90731034144E+03  0.46999998093E+01 0.  1.
</event>
<event>
 5   0  0.7901257E-05  0.1600920E+04  0.7818609E-02  0.8819983E-01
       -2   -1    0    0    0  501  0.00000000000E+00  0.00000000000E+00  0.37220479632E+03  0.37220479633E+03  0.25500000920E-02 0. -1.
        2   -1    0    0  501    0  0.00000000000E+00  0.00000000000E+00 -0.17214619201E+04  0.17214619201E+04  0.25500000920E-02 0.  1.
    10030    2    1    2    0    0  0.00000000000E+00  0.00000000000E+00 -0.13492571238E+04  0.20936667165E+04  0.16009202146E+04 0.  0.
        2    1    3    3  502    0  0.10797230501E+03  0.50588882617E+03  0.12425302589E+03  0.53199655783E+03  0.25500000920E-02 0. -1.
       -2    1    3    3    0  502 -0.10797230501E+03 -0.50588882617E+03 -0.14735101497E+04  0.15616701586E+04  0.25500000920E-02 0.  1.
</event>
<event>
 5   0  0.4211419E-05  0.1601544E+04  0.7818609E-02  0.8819600E-01
       -1   -1    0    0    0  501  0.00000000000E+00  0.00000000000E+00  0.66937689288E+03  0.66937689290E+03  0.50400001928E-02 0. -1.
        1   -1    0    0  501    0  0.00000000000E+00  0.00000000000E+00 -0.95795917637E+03  0.95795917639E+03  0.50400001928E-02 0.  1.
    10030    2    1    2    0    0  0.00000000000E+00  0.00000000000E+00 -0.28858228349E+03  0.16273360693E+04  0.16015439264E+04 0.  0.
        2    1    3    3  502    0  0.67536501720E+03  0.31078892752E+03  0.15803722747E+03  0.76005488565E+03  0.25500000920E-02 0. -1.
       -2    1    3    3    0  502 -0.67536501720E+03 -0.31078892752E+03 -0.44661951096E+03  0.86728118364E+03  0.25500000920E-02 0.  1.
</event>
<event>
 5   0  0.7849690E-05  0.1589099E+04  0.7818609E-02  0.8827273E-01
       -2   -1    0    0    0  501  0.00000000000E+00  0.00000000000E+00  0.11660510728E+04  0.11660510728E+04  0.25500000920E-02 0.  1.
        2   -1    0    0  501    0  0.00000000000E+00  0.00000000000E+00 -0.54140763659E+03  0.54140763660E+03  0.25500000920E-02 0. -1.
    10030    2    1    2    0    0  0.00000000000E+00  0.00000000000E+00  0.62464343617E+03  0.17074587094E+04  0.15890990598E+04 0.  0.
        3    1    3    3  502    0  0.43254346544E+03 -0.32999567702E+03  0.93451832721E+03  0.10813489309E+04  0.10100000352E+00 0.  1.
       -3    1    3    3    0  502 -0.43254346544E+03  0.32999567702E+03 -0.30987489104E+03  0.62610977843E+03  0.10100000352E+00 0. -1.
</event>
<event>
 5   0  0.4504463E-05  0.1600015E+04  0.7818609E-02  0.8820539E-01
        1   -1    0    0  501    0  0.00000000000E+00  0.00000000000E+00  0.49665045873E+03  0.49665045875E+03  0.50400001928E-02 0. -1.
       -1   -1    0    0    0  501  0.00000000000E+00  0.00000000000E+00 -0.12886574736E+04  0.12886574736E+04  0.50400001928E-02 0.  1.
    10030    2    1    2    0    0  0.00000000000E+00  0.00000000000E+00 -0.79200701484E+03  0.17853079323E+04  0.16000154067E+04 0.  0.
        1    1    3    3  502    0 -0.61504386087E+03 -0.14425262425E+03  0.15167979790E+03  0.64968802630E+03  0.50400001928E-02 0. -1.
       -1    1    3    3    0  502  0.61504386087E+03  0.14425262425E+03 -0.94368681274E+03  0.11356199060E+04  0.50400001928E-02 0.  1.
</event>
<event>
 5   0  0.7849690E-05  0.1602356E+04  0.7818609E-02  0.8819102E-01
        2   -1    0    0  501    0  0.00000000000E+00  0.00000000000E+00  0.13776661676E+04  0.13776661676E+04  0.25500000920E-02 0. -1.
       -2   -1    0    0    0  501  0.00000000000E+00  0.00000000000E+00 -0.46592301433E+03  0.46592301434E+03  0.25500000920E-02 0.  1.
    10030    2    1    2    0    0  0.00000000000E+00  0.00000000000E+00  0.91174315329E+03  0.18435891820E+04  0.16023562320E+04 0.  0.
        3    1    3    3  502    0  0.16342913640E+03 -0.31705296135E+03  0.12812688865E+04  0.13299930949E+04  0.10100000352E+00 0. -1.
       -3    1    3    3    0  502 -0.16342913640E+03  0.31705296135E+03 -0.36952573318E+03  0.51359608703E+03  0.10100000352E+00 0.  1.
</event>
<event>
 5   0  0.4256406E-05  0.1600281E+04  0.7818609E-02  0.8820375E-01
        1   -1    0    0  501    0  0.00000000000E+00  0.00000000000E+00  0.10456570376E+04  0.10456570377E+04  0.50400001928E-02 0. -1.
       -1   -1    0    0    0  501  0.00000000000E+00  0.00000000000E+00 -0.61227073651E+03  0.61227073653E+03  0.50400001928E-02 0.  1.
    10030    2    1    2    0    0  0.00000000000E+00  0.00000000000E+00  0.43338630113E+03  0.16579277742E+04  0.16002814810E+04 0.  0.
        3    1    3    3  502    0 -0.35728391842E+02 -0.51382706081E+03 -0.41767967565E+03  0.66313730709E+03  0.10100000352E+00 0.  1.
       -3    1    3    3    0  502  0.35728391842E+02  0.51382706081E+03  0.85106597678E+03  0.99479046710E+03  0.10100000352E+00 0. -1.
</event>
<event>
 5   0  0.4314657E-05  0.1600517E+04  0.7818609E-02  0.8820231E-01
        1   -1    0    0  501    0  0.00000000000E+00  0.00000000000E+00  0.16355865834E+04  0.16355865835E+04  0.50400001928E-02 0. -1.
       -1   -1    0    0    0  501  0.00000000000E+00  0.00000000000E+00 -0.39154974484E+03  0.39154974488E+03  0.50400001928E-02 0.  1.
    10030    2    1    2    0    0  0.00000000000E+00  0.00000000000E+00  0.12440368386E+04  0.20271363283E+04  0.16005168034E+04 0.  0.
        5    1    3    3  502    0 -0.55027943801E+03 -0.51295901828E+03  0.27641701340E+03  0.80147543295E+03  0.46999998093E+01 0.  1.
       -5    1    3    3    0  502  0.55027943801E+03  0.51295901828E+03  0.96761982520E+03  0.12256608954E+04  0.46999998093E+01 0. -1.
</event>
<event>
 5   0  0.4256406E-05  0.1599249E+04  0.7818609E-02  0.8821010E-01
        1   -1    0    0  501    0  0.00000000000E+00  0.00000000000E+00  0.92427915238E+03  0.92427915240E+03  0.50400001928E-02 0. -1.
       -1   -1    0    0    0  501  0.00000000000E+00  0.00000000000E+00 -0.69178144652E+03  0.69178144653E+03  0.50400001928E-02 0.  1.
    10030    2    1    2    0    0  0.00000000000E+00  0.00000000000E+00  0.23249770587E+03  0.16160605989E+04  0.15992487850E+04 0.  0.
        3    1    3    3  502    0  0.73166066735E+03 -0.88413922451E+02  0.42975988070E+03  0.85313417414E+03  0.10100000352E+00 0. -1.
       -3    1    3    3    0  502 -0.73166066735E+03  0.88413922451E+02 -0.19726217483E+03  0.76292642479E+03  0.10100000352E+00 0.  1.
</event>
<event>
 5   0  0.8037548E-05  0.1600418E+04  0.7818609E-02  0.8820291E-01
       -2   -1    0    0    0  501  0.00000000000E+00  0.00000000000E+00  0.15772924590E+04  0.15772924590E+04  0.25500000920E-02 0.  1.
        2   -1    0    0  501    0  0.00000000000E+00  0.00000000000E+00 -0.40597055344E+03  0.40597055345E+03  0.25500000920E-02 0. -1.
    10030    2    1    2    0    0  0.00000000000E+00  0.00000000000E+00  0.11713219056E+04  0.19832630125E+04  0.16004178111E+04 0.  0.
        5    1    3    3  502    0 -0.40546469818E+03  0.14800346676E+03  0.14206437341E+04  0.14847751873E+04  0.46999998093E+01 0.  1.
       -5    1    3    3    0  502  0.40546469818E+03 -0.14800346676E+03 -0.24932182853E+03  0.49848782515E+03  0.46999998093E+01 0. -1.
</event>
<event>
 5   0  0.8694033E-05  0.1600952E+04  0.7818609E-02  0.8819963E-01
        2   -1    0    0  501    0  0.00000000000E+00  0.00000000000E+00  0.12007907798E+04  0.12007907798E+04  0.25500000920E-02 0.  1.
       -2   -1    0    0    0  501  0.00000000000E+00  0.00000000000E+00 -0.53361683834E+03  0.53361683835E+03  0.25500000920E-02 0. -1.
    10030    2    1    2    0    0  0.00000000000E+00  0.00000000000E+00  0.66717394148E+03  0.17344076182E+04  0.16009524408E+04 0.  0.
        1    1    3    3  502    0  0.71592699167E+03 -0.44149410890E+02 -0.51366555955E+02  0.71912387736E+03  0.50400001928E-02 0. -1.
       -1    1    3    3    0  502 -0.71592699167E+03  0.44149410890E+02  0.71854049743E+03  0.10152837408E+04  0.50400001928E-02 0.  1.
</event>
<event>
 5   0  0.8694033E-05  0.1593757E+04  0.7818609E-02  0.8824392E-01
       -2   -1    0    0    0  501  0.00000000000E+00  0.00000000000E+00  0.56530954926E+03  0.56530954927E+03  0.25500000920E-02 0. -1.
        2   -1    0    0  501    0  0.00000000000E+00  0.00000000000E+00 -0.11233059612E+04  0.11233059612E+04  0.25500000920E-02 0.  1.
    10030    2    1    2    0    0  0.00000000000E+00  0.00000000000E+00 -0.55799641195E+03  0.16886155105E+04  0.15937573048E+04 0.  0.
        1    1    3    3  502    0  0.60951615301E+02 -0.76849495077E+03 -0.49279004695E+03  0.91495443557E+03  0.50400001928E-02 0.  1.
       -1    1    3    3    0  502 -0.60951615301E+02  0.76849495077E+03 -0.65206365000E+02  0.77366107491E+03  0.50400001928E-02 0. -1.
</event>
<event>
 5   0  0.4211419E-05  0.1601125E+04  0.7818609E-02  0.8819857E-01
       -1   -1    0    0    0  501  0.00000000000E+00  0.00000000000E+00  0.28890974961E+03  0.28890974966E+03  0.50400001928E-02 0.  1.
        1   -1    0    0  501    0  0.00000000000E+00  0.00000000000E+00 -0.22183408973E+04  0.22183408973E+04  0.50400001928E-02 0. -1.
    10030    2    1    2    0    0  0.00000000000E+00  0.00000000000E+00 -0.19294311477E+04  0.25072506470E+04  0.16011249961E+04 0.  0.
        2    1    3    3  502    0  0.28858949534E+03  0.60188034614E+03 -0.16568435578E+04  0.17862459021E+04  0.25500000920E-02 0. -1.
       -2    1    3    3    0  502 -0.28858949534E+03 -0.60188034614E+03 -0.27258758989E+03  0.72100474483E+03  0.25500000920E-02 0.  1.
</event>
<event>
 5   0  0.3042125E-05  0.1600018E+04  0.7818609E-02  0.8820537E-01
        4   -1    0    0  501    0  0.00000000000E+00  0.00000000000E+00  0.12020788016E+04  0.12020794725E+04  0.12699999809E+01 0.  1.
       -4   -1    0    0    0  501  0.00000000000E+00  0.00000000000E+00 -0.53242152566E+03  0.53242304035E+03  0.12699999809E+01 0. -1.
    10030    2    1    2    0    0  0.00000000000E+00  0.00000000000E+00  0.66965727591E+03  0.17345025128E+04  0.16000181561E+04 0.  0.
        4    1    3    3  502    0 -0.65325492216E+03  0.39605473596E+02  0.83361300871E+03  0.10598220832E+04  0.12699999809E+01 0.  1.
       -4    1    3    3    0  502  0.65325492216E+03 -0.39605473596E+02 -0.16395573279E+03  0.67468042960E+03  0.12699999809E+01 0. -1.
</event>
<event>
 5   0  0.7901257E-05  0.1600654E+04  0.7818609E-02  0.8820146E-01
       -2   -1    0    0    0  501  0.00000000000E+00  0.00000000000E+00  0.57878948488E+03  0.57878948488E+03  0.25500000920E-02 0.  1.
        2   -1    0    0  501    0  0.00000000000E+00  0.00000000000E+00 -0.11066602907E+04  0.11066602907E+04  0.25500000920E-02 0. -1.
    10030    2    1    2    0    0  0.00000000000E+00  0.00000000000E+00 -0.52787080584E+03  0.16854497756E+04  0.16006540408E+04 0.  0.
        2    1    3    3  502    0 -0.56131559679E+03 -0.54434332519E+03 -0.44367833504E+03  0.89901908760E+03  0.25500000920E-02 0. -1.
       -2    1    3    3    0  502  0.56131559679E+03  0.54434332519E+03 -0.84192470804E+02  0.78643068800E+03  0.25500000920E-02 0.  1.
</event>
<event>
 5   0  0.4314657E-05  0.1601654E+04  0.7818609E-02  0.8819532E-01
       -1   -1    0    0    0  501  0.00000000000E+00  0.00000000000E+00  0.53294825329E+03  0.53294825331E+03  0.50400001928E-02 0. -1.
        1   -1    0    0  501    0  0.00000000000E+00  0.00000000000E+00 -0.12033518600E+04  0.12033518600E+04  0.50400001928E-02 0.  1.
    10030    2    1    2    0    0  0.00000000000E+00  0.00000000000E+00 -0.67040360672E+03  0.17363001133E+04  0.16016544845E+04 0.  0.
        5    1    3    3  502    0 -0.77939824663E+03 -0.11084542588E+03 -0.17604751186E+03  0.80669892260E+03  0.46999998093E+01 0. -1.
       -5    1    3    3    0  502  0.77939824663E+03  0.11084542588E+03 -0.49435609486E+03  0.92960119073E+03  0.46999998093E+01 0.  1.
</event>
<event>
 5   0  0.4373026E-05  0.1595272E+04  0.7818609E-02  0.8823458E-01
        1   -1    0    0  501    0  0.00000000000E+00  0.00000000000E+00  0.14394378103E+04  0.14394378103E+04  0.50400001928E-02 0. -1.
       -1   -1    0    0    0  501  0.00000000000E+00  0.00000000000E+00 -0.44199437909E+03  0.44199437912E+03  0.50400001928E-02 0.  1.
    10030    2    1    2    0    0  0.00000000000E+00  0.00000000000E+00  0.99744343122E+03  0.18814321894E+04  0.15952722918E+04 0.  0.
        4    1    3    3  502    0  0.14475872153E+03 -0.76740499849E+03  0.30725385705E+03  0.83920919010E+03  0.12699999809E+01 0. -1.
       -4    1    3    3    0  502 -0.14475872153E+03  0.76740499849E+03  0.69018957416E+03  0.10422229993E+04  0.12699999809E+01 0.  1.
</event>
<event>
 5   0  0.4256406E-05  0.1600268E+04  0.7818609E-02  0.8820384E-01
       -1   -1    0    0    0  501  0.00000000000E+00  0.00000000000E+00  0.72071922475E+03  0.72071922477E+03  0.50400001928E-02 0.  1.
        1   -1    0    0  501    0  0.00000000000E+00  0.00000000000E+00 -0.88829911652E+03  0.88829911653E+03  0.50400001928E-02 0. -1.
    10030    2    1    2    0    0  0.00000000000E+00  0.00000000000E+00 -0.16757989177E+03  0.16090183413E+04  0.16002677909E+04 0.  0.
        3    1    3    3  502    0  0.34084615110E+02 -0.50127015858E+03  0.54233560947E+03  0.73929794831E+03  0.10100000352E+00 0.  1.
       -3    1    3    3    0  502 -0.34084615110E+02  0.50127015858E+03 -0.70991550124E+03  0.86972039299E+03  0.10100000352E+00 0. -1.
</event>
<event>
 5   0  0.4314657E-05  0.1596138E+04  0.7818609E-02  0.8822924E-01
        1   -1    0    0  501    0  0.00000000000E+00  0.00000000000E+00  0.76922456869E+03  0.76922456870E+03  0.50400001928E-02 0.  1.
       -1   -1    0    0    0  501  0.00000000000E+00  0.00000000000E+00 -0.82799528301E+03  0.82799528302E+03  0.50400001928E-02 0. -1.
    10030    2    1    2    0    0  0.00000000000E+00  0.00000000000E+00 -0.58770714324E+02  0.15972198517E+04  0.15961382327E+04 0.  0.
        5    1    3    3  502    0  0.73840633449E+03 -0.15518510079E+03 -0.28949590460E+03  0.80818085792E+03  0.46999998093E+01 0. -1.
       -5    1    3    3    0  502 -0.73840633449E+03  0.15518510079E+03  0.23072519028E+03  0.78903899381E+03  0.46999998093E+01 0.  1.
</event>
<event>
 5   0  0.7901257E-05  0.1612720E+04  0.7818609E-02  0.8812772E-01
       -2   -1    0    0    0  501  0.00000000000E+00  0.00000000000E+00  0.57105745068E+03  0.57105745068E+03  0.25500000920E-02 0.  1.
        2   -1    0    0  501    0  0.00000000000E+00  0.00000000000E+00 -0.11386179725E+04  0.11386179725E+04  0.25500000920E-02 0. -1.
    10030    2    1    2    0    0  0.00000000000E+00  0.00000000000E+00 -0.56756052187E+03  0.17096754232E+04  0.16127197856E+04 0.  0.
        2    1    3    3  502    0  0.17809988567E+03  0.29131590546E+03 -0.10581985225E+04  0.11119211479E+04  0.25500000920E-02 0. -1.
       -2    1    3    3    0  502 -0.17809988567E+03 -0.29131590546E+03  0.49063800063E+03  0.59775427537E+03  0.25500000920E-02 0.  1.
</event>
<event>
 5   0  0.7901257E-05  0.1597917E+04  0.7818609E-02  0.8821829E-01
       -2   -1    0    0    0  501  0.00000000000E+00  0.00000000000E+00  0.80415017449E+03  0.80415017449E+03  0.25500000920E-02 0. -1.
        2   -1    0    0  501    0  0.00000000000E+00  0.00000000000E+00 -0.79380019860E+03  0.79380019861E+03  0.25500000920E-02 0.  1.
    10030    2    1    2    0    0  0.00000000000E+00  0.00000000000E+00  0.10349975887E+02  0.15979503731E+04  0.15979168542E+04 0.  0.
        2    1    3    3  502    0 -0.46207630418E+03 -0.36152576403E+03  0.54751392133E+03  0.80248793324E+03  0.25500000920E-02 0. -1.
       -2    1    3    3    0  502  0.46207630418E+03  0.36152576403E+03 -0.53716394544E+03  0.79546243986E+03  0.25500000920E-02 0.  1.
</event>
<event>
 5   0  0.4373026E-05  0.1603908E+04  0.7818609E-02  0.8818151E-01
        1   -1    0    0  501    0  0.00000000000E+00  0.00000000000E+00  0.10821815173E+04  0.10821815173E+04  0.50400001928E-02 0.  1.
       -1   -1    0    0    0  501  0.00000000000E+00  0.00000000000E+00 -0.59429029207E+03  0.59429029209E+03  0.50400001928E-02 0. -1.
    10030    2    1    2    0    0  0.00000000000E+00  0.00000000000E+00  0.48789122519E+03  0.16764718094E+04  0.16039076906E+04 0.  0.
        4    1    3    3  502    0  0.10755278635E+03  0.22060252101E+03 -0.55407141027E+03  0.60599489661E+03  0.12699999809E+01 0. -1.
       -4    1    3    3    0  502 -0.10755278635E+03 -0.22060252101E+03  0.10419626355E+04  0.10704769128E+04  0.12699999809E+01 0.  1.
</event>
<event>
 5   0  0.4504463E-05  0.1603830E+04  0.7818609E-02  0.8818198E-01
        1   -1    0    0  501    0  0.00000000000E+00  0.00000000000E+00  0.51763053056E+03  0.51763053059E+03  0.50400001928E-02 0. -1.
       -1   -1    0    0    0  501  0.00000000000E+00  0.00000000000E+00 -0.12423297305E+04  0.12423297305E+04  0.50400001928E-02 0.  1.
    10030    2    1    2    0    0  0.00000000000E+00  0.00000000000E+00 -0.72469919996E+03  0.17599602611E+04  0.16038301625E+04 0.  0.
        1    1    3    3  502    0 -0.46411818945E+03 -0.27494217933E+03 -0.10134655255E+04  0.11480902696E+04  0.50400001928E-02 0.  1.
       -1    1    3    3    0  502  0.46411818945E+03  0.27494217933E+03  0.28876632553E+03  0.61186999153E+03  0.50400001928E-02 0. -1.
</event>
<event>
 5   0  0.4504463E-05  0.1600122E+04  0.7818609E-02  0.8820473E-01
        1   -1    0    0  501    0  0.00000000000E+00  0.00000000000E+00  0.10321456381E+04  0.10321456381E+04  0.50400001928E-02 0. -1.
       -1   -1    0    0    0  501  0.00000000000E+00  0.00000000000E+00 -0.62016202247E+03  0.62016202250E+03  0.50400001928E-02 0.  1.
    10030    2    1    2    0    0  0.00000000000E+00  0.00000000000E+00  0.41198361566E+03  0.16523076606E+04  0.16001219034E+04 0.  0.
        1    1    3    3  502    0  0.55337296610E+03 -0.37611859719E+03  0.65894407955E+03  0.93909218864E+03  0.50400001928E-02 0. -1.
       -1    1    3    3    0  502 -0.55337296610E+03  0.37611859719E+03 -0.24696046389E+03  0.71321547201E+03  0.50400001928E-02 0.  1.
</event>
<event>
 5   0  0.4314657E-05  0.1600011E+04  0.7818609E-02  0.8820541E-01
        1   -1    0    0  501    0  0.00000000000E+00  0.00000000000E+00  0.14203421743E+04  0.14203421743E+04  0.50400001928E-02 0.  1.
       -1   -1    0    0    0  501  0.00000000000E+00  0.00000000000E+00 -0.45060162763E+03  0.45060162766E+03  0.50400001928E-02 0. -1.
    10030    2    1    2    0    0  0.00000000000E+00  0.00000000000E+00  0.96974054665E+03  0.18709438019E+04  0.16000106194E+04 0.  0.
        5    1    3    3  502    0 -0.63731008667E+03 -0.34938068131E+03  0.87577609049E+03  0.11380847322E+04  0.46999998093E+01 0. -1.
       -5    1    3    3    0  502  0.63731008667E+03  0.34938068131E+03  0.93964456155E+02  0.73285906972E+03  0.46999998093E+01 0.  1.
</event>
<event>
 5   0  0.8620155E-05  0.1603237E+04  0.7818609E-02  0.8818562E-01
        2   -1    0    0  501    0  0.00000000000E+00  0.00000000000E+00  0.13467646561E+04  0.13467646561E+04  0.25500000920E-02 0. -1.
       -2   -1    0    0    0  501  0.00000000000E+00  0.00000000000E+00 -0.47713760862E+03  0.47713760863E+03  0.25500000920E-02 0.  1.
    10030    2    1    2    0    0  0.00000000000E+00  0.00000000000E+00  0.86962704752E+03  0.18239022648E+04  0.16032368102E+04 0.  0.
        4    1    3    3  502    0 -0.58667202794E+03 -0.24252545623E+03  0.99166096323E+03  0.11774530751E+04  0.12699999809E+01 0. -1.
       -4    1    3    3    0  502  0.58667202794E+03  0.24252545623E+03 -0.12203391570E+03  0.64644918963E+03  0.12699999809E+01 0.  1.
</event>
<event>
 5   0  0.7849690E-05  0.1599236E+04  0.7818609E-02  0.8821017E-01
        2   -1    0    0  501    0  0.00000000000E+00  0.00000000000E+00  0.14143393004E+04  0.14143393004E+04  0.25500000920E-02 0. -1.
       -2   -1    0    0    0  501  0.00000000000E+00  0.00000000000E+00 -0.45207612558E+03  0.45207612559E+03  0.25500000920E-02 0.  1.
    10030    2    1    2    0    0  0.00000000000E+00  0.00000000000E+00  0.96226317482E+03  0.18664154260E+04  0.15992361066E+04 0.  0.
        3    1    3    3  502    0  0.60172999166E+03 -0.28686531200E+03 -0.34255396615E+02  0.66749092315E+03  0.10100000352E+00 0.  1.
       -3    1    3    3    0  502 -0.60172999166E+03  0.28686531200E+03  0.99651857144E+03  0.11989245028E+04  0.10100000352E+00 0. -1.
</event>
<event>
 5   0  0.8694033E-05  0.1601231E+04  0.7818609E-02  0.8819792E-01
        2   -1    0    0  501    0  0.00000000000E+00  0.00000000000E+00  0.10177507698E+04  0.10177507698E+04  0.25500000920E-02 0.  1.
       -2   -1    0    0    0  501  0.00000000000E+00  0.00000000000E+00 -0.62980532005E+03  0.62980532005E+03  0.25500000920E-02 0. -1.
    10030    2    1    2    0    0  0.00000000000E+00  0.00000000000E+00  0.38794544972E+03  0.16475560898E+04  0.16012305884E+04 0.  0.
        1    1    3    3  502    0 -0.26822753013E+03 -0.40532465749E+03  0.84857900746E+03  0.97791636546E+03  0.50400001928E-02 0.  1.
       -1    1    3    3    0  502  0.26822753013E+03  0.40532465749E+03 -0.46063355775E+03  0.66963972436E+03  0.50400001928E-02 0. -1.
</event>
<event>
 5   0  0.7849690E-05  0.1598427E+04  0.7818609E-02  0.8821515E-01
       -2   -1    0    0    0  501  0.00000000000E+00  0.00000000000E+00  0.77391931262E+03  0.77391931262E+03  0.25500000920E-02 0.  1.
        2   -1    0    0  501    0  0.00000000000E+00  0.00000000000E+00 -0.82533396487E+03  0.82533396487E+03  0.25500000920E-02 0. -1.
    10030    2    1    2    0    0  0.00000000000E+00  0.00000000000E+00 -0.51414652252E+02  0.15992532775E+04  0.15984265948E+04 0.  0.
        3    1    3    3  502    0 -0.46234822512E+03  0.36332498645E+03 -0.56725517849E+03  0.81703694823E+03  0.10100000352E+00 0. -1.
       -3    1    3    3    0  502  0.46234822512E+03 -0.36332498645E+03  0.51584052624E+03  0.78221632926E+03  0.10100000352E+00 0.  1.
</event>
<event>
 5   0  0.8037548E-05  0.1609844E+04  0.7818609E-02  0.8814523E-01
        2   -1    0    0  501    0  0.00000000000E+00  0.00000000000E+00  0.44668945189E+03  0.44668945190E+03  0.25500000920E-02 0. -1.
       -2   -1    0    0    0  501  0.00000000000E+00  0.00000000000E+00 -0.14504474795E+04  0.14504474795E+04  0.25500000920E-02 0.  1.
    10030    2    1    2    0    0  0.00000000000E+00  0.00000000000E+00 -0.10037580276E+04  0.18971369314E+04  0.16098442032E+04 0.  0.
        5    1    3    3  502    0  0.37012512552E+03  0.49989817500E+03  0.10015915097E+03  0.63003550648E+03  0.46999998093E+01 0. -1.
       -5    1    3    3    0  502 -0.37012512552E+03 -0.49989817500E+03 -0.11039171786E+04  0.12671014250E+04  0.46999998093E+01 0.  1.
</event>
<event>
 5   0  0.3042125E-05  0.1598270E+04  0.7818609E-02  0.8821612E-01
       -4   -1    0    0    0  501  0.00000000000E+00  0.00000000000E+00  0.13518617152E+04  0.13518623118E+04  0.12699999809E+01 0.  1.
        4   -1    0    0  501    0  0.00000000000E+00  0.00000000000E+00 -0.47239618209E+03  0.47239788924E+03  0.12699999809E+01 0. -1.
    10030    2    1    2    0    0  0.00000000000E+00  0.00000000000E+00  0.87946553313E+03  0.18242602010E+04  0.15982695821E+04 0.  0.
        4    1    3    3  502    0 -0.47938054018E+03 -0.62826437979E+03  0.57523235752E+03  0.97745368753E+03  0.12699999809E+01 0.  1.
       -4    1    3    3    0  502  0.47938054018E+03  0.62826437979E+03  0.30423317561E+03  0.84680651348E+03  0.12699999809E+01 0. -1.
</event>
<event>
 5   0  0.4256406E-05  0.1583905E+04  0.7818609E-02  0.8830498E-01
       -1   -1    0    0    0  501  0.00000000000E+00  0.00000000000E+00  0.45861199656E+03  0.45861199659E+03  0.50400001928E-02 0. -1.
        1   -1    0    0  501    0  0.00000000000E+00  0.00000000000E+00 -0.13675795355E+04  0.13675795355E+04  0.50400001928E-02 0.  1.
    10030    2    1    2    0    0  0.00000000000E+00  0.00000000000E+00 -0.90896753897E+03  0.18261915321E+04  0.15839045189E+04 0.  0.
        3    1    3    3  502    0  0.16568743741E+03 -0.63557550940E+03  0.55670217137E+02  0.65917200968E+03  0.10100000352E+00 0. -1.
       -3    1    3    3    0  502 -0.16568743741E+03  0.63557550940E+03 -0.96463775611E+03  0.11670195224E+04  0.10100000352E+00 0.  1.
</event>
<event>
 5   0  0.8694033E-05  0.1600395E+04  0.7818609E-02  0.8820305E-01
        2   -1    0    0  501    0  0.00000000000E+00  0.00000000000E+00  0.96913763737E+03  0.96913763738E+03  0.25500000920E-02 0. -1.
       -2   -1    0    0    0  501  0.00000000000E+00  0.00000000000E+00 -0.66070704975E+03  0.66070704975E+03  0.25500000920E-02 0.  1.
    10030    2    1    2    0    0  0.00000000000E+00  0.00000000000E+00  0.30843058763E+03  0.16298446871E+04  0.16003950377E+04 0.  0.
        1    1    3    3  502    0 -0.67454895641E+03 -0.25025269310E+03  0.51090794575E+03  0.88242259381E+03  0.50400001928E-02 0. -1.
       -1    1    3    3    0  502  0.67454895641E+03  0.25025269310E+03 -0.20247735813E+03  0.74742209332E+03  0.50400001928E-02 0.  1.
</event>
<event>
 5   0  0.4256406E-05  0.1598733E+04  0.7818609E-02  0.8821327E-01
        1   -1    0    0  501    0  0.00000000000E+00  0.00000000000E+00  0.72818866247E+03  0.72818866249E+03  0.50400001928E-02 0. -1.
       -1   -1    0    0    0  501  0.00000000000E+00  0.00000000000E+00 -0.87750215627E+03  0.87750215628E+03  0.50400001928E-02 0.  1.
    10030    2    1    2    0    0  0.00000000000E+00  0.00000000000E+00 -0.14931349380E+03  0.16056908188E+04  0.15987334006E+04 0.  0.
        3    1    3    3  502    0 -0.17020783836E+03  0.53391801044E+03 -0.64717954356E+03  0.85608441284E+03  0.10100000352E+00 0.  1.
       -3    1    3    3    0  502  0.17020783836E+03 -0.53391801044E+03  0.49786604976E+03  0.74960640593E+03  0.10100000352E+00 0. -1.
</event>
<event>
 5   0  0.4211419E-05  0.1599080E+04  0.7818609E-02  0.8821113E-01
       -1   -1    0    0    0  501  0.00000000000E+00  0.00000000000E+00  0.75503737738E+03  0.75503737740E+03  0.50400001928E-02 0.  1.
        1   -1    0    0  501    0  0.00000000000E+00  0.00000000000E+00 -0.84666590650E+03  0.84666590651E+03  0.50400001928E-02 0. -1.
    10030    2    1    2    0    0  0.00000000000E+00  0.00000000000E+00 -0.91628529116E+02  0.16017032839E+04  0.15990802426E+04 0.  0.
        2    1    3    3  502    0  0.35264445822E+03  0.53601695446E+03 -0.52366297199E+03  0.82818789995E+03  0.25500000920E-02 0. -1.
       -2    1    3    3    0  502 -0.35264445822E+03 -0.53601695446E+03  0.43203444287E+03  0.77351538396E+03  0.25500000920E-02 0.  1.
</event>
<event>
 5   0  0.4373026E-05  0.1605864E+04  0.7818609E-02  0.8816954E-01
       -1   -1    0    0    0  501  0.00000000000E+00  0.00000000000E+00  0.50888891003E+03  0.50888891005E+03  0.50400001928E-02 0.  1.
        1   -1    0    0  501    0  0.00000000000E+00  0.00000000000E+00 -0.12668773542E+04  0.12668773543E+04  0.50400001928E-02 0. -1.
    10030    2    1    2    0    0  0.00000000000E+00  0.00000000000E+00 -0.75798844422E+03  0.17757662643E+04  0.16058640490E+04 0.  0.
        4    1    3    3  502    0 -0.84391888751E+02  0.60573487981E+03  0.19630032519E+03  0.64231780769E+03  0.12699999809E+01 0.  1.
       -4    1    3    3    0  502  0.84391888751E+02 -0.60573487981E+03 -0.95428876940E+03  0.11334484566E+04  0.12699999809E+01 0. -1.
</event>
<event>
 5   0  0.8620155E-05  0.1596294E+04  0.7818609E-02  0.8822828E-01
       -2   -1    0    0    0  501  0.00000000000E+00  0.00000000000E+00  0.38582067516E+03  0.38582067517E+03  0.25500000920E-02 0. -1.
        2   -1    0    0  501    0  0.00000000000E+00  0.00000000000E+00 -0.16511271112E+04  0.16511271112E+04  0.25500000920E-02 0.  1.
    10030    2    1    2    0    0  0.00000000000E+00  0.00000000000E+00 -0.12653064361E+04  0.20369477864E+04  0.15962944300E+04 0.  0.
        4    1    3    3  502    0  0.49214023089E+03  0.60821598990E+03 -0.83404518294E+03  0.11435740804E+04  0.12699999809E+01 0. -1.
       -4    1    3    3    0  502 -0.49214023089E+03 -0.60821598990E+03 -0.43126125311E+03  0.89337370600E+03  0.12699999809E+01 0.  1.
</event>
<event>
 5   0  0.4314657E-05  0.1600682E+04  0.7818609E-02  0.8820129E-01
        1   -1    0    0  501    0  0.00000000000E+00  0.00000000000E+00  0.89464823492E+03  0.89464823494E+03  0.50400001928E-02 0. -1.
       -1   -1    0    0    0  501  0.00000000000E+00  0.00000000000E+00 -0.71597538197E+03  0.71597538199E+03  0.50400001928E-02 0.  1.
    10030    2    1    2    0    0  0.00000000000E+00  0.00000000000E+00  0.17867285295E+03  0.16106236169E+04  0.16006824941E+04 0.  0.
        5    1    3    3  502    0  0.33328492086E+03 -0.46757048915E+02 -0.64129921292E+03  0.72425950500E+03  0.46999998093E+01 0.  1.
       -5    1    3    3    0  502 -0.33328492086E+03  0.46757048915E+02  0.81997206587E+03  0.88636411192E+03  0.46999998093E+01 0. -1.
</event>
<event>
 5   0  0.4314657E-05  0.1604273E+04  0.7818609E-02  0.8817927E-01
        1   -1    0    0  501    0  0.00000000000E+00  0.00000000000E+00  0.60643037545E+03  0.60643037547E+03  0.50400001928E-02 0. -1.
       -1   -1    0    0    0  501  0.00000000000E+00  0.00000000000E+00 -0.10610002713E+04  0.10610002713E+04  0.50400001928E-02 0.  1.
    10030    2    1    2    0    0  0.00000000000E+00  0.00000000000E+00 -0.45456989586E+03  0.16674306468E+04  0.16042727859E+04 0.  0.
        5    1    3    3  502    0 -0.32354197775E+03  0.27412866346E+03 -0.93495278472E+03  0.10266375871E+04  0.46999998093E+01 0.  1.
       -5    1    3    3    0  502  0.32354197775E+03 -0.27412866346E+03  0.48038288886E+03  0.64079305974E+03  0.46999998093E+01 0. -1.
</event>
<event>
 5   0  0.4314657E-05  0.1597991E+04  0.7818609E-02  0.8821783E-01
       -1   -1    0    0    0  501  0.00000000000E+00  0.00000000000E+00  0.95963038582E+03  0.95963038583E+03  0.50400001928E-02 0. -1.
        1   -1    0    0  501    0  0.00000000000E+00  0.00000000000E+00 -0.66524956586E+03  0.66524956588E+03  0.50400001928E-02 0.  1.
    10030    2    1    2    0    0  0.00000000000E+00  0.00000000000E+00  0.29438081996E+03  0.16248799517E+04  0.15979908605E+04 0.  0.
        5    1    3    3  502    0 -0.38142846037E+02  0.41787947847E+03  0.83855299011E+03  0.93769469576E+03  0.46999998093E+01 0. -1.
       -5    1    3    3    0  502  0.38142846037E+02 -0.41787947847E+03 -0.54417217015E+03  0.68718525595E+03  0.46999998093E+01 0.  1.
</event>
<event>
 5   0  0.8037548E-05  0.1600275E+04  0.7818609E-02  0.8820379E-01
       -2   -1    0    0    0  501  0.00000000000E+00  0.00000000000E+00  0.49872484552E+03  0.49872484553E+03  0.25500000920E-02 0.  1.
        2   -1    0    0  501    0  0.00000000000E+00  0.00000000000E+00 -0.12837136442E+04  0.12837136442E+04  0.25500000920E-02 0. -1.
    10030    2    1    2    0    0  0.00000000000E+00  0.00000000000E+00 -0.78498879868E+03  0.17824384897E+04  0.16002748375E+04 0.  0.
        5    1    3    3  502    0  0.20817136465E+03 -0.49189007932E+03 -0.10560495620E+04  0.11834500135E+04  0.46999998093E+01 0. -1.
       -5    1    3    3    0  502 -0.20817136465E+03  0.49189007932E+03  0.27106076330E+03  0.59898847618E+03  0.46999998093E+01 0.  1.
</event>
<event>
 5   0  0.8694033E-05  0.1608131E+04  0.7818609E-02  0.8815568E-01
       -2   -1    0    0    0  501  0.00000000000E+00  0.00000000000E+00  0.71892291862E+03  0.71892291862E+03  0.25500000920E-02 0. -1.
        2   -1    0    0  501    0  0.00000000000E+00  0.00000000000E+00 -0.89929182339E+03  0.89929182340E+03  0.25500000920E-02 0.  1.
    10030    2    1    2    0    0  0.00000000000E+00  0.00000000000E+00 -0.18036890477E+03  0.16182147420E+04  0.16081312165E+04 0.  0.
        1    1    3    3  502    0  0.44517956749E+03 -0.90176916975E+02 -0.75782398938E+03  0.88352358348E+03  0.50400001928E-02 0.  1.
       -1    1    3    3    0  502 -0.44517956749E+03  0.90176916975E+02  0.57745508461E+03  0.73469115853E+03  0.50400001928E-02 0. -1.
</event>
<event>
 5   0  0.4211419E-05  0.1601387E+04  0.7818609E-02  0.8819696E-01
        1   -1    0    0  501    0  0.00000000000E+00  0.00000000000E+00  0.92099864931E+03  0.92099864933E+03  0.50400001928E-02 0.  1.
       -1   -1    0    0    0  501  0.00000000000E+00  0.00000000000E+00 -0.69610351715E+03  0.69610351717E+03  0.50400001928E-02 0. -1.
    10030    2    1    2    0    0  0.00000000000E+00  0.00000000000E+00  0.22489513216E+03  0.16171021665E+04  0.16013873974E+04 0.  0.
        2    1    3    3  502    0 -0.54660483583E+03  0.31084268930E+03 -0.38810858205E+03  0.73893727441E+03  0.25500000920E-02 0. -1.
       -2    1    3    3    0  502  0.54660483583E+03 -0.31084268930E+03  0.61300371421E+03  0.87816489209E+03  0.25500000920E-02 0.  1.
</event>
<event>
 5   0  0.3042125E-05  0.1595374E+04  0.7818609E-02  0.8823395E-01
       -4   -1    0    0    0  501  0.00000000000E+00  0.00000000000E+00  0.99325778113E+03  0.99325859305E+03  0.12699999809E+01 0. -1.
        4   -1    0    0  501    0  0.00000000000E+00  0.00000000000E+00 -0.64062210642E+03  0.64062336527E+03  0.12699999809E+01 0.  1.
    10030    2    1    2    0    0  0.00000000000E+00  0.00000000000E+00  0.35263567471E+03  0.16338819583E+04  0.15953740422E+04 0.  0.
        2    1    3    3  502    0  0.14004981061E+03 -0.68833645901E+03 -0.21080543200E+03  0.73338936481E+03  0.25500000920E-02 0.  1.
       -2    1    3    3    0  502 -0.14004981061E+03  0.68833645901E+03  0.56344110671E+03  0.90049259352E+03  0.25500000920E-02 0. -1.
</event>
<event>
 5   0  0.8694033E-05  0.1600247E+04  0.7818609E-02  0.8820396E-01
       -2   -1    0    0    0  501  0.00000000000E+00  0.00000000000E+00  0.28056089073E+03  0.28056089075E+03  0.25500000920E-02 0.  1.
        2   -1    0    0  501    0  0.00000000000E+00  0.00000000000E+00 -0.22818503428E+04  0.22818503428E+04  0.25500000920E-02 0. -1.
    10030    2    1    2    0    0  0.00000000000E+00  0.00000000000E+00 -0.20012894521E+04  0.25624112336E+04  0.16002474368E+04 0.  0.
        1    1    3    3  502    0  0.48351511392E+03  0.56202389243E+03 -0.14824621694E+04  0.16575137419E+04  0.50400001928E-02 0. -1.
       -1    1    3    3    0  502 -0.48351511392E+03 -0.56202389243E+03 -0.51882728272E+03  0.90489749164E+03  0.50400001928E-02 0.  1.
</event>
<event>
 5   0  0.3042125E-05  0.1598455E+04  0.7818609E-02  0.8821498E-01
        3   -1    0    0  501    0  0.00000000000E+00  0.00000000000E+00  0.59581462234E+03  0.59581463090E+03  0.10100000352E+00 0. -1.
       -3   -1    0    0    0  501  0.00000000000E+00  0.00000000000E+00 -0.10720863406E+04  0.10720863454E+04  0.10100000352E+00 0.  1.
    10030    2    1    2    0    0  0.00000000000E+00  0.00000000000E+00 -0.47627171831E+03  0.16679009763E+04  0.15984551658E+04 0.  0.
        3    1    3    3  502    0  0.78444995279E+03  0.52408994687E+02 -0.38810294161E+03  0.87677382183E+03  0.10100000352E+00 0. -1.
       -3    1    3    3    0  502 -0.78444995279E+03 -0.52408994687E+02 -0.88168776703E+02  0.79112715447E+03  0.10100000352E+00 0.  1.
</event>
<event>
 5   0  0.8694033E-05  0.1598875E+04  0.7818609E-02  0.8821240E-01
       -2   -1    0    0    0  501  0.00000000000E+00  0.00000000000E+00  0.11807258976E+04  0.11807258977E+04  0.25500000920E-02 0. -1.
        2   -1    0    0  501    0  0.00000000000E+00  0.00000000000E+00 -0.54127712308E+03  0.54127712308E+03  0.25500000920E-02 0.  1.
    10030    2    1    2    0    0  0.00000000000E+00  0.00000000000E+00  0.63944877457E+03  0.17220030207E+04  0.15988745004E+04 0.  0.
        1    1    3    3  502    0  0.43329126800E+03 -0.89594046869E+02  0.10368311667E+04  0.11272920138E+04  0.50400001928E-02 0. -1.
       -1    1    3    3    0  502 -0.43329126800E+03  0.89594046869E+02 -0.39738239212E+03  0.59471100692E+03  0.50400001928E-02 0.  1.
</event>
<event>
 5   0  0.7849690E-05  0.1599065E+04  0.7818609E-02  0.8821123E-01
        2   -1    0    0  501    0  0.00000000000E+00  0.00000000000E+00  0.79464184918E+03  0.79464184918E+03  0.25500000920E-02 0.  1.
       -2   -1    0    0    0  501  0.00000000000E+00  0.00000000000E+00 -0.80445314125E+03  0.80445314125E+03  0.25500000920E-02 0. -1.
    10030    2    1    2    0    0  0.00000000000E+00  0.00000000000E+00 -0.98112920709E+01  0.15990949904E+04  0.15990648914E+04 0.  0.
        3    1    3    3  502    0  0.37089468817E+03  0.40414333571E+03  0.57679028302E+03  0.79597848356E+03  0.10100000352E+00 0.  1.
       -3    1    3    3    0  502 -0.37089468817E+03 -0.40414333571E+03 -0.58660157509E+03  0.80311650687E+03  0.10100000352E+00 0. -1.
</event>
<event>
 5   0  0.4373026E-05  0.1600695E+04  0.7818609E-02  0.8820121E-01
       -1   -1    0    0    0  501  0.00000000000E+00  0.00000000000E+00  0.42145014009E+03  0.42145014012E+03  0.50400001928E-02 0.  1.
        1   -1    0    0  501    0  0.00000000000E+00  0.00000000000E+00 -0.15198851104E+04  0.15198851104E+04  0.50400001928E-02 0. -1.
    10030    2    1    2    0    0  0.00000000000E+00  0.00000000000E+00 -0.10984349703E+04  0.19413352505E+04  0.16006945902E+04 0.  0.
        4    1    3    3  502    0  0.21944082127E+03 -0.50875252538E+03  0.15124690133E+03  0.57433495817E+03  0.12699999809E+01 0.  1.
       -4    1    3    3    0  502 -0.21944082127E+03  0.50875252538E+03 -0.12496818716E+04  0.13670002923E+04  0.12699999809E+01 0. -1.
</event>
<event>
 5   0  0.4373026E-05  0.1595933E+04  0.7818609E-02  0.8823050E-01
       -1   -1    0    0    0  501  0.00000000000E+00  0.00000000000E+00  0.55480434988E+03  0.55480434990E+03  0.50400001928E-02 0. -1.
        1   -1    0    0  501    0  0.00000000000E+00  0.00000000000E+00 -0.11477035476E+04  0.11477035476E+04  0.50400001928E-02 0.  1.
    10030    2    1    2    0    0  0.00000000000E+00  0.00000000000E+00 -0.59289919771E+03  0.17025078975E+04  0.15959334831E+04 0.  0.
        4    1    3    3  502    0  0.23108638670E+03  0.49999437989E+03  0.31947449094E+03  0.63675808696E+03  0.12699999809E+01 0.  1.
       -4    1    3    3    0  502 -0.23108638670E+03 -0.49999437989E+03 -0.91237368865E+03  0.10657498105E+04  0.12699999809E+01 0. -1.
</event>
<event>
 5   0  0.4504463E-05  0.1601641E+04  0.7818609E-02  0.8819541E-01
       -1   -1    0    0    0  501  0.00000000000E+00  0.00000000000E+00  0.61988993640E+03  0.61988993642E+03  0.50400001928E-02 0. -1.
        1   -1    0    0  501    0  0.00000000000E+00  0.00000000000E+00 -0.10345599509E+04  0.10345599509E+04  0.50400001928E-02 0.  1.
    10030    2    1    2    0    0  0.00000000000E+00  0.00000000000E+00 -0.41467001446E+03  0.16544498873E+04  0.16016407864E+04 0.  0.
        1    1    3    3  502    0 -0.94047320874E+02 -0.65427607824E+03  0.25966793005E+03  0.71017569589E+03  0.50400001928E-02 0. -1.
       -1    1    3    3    0  502  0.94047320874E+02  0.65427607824E+03 -0.67433794451E+03  0.94427419140E+03  0.50400001928E-02 0.  1.
</event>
<event>
 5   0  0.8037548E-05  0.1603373E+04  0.7818609E-02  0.8818479E-01
       -2   -1    0    0    0  501  0.00000000000E+00  0.00000000000E+00  0.59977899425E+03  0.59977899426E+03  0.25500000920E-02 0. -1.
        2   -1    0    0  501    0  0.00000000000E+00  0.00000000000E+00 -0.10715627927E+04  0.10715627927E+04  0.25500000920E-02 0.  1.
    10030    2    1    2    0    0  0.00000000000E+00  0.00000000000E+00 -0.47178379845E+03  0.16713417870E+04  0.16033725133E+04 0.  0.
        5    1    3    3  502    0 -0.21087547219E+02 -0.51856175179E+03  0.40101506329E+03  0.65588577211E+03  0.46999998093E+01 0. -1.
       -5    1    3    3    0  502  0.21087547219E+02  0.51856175179E+03 -0.87279886174E+03  0.10154560149E+04  0.46999998093E+01 0.  1.
</event>
<event>
 5   0  0.4504463E-05  0.1592421E+04  0.7818609E-02  0.8825218E-01
       -1   -1    0    0    0  501  0.00000000000E+00  0.00000000000E+00  0.79878210813E+03  0.79878210814E+03  0.50400001928E-02 0. -1.
        1   -1    0    0  501    0  0.00000000000E+00  0.00000000000E+00 -0.79364709341E+03  0.79364709342E+03  0.50400001928E-02 0.  1.
    10030    2    1    2    0    0  0.00000000000E+00  0.00000000000E+00  0.51350147210E+01  0.15924292016E+04  0.15924209223E+04 0.  0.
        1    1    3    3  502    0 -0.57085017407E+03 -0.47425484271E+03  0.29094986828E+03  0.79714453077E+03  0.50400001928E-02 0. -1.
       -1    1    3    3    0  502  0.57085017407E+03  0.47425484271E+03 -0.28581485356E+03  0.79528467080E+03  0.50400001928E-02 0.  1.
</event>
<event>
 5   0  0.3042125E-05  0.1600833E+04  0.7818609E-02  0.8820036E-01
        3   -1    0    0  501    0  0.00000000000E+00  0.00000000000E+00  0.11673919823E+04  0.11673919867E+04  0.10100000352E+00 0. -1.
       -3   -1    0    0    0  501  0.00000000000E+00  0.00000000000E+00 -0.54880155388E+03  0.54880156317E+03  0.10100000352E+00 0.  1.
    10030    2    1    2    0    0  0.00000000000E+00  0.00000000000E+00  0.61859042842E+03  0.17161935498E+04  0.16008329652E+04 0.  0.
        5    1    3    3  502    0  0.81031611062E+02  0.58977756773E+02 -0.54203336925E+03  0.55124110983E+03  0.46999998093E+01 0.  1.
       -5    1    3    3    0  502 -0.81031611062E+02 -0.58977756773E+02  0.11606237977E+04  0.11649524400E+04  0.46999998093E+01 0. -1.
</event>
<event>
 5   0  0.8037548E-05  0.1600485E+04  0.7818609E-02  0.8820250E-01
        2   -1    0    0  501    0  0.00000000000E+00  0.00000000000E+00  0.94187791495E+03  0.94187791496E+03  0.25500000920E-02 0.  1.
       -2   -1    0    0    0  501  0.00000000000E+00  0.00000000000E+00 -0.67990535511E+03  0.67990535511E+03  0.25500000920E-02 0. -1.
    10030    2    1    2    0    0  0.00000000000E+00  0.00000000000E+00  0.26197255984E+03  0.16217832701E+04  0.16004847244E+04 0.  0.
        5    1    3    3  502    0  0.24446771407E+03 -0.73416220171E+03 -0.75706472764E+02  0.77750380170E+03  0.46999998093E+01 0. -1.
       -5    1    3    3    0  502 -0.24446771407E+03  0.73416220171E+03  0.33767903261E+03  0.84427946837E+03  0.46999998093E+01 0.  1.
</event>
<event>
 5   0  0.8694033E-05  0.1599725E+04  0.7818609E-02  0.8820717E-01
        2   -1    0    0  501    0  0.00000000000E+00  0.00000000000E+00  0.93330240120E+03  0.93330240120E+03  0.25500000920E-02 0.  1.
       -2   -1    0    0    0  501  0.00000000000E+00  0.00000000000E+00 -0.68550136683E+03  0.68550136683E+03  0.25500000920E-02 0. -1.
    10030    2    1    2    0    0  0.00000000000E+00  0.00000000000E+00  0.24780103437E+03  0.16188037680E+04  0.15997250660E+04 0.  0.
        1    1    3    3  502    0 -0.21944856373E+03  0.33506071069E+03 -0.57671260418E+03  0.70215438460E+03  0.50400001928E-02 0. -1.
       -1    1    3    3    0  502  0.21944856373E+03 -0.33506071069E+03  0.82451363855E+03  0.91664938343E+03  0.50400001928E-02 0.  1.
</event>
<event>
 5   0  0.8620155E-05  0.1602531E+04  0.7818609E-02  0.8818995E-01
       -2   -1    0    0    0  501  0.00000000000E+00  0.00000000000E+00  0.31045023831E+03  0.31045023832E+03  0.25500000920E-02 0.  1.
        2   -1    0    0  501    0  0.00000000000E+00  0.00000000000E+00 -0.20680494557E+04  0.20680494557E+04  0.25500000920E-02 0. -1.
    10030    2    1    2    0    0  0.00000000000E+00  0.00000000000E+00 -0.17575992174E+04  0.23784996940E+04  0.16025310560E+04 0.  0.
        4    1    3    3  502    0  0.48945313519E+03 -0.63405114674E+03 -0.84768043360E+03  0.11662542427E+04  0.12699999809E+01 0.  1.
       -4    1    3    3    0  502 -0.48945313519E+03  0.63405114674E+03 -0.90991878382E+03  0.12122454513E+04  0.12699999809E+01 0. -1.
</event>
<event>
 5   0  0.8037548E-05  0.1599446E+04  0.7818609E-02  0.8820889E-01
       -2   -1    0    0    0  501  0.00000000000E+00  0.00000000000E+00  0.39020933548E+03  0.39020933549E+03  0.25500000920E-02 0. -1.
        2   -1    0    0  501    0  0.00000000000E+00  0.00000000000E+00 -0.16390092994E+04  0.16390092994E+04  0.25500000920E-02 0.  1.
    10030    2    1    2    0    0  0.00000000000E+00  0.00000000000E+00 -0.12487999639E+04  0.20292186349E+04  0.15994458160E+04 0.  0.
        5    1    3    3  502    0 -0.25665465890E+03 -0.34732303359E+03  0.22953079076E+03  0.48909240180E+03  0.46999998093E+01 0. -1.
       -5    1    3    3    0  502  0.25665465890E+03  0.34732303359E+03 -0.14783307547E+04  0.15401262331E+04  0.46999998093E+01 0.  1.
</event>
<event>
 5   0  0.4373026E-05  0.1600451E+04  0.7818609E-02  0.8820271E-01
        1   -1    0    0  501    0  0.00000000000E+00  0.00000000000E+00  0.58896138690E+03  0.58896138693E+03  0.50400001928E-02 0. -1.
       -1   -1    0    0    0  501  0.00000000000E+00  0.00000000000E+00 -0.10872716846E+04  0.10872716846E+04  0.50400001928E-02 0.  1.
    10030    2    1    2    0    0  0.00000000000E+00  0.00000000000E+00 -0.49831029773E+03  0.16762330716E+04  0.16004512356E+04 0.  0.
        4    1    3    3  502    0  0.17033933590E+03 -0.12935509476E+03 -0.10567778172E+04  0.10782064726E+04  0.12699999809E+01 0.  1.
       -4    1    3    3    0  502 -0.17033933590E+03  0.12935509476E+03  0.55846751942E+03  0.59802659894E+03  0.12699999809E+01 0. -1.
</event>
<event>
 5   0  0.8694033E-05  0.1606614E+04  0.7818609E-02  0.8816495E-01
        2   -1    0    0  501    0  0.00000000000E+00  0.00000000000E+00  0.22338438200E+04  0.22338438200E+04  0.25500000920E-02 0.  1.
       -2   -1    0    0    0  501  0.00000000000E+00  0.00000000000E+00 -0.28887520069E+03  0.28887520070E+03  0.25500000920E-02 0. -1.
    10030    2    1    2    0    0  0.00000000000E+00  0.00000000000E+00  0.19449686194E+04  0.25227190207E+04  0.16066139323E+04 0.  0.
        1    1    3    3  502    0 -0.51740968889E+03 -0.89371322696E+02  0.17877460909E+02  0.52537569711E+03  0.50400001928E-02 0. -1.
       -1    1    3    3    0  502  0.51740968889E+03  0.89371322696E+02  0.19270911585E+04  0.19973433236E+04  0.50400001928E-02 0.  1.
</event>
<event>
 5   0  0.4373026E-05  0.1567348E+04  0.7818609E-02  0.8840863E-01
       -1   -1    0    0    0  501  0.00000000000E+00  0.00000000000E+00  0.43023748656E+03  0.43023748659E+03  0.50400001928E-02 0.  1.
        1   -1    0    0  501    0  0.00000000000E+00  0.00000000000E+00 -0.14274549485E+04  0.14274549485E+04  0.50400001928E-02 0. -1.
    10030    2    1    2    0    0  0.00000000000E+00  0.00000000000E+00 -0.99721746198E+03  0.18576924351E+04  0.15673476057E+04 0.  0.
        4    1    3    3  502    0  0.71490438902E+03 -0.28870873235E+03 -0.33224309221E+03  0.83954041165E+03  0.12699999809E+01 0.  1.
       -4    1    3    3    0  502 -0.71490438902E+03  0.28870873235E+03 -0.66497436976E+03  0.10181520235E+04  0.12699999809E+01 0. -1.
</event>
<event>
 5   0  0.4211419E-05  0.1598465E+04  0.7818609E-02  0.8821492E-01
        1   -1    0    0  501    0  0.00000000000E+00  0.00000000000E+00  0.77984723620E+03  0.77984723621E+03  0.50400001928E-02 0.  1.
       -1   -1    0    0    0  501  0.00000000000E+00  0.00000000000E+00 -0.81909918447E+03  0.81909918448E+03  0.50400001928E-02 0. -1.
    10030    2    1    2    0    0  0.00000000000E+00  0.00000000000E+00 -0.39251948273E+02  0.15989464207E+04  0.15984645573E+04 0.  0.
        2    1    3    3  502    0  0.10157569099E+03 -0.76072566510E+02 -0.80895673282E+03  0.81885020117E+03  0.25500000920E-02 0. -1.
       -2    1    3    3    0  502 -0.10157569099E+03  0.76072566510E+02  0.76970478454E+03  0.78009621953E+03  0.25500000920E-02 0.  1.
</event>
<event>
 5   0  0.4211419E-05  0.1595301E+04  0.7818609E-02  0.8823440E-01
       -1   -1    0    0    0  501  0.00000000000E+00  0.00000000000E+00  0.40875258012E+03  0.40875258015E+03  0.50400001928E-02 0. -1.
        1   -1    0    0  501    0  0.00000000000E+00  0.00000000000E+00 -0.15565563630E+04  0.15565563630E+04  0.50400001928E-02 0.  1.
    10030    2    1    2    0    0  0.00000000000E+00  0.00000000000E+00 -0.11478037828E+04  0.19653089431E+04  0.15953011371E+04 0.  0.
        2    1    3    3  502    0  0.56974857841E+03 -0.30335476530E+03  0.34134487308E+01  0.64548370070E+03  0.25500000920E-02 0. -1.
       -2    1    3    3    0  502 -0.56974857841E+03  0.30335476530E+03 -0.11512172316E+04  0.13198252424E+04  0.25500000920E-02 0.  1.
</event>
<event>
 5   0  0.4504463E-05  0.1608750E+04  0.7818609E-02  0.8815191E-01
       -1   -1    0    0    0  501  0.00000000000E+00  0.00000000000E+00  0.72721143122E+03  0.72721143124E+03  0.50400001928E-02 0. -1.
        1   -1    0    0  501    0  0.00000000000E+00  0.00000000000E+00 -0.88972591408E+03  0.88972591409E+03  0.50400001928E-02 0.  1.
    10030    2    1    2    0    0  0.00000000000E+00  0.00000000000E+00 -0.16251448285E+03  0.16169373453E+04  0.16087496454E+04 0.  0.
        1    1    3    3  502    0 -0.45108780280E+03  0.65839316437E+03 -0.18205268718E+03  0.81859938044E+03  0.50400001928E-02 0. -1.
       -1    1    3    3    0  502  0.45108780280E+03 -0.65839316437E+03  0.19538204326E+02  0.79833796489E+03  0.50400001928E-02 0.  1.
</event>
<event>
 5   0  0.4373026E-05  0.1600930E+04  0.7818609E-02  0.8819977E-01
       -1   -1    0    0    0  501  0.00000000000E+00  0.00000000000E+00  0.24436826843E+04  0.24436826843E+04  0.50400001928E-02 0.  1.
        1   -1    0    0  501    0  0.00000000000E+00  0.00000000000E+00 -0.26220448473E+03  0.26220448478E+03  0.50400001928E-02 0. -1.
    10030    2    1    2    0    0  0.00000000000E+00  0.00000000000E+00  0.21814781995E+04  0.27058871690E+04  0.16009304284E+04 0.  0.
        4    1    3    3  502    0  0.66787369945E+03  0.76112618725E+02  0.35614586707E+03  0.76071670198E+03  0.12699999809E+01 0. -1.
       -4    1    3    3    0  502 -0.66787369945E+03 -0.76112618725E+02  0.18253323325E+04  0.19451704671E+04  0.12699999809E+01 0.  1.
</event>
<event>
 5   0  0.8620155E-05  0.1598136E+04  0.7818609E-02  0.8821694E-01
        2   -1    0    0  501    0  0.00000000000E+00  0.00000000000E+00  0.11908970042E+04  0.11908970042E+04  0.25500000920E-02 0. -1.
       -2   -1    0    0    0  501  0.00000000000E+00  0.00000000000E+00 -0.53615887848E+03  0.53615887848E+03  0.25500000920E-02 0.  1.
    10030    2    1    2    0    0  0.00000000000E+00  0.00000000000E+00  0.65473812571E+03  0.17270558827E+04  0.15981364174E+04 0.  0.
        4    1    3    3  502    0  0.51709593285E+03 -0.38953976572E+03  0.83353163147E+03  0.10554174655E+04  0.12699999809E+01 0. -1.
       -4    1    3    3    0  502 -0.51709593285E+03  0.38953976572E+03 -0.17879350577E+03  0.67163841720E+03  0.12699999809E+01 0.  1.
</event>
<event>
 5   0  0.7901257E-05  0.1599158E+04  0.7818609E-02  0.8821065E-01
        2   -1    0    0  501    0  0.00000000000E+00  0.00000000000E+00  0.14222989178E+04  0.14222989178E+04  0.25500000920E-02 0.  1.
       -2   -1    0    0    0  501  0.00000000000E+00  0.00000000000E+00 -0.44950238201E+03  0.44950238202E+03  0.25500000920E-02 0. -1.
    10030    2    1    2    0    0  0.00000000000E+00  0.00000000000E+00  0.97279653578E+03  0.18718012998E+04  0.15991582179E+04 0.  0.
        2    1    3    3  502    0 -0.53840965037E+03 -0.60889930427E+02  0.11746376049E+04  0.12935865020E+04  0.25500000920E-02 0.  1.
       -2    1    3    3    0  502  0.53840965037E+03  0.60889930427E+02 -0.20184106913E+03  0.57821479783E+03  0.25500000920E-02 0. -1.
</event>
<event>
 5   0  0.4314657E-05  0.1606055E+04  0.7818609E-02  0.8816837E-01
       -1   -1    0    0    0  501  0.00000000000E+00  0.00000000000E+00  0.37068598071E+03  0.37068598074E+03  0.50400001928E-02 0. -1.
        1   -1    0    0  501    0  0.00000000000E+00  0.00000000000E+00 -0.17396213596E+04  0.17396213596E+04  0.50400001928E-02 0.  1.
    10030    2    1    2    0    0  0.00000000000E+00  0.00000000000E+00 -0.13689353789E+04  0.21103073403E+04  0.16060551046E+04 0.  0.
        5    1    3    3  502    0 -0.39325654277E+02 -0.62990261875E+02  0.36614672012E+03  0.37363055393E+03  0.46999998093E+01 0. -1.
       -5    1    3    3    0  502  0.39325654277E+02  0.62990261875E+02 -0.17350820990E+04  0.17366767864E+04  0.46999998093E+01 0.  1.
</event>
<event>
 5   0  0.7901257E-05  0.1600556E+04  0.7818609E-02  0.8820207E-01
       -2   -1    0    0    0  501  0.00000000000E+00  0.00000000000E+00  0.30162559051E+03  0.30162559052E+03  0.25500000920E-02 0. -1.
        2   -1    0    0  501    0  0.00000000000E+00  0.00000000000E+00 -0.21233098394E+04  0.21233098394E+04  0.25500000920E-02 0.  1.
    10030    2    1    2    0    0  0.00000000000E+00  0.00000000000E+00 -0.18216842489E+04  0.24249354299E+04  0.16005556337E+04 0.  0.
        2    1    3    3  502    0  0.58980875992E+02 -0.57612221840E+03 -0.74056465359E+02  0.58384922226E+03  0.25500000920E-02 0. -1.
       -2    1    3    3    0  502 -0.58980875992E+02  0.57612221840E+03 -0.17476277835E+04  0.18410862077E+04  0.25500000920E-02 0.  1.
</event>
<event>
 5   0  0.4314657E-05  0.1600579E+04  0.7818609E-02  0.8820193E-01
       -1   -1    0    0    0  501  0.00000000000E+00  0.00000000000E+00  0.18043801535E+04  0.18043801535E+04  0.50400001928E-02 0.  1.
        1   -1    0    0  501    0  0.00000000000E+00  0.00000000000E+00 -0.35494898990E+03  0.35494898994E+03  0.50400001928E-02 0. -1.
    10030    2    1    2    0    0  0.00000000000E+00  0.00000000000E+00  0.14494311636E+04  0.21593291435E+04  0.16005785366E+04 0.  0.
        5    1    3    3  502    0 -0.11464087671E+03 -0.78979467521E+03  0.80478698269E+03  0.11334118127E+04  0.46999998093E+01 0. -1.
       -5    1    3    3    0  502  0.11464087671E+03  0.78979467521E+03  0.64464418092E+03  0.10259173308E+04  0.46999998093E+01 0.  1.
</event>
<event>
 5   0  0.8694033E-05  0.1603511E+04  0.7818609E-02  0.8818394E-01
       -2   -1    0    0    0  501  0.00000000000E+00  0.00000000000E+00  0.56662882929E+03  0.56662882930E+03  0.25500000920E-02 0.  1.
        2   -1    0    0  501    0  0.00000000000E+00  0.00000000000E+00 -0.11344498640E+04  0.11344498640E+04  0.25500000920E-02 0. -1.
    10030    2    1    2    0    0  0.00000000000E+00  0.00000000000E+00 -0.56782103467E+03  0.17010786933E+04  0.16035111453E+04 0.  0.
        1    1    3    3  502    0 -0.17814583695E+03  0.74277723947E+03 -0.25451215209E+02  0.76426548468E+03  0.50400001928E-02 0.  1.
       -1    1    3    3    0  502  0.17814583695E+03 -0.74277723947E+03 -0.54236981946E+03  0.93681320858E+03  0.50400001928E-02 0. -1.
</event>
<event>
 5   0  0.8620155E-05  0.1603306E+04  0.7818609E-02  0.8818520E-01
        2   -1    0    0  501    0  0.00000000000E+00  0.00000000000E+00  0.71816239884E+03  0.71816239885E+03  0.25500000920E-02 0.  1.
       -2   -1    0    0    0  501  0.00000000000E+00  0.00000000000E+00 -0.89484979187E+03  0.89484979188E+03  0.25500000920E-02 0. -1.
    10030    2    1    2    0    0  0.00000000000E+00  0.00000000000E+00 -0.17668739303E+03  0.16130121907E+04  0.16033059261E+04 0.  0.
        4    1    3    3  502    0  0.92577955535E+02 -0.45644625595E+01 -0.88943956961E+03  0.89425716271E+03  0.12699999809E+01 0. -1.
       -4    1    3    3    0  502 -0.92577955535E+02  0.45644625595E+01  0.71275217658E+03  0.71875502801E+03  0.12699999809E+01 0.  1.
</event>
<event>
 5   0  0.4256406E-05  0.1600565E+04  0.7818609E-02  0.8820201E-01
       -1   -1    0    0    0  501  0.00000000000E+00  0.00000000000E+00  0.97317113848E+03  0.97317113849E+03  0.50400001928E-02 0. -1.
        1   -1    0    0  501    0  0.00000000000E+00  0.00000000000E+00 -0.65810842156E+03  0.65810842158E+03  0.50400001928E-02 0.  1.
    10030    2    1    2    0    0  0.00000000000E+00  0.00000000000E+00  0.31506271692E+03  0.16312795601E+04  0.16005650526E+04 0.  0.
        3    1    3    3  502    0 -0.49106299768E+03 -0.40242250530E+03 -0.33901950890E+03  0.71973674220E+03  0.10100000352E+00 0. -1.
       -3    1    3    3    0  502  0.49106299768E+03  0.40242250530E+03  0.65408222582E+03  0.91154281786E+03  0.10100000352E+00 0.  1.
</event>
<event>
 5   0  0.8620155E-05  0.1597326E+04  0.7818609E-02  0.8822193E-01
        2   -1    0    0  501    0  0.00000000000E+00  0.00000000000E+00  0.12579834467E+04  0.12579834467E+04  0.25500000920E-02 0.  1.
       -2   -1    0    0    0  501  0.00000000000E+00  0.00000000000E+00 -0.50705151907E+03  0.50705151908E+03  0.25500000920E-02 0. -1.
    10030    2    1    2    0    0  0.00000000000E+00  0.00000000000E+00  0.75093192763E+03  0.17650349658E+04  0.15973257872E+04 0.  0.
        4    1    3    3  502    0 -0.16166865235E+03 -0.64713670821E+03 -0.10989947173E+03  0.67601936292E+03  0.12699999809E+01 0. -1.
       -4    1    3    3    0  502  0.16166865235E+03  0.64713670821E+03  0.86083139936E+03  0.10890156029E+04  0.12699999809E+01 0.  1.
</event>
<event>
 5   0  0.8037548E-05  0.1601992E+04  0.7818609E-02  0.8819325E-01
       -2   -1    0    0    0  501  0.00000000000E+00  0.00000000000E+00  0.38157912156E+03  0.38157912157E+03  0.25500000920E-02 0.  1.
        2   -1    0    0  501    0  0.00000000000E+00  0.00000000000E+00 -0.16814195462E+04  0.16814195462E+04  0.25500000920E-02 0. -1.
    10030    2    1    2    0    0  0.00000000000E+00  0.00000000000E+00 -0.12998404247E+04  0.20629986678E+04  0.16019920018E+04 0.  0.
        5    1    3    3  502    0  0.33458590466E+03 -0.43667751667E+03 -0.13996390604E+04  0.15038771793E+04  0.46999998093E+01 0. -1.
       -5    1    3    3    0  502 -0.33458590466E+03  0.43667751667E+03  0.99798635731E+02  0.55912148846E+03  0.46999998093E+01 0.  1.
</event>
<event>
 5   0  0.8694033E-05  0.1600574E+04  0.7818609E-02  0.8820196E-01
        2   -1    0    0  501    0  0.00000000000E+00  0.00000000000E+00  0.13809040452E+04  0.13809040452E+04  0.25500000920E-02 0. -1.
       -2   -1    0    0    0  501  0.00000000000E+00  0.00000000000E+00 -0.46379684649E+03  0.46379684649E+03  0.25500000920E-02 0.  1.
    10030    2    1    2    0    0  0.00000000000E+00  0.00000000000E+00  0.91710719874E+03  0.18447008917E+04  0.16005735740E+04 0.  0.
        1    1    3    3  502    0  0.68278840264E+03 -0.36365705088E+03  0.22232116997E+03  0.80490568148E+03  0.50400001928E-02 0. -1.
       -1    1    3    3    0  502 -0.68278840264E+03  0.36365705088E+03  0.69478602877E+03  0.10397952102E+04  0.50400001928E-02 0.  1.
</event>
<event>
 5   0  0.4373026E-05  0.1645521E+04  0.7818609E-02  0.8793061E-01
       -1   -1    0    0    0  501  0.00000000000E+00  0.00000000000E+00  0.74007545708E+03  0.74007545709E+03  0.50400001928E-02 0.  1.
        1   -1    0    0  501    0  0.00000000000E+00  0.00000000000E+00 -0.91468306366E+03  0.91468306368E+03  0.50400001928E-02 0. -1.
    10030    2    1    2    0    0  0.00000000000E+00  0.00000000000E+00 -0.17460760659E+03  0.16547585208E+04  0.16455205698E+04 0.  0.
        4    1    3    3  502    0 -0.54698670621E+03 -0.92196179973E+02  0.52375734355E+03  0.76290101598E+03  0.12699999809E+01 0.  1.
       -4    1    3    3    0  502  0.54698670621E+03  0.92196179973E+02 -0.69836495013E+03  0.89185750479E+03  0.12699999809E+01 0. -1.
</event>
<event>
 5   0  0.8694033E-05  0.1566490E+04  0.7818609E-02  0.8841403E-01
        2   -1    0    0  501    0  0.00000000000E+00  0.00000000000E+00  0.61345145541E+03  0.61345145541E+03  0.25500000920E-02 0. -1.
       -2   -1    0    0    0  501  0.00000000000E+00  0.00000000000E+00 -0.10000343094E+04  0.10000343094E+04  0.25500000920E-02 0.  1.
    10030    2    1    2    0    0  0.00000000000E+00  0.00000000000E+00 -0.38658285396E+03  0.16134857648E+04  0.15664897096E+04 0.  0.
        1    1    3    3  502    0 -0.10738258039E+03 -0.24380771444E+03  0.56535108545E+03  0.62497605557E+03  0.50400001928E-02 0. -1.
       -1    1    3    3    0  502  0.10738258039E+03  0.24380771444E+03 -0.95193393941E+03  0.98850970922E+03  0.50400001928E-02 0.  1.
</event>
<event>
 5   0  0.4211419E-05  0.1600246E+04  0.7818609E-02  0.8820397E-01
        1   -1    0    0  501    0  0.00000000000E+00  0.00000000000E+00  0.87754555957E+03  0.87754555958E+03  0.50400001928E-02 0.  1.
       -1   -1    0    0    0  501  0.00000000000E+00  0.00000000000E+00 -0.72953069089E+03  0.72953069091E+03  0.50400001928E-02 0. -1.
    10030    2    1    2    0    0  0.00000000000E+00  0.00000000000E+00  0.14801486868E+03  0.16070762505E+04  0.16002455041E+04 0.  0.
        2    1    3    3  502    0 -0.52591087686E+03 -0.10634654787E+03  0.67009355770E+03  0.85843882410E+03  0.25500000920E-02 0.  1.
       -2    1    3    3    0  502  0.52591087686E+03  0.10634654787E+03 -0.52207868902E+03  0.74863742639E+03  0.25500000920E-02 0. -1.
</event>
<event>
 5   0  0.7849690E-05  0.1599276E+04  0.7818609E-02  0.8820993E-01
        2   -1    0    0  501    0  0.00000000000E+00  0.00000000000E+00  0.34470782880E+03  0.34470782881E+03  0.25500000920E-02 0.  1.
       -2   -1    0    0    0  501  0.00000000000E+00  0.00000000000E+00 -0.18549644126E+04  0.18549644126E+04  0.25500000920E-02 0. -1.
    10030    2    1    2    0    0  0.00000000000E+00  0.00000000000E+00 -0.15102565838E+04  0.21996722414E+04  0.15992757801E+04 0.  0.
        3    1    3    3  502    0 -0.74626485981E+03  0.14242641612E+03 -0.41203332692E+03  0.86427310364E+03  0.10100000352E+00 0. -1.
       -3    1    3    3    0  502  0.74626485981E+03 -0.14242641612E+03 -0.10982232569E+04  0.13353991378E+04  0.10100000352E+00 0.  1.
</event>
<event>
 5   0  0.4373026E-05  0.1614612E+04  0.7818609E-02  0.8811621E-01
       -1   -1    0    0    0  501  0.00000000000E+00  0.00000000000E+00  0.44422523152E+03  0.44422523155E+03  0.50400001928E-02 0. -1.
        1   -1    0    0  501    0  0.00000000000E+00  0.00000000000E+00 -0.14671455379E+04  0.14671455380E+04  0.50400001928E-02 0.  1.
    10030    2    1    2    0    0  0.00000000000E+00  0.00000000000E+00 -0.10229203064E+04  0.19113707695E+04  0.16146121098E+04 0.  0.
        4    1    3    3  502    0  0.72865722545E+03  0.30018435918E+03 -0.30407803819E+03  0.84469939499E+03  0.12699999809E+01 0. -1.
       -4    1    3    3    0  502 -0.72865722545E+03 -0.30018435918E+03 -0.71884226824E+03  0.10666713745E+04  0.12699999809E+01 0.  1.
</event>
<event>
 5   0  0.4373026E-05  0.1594236E+04  0.7818609E-02  0.8824097E-01
       -1   -1    0    0    0  501  0.00000000000E+00  0.00000000000E+00  0.50059001522E+03  0.50059001524E+03  0.50400001928E-02 0.  1.
        1   -1    0    0  501    0  0.00000000000E+00  0.00000000000E+00 -0.12692966828E+04  0.12692966828E+04  0.50400001928E-02 0. -1.
    10030    2    1    2    0    0  0.00000000000E+00  0.00000000000E+00 -0.76870666757E+03  0.17698866980E+04  0.15942361755E+04 0.  0.
        4    1    3    3  502    0 -0.57312969570E+03  0.31606335249E+03  0.12077414507E+03  0.66555367770E+03  0.12699999809E+01 0.  1.
       -4    1    3    3    0  502  0.57312969570E+03 -0.31606335249E+03 -0.88948081264E+03  0.11043330203E+04  0.12699999809E+01 0. -1.
</event>
<event>
 5   0  0.7849690E-05  0.1600132E+04  0.7818609E-02  0.8820467E-01
       -2   -1    0    0    0  501  0.00000000000E+00  0.00000000000E+00  0.60712861766E+03  0.60712861767E+03  0.25500000920E-02 0. -1.
        2   -1    0    0  501    0  0.00000000000E+00  0.00000000000E+00 -0.10543166539E+04  0.10543166539E+04  0.25500000920E-02 0.  1.
    10030    2    1    2    0    0  0.00000000000E+00  0.00000000000E+00 -0.44718803620E+03  0.16614452715E+04  0.16001322603E+04 0.  0.
        3    1    3    3  502    0  0.29034299646E+03  0.70368442222E+03  0.32083052095E+02  0.76190560708E+03  0.10100000352E+00 0. -1.
       -3    1    3    3    0  502 -0.29034299646E+03 -0.70368442222E+03 -0.47927108830E+03  0.89953966446E+03  0.10100000352E+00 0.  1.
</event>
<event>
 5   0  0.8620155E-05  0.1613993E+04  0.7818609E-02  0.8811998E-01
        2   -1    0    0  501    0  0.00000000000E+00  0.00000000000E+00  0.42840319121E+03  0.42840319122E+03  0.25500000920E-02 0. -1.
       -2   -1    0    0    0  501  0.00000000000E+00  0.00000000000E+00 -0.15201640144E+04  0.15201640144E+04  0.25500000920E-02 0.  1.
    10030    2    1    2    0    0  0.00000000000E+00  0.00000000000E+00 -0.10917608232E+04  0.19485672056E+04  0.16139927075E+04 0.  0.
        4    1    3    3  502    0 -0.54596096760E+02  0.70985122417E+03 -0.87152338072E+02  0.71726329696E+03  0.12699999809E+01 0. -1.
       -4    1    3    3    0  502  0.54596096760E+02 -0.70985122417E+03 -0.10046084851E+04  0.12313039087E+04  0.12699999809E+01 0.  1.
</event>
<event>
 5   0  0.4314657E-05  0.1618176E+04  0.7818609E-02  0.8809459E-01
       -1   -1    0    0    0  501  0.00000000000E+00  0.00000000000E+00  0.47504028880E+03  0.47504028882E+03  0.50400001928E-02 0. -1.
        1   -1    0    0  501    0  0.00000000000E+00  0.00000000000E+00 -0.13780376035E+04  0.13780376035E+04  0.50400001928E-02 0.  1.
    10030    2    1    2    0    0  0.00000000000E+00  0.00000000000E+00 -0.90299731468E+03  0.18530778923E+04  0.16181759869E+04 0.  0.
        5    1    3    3  502    0 -0.49237015829E+03 -0.31424311198E+03 -0.10926110551E+04  0.12389504082E+04  0.46999998093E+01 0.  1.
       -5    1    3    3    0  502  0.49237015829E+03  0.31424311198E+03  0.18961374043E+03  0.61412748413E+03  0.46999998093E+01 0. -1.
</event>
<event>
 5   0  0.8694033E-05  0.1602176E+04  0.7818609E-02  0.8819212E-01
       -2   -1    0    0    0  501  0.00000000000E+00  0.00000000000E+00  0.10831818332E+04  0.10831818332E+04  0.25500000920E-02 0.  1.
        2   -1    0    0  501    0  0.00000000000E+00  0.00000000000E+00 -0.59246032298E+03  0.59246032299E+03  0.25500000920E-02 0. -1.
    10030    2    1    2    0    0  0.00000000000E+00  0.00000000000E+00  0.49072151022E+03  0.16756421562E+04  0.16021763433E+04 0.  0.
        1    1    3    3  502    0  0.78874592098E+03  0.11893337768E+03  0.32276087641E+03  0.86048815190E+03  0.50400001928E-02 0.  1.
       -1    1    3    3    0  502 -0.78874592098E+03 -0.11893337768E+03  0.16796063380E+03  0.81515400430E+03  0.50400001928E-02 0. -1.
</event>
<event>
 5   0  0.7849690E-05  0.1597497E+04  0.7818609E-02  0.8822087E-01
        2   -1    0    0  501    0  0.00000000000E+00  0.00000000000E+00  0.10741703713E+04  0.10741703713E+04  0.25500000920E-02 0. -1.
       -2   -1    0    0    0  501  0.00000000000E+00  0.00000000000E+00 -0.59394634399E+03  0.59394634399E+03  0.25500000920E-02 0.  1.
    10030    2    1    2    0    0  0.00000000000E+00  0.00000000000E+00  0.48022402731E+03  0.16681167153E+04  0.15974974990E+04 0.  0.
        3    1    3    3  502    0  0.69239315156E+02 -0.67054955052E+02  0.10680753811E+04  0.10724157214E+04  0.10100000352E+00 0. -1.
       -3    1    3    3    0  502 -0.69239315156E+02  0.67054955052E+02 -0.58785135376E+03  0.59570099385E+03  0.10100000352E+00 0.  1.
</event>
<event>
 5   0  0.4504463E-05  0.1600110E+04  0.7818609E-02  0.8820481E-01
       -1   -1    0    0    0  501  0.00000000000E+00  0.00000000000E+00  0.53340642397E+03  0.53340642400E+03  0.50400001928E-02 0. -1.
        1   -1    0    0  501    0  0.00000000000E+00  0.00000000000E+00 -0.11999998677E+04  0.11999998678E+04  0.50400001928E-02 0.  1.
    10030    2    1    2    0    0  0.00000000000E+00  0.00000000000E+00 -0.66659344377E+03  0.17334062917E+04  0.16001095441E+04 0.  0.
        1    1    3    3  502    0  0.56046741577E+03 -0.56692206964E+03 -0.26011725161E+03  0.83856147168E+03  0.50400001928E-02 0.  1.
       -1    1    3    3    0  502 -0.56046741577E+03  0.56692206964E+03 -0.40647619215E+03  0.89484482006E+03  0.50400001928E-02 0. -1.
</event>
<event>
 5   0  0.4373026E-05  0.1593886E+04  0.7818609E-02  0.8824313E-01
        1   -1    0    0  501    0  0.00000000000E+00  0.00000000000E+00  0.69826364943E+03  0.69826364945E+03  0.50400001928E-02 0.  1.
       -1   -1    0    0    0  501  0.00000000000E+00  0.00000000000E+00 -0.90956727453E+03  0.90956727454E+03  0.50400001928E-02 0. -1.
    10030    2    1    2    0    0  0.00000000000E+00  0.00000000000E+00 -0.21130362510E+03  0.16078309240E+04  0.15938855223E+04 0.  0.
        4    1    3    3  502    0 -0.58087698025E+03  0.53515073460E+03  0.16355733356E+01  0.78981558792E+03  0.12699999809E+01 0. -1.
       -4    1    3    3    0  502  0.58087698025E+03 -0.53515073460E+03 -0.21293919843E+03  0.81801533607E+03  0.12699999809E+01 0.  1.
</event>
<event>
 5   0  0.4256406E-05  0.1601250E+04  0.7818609E-02  0.8819780E-01
       -1   -1    0    0    0  501  0.00000000000E+00  0.00000000000E+00  0.29536283906E+03  0.29536283910E+03  0.50400001928E-02 0.  1.
        1   -1    0    0  501    0  0.00000000000E+00  0.00000000000E+00 -0.21702133972E+04  0.21702133972E+04  0.50400001928E-02 0. -1.
    10030    2    1    2    0    0  0.00000000000E+00  0.00000000000E+00 -0.18748505581E+04  0.24655762363E+04  0.16012499997E+04 0.  0.
        3    1    3    3  502    0 -0.25027583764E+03  0.69805141843E+03 -0.14021401227E+04  0.15861622589E+04  0.10100000352E+00 0. -1.
       -3    1    3    3    0  502  0.25027583764E+03 -0.69805141843E+03 -0.47271043544E+03  0.87941397741E+03  0.10100000352E+00 0.  1.
</event>
<event>
 5   0  0.4314657E-05  0.1596397E+04  0.7818609E-02  0.8822765E-01
       -1   -1    0    0    0  501  0.00000000000E+00  0.00000000000E+00  0.56932327540E+03  0.56932327542E+03  0.50400001928E-02 0. -1.
        1   -1    0    0  501    0  0.00000000000E+00  0.00000000000E+00 -0.11190839207E+04  0.11190839207E+04  0.50400001928E-02 0.  1.
    10030    2    1    2    0    0  0.00000000000E+00  0.00000000000E+00 -0.54976064526E+03  0.16884071961E+04  0.15963965963E+04 0.  0.
        5    1    3    3  502    0  0.36484993072E+03  0.15060767990E+03 -0.10086241522E+04  0.10831172216E+04  0.46999998093E+01 0.  1.
       -5    1    3    3    0  502 -0.36484993072E+03 -0.15060767990E+03  0.45886350699E+03  0.60528997450E+03  0.46999998093E+01 0. -1.
</event>
<event>
 5   0  0.4256406E-05  0.1599866E+04  0.7818609E-02  0.8820630E-01
        1   -1    0    0  501    0  0.00000000000E+00  0.00000000000E+00  0.92958771629E+03  0.92958771630E+03  0.50400001928E-02 0.  1.
       -1   -1    0    0    0  501  0.00000000000E+00  0.00000000000E+00 -0.68836170916E+03  0.68836170918E+03  0.50400001928E-02 0. -1.
    10030    2    1    2    0    0  0.00000000000E+00  0.00000000000E+00  0.24122600713E+03  0.16179494255E+04  0.15998657309E+04 0.  0.
        3    1    3    3  502    0  0.18999339396E+03  0.74392325678E+03  0.34758982492E+03  0.84281551856E+03  0.10100000352E+00 0.  1.
       -3    1    3    3    0  502 -0.18999339396E+03 -0.74392325678E+03 -0.10636381779E+03  0.77513390693E+03  0.10100000352E+00 0. -1.
</event>
<event>
 5   0  0.8620155E-05  0.1602295E+04  0.7818609E-02  0.8819140E-01
       -2   -1    0    0    0  501  0.00000000000E+00  0.00000000000E+00  0.36240134659E+03  0.36240134660E+03  0.25500000920E-02 0. -1.
        2   -1    0    0  501    0  0.00000000000E+00  0.00000000000E+00 -0.17710670638E+04  0.17710670638E+04  0.25500000920E-02 0.  1.
    10030    2    1    2    0    0  0.00000000000E+00  0.00000000000E+00 -0.14086657172E+04  0.21334684104E+04  0.16022947155E+04 0.  0.
        4    1    3    3  502    0 -0.79012476359E+02 -0.52781873782E+02 -0.17635361192E+04  0.17660946051E+04  0.12699999809E+01 0.  1.
       -4    1    3    3    0  502  0.79012476359E+02  0.52781873782E+02  0.35487040204E+03  0.36737380522E+03  0.12699999809E+01 0. -1.
</event>
<event>
 5   0  0.8694033E-05  0.1600831E+04  0.7818609E-02  0.8820038E-01
       -2   -1    0    0    0  501  0.00000000000E+00  0.00000000000E+00  0.35027876691E+03  0.35027876692E+03  0.25500000920E-02 0. -1.
        2   -1    0    0  501    0  0.00000000000E+00  0.00000000000E+00 -0.18290139321E+04  0.18290139321E+04  0.25500000920E-02 0.  1.
    10030    2    1    2    0    0  0.00000000000E+00  0.00000000000E+00 -0.14787351652E+04  0.21792926990E+04  0.16008307154E+04 0.  0.
        1    1    3    3  502    0  0.14888105088E+03 -0.13404703078E+03  0.31559660169E+03  0.37381196984E+03  0.50400001928E-02 0. -1.
       -1    1    3    3    0  502 -0.14888105088E+03  0.13404703078E+03 -0.17943317669E+04  0.18054807292E+04  0.50400001928E-02 0.  1.
</event>
<event>
 5   0  0.4211419E-05  0.1600008E+04  0.7818609E-02  0.8820543E-01
       -1   -1    0    0    0  501  0.00000000000E+00  0.00000000000E+00  0.66127850182E+03  0.66127850183E+03  0.50400001928E-02 0. -1.
        1   -1    0    0  501    0  0.00000000000E+00  0.00000000000E+00 -0.96783221156E+03  0.96783221157E+03  0.50400001928E-02 0.  1.
    10030    2    1    2    0    0  0.00000000000E+00  0.00000000000E+00 -0.30655370974E+03  0.16291107134E+04  0.16000082936E+04 0.  0.
        2    1    3    3  502    0 -0.62937105710E+03  0.49237989446E+03 -0.19219174898E+03  0.82187806661E+03  0.25500000920E-02 0. -1.
       -2    1    3    3    0  502  0.62937105710E+03 -0.49237989446E+03 -0.11436196076E+03  0.80723264680E+03  0.25500000920E-02 0.  1.
</event>
<event>
 5   0  0.8037548E-05  0.1600451E+04  0.7818609E-02  0.8820271E-01
        2   -1    0    0  501    0  0.00000000000E+00  0.00000000000E+00  0.89136991754E+03  0.89136991755E+03  0.25500000920E-02 0. -1.
       -2   -1    0    0    0  501  0.00000000000E+00  0.00000000000E+00 -0.71840118037E+03  0.71840118037E+03  0.25500000920E-02 0.  1.
    10030    2    1    2    0    0  0.00000000000E+00  0.00000000000E+00  0.17296873717E+03  0.16097710979E+04  0.16004514375E+04 0.  0.
        5    1    3    3  502    0  0.29118050048E+03  0.67067771828E+03 -0.24059290233E+03  0.76974133337E+03  0.46999998093E+01 0.  1.
       -5    1    3    3    0  502 -0.29118050048E+03 -0.67067771828E+03  0.41356163950E+03  0.84002976455E+03  0.46999998093E+01 0. -1.
</event>
<event>
 5   0  0.4211419E-05  0.1591159E+04  0.7818609E-02  0.8825998E-01
        1   -1    0    0  501    0  0.00000000000E+00  0.00000000000E+00  0.49086684749E+03  0.49086684752E+03  0.50400001928E-02 0. -1.
       -1   -1    0    0    0  501  0.00000000000E+00  0.00000000000E+00 -0.12894473075E+04  0.12894473075E+04  0.50400001928E-02 0.  1.
    10030    2    1    2    0    0  0.00000000000E+00  0.00000000000E+00 -0.79858046004E+03  0.17803141551E+04  0.15911592439E+04 0.  0.
        2    1    3    3  502    0 -0.10418674454E+03  0.33271123955E+03  0.40084125439E+03  0.53124886625E+03  0.25500000920E-02 0. -1.
       -2    1    3    3    0  502  0.10418674454E+03 -0.33271123955E+03 -0.11994217144E+04  0.12490652888E+04  0.25500000920E-02 0.  1.
</event>
<event>
 5   0  0.7901257E-05  0.1597735E+04  0.7818609E-02  0.8821941E-01
       -2   -1    0    0    0  501  0.00000000000E+00  0.00000000000E+00  0.25070311280E+04  0.25070311280E+04  0.25500000920E-02 0. -1.
        2   -1    0    0  501    0  0.00000000000E+00  0.00000000000E+00 -0.25455962715E+03  0.25455962716E+03  0.25500000920E-02 0.  1.
    10030    2    1    2    0    0  0.00000000000E+00  0.00000000000E+00  0.22524715008E+04  0.27615907551E+04  0.15977345327E+04 0.  0.
        2    1    3    3  502    0  0.79082849929E+03 -0.11275659806E+03  0.11122852348E+04  0.13694167405E+04  0.25500000920E-02 0. -1.
       -2    1    3    3    0  502 -0.79082849929E+03  0.11275659806E+03  0.11401862660E+04  0.13921740146E+04  0.25500000920E-02 0.  1.
</event>
<event>
 5   0  0.7849690E-05  0.1598965E+04  0.7818609E-02  0.8821184E-01
       -2   -1    0    0    0  501  0.00000000000E+00  0.00000000000E+00  0.80156307868E+03  0.80156307868E+03  0.25500000920E-02 0.  1.
        2   -1    0    0  501    0  0.00000000000E+00  0.00000000000E+00 -0.79740728340E+03  0.79740728340E+03  0.25500000920E-02 0. -1.
    10030    2    1    2    0    0  0.00000000000E+00  0.00000000000E+00  0.41557952811E+01  0.15989703621E+04  0.15989649615E+04 0.  0.
        3    1    3    3  502    0  0.55156119755E+03 -0.24485929503E+03  0.52648065837E+03  0.80084812720E+03  0.10100000352E+00 0.  1.
       -3    1    3    3    0  502 -0.55156119755E+03  0.24485929503E+03 -0.52232486309E+03  0.79812223488E+03  0.10100000352E+00 0. -1.
</event>
<event>
 5   0  0.3042125E-05  0.1600428E+04  0.7818609E-02  0.8820285E-01
       -3   -1    0    0    0  501  0.00000000000E+00  0.00000000000E+00  0.76923545811E+03  0.76923546474E+03  0.10100000352E+00 0.  1.
        3   -1    0    0  501    0  0.00000000000E+00  0.00000000000E+00 -0.83244003401E+03  0.83244004014E+03  0.10100000352E+00 0. -1.
    10030    2    1    2    0    0  0.00000000000E+00  0.00000000000E+00 -0.63204575896E+02  0.16016755049E+04  0.16004279442E+04 0.  0.
        3    1    3    3  502    0 -0.21969594689E+03  0.58440867724E+03  0.46933017899E+03  0.78107018777E+03  0.10100000352E+00 0.  1.
       -3    1    3    3    0  502  0.21969594689E+03 -0.58440867724E+03 -0.53253475488E+03  0.82060531711E+03  0.10100000352E+00 0. -1.
</event>
<event>
 5   0  0.8694033E-05  0.1598644E+04  0.7818609E-02  0.8821381E-01
        2   -1    0    0  501    0  0.00000000000E+00  0.00000000000E+00  0.23015479351E+04  0.23015479351E+04  0.25500000920E-02 0.  1.
       -2   -1    0    0    0  501  0.00000000000E+00  0.00000000000E+00 -0.27760274425E+03  0.27760274426E+03  0.25500000920E-02 0. -1.
    10030    2    1    2    0    0  0.00000000000E+00  0.00000000000E+00  0.20239451909E+04  0.25791506794E+04  0.15986444543E+04 0.  0.
        1    1    3    3  502    0 -0.10487547138E+03  0.47109933387E+03 -0.15992875867E+02  0.48289669596E+03  0.50400001928E-02 0. -1.
       -1    1    3    3    0  502  0.10487547138E+03 -0.47109933387E+03  0.20399380668E+04  0.20962539834E+04  0.50400001928E-02 0.  1.
</event>
<event>
 5   0  0.8620155E-05  0.1601033E+04  0.7818609E-02  0.8819914E-01
        2   -1    0    0  501    0  0.00000000000E+00  0.00000000000E+00  0.68408745776E+03  0.68408745777E+03  0.25500000920E-02 0. -1.
       -2   -1    0    0    0  501  0.00000000000E+00  0.00000000000E+00 -0.93676144109E+03  0.93676144109E+03  0.25500000920E-02 0.  1.
    10030    2    1    2    0    0  0.00000000000E+00  0.00000000000E+00 -0.25267398332E+03  0.16208488989E+04  0.16010331074E+04 0.  0.
        4    1    3    3  502    0  0.30752970137E+03  0.68685615666E+03  0.14994962213E+03  0.76735415503E+03  0.12699999809E+01 0. -1.
       -4    1    3    3    0  502 -0.30752970137E+03 -0.68685615666E+03 -0.40262360545E+03  0.85349474382E+03  0.12699999809E+01 0.  1.
</event>
<event>
 5   0  0.4314657E-05  0.1600894E+04  0.7818609E-02  0.8819999E-01
       -1   -1    0    0    0  501  0.00000000000E+00  0.00000000000E+00  0.13672755546E+04  0.13672755546E+04  0.50400001928E-02 0.  1.
        1   -1    0    0  501    0  0.00000000000E+00  0.00000000000E+00 -0.46860733932E+03  0.46860733935E+03  0.50400001928E-02 0. -1.
    10030    2    1    2    0    0  0.00000000000E+00  0.00000000000E+00  0.89866821530E+03  0.18358828940E+04  0.16008939500E+04 0.  0.
        5    1    3    3  502    0 -0.15932264839E+03  0.61259125669E+03  0.10111908439E+04  0.11929714024E+04  0.46999998093E+01 0.  1.
       -5    1    3    3    0  502  0.15932264839E+03 -0.61259125669E+03 -0.11252262864E+03  0.64291149159E+03  0.46999998093E+01 0. -1.
</event>
<event>
 5   0  0.4373026E-05  0.1592069E+04  0.7818609E-02  0.8825435E-01
       -1   -1    0    0    0  501  0.00000000000E+00  0.00000000000E+00  0.65750585499E+03  0.65750585501E+03  0.50400001928E-02 0. -1.
        1   -1    0    0  501    0  0.00000000000E+00  0.00000000000E+00 -0.96374990719E+03  0.96374990720E+03  0.50400001928E-02 0.  1.
    10030    2    1    2    0    0  0.00000000000E+00  0.00000000000E+00 -0.30624405220E+03  0.16212557622E+04  0.15920693537E+04 0.  0.
        4    1    3    3  502    0 -0.15665044735E+03 -0.30383751642E+03 -0.88519818328E+03  0.94891202733E+03  0.12699999809E+01 0.  1.
       -4    1    3    3    0  502  0.15665044735E+03  0.30383751642E+03  0.57895413108E+03  0.67234373488E+03  0.12699999809E+01 0. -1.
</event>
<event>
 5   0  0.4314657E-05  0.1614851E+04  0.7818609E-02  0.8811476E-01
       -1   -1    0    0    0  501  0.00000000000E+00  0.00000000000E+00  0.85302417197E+03  0.85302417199E+03  0.50400001928E-02 0. -1.
        1   -1    0    0  501    0  0.00000000000E+00  0.00000000000E+00 -0.76426416213E+03  0.76426416215E+03  0.50400001928E-02 0.  1.
    10030    2    1    2    0    0  0.00000000000E+00  0.00000000000E+00  0.88760009839E+02  0.16172883341E+04  0.16148508341E+04 0.  0.
        5    1    3    3  502    0 -0.56372886900E+03  0.47924187244E+03 -0.27929616586E+03  0.79088017317E+03  0.46999998093E+01 0.  1.
       -5    1    3    3    0  502  0.56372886900E+03 -0.47924187244E+03  0.36805617569E+03  0.82640816097E+03  0.46999998093E+01 0. -1.
</event>
<event>
 5   0  0.7849690E-05  0.1602655E+04  0.7818609E-02  0.8818919E-01
        2   -1    0    0  501    0  0.00000000000E+00  0.00000000000E+00  0.73357787924E+03  0.73357787924E+03  0.25500000920E-02 0. -1.
       -2   -1    0    0    0  501  0.00000000000E+00  0.00000000000E+00 -0.87533416287E+03  0.87533416288E+03  0.25500000920E-02 0.  1.
    10030    2    1    2    0    0  0.00000000000E+00  0.00000000000E+00 -0.14175628364E+03  0.16089120421E+04  0.16026550207E+04 0.  0.
        3    1    3    3  502    0 -0.62537874157E+03 -0.50038012871E+03 -0.45344119973E+02  0.80220629705E+03  0.10100000352E+00 0.  1.
       -3    1    3    3    0  502  0.62537874157E+03  0.50038012871E+03 -0.96412163665E+02  0.80670574506E+03  0.10100000352E+00 0. -1.
</event>
<event>
 5   0  0.7901257E-05  0.1597461E+04  0.7818609E-02  0.8822109E-01
       -2   -1    0    0    0  501  0.00000000000E+00  0.00000000000E+00  0.57890902259E+03  0.57890902260E+03  0.25500000920E-02 0.  1.
        2   -1    0    0  501    0  0.00000000000E+00  0.00000000000E+00 -0.11020224932E+04  0.11020224932E+04  0.25500000920E-02 0. -1.
    10030    2    1    2    0    0  0.00000000000E+00  0.00000000000E+00 -0.52311347065E+03  0.16809315158E+04  0.15974614417E+04 0.  0.
        2    1    3    3  502    0  0.77378354193E+03  0.15205691978E+03 -0.12800577292E+03  0.79890409595E+03  0.25500000920E-02 0.  1.
       -2    1    3    3    0  502 -0.77378354193E+03 -0.15205691978E+03 -0.39510769773E+03  0.88202741989E+03  0.25500000920E-02 0. -1.
</event>
<event>
 5   0  0.8037548E-05  0.1600073E+04  0.7818609E-02  0.8820503E-01
        2   -1    0    0  501    0  0.00000000000E+00  0.00000000000E+00  0.13424422305E+04  0.13424422306E+04  0.25500000920E-02 0.  1.
       -2   -1    0    0    0  501  0.00000000000E+00  0.00000000000E+00 -0.47678659968E+03  0.47678659968E+03  0.25500000920E-02 0. -1.
    10030    2    1    2    0    0  0.00000000000E+00  0.00000000000E+00  0.86565563087E+03  0.18192288302E+04  0.16000730813E+04 0.  0.
        5    1    3    3  502    0 -0.43900867721E+03  0.66400245677E+03  0.52384544904E+03  0.95292393491E+03  0.46999998093E+01 0. -1.
       -5    1    3    3    0  502  0.43900867721E+03 -0.66400245677E+03  0.34181018184E+03  0.86630489532E+03  0.46999998093E+01 0.  1.
</event>
<event>
 5   0  0.4373026E-05  0.1589707E+04  0.7818609E-02  0.8826896E-01
       -1   -1    0    0    0  501  0.00000000000E+00  0.00000000000E+00  0.47653204114E+03  0.47653204116E+03  0.50400001928E-02 0.  1.
        1   -1    0    0  501    0  0.00000000000E+00  0.00000000000E+00 -0.13258130086E+04  0.13258130087E+04  0.50400001928E-02 0. -1.
    10030    2    1    2    0    0  0.00000000000E+00  0.00000000000E+00 -0.84928096751E+03  0.18023450498E+04  0.15897073683E+04 0.  0.
        4    1    3    3  502    0  0.33324799508E+03  0.49121186136E+03  0.17469615006E+03  0.61875978919E+03  0.12699999809E+01 0.  1.
       -4    1    3    3    0  502 -0.33324799508E+03 -0.49121186136E+03 -0.10239771176E+04  0.11835852606E+04  0.12699999809E+01 0. -1.
</event>
<event>
 5   0  0.4504463E-05  0.1602977E+04  0.7818609E-02  0.8818721E-01
        1   -1    0    0  501    0  0.00000000000E+00  0.00000000000E+00  0.12372665992E+04  0.12372665992E+04  0.50400001928E-02 0. -1.
       -1   -1    0    0    0  501  0.00000000000E+00  0.00000000000E+00 -0.51919619884E+03  0.51919619886E+03  0.50400001928E-02 0.  1.
    10030    2    1    2    0    0  0.00000000000E+00  0.00000000000E+00  0.71807040037E+03  0.17564627981E+04  0.16029773739E+04 0.  0.
        1    1    3    3  502    0  0.15474389864E+03  0.76297061027E+03  0.15022566047E+03  0.79286668198E+03  0.50400001928E-02 0.  1.
       -1    1    3    3    0  502 -0.15474389864E+03 -0.76297061027E+03  0.56784473990E+03  0.96359611610E+03  0.50400001928E-02 0. -1.
</event>
<event>
 5   0  0.7901257E-05  0.1600405E+04  0.7818609E-02  0.8820299E-01
       -2   -1    0    0    0  501  0.00000000000E+00  0.00000000000E+00  0.15251859063E+04  0.15251859063E+04  0.25500000920E-02 0.  1.
        2   -1    0    0  501    0  0.00000000000E+00  0.00000000000E+00 -0.41983344301E+03  0.41983344302E+03  0.25500000920E-02 0. -1.
    10030    2    1    2    0    0  0.00000000000E+00  0.00000000000E+00  0.11053524633E+04  0.19450193493E+04  0.16004050116E+04 0.  0.
        2    1    3    3  502    0 -0.35656103814E+03 -0.40161671316E+03  0.12736158635E+04  0.13822189139E+04  0.25500000920E-02 0. -1.
       -2    1    3    3    0  502  0.35656103814E+03  0.40161671316E+03 -0.16826340023E+03  0.56280043539E+03  0.25500000920E-02 0.  1.
</event>
<event>
 5   0  0.3042125E-05  0.1595045E+04  0.7818609E-02  0.8823598E-01
       -3   -1    0    0    0  501  0.00000000000E+00  0.00000000000E+00  0.12046856145E+04  0.12046856187E+04  0.10100000352E+00 0. -1.
        3   -1    0    0  501    0  0.00000000000E+00  0.00000000000E+00 -0.52797358173E+03  0.52797359139E+03  0.10100000352E+00 0.  1.
    10030    2    1    2    0    0  0.00000000000E+00  0.00000000000E+00  0.67671203278E+03  0.17326592101E+04  0.15950450662E+04 0.  0.
        1    1    3    3  502    0  0.28900359916E+03  0.50652889760E+03 -0.25258970768E+03  0.63552825656E+03  0.50400001928E-02 0.  1.
       -1    1    3    3    0  502 -0.28900359916E+03 -0.50652889760E+03  0.92930174046E+03  0.10971309536E+04  0.50400001928E-02 0. -1.
</event>
<event>
 5   0  0.4373026E-05  0.1600389E+04  0.7818609E-02  0.8820309E-01
       -1   -1    0    0    0  501  0.00000000000E+00  0.00000000000E+00  0.14853821154E+04  0.14853821154E+04  0.50400001928E-02 0.  1.
        1   -1    0    0  501    0  0.00000000000E+00  0.00000000000E+00 -0.43107497162E+03  0.43107497165E+03  0.50400001928E-02 0. -1.
    10030    2    1    2    0    0  0.00000000000E+00  0.00000000000E+00  0.10543071437E+04  0.19164570870E+04  0.16003887693E+04 0.  0.
        4    1    3    3  502    0 -0.33548107071E+03 -0.14623055768E+03  0.13792941365E+04  0.14270195699E+04  0.12699999809E+01 0.  1.
       -4    1    3    3    0  502  0.33548107071E+03  0.14623055768E+03 -0.32498699279E+03  0.48943751714E+03  0.12699999809E+01 0. -1.
</event>
<event>
 5   0  0.8620155E-05  0.1598271E+04  0.7818609E-02  0.8821611E-01
        2   -1    0    0  501    0  0.00000000000E+00  0.00000000000E+00  0.18105408156E+04  0.18105408156E+04  0.25500000920E-02 0. -1.
       -2   -1    0    0    0  501  0.00000000000E+00  0.00000000000E+00 -0.35272179395E+03  0.35272179396E+03  0.25500000920E-02 0.  1.
    10030    2    1    2    0    0  0.00000000000E+00  0.00000000000E+00  0.14578190216E+04  0.21632626096E+04  0.15982705710E+04 0.  0.
        4    1    3    3  502    0  0.54086773060E+03 -0.38341182332E+03  0.12500928675E+03  0.67466396298E+03  0.12699999809E+01 0.  1.
       -4    1    3    3    0  502 -0.54086773060E+03  0.38341182332E+03  0.13328097349E+04  0.14885986466E+04  0.12699999809E+01 0. -1.
</event>
<event>
 5   0  0.4314657E-05  0.1602167E+04  0.7818609E-02  0.8819218E-01
       -1   -1    0    0    0  501  0.00000000000E+00  0.00000000000E+00  0.42616874763E+03  0.42616874766E+03  0.50400001928E-02 0.  1.
        1   -1    0    0  501    0  0.00000000000E+00  0.00000000000E+00 -0.15058231177E+04  0.15058231177E+04  0.50400001928E-02 0. -1.
    10030    2    1    2    0    0  0.00000000000E+00  0.00000000000E+00 -0.10796543701E+04  0.19319918654E+04  0.16021669729E+04 0.  0.
        5    1    3    3  502    0  0.21910108514E+03  0.45854994746E+03  0.20687228455E+03  0.54871811702E+03  0.46999998093E+01 0.  1.
       -5    1    3    3    0  502 -0.21910108514E+03 -0.45854994746E+03 -0.12865266546E+04  0.13832737484E+04  0.46999998093E+01 0. -1.
</event>
<event>
 5   0  0.8037548E-05  0.1598470E+04  0.7818609E-02  0.8821489E-01
       -2   -1    0    0    0  501  0.00000000000E+00  0.00000000000E+00  0.59496613529E+03  0.59496613530E+03  0.25500000920E-02 0.  1.
        2   -1    0    0  501    0  0.00000000000E+00  0.00000000000E+00 -0.10736345656E+04  0.10736345656E+04  0.25500000920E-02 0. -1.
    10030    2    1    2    0    0  0.00000000000E+00  0.00000000000E+00 -0.47866843035E+03  0.16686007009E+04  0.15984695283E+04 0.  0.
        5    1    3    3  502    0 -0.78510039505E+03 -0.14285744677E+03 -0.19308178912E+03  0.82103200163E+03  0.46999998093E+01 0.  1.
       -5    1    3    3    0  502  0.78510039505E+03  0.14285744677E+03 -0.28558664123E+03  0.84756869931E+03  0.46999998093E+01 0. -1.
</event>
<event>
 5   0  0.8694033E-05  0.1603951E+04  0.7818609E-02  0.8818124E-01
        2   -1    0    0  501    0  0.00000000000E+00  0.00000000000E+00  0.33402296628E+03  0.33402296628E+03  0.25500000920E-02 0. -1.
       -2   -1    0    0    0  501  0.00000000000E+00  0.00000000000E+00 -0.19255114000E+04  0.19255114000E+04  0.25500000920E-02 0.  1.
    10030    2    1    2    0    0  0.00000000000E+00  0.00000000000E+00 -0.15914884338E+04  0.22595343663E+04  0.16039514076E+04 0.  0.
        1    1    3    3  502    0  0.41001028339E+03  0.97802209795E+02  0.16538889617E+03  0.45279928415E+03  0.50400001928E-02 0. -1.
       -1    1    3    3    0  502 -0.41001028339E+03 -0.97802209795E+02 -0.17568773299E+04  0.18067350822E+04  0.50400001928E-02 0.  1.
</event>
<event>
 5   0  0.4256406E-05  0.1600004E+04  0.7818609E-02  0.8820545E-01
       -1   -1    0    0    0  501  0.00000000000E+00  0.00000000000E+00  0.59857502215E+03  0.59857502217E+03  0.50400001928E-02 0. -1.
        1   -1    0    0  501    0  0.00000000000E+00  0.00000000000E+00 -0.10692114906E+04  0.10692114906E+04  0.50400001928E-02 0.  1.
    10030    2    1    2    0    0  0.00000000000E+00  0.00000000000E+00 -0.47063646848E+03  0.16677865128E+04  0.16000041146E+04 0.  0.
        3    1    3    3  502    0  0.33091600320E+03  0.31767606987E+03 -0.91850788855E+03  0.10266840985E+04  0.10100000352E+00 0.  1.
       -3    1    3    3    0  502 -0.33091600320E+03 -0.31767606987E+03  0.44787142007E+03  0.64110241433E+03  0.10100000352E+00 0. -1.
</event>
<event>
 5   0  0.4211419E-05  0.1600801E+04  0.7818609E-02  0.8820056E-01
       -1   -1    0    0    0  501  0.00000000000E+00  0.00000000000E+00  0.41610803728E+03  0.41610803731E+03  0.50400001928E-02 0.  1.
        1   -1    0    0  501    0  0.00000000000E+00  0.00000000000E+00 -0.15396027020E+04  0.15396027020E+04  0.50400001928E-02 0. -1.
    10030    2    1    2    0    0  0.00000000000E+00  0.00000000000E+00 -0.11234946647E+04  0.19557107393E+04  0.16008011226E+04 0.  0.
        2    1    3    3  502    0  0.15755057127E+03 -0.62957784617E+03  0.10568339177E+02  0.64907791266E+03  0.25500000920E-02 0.  1.
       -2    1    3    3    0  502 -0.15755057127E+03  0.62957784617E+03 -0.11340630039E+04  0.13066328267E+04  0.25500000920E-02 0. -1.
</event>
<event>
 5   0  0.4373026E-05  0.1600297E+04  0.7818609E-02  0.8820366E-01
        1   -1    0    0  501    0  0.00000000000E+00  0.00000000000E+00  0.24913866293E+03  0.24913866298E+03  0.50400001928E-02 0. -1.
       -1   -1    0    0    0  501  0.00000000000E+00  0.00000000000E+00 -0.25698032216E+04  0.25698032217E+04  0.50400001928E-02 0.  1.
    10030    2    1    2    0    0  0.00000000000E+00  0.00000000000E+00 -0.23206645587E+04  0.28189418846E+04  0.16002966459E+04 0.  0.
        4    1    3    3  502    0 -0.17662710833E+03  0.26000686379E+03 -0.24564928299E+04  0.24765216213E+04  0.12699999809E+01 0.  1.
       -4    1    3    3    0  502  0.17662710833E+03 -0.26000686379E+03  0.13582827114E+03  0.34242026336E+03  0.12699999809E+01 0. -1.
</event>
<event>
 5   0  0.4373026E-05  0.1603854E+04  0.7818609E-02  0.8818184E-01
       -1   -1    0    0    0  501  0.00000000000E+00  0.00000000000E+00  0.60673410015E+03  0.60673410018E+03  0.50400001928E-02 0.  1.
        1   -1    0    0  501    0  0.00000000000E+00  0.00000000000E+00 -0.10599149264E+04  0.10599149264E+04  0.50400001928E-02 0. -1.
    10030    2    1    2    0    0  0.00000000000E+00  0.00000000000E+00 -0.45318082623E+03  0.16666490266E+04  0.16038535209E+04 0.  0.
        4    1    3    3  502    0 -0.60298150154E+02  0.38488151462E+03 -0.95497304528E+03  0.10313800354E+04  0.12699999809E+01 0. -1.
       -4    1    3    3    0  502  0.60298150154E+02 -0.38488151462E+03  0.50179221905E+03  0.63526899122E+03  0.12699999809E+01 0.  1.
</event>
<event>
 5   0  0.4256406E-05  0.1607890E+04  0.7818609E-02  0.8815715E-01
       -1   -1    0    0    0  501  0.00000000000E+00  0.00000000000E+00  0.43638330420E+03  0.43638330423E+03  0.50400001928E-02 0.  1.
        1   -1    0    0  501    0  0.00000000000E+00  0.00000000000E+00 -0.14811014704E+04  0.14811014704E+04  0.50400001928E-02 0. -1.
    10030    2    1    2    0    0  0.00000000000E+00  0.00000000000E+00 -0.10447181662E+04  0.19174847746E+04  0.16078904857E+04 0.  0.
        3    1    3    3  502    0  0.55507064849E+03  0.45722220121E+03 -0.93751071240E+02  0.72522054553E+03  0.10100000352E+00 0. -1.
       -3    1    3    3    0  502 -0.55507064849E+03 -0.45722220121E+03 -0.95096709491E+03  0.11922642291E+04  0.10100000352E+00 0.  1.
</event>
<event>
 5   0  0.8037548E-05  0.1601382E+04  0.7818609E-02  0.8819700E-01
        2   -1    0    0  501    0  0.00000000000E+00  0.00000000000E+00  0.82604299327E+03  0.82604299327E+03  0.25500000920E-02 0.  1.
       -2   -1    0    0    0  501  0.00000000000E+00  0.00000000000E+00 -0.77611698222E+03  0.77611698222E+03  0.25500000920E-02 0. -1.
    10030    2    1    2    0    0  0.00000000000E+00  0.00000000000E+00  0.49926011046E+02  0.16021599755E+04  0.16013818971E+04 0.  0.
        5    1    3    3  502    0 -0.20926788232E+03 -0.40882324156E+03  0.68114325785E+03  0.82152767276E+03  0.46999998093E+01 0.  1.
       -5    1    3    3    0  502  0.20926788232E+03  0.40882324156E+03 -0.63121724680E+03  0.78063230273E+03  0.46999998093E+01 0. -1.
</event>
<event>
 5   0  0.7901257E-05  0.1601323E+04  0.7818609E-02  0.8819736E-01
       -2   -1    0    0    0  501  0.00000000000E+00  0.00000000000E+00  0.49748091054E+03  0.49748091055E+03  0.25500000920E-02 0. -1.
        2   -1    0    0  501    0  0.00000000000E+00  0.00000000000E+00 -0.12886100921E+04  0.12886100921E+04  0.25500000920E-02 0.  1.
    10030    2    1    2    0    0  0.00000000000E+00  0.00000000000E+00 -0.79112918151E+03  0.17860910026E+04  0.16013231054E+04 0.  0.
        2    1    3    3  502    0  0.34361967456E+03  0.39971852149E+03 -0.10677719133E+04  0.11907922724E+04  0.25500000920E-02 0.  1.
       -2    1    3    3    0  502 -0.34361967456E+03 -0.39971852149E+03  0.27664273176E+03  0.59529873023E+03  0.25500000920E-02 0. -1.
</event>
<event>
 5   0  0.4211419E-05  0.1600324E+04  0.7818609E-02  0.8820349E-01
        1   -1    0    0  501    0  0.00000000000E+00  0.00000000000E+00  0.10762391776E+04  0.10762391776E+04  0.50400001928E-02 0.  1.
       -1   -1    0    0    0  501  0.00000000000E+00  0.00000000000E+00 -0.59490436404E+03  0.59490436406E+03  0.50400001928E-02 0. -1.
    10030    2    1    2    0    0  0.00000000000E+00  0.00000000000E+00  0.48133481352E+03  0.16711435416E+04  0.16003241965E+04 0.  0.
        2    1    3    3  502    0  0.55693281250E+03 -0.27072468774E+03  0.76984041759E+03  0.98798799728E+03  0.25500000920E-02 0.  1.
       -2    1    3    3    0  502 -0.55693281250E+03  0.27072468774E+03 -0.28850560407E+03  0.68315554436E+03  0.25500000920E-02 0. -1.
</event>
<event>
 5   0  0.4504463E-05  0.1601175E+04  0.7818609E-02  0.8819826E-01
        1   -1    0    0  501    0  0.00000000000E+00  0.00000000000E+00  0.79857097504E+03  0.79857097505E+03  0.50400001928E-02 0.  1.
       -1   -1    0    0    0  501  0.00000000000E+00  0.00000000000E+00 -0.80260928760E+03  0.80260928762E+03  0.50400001928E-02 0. -1.
    10030    2    1    2    0    0  0.00000000000E+00  0.00000000000E+00 -0.40383125637E+01  0.16011802627E+04  0.16011751702E+04 0.  0.
        1    1    3    3  502    0 -0.77307847477E+03  0.90956312271E+01 -0.20988376980E+03  0.80111438354E+03  0.50400001928E-02 0.  1.
       -1    1    3    3    0  502  0.77307847477E+03 -0.90956312271E+01  0.20584545723E+03  0.80006587913E+03  0.50400001928E-02 0. -1.
</event>
<event>
 5   0  0.4256406E-05  0.1594516E+04  0.7818609E-02  0.8823924E-01
        1   -1    0    0  501    0  0.00000000000E+00  0.00000000000E+00  0.12309540821E+04  0.12309540822E+04  0.50400001928E-02 0. -1.
       -1   -1    0    0    0  501  0.00000000000E+00  0.00000000000E+00 -0.51636402037E+03  0.51636402039E+03  0.50400001928E-02 0.  1.
    10030    2    1    2    0    0  0.00000000000E+00  0.00000000000E+00  0.71459006178E+03  0.17473181025E+04  0.15945161006E+04 0.  0.
        3    1    3    3  502    0 -0.52867016714E+03 -0.24707337564E+03 -0.23797655810E+03  0.63021444841E+03  0.10100000352E+00 0.  1.
       -3    1    3    3    0  502  0.52867016714E+03  0.24707337564E+03  0.95256661988E+03  0.11171036541E+04  0.10100000352E+00 0. -1.
</event>
<event>
 5   0  0.4504463E-05  0.1589151E+04  0.7818609E-02  0.8827241E-01
       -1   -1    0    0    0  501  0.00000000000E+00  0.00000000000E+00  0.13266108610E+04  0.13266108610E+04  0.50400001928E-02 0. -1.
        1   -1    0    0  501    0  0.00000000000E+00  0.00000000000E+00 -0.47591243627E+03  0.47591243630E+03  0.50400001928E-02 0.  1.
    10030    2    1    2    0    0  0.00000000000E+00  0.00000000000E+00  0.85069842471E+03  0.18025232973E+04  0.15891514803E+04 0.  0.
        1    1    3    3  502    0  0.77721443967E+03  0.15994461190E+02  0.23885786519E+03  0.81324731036E+03  0.50400001928E-02 0. -1.
       -1    1    3    3    0  502 -0.77721443967E+03 -0.15994461190E+02  0.61184055952E+03  0.98927598693E+03  0.50400001928E-02 0.  1.
</event>
<event>
 5   0  0.4373026E-05  0.1600398E+04  0.7818609E-02  0.8820304E-01
        1   -1    0    0  501    0  0.00000000000E+00  0.00000000000E+00  0.51972183293E+03  0.51972183296E+03  0.50400001928E-02 0.  1.
       -1   -1    0    0    0  501  0.00000000000E+00  0.00000000000E+00 -0.12320399290E+04  0.12320399290E+04  0.50400001928E-02 0. -1.
    10030    2    1    2    0    0  0.00000000000E+00  0.00000000000E+00 -0.71231809606E+03  0.17517617620E+04  0.16003975133E+04 0.  0.
        4    1    3    3  502    0  0.33757624832E+03  0.69145056187E+02  0.43434968362E+03  0.55443667157E+03  0.12699999809E+01 0.  1.
       -4    1    3    3    0  502 -0.33757624832E+03 -0.69145056187E+02 -0.11466677797E+04  0.11973250904E+04  0.12699999809E+01 0. -1.
</event>
<event>
 5   0  0.4373026E-05  0.1620021E+04  0.7818609E-02  0.8808342E-01
       -1   -1    0    0    0  501  0.00000000000E+00  0.00000000000E+00  0.63375565214E+03  0.63375565216E+03  0.50400001928E-02 0. -1.
        1   -1    0    0  501    0  0.00000000000E+00  0.00000000000E+00 -0.10352839007E+04  0.10352839007E+04  0.50400001928E-02 0.  1.
    10030    2    1    2    0    0  0.00000000000E+00  0.00000000000E+00 -0.40152824852E+03  0.16690395528E+04  0.16200210167E+04 0.  0.
        4    1    3    3  502    0  0.37221272261E+03  0.56785276239E+03 -0.65584941714E+03  0.94400166393E+03  0.12699999809E+01 0.  1.
       -4    1    3    3    0  502 -0.37221272261E+03 -0.56785276239E+03  0.25432116863E+03  0.72503788891E+03  0.12699999809E+01 0. -1.
</event>
<event>
 5   0  0.4256406E-05  0.1598781E+04  0.7818609E-02  0.8821297E-01
        1   -1    0    0  501    0  0.00000000000E+00  0.00000000000E+00  0.10654785740E+04  0.10654785740E+04  0.50400001928E-02 0.  1.
       -1   -1    0    0    0  501  0.00000000000E+00  0.00000000000E+00 -0.59975384112E+03  0.59975384114E+03  0.50400001928E-02 0. -1.
    10030    2    1    2    0    0  0.00000000000E+00  0.00000000000E+00  0.46572473292E+03  0.16652324152E+04  0.15987806196E+04 0.  0.
        3    1    3    3  502    0 -0.69260698349E+03  0.31607160208E+03  0.48675450695E+03  0.90362362268E+03  0.10100000352E+00 0. -1.
       -3    1    3    3    0  502  0.69260698349E+03 -0.31607160208E+03 -0.21029774033E+02  0.76160879250E+03  0.10100000352E+00 0.  1.
</event>
<event>
 5   0  0.7901257E-05  0.1602676E+04  0.7818609E-02  0.8818906E-01
       -2   -1    0    0    0  501  0.00000000000E+00  0.00000000000E+00  0.80845950252E+03  0.80845950252E+03  0.25500000920E-02 0. -1.
        2   -1    0    0  501    0  0.00000000000E+00  0.00000000000E+00 -0.79427913681E+03  0.79427913681E+03  0.25500000920E-02 0.  1.
    10030    2    1    2    0    0  0.00000000000E+00  0.00000000000E+00  0.14180365708E+02  0.16027386393E+04  0.16026759071E+04 0.  0.
        2    1    3    3  502    0  0.30764308659E+03 -0.68938162374E+03 -0.26171621623E+03  0.79899103231E+03  0.25500000920E-02 0.  1.
       -2    1    3    3    0  502 -0.30764308659E+03  0.68938162374E+03  0.27589658194E+03  0.80374760702E+03  0.25500000920E-02 0. -1.
</event>
<event>
 5   0  0.4314657E-05  0.1600764E+04  0.7818609E-02  0.8820079E-01
        1   -1    0    0  501    0  0.00000000000E+00  0.00000000000E+00  0.11904373605E+04  0.11904373605E+04  0.50400001928E-02 0.  1.
       -1   -1    0    0    0  501  0.00000000000E+00  0.00000000000E+00 -0.53813089115E+03  0.53813089117E+03  0.50400001928E-02 0. -1.
    10030    2    1    2    0    0  0.00000000000E+00  0.00000000000E+00  0.65230646931E+03  0.17285682516E+04  0.16007637148E+04 0.  0.
        5    1    3    3  502    0 -0.29153072708E+03  0.35891348993E+03 -0.37928876863E+03  0.59807283678E+03  0.46999998093E+01 0. -1.
       -5    1    3    3    0  502  0.29153072708E+03 -0.35891348993E+03  0.10315952379E+04  0.11304954149E+04  0.46999998093E+01 0.  1.
</event>
<event>
 5   0  0.8694033E-05  0.1601198E+04  0.7818609E-02  0.8819813E-01
       -2   -1    0    0    0  501  0.00000000000E+00  0.00000000000E+00  0.65641504903E+03  0.65641504903E+03  0.25500000920E-02 0.  1.
        2   -1    0    0  501    0  0.00000000000E+00  0.00000000000E+00 -0.97645304877E+03  0.97645304878E+03  0.25500000920E-02 0. -1.
    10030    2    1    2    0    0  0.00000000000E+00  0.00000000000E+00 -0.32003799974E+03  0.16328680978E+04  0.16011976466E+04 0.  0.
        1    1    3    3  502    0  0.22507027811E+03  0.23320179741E+03 -0.90656340309E+03  0.96275485574E+03  0.50400001928E-02 0. -1.
       -1    1    3    3    0  502 -0.22507027811E+03 -0.23320179741E+03  0.58652540335E+03  0.67011324207E+03  0.50400001928E-02 0.  1.
</event>
<event>
 5   0  0.4256406E-05  0.1597196E+04  0.7818609E-02  0.8822272E-01
       -1   -1    0    0    0  501  0.00000000000E+00  0.00000000000E+00  0.42068387509E+03  0.42068387512E+03  0.50400001928E-02 0.  1.
        1   -1    0    0  501    0  0.00000000000E+00  0.00000000000E+00 -0.15160054802E+04  0.15160054802E+04  0.50400001928E-02 0. -1.
    10030    2    1    2    0    0  0.00000000000E+00  0.00000000000E+00 -0.10953216051E+04  0.19366893554E+04  0.15971963688E+04 0.  0.
        3    1    3    3  502    0  0.12557040048E+03  0.74035655714E+03 -0.21811484895E+03  0.78196537948E+03  0.10100000352E+00 0.  1.
       -3    1    3    3    0  502 -0.12557040048E+03 -0.74035655714E+03 -0.87720675618E+03  0.11547239759E+04  0.10100000352E+00 0. -1.
</event>
<event>
 5   0  0.8694033E-05  0.1600034E+04  0.7818609E-02  0.8820527E-01
        2   -1    0    0  501    0  0.00000000000E+00  0.00000000000E+00  0.13496221704E+04  0.13496221704E+04  0.25500000920E-02 0. -1.
       -2   -1    0    0    0  501  0.00000000000E+00  0.00000000000E+00 -0.47422696297E+03  0.47422696297E+03  0.25500000920E-02 0.  1.
    10030    2    1    2    0    0  0.00000000000E+00  0.00000000000E+00  0.87539520739E+03  0.18238491333E+04  0.16000340284E+04 0.  0.
        1    1    3    3  502    0 -0.75636111302E+03 -0.37119753612E+02  0.73179412079E+03  0.10530824491E+04  0.50400001928E-02 0.  1.
       -1    1    3    3    0  502  0.75636111302E+03  0.37119753612E+02  0.14360108660E+03  0.77076668421E+03  0.50400001928E-02 0. -1.
</event>
<event>
 5   0  0.4504463E-05  0.1600333E+04  0.7818609E-02  0.8820343E-01
       -1   -1    0    0    0  501  0.00000000000E+00  0.00000000000E+00  0.45009388727E+03  0.45009388730E+03  0.50400001928E-02 0. -1.
        1   -1    0    0  501    0  0.00000000000E+00  0.00000000000E+00 -0.14225174761E+04  0.14225174761E+04  0.50400001928E-02 0.  1.
    10030    2    1    2    0    0  0.00000000000E+00  0.00000000000E+00 -0.97242358878E+03  0.18726113634E+04  0.16003329910E+04 0.  0.
        1    1    3    3  502    0  0.67559913549E+03 -0.24677705234E+03 -0.75939592054E+02  0.72325647394E+03  0.50400001928E-02 0. -1.
       -1    1    3    3    0  502 -0.67559913549E+03  0.24677705234E+03 -0.89648399673E+03  0.11493548894E+04  0.50400001928E-02 0.  1.
</event>
<event>
 5   0  0.8037548E-05  0.1599031E+04  0.7818609E-02  0.8821143E-01
        2   -1    0    0  501    0  0.00000000000E+00  0.00000000000E+00  0.80257844819E+03  0.80257844820E+03  0.25500000920E-02 0. -1.
       -2   -1    0    0    0  501  0.00000000000E+00  0.00000000000E+00 -0.79646460346E+03  0.79646460346E+03  0.25500000920E-02 0.  1.
    10030    2    1    2    0    0  0.00000000000E+00  0.00000000000E+00  0.61138447386E+01  0.15990430517E+04  0.15990313637E+04 0.  0.
        5    1    3    3  502    0  0.76444127877E+03  0.36777494443E+02  0.23431644006E+03  0.80040573266E+03  0.46999998093E+01 0. -1.
       -5    1    3    3    0  502 -0.76444127877E+03 -0.36777494443E+02 -0.22820259533E+03  0.79863731900E+03  0.46999998093E+01 0.  1.
</event>
<event>
 5   0  0.4211419E-05  0.1590420E+04  0.7818609E-02  0.8826455E-01
       -1   -1    0    0    0  501  0.00000000000E+00  0.00000000000E+00  0.53084851095E+03  0.53084851097E+03  0.50400001928E-02 0.  1.
        1   -1    0    0  501    0  0.00000000000E+00  0.00000000000E+00 -0.11912236790E+04  0.11912236790E+04  0.50400001928E-02 0. -1.
    10030    2    1    2    0    0  0.00000000000E+00  0.00000000000E+00 -0.66037516804E+03  0.17220721900E+04  0.15904204680E+04 0.  0.
        2    1    3    3  502    0 -0.57119767751E+03 -0.39241636488E+03 -0.75247365227E+03  0.10229731119E+04  0.25500000920E-02 0. -1.
       -2    1    3    3    0  502  0.57119767751E+03  0.39241636488E+03  0.92098484228E+02  0.69909907812E+03  0.25500000920E-02 0.  1.
</event>
<event>
 5   0  0.7849690E-05  0.1602983E+04  0.7818609E-02  0.8818718E-01
       -2   -1    0    0    0  501  0.00000000000E+00  0.00000000000E+00  0.13615877367E+04  0.13615877367E+04  0.25500000920E-02 0.  1.
        2   -1    0    0  501    0  0.00000000000E+00  0.00000000000E+00 -0.47179352348E+03  0.47179352349E+03  0.25500000920E-02 0. -1.
    10030    2    1    2    0    0  0.00000000000E+00  0.00000000000E+00  0.88979421321E+03  0.18333812602E+04  0.16029825649E+04 0.  0.
        3    1    3    3  502    0  0.19493788745E+03 -0.45497397582E+03 -0.27609475386E+03  0.56677193115E+03  0.10100000352E+00 0. -1.
       -3    1    3    3    0  502 -0.19493788745E+03  0.45497397582E+03  0.11658889671E+04  0.12666093290E+04  0.10100000352E+00 0.  1.
</event>
<event>
 5   0  0.7901257E-05  0.1602158E+04  0.7818609E-02  0.8819223E-01
       -2   -1    0    0    0  501  0.00000000000E+00  0.00000000000E+00  0.42528748145E+03  0.42528748145E+03  0.25500000920E-02 0.  1.
        2   -1    0    0  501    0  0.00000000000E+00  0.00000000000E+00 -0.15089268853E+04  0.15089268853E+04  0.25500000920E-02 0. -1.
    10030    2    1    2    0    0  0.00000000000E+00  0.00000000000E+00 -0.10836394038E+04  0.19342143667E+04  0.16021581879E+04 0.  0.
        2    1    3    3  502    0  0.19128342236E+03 -0.95741340380E+02  0.39017217192E+03  0.44496075745E+03  0.25500000920E-02 0.  1.
       -2    1    3    3    0  502 -0.19128342236E+03  0.95741340380E+02 -0.14738115757E+04  0.14892536093E+04  0.25500000920E-02 0. -1.
</event>
<event>
 5   0  0.4211419E-05  0.1600044E+04  0.7818609E-02  0.8820521E-01
       -1   -1    0    0    0  501  0.00000000000E+00  0.00000000000E+00  0.45691149971E+03  0.45691149974E+03  0.50400001928E-02 0.  1.
        1   -1    0    0  501    0  0.00000000000E+00  0.00000000000E+00 -0.14007858341E+04  0.14007858341E+04  0.50400001928E-02 0. -1.
    10030    2    1    2    0    0  0.00000000000E+00  0.00000000000E+00 -0.94387433442E+03  0.18576973339E+04  0.16000439447E+04 0.  0.
        2    1    3    3  502    0  0.64256676330E+03  0.19009325854E+03  0.35483840981E+02  0.67103397472E+03  0.25500000920E-02 0.  1.
       -2    1    3    3    0  502 -0.64256676330E+03 -0.19009325854E+03 -0.97935817540E+03  0.11866633592E+04  0.25500000920E-02 0. -1.
</event>
<event>
 5   0  0.8037548E-05  0.1599916E+04  0.7818609E-02  0.8820600E-01
       -2   -1    0    0    0  501  0.00000000000E+00  0.00000000000E+00  0.50728974789E+03  0.50728974790E+03  0.25500000920E-02 0.  1.
        2   -1    0    0  501    0  0.00000000000E+00  0.00000000000E+00 -0.12614733058E+04  0.12614733058E+04  0.25500000920E-02 0. -1.
    10030    2    1    2    0    0  0.00000000000E+00  0.00000000000E+00 -0.75418355787E+03  0.17687630537E+04  0.15999155918E+04 0.  0.
        5    1    3    3  502    0  0.61590221759E+03 -0.39408486457E+03 -0.73578977314E+03  0.10373269024E+04  0.46999998093E+01 0. -1.
       -5    1    3    3    0  502 -0.61590221759E+03  0.39408486457E+03 -0.18393784725E+02  0.73143615130E+03  0.46999998093E+01 0.  1.
</event>
<event>
 5   0  0.8037548E-05  0.1599118E+04  0.7818609E-02  0.8821090E-01
       -2   -1    0    0    0  501  0.00000000000E+00  0.00000000000E+00  0.55763887764E+03  0.55763887764E+03  0.25500000920E-02 0.  1.
        2   -1    0    0  501    0  0.00000000000E+00  0.00000000000E+00 -0.11464305152E+04  0.11464305152E+04  0.25500000920E-02 0. -1.
    10030    2    1    2    0    0  0.00000000000E+00  0.00000000000E+00 -0.58879163758E+03  0.17040693929E+04  0.15991175389E+04 0.  0.
        5    1    3    3  502    0  0.13323438655E+03  0.58842684835E+03  0.26470476071E+03  0.65885374550E+03  0.46999998093E+01 0.  1.
       -5    1    3    3    0  502 -0.13323438655E+03 -0.58842684835E+03 -0.85349639829E+03  0.10452156474E+04  0.46999998093E+01 0. -1.
</event>
<event>
 5   0  0.7849690E-05  0.1611167E+04  0.7818609E-02  0.8813717E-01
       -2   -1    0    0    0  501  0.00000000000E+00  0.00000000000E+00  0.52703904775E+03  0.52703904776E+03  0.25500000920E-02 0. -1.
        2   -1    0    0  501    0  0.00000000000E+00  0.00000000000E+00 -0.12313406150E+04  0.12313406150E+04  0.25500000920E-02 0.  1.
    10030    2    1    2    0    0  0.00000000000E+00  0.00000000000E+00 -0.70430156721E+03  0.17583796627E+04  0.16111667638E+04 0.  0.
        3    1    3    3  502    0  0.55158434706E+03 -0.32452934862E+02  0.28764371097E+03  0.62292648006E+03  0.10100000352E+00 0. -1.
       -3    1    3    3    0  502 -0.55158434706E+03  0.32452934862E+02 -0.99194527818E+03  0.11354531827E+04  0.10100000352E+00 0.  1.
</event>
<event>
 5   0  0.8694033E-05  0.1600478E+04  0.7818609E-02  0.8820254E-01
        2   -1    0    0  501    0  0.00000000000E+00  0.00000000000E+00  0.84105187306E+03  0.84105187307E+03  0.25500000920E-02 0. -1.
       -2   -1    0    0    0  501  0.00000000000E+00  0.00000000000E+00 -0.76140679895E+03  0.76140679896E+03  0.25500000920E-02 0.  1.
    10030    2    1    2    0    0  0.00000000000E+00  0.00000000000E+00  0.79645074111E+02  0.16024586720E+04  0.16004781966E+04 0.  0.
        1    1    3    3  502    0  0.92880976807E+02 -0.12293834551E+02 -0.75589644405E+03  0.76168067349E+03  0.50400001928E-02 0.  1.
       -1    1    3    3    0  502 -0.92880976807E+02  0.12293834551E+02  0.83554151816E+03  0.84077799853E+03  0.50400001928E-02 0. -1.
</event>
<event>
 5   0  0.4314657E-05  0.1601021E+04  0.7818609E-02  0.8819921E-01
        1   -1    0    0  501    0  0.00000000000E+00  0.00000000000E+00  0.16071648145E+04  0.16071648145E+04  0.50400001928E-02 0. -1.
       -1   -1    0    0    0  501  0.00000000000E+00  0.00000000000E+00 -0.39872496790E+03  0.39872496793E+03  0.50400001928E-02 0.  1.
    10030    2    1    2    0    0  0.00000000000E+00  0.00000000000E+00  0.12084398466E+04  0.20058897824E+04  0.16010205984E+04 0.  0.
        5    1    3    3  502    0  0.28454808739E+02 -0.46909940256E+03  0.14161132500E+04  0.14920666046E+04  0.46999998093E+01 0. -1.
       -5    1    3    3    0  502 -0.28454808739E+02  0.46909940256E+03 -0.20767340342E+03  0.51382317786E+03  0.46999998093E+01 0.  1.
</event>
<event>
 5   0  0.4504463E-05  0.1603405E+04  0.7818609E-02  0.8818459E-01
       -1   -1    0    0    0  501  0.00000000000E+00  0.00000000000E+00  0.15205237363E+04  0.15205237363E+04  0.50400001928E-02 0.  1.
        1   -1    0    0  501    0  0.00000000000E+00  0.00000000000E+00 -0.42270104788E+03  0.42270104791E+03  0.50400001928E-02 0. -1.
    10030    2    1    2    0    0  0.00000000000E+00  0.00000000000E+00  0.10978226884E+04  0.19432247842E+04  0.16034050975E+04 0.  0.
        1    1    3    3  502    0 -0.43901834746E+02 -0.37415198928E+03 -0.30875077983E+03  0.48707712557E+03  0.50400001928E-02 0. -1.
       -1    1    3    3    0  502  0.43901834746E+02  0.37415198928E+03  0.14065734682E+04  0.14561476586E+04  0.50400001928E-02 0.  1.
</event>
<event>
 5   0  0.7901257E-05  0.1598370E+04  0.7818609E-02  0.8821550E-01
       -2   -1    0    0    0  501  0.00000000000E+00  0.00000000000E+00  0.42344151520E+03  0.42344151521E+03  0.25500000920E-02 0.  1.
        2   -1    0    0  501    0  0.00000000000E+00  0.00000000000E+00 -0.15083464061E+04  0.15083464061E+04  0.25500000920E-02 0. -1.
    10030    2    1    2    0    0  0.00000000000E+00  0.00000000000E+00 -0.10849048909E+04  0.19317879213E+04  0.15983697791E+04 0.  0.
        2    1    3    3  502    0 -0.13028931421E+03  0.28121173409E+03  0.34785200849E+03  0.46589308281E+03  0.25500000920E-02 0.  1.
       -2    1    3    3    0  502  0.13028931421E+03 -0.28121173409E+03 -0.14327568994E+04  0.14658948385E+04  0.25500000920E-02 0. -1.
</event>
<event>
 5   0  0.4211419E-05  0.1600231E+04  0.7818609E-02  0.8820406E-01
       -1   -1    0    0    0  501  0.00000000000E+00  0.00000000000E+00  0.53941510885E+03  0.53941510887E+03  0.50400001928E-02 0.  1.
        1   -1    0    0  501    0  0.00000000000E+00  0.00000000000E+00 -0.11868134587E+04  0.11868134587E+04  0.50400001928E-02 0. -1.
    10030    2    1    2    0    0  0.00000000000E+00  0.00000000000E+00 -0.64739834988E+03  0.17262285676E+04  0.16002313721E+04 0.  0.
        2    1    3    3  502    0  0.11625680704E+03 -0.46571543420E+03 -0.10142412674E+04  0.11220926251E+04  0.25500000920E-02 0. -1.
       -2    1    3    3    0  502 -0.11625680704E+03  0.46571543420E+03  0.36684291754E+03  0.60413594247E+03  0.25500000920E-02 0.  1.
</event>
<event>
 5   0  0.7849690E-05  0.1601783E+04  0.7818609E-02  0.8819454E-01
       -2   -1    0    0    0  501  0.00000000000E+00  0.00000000000E+00  0.64349346361E+03  0.64349346362E+03  0.25500000920E-02 0. -1.
        2   -1    0    0  501    0  0.00000000000E+00  0.00000000000E+00 -0.99678874735E+03  0.99678874735E+03  0.25500000920E-02 0.  1.
    10030    2    1    2    0    0  0.00000000000E+00  0.00000000000E+00 -0.35329528374E+03  0.16402822110E+04  0.16017828112E+04 0.  0.
        3    1    3    3  502    0 -0.40063791597E+03 -0.60837869661E+03 -0.51750170177E+03  0.89355660131E+03  0.10100000352E+00 0.  1.
       -3    1    3    3    0  502  0.40063791597E+03  0.60837869661E+03  0.16420641804E+03  0.74672560966E+03  0.10100000352E+00 0. -1.
</event>
<event>
 5   0  0.8037548E-05  0.1595535E+04  0.7818609E-02  0.8823296E-01
        2   -1    0    0  501    0  0.00000000000E+00  0.00000000000E+00  0.57833308195E+03  0.57833308196E+03  0.25500000920E-02 0.  1.
       -2   -1    0    0    0  501  0.00000000000E+00  0.00000000000E+00 -0.11004608657E+04  0.11004608657E+04  0.25500000920E-02 0. -1.
    10030    2    1    2    0    0  0.00000000000E+00  0.00000000000E+00 -0.52212778370E+03  0.16787939476E+04  0.15955349247E+04 0.  0.
        5    1    3    3  502    0 -0.28363154878E+03  0.66469819380E+03  0.94412337789E+02  0.72883902463E+03  0.46999998093E+01 0.  1.
       -5    1    3    3    0  502  0.28363154878E+03 -0.66469819380E+03 -0.61654012149E+03  0.94995492298E+03  0.46999998093E+01 0. -1.
</event>
<event>
 5   0  0.4256406E-05  0.1578536E+04  0.7818609E-02  0.8833843E-01
       -1   -1    0    0    0  501  0.00000000000E+00  0.00000000000E+00  0.43582117383E+03  0.43582117386E+03  0.50400001928E-02 0. -1.
        1   -1    0    0  501    0  0.00000000000E+00  0.00000000000E+00 -0.14293575955E+04  0.14293575955E+04  0.50400001928E-02 0.  1.
    10030    2    1    2    0    0  0.00000000000E+00  0.00000000000E+00 -0.99353642171E+03  0.18651787694E+04  0.15785364172E+04 0.  0.
        3    1    3    3  502    0  0.94275012784E+02  0.31461099651E+03 -0.13447796283E+04  0.13843049216E+04  0.10100000352E+00 0.  1.
       -3    1    3    3    0  502 -0.94275012784E+02 -0.31461099651E+03  0.35124320655E+03  0.48087384781E+03  0.10100000352E+00 0. -1.
</event>
<event>
 5   0  0.4314657E-05  0.1598261E+04  0.7818609E-02  0.8821617E-01
       -1   -1    0    0    0  501  0.00000000000E+00  0.00000000000E+00  0.52267746766E+03  0.52267746768E+03  0.50400001928E-02 0. -1.
        1   -1    0    0  501    0  0.00000000000E+00  0.00000000000E+00 -0.12218049204E+04  0.12218049205E+04  0.50400001928E-02 0.  1.
    10030    2    1    2    0    0  0.00000000000E+00  0.00000000000E+00 -0.69912745279E+03  0.17444823881E+04  0.15982614327E+04 0.  0.
        5    1    3    3  502    0  0.36322885113E+03  0.68624313882E+03 -0.55586054784E+03  0.95491773599E+03  0.46999998093E+01 0. -1.
       -5    1    3    3    0  502 -0.36322885113E+03 -0.68624313882E+03 -0.14326690495E+03  0.78956465215E+03  0.46999998093E+01 0.  1.
</event>
<event>
 5   0  0.8694033E-05  0.1585365E+04  0.7818609E-02  0.8829589E-01
        2   -1    0    0  501    0  0.00000000000E+00  0.00000000000E+00  0.63500603901E+03  0.63500603901E+03  0.25500000920E-02 0. -1.
       -2   -1    0    0    0  501  0.00000000000E+00  0.00000000000E+00 -0.98951168649E+03  0.98951168649E+03  0.25500000920E-02 0.  1.
    10030    2    1    2    0    0  0.00000000000E+00  0.00000000000E+00 -0.35450564748E+03  0.16245177255E+04  0.15853654425E+04 0.  0.
        1    1    3    3  502    0  0.31711618596E+03 -0.45395316827E+03  0.40394927438E+03  0.68542772827E+03  0.50400001928E-02 0. -1.
       -1    1    3    3    0  502 -0.31711618596E+03  0.45395316827E+03 -0.75845492187E+03  0.93908999724E+03  0.50400001928E-02 0.  1.
</event>
<event>
 5   0  0.8620155E-05  0.1606335E+04  0.7818609E-02  0.8816665E-01
        2   -1    0    0  501    0  0.00000000000E+00  0.00000000000E+00  0.15608783643E+04  0.15608783643E+04  0.25500000920E-02 0. -1.
       -2   -1    0    0    0  501  0.00000000000E+00  0.00000000000E+00 -0.41327901914E+03  0.41327901914E+03  0.25500000920E-02 0.  1.
    10030    2    1    2    0    0  0.00000000000E+00  0.00000000000E+00  0.11475993452E+04  0.19741573835E+04  0.16063353067E+04 0.  0.
        4    1    3    3  502    0 -0.47363879767E+03 -0.63068184048E+03  0.38748269090E+03  0.87877058622E+03  0.12699999809E+01 0.  1.
       -4    1    3    3    0  502  0.47363879767E+03  0.63068184048E+03  0.76011665429E+03  0.10953867972E+04  0.12699999809E+01 0. -1.
</event>
<event>
 5   0  0.3042125E-05  0.1598465E+04  0.7818609E-02  0.8821492E-01
        4   -1    0    0  501    0  0.00000000000E+00  0.00000000000E+00  0.75727210976E+03  0.75727317470E+03  0.12699999809E+01 0.  1.
       -4   -1    0    0    0  501  0.00000000000E+00  0.00000000000E+00 -0.84351579544E+03  0.84351675150E+03  0.12699999809E+01 0. -1.
    10030    2    1    2    0    0  0.00000000000E+00  0.00000000000E+00 -0.86243685681E+02  0.16007899262E+04  0.15984650182E+04 0.  0.
        5    1    3    3  502    0 -0.57845091481E+03  0.32460864556E+03  0.40336770923E+03  0.77634002374E+03  0.46999998093E+01 0.  1.
       -5    1    3    3    0  502  0.57845091481E+03 -0.32460864556E+03 -0.48961139491E+03  0.82444990245E+03  0.46999998093E+01 0. -1.
</event>
<event>
 5   0  0.4373026E-05  0.1603278E+04  0.7818609E-02  0.8818536E-01
       -1   -1    0    0    0  501  0.00000000000E+00  0.00000000000E+00  0.80136322742E+03  0.80136322744E+03  0.50400001928E-02 0. -1.
        1   -1    0    0  501    0  0.00000000000E+00  0.00000000000E+00 -0.80191532373E+03  0.80191532374E+03  0.50400001928E-02 0.  1.
    10030    2    1    2    0    0  0.00000000000E+00  0.00000000000E+00 -0.55209630339E+00  0.16032785512E+04  0.16032784561E+04 0.  0.
        4    1    3    3  502    0 -0.14275945028E+03 -0.21040035460E+03  0.75997084447E+03  0.80137748109E+03  0.12699999809E+01 0. -1.
       -4    1    3    3    0  502  0.14275945028E+03  0.21040035460E+03 -0.76052294078E+03  0.80190107008E+03  0.12699999809E+01 0.  1.
</event>
<event>
 5   0  0.7849690E-05  0.1608574E+04  0.7818609E-02  0.8815298E-01
       -2   -1    0    0    0  501  0.00000000000E+00  0.00000000000E+00  0.27968464546E+03  0.27968464547E+03  0.25500000920E-02 0.  1.
        2   -1    0    0  501    0  0.00000000000E+00  0.00000000000E+00 -0.23128810038E+04  0.23128810038E+04  0.25500000920E-02 0. -1.
    10030    2    1    2    0    0  0.00000000000E+00  0.00000000000E+00 -0.20331963583E+04  0.25925656492E+04  0.16085736583E+04 0.  0.
        3    1    3    3  502    0  0.63980658999E+03 -0.13232238570E+03 -0.17725873151E+04  0.18891605242E+04  0.10100000352E+00 0. -1.
       -3    1    3    3    0  502 -0.63980658999E+03  0.13232238570E+03 -0.26060904325E+03  0.70340512507E+03  0.10100000352E+00 0.  1.
</event>
<event>
 5   0  0.4504463E-05  0.1617310E+04  0.7818609E-02  0.8809984E-01
       -1   -1    0    0    0  501  0.00000000000E+00  0.00000000000E+00  0.13631293153E+04  0.13631293154E+04  0.50400001928E-02 0. -1.
        1   -1    0    0  501    0  0.00000000000E+00  0.00000000000E+00 -0.47972158238E+03  0.47972158241E+03  0.50400001928E-02 0.  1.
    10030    2    1    2    0    0  0.00000000000E+00  0.00000000000E+00  0.88340773296E+03  0.18428508978E+04  0.16173095587E+04 0.  0.
        1    1    3    3  502    0  0.63085112550E+02 -0.58311662194E+03  0.10760412750E+04  0.12255078750E+04  0.50400001928E-02 0. -1.
       -1    1    3    3    0  502 -0.63085112550E+02  0.58311662194E+03 -0.19263354202E+03  0.61734302276E+03  0.50400001928E-02 0.  1.
</event>
<event>
 5   0  0.8037548E-05  0.1601799E+04  0.7818609E-02  0.8819443E-01
        2   -1    0    0  501    0  0.00000000000E+00  0.00000000000E+00  0.15346960983E+04  0.15346960983E+04  0.25500000920E-02 0.  1.
       -2   -1    0    0    0  501  0.00000000000E+00  0.00000000000E+00 -0.41795909695E+03  0.41795909696E+03  0.25500000920E-02 0. -1.
    10030    2    1    2    0    0  0.00000000000E+00  0.00000000000E+00  0.11167370013E+04  0.19526551952E+04  0.16017992325E+04 0.  0.
        5    1    3    3  502    0  0.17229064484E+03 -0.54587157321E+03  0.12412023899E+04  0.13668450180E+04  0.46999998093E+01 0.  1.
       -5    1    3    3    0  502 -0.17229064484E+03  0.54587157321E+03 -0.12446538856E+03  0.58581017718E+03  0.46999998093E+01 0. -1.
</event>
<event>
 5   0  0.4211419E-05  0.1610000E+04  0.7818609E-02  0.8814428E-01
        1   -1    0    0  501    0  0.00000000000E+00  0.00000000000E+00  0.87340596253E+03  0.87340596254E+03  0.50400001928E-02 0.  1.
       -1   -1    0    0    0  501  0.00000000000E+00  0.00000000000E+00 -0.74195191547E+03  0.74195191549E+03  0.50400001928E-02 0. -1.
    10030    2    1    2    0    0  0.00000000000E+00  0.00000000000E+00  0.13145404706E+03  0.16153578780E+04  0.16100002819E+04 0.  0.
        2    1    3    3  502    0 -0.45324024560E+03 -0.55631513461E+03  0.43178626035E+03  0.83746798378E+03  0.25500000920E-02 0.  1.
       -2    1    3    3    0  502  0.45324024560E+03  0.55631513461E+03 -0.30033221329E+03  0.77788989425E+03  0.25500000920E-02 0. -1.
</event>
<event>
 5   0  0.8694033E-05  0.1601151E+04  0.7818609E-02  0.8819842E-01
       -2   -1    0    0    0  501  0.00000000000E+00  0.00000000000E+00  0.59868622199E+03  0.59868622200E+03  0.25500000920E-02 0. -1.
        2   -1    0    0  501    0  0.00000000000E+00  0.00000000000E+00 -0.10705453601E+04  0.10705453601E+04  0.25500000920E-02 0.  1.
    10030    2    1    2    0    0  0.00000000000E+00  0.00000000000E+00 -0.47185913807E+03  0.16692315821E+04  0.16011505327E+04 0.  0.
        1    1    3    3  502    0 -0.76965378822E+03  0.21010611183E+03 -0.30515498362E+03  0.85418446252E+03  0.50400001928E-02 0. -1.
       -1    1    3    3    0  502  0.76965378822E+03 -0.21010611183E+03 -0.16670415446E+03  0.81504711955E+03  0.50400001928E-02 0.  1.
</event>
<event>
 5   0  0.7901257E-05  0.1597684E+04  0.7818609E-02  0.8821972E-01
       -2   -1    0    0    0  501  0.00000000000E+00  0.00000000000E+00  0.82467759557E+03  0.82467759557E+03  0.25500000920E-02 0. -1.
        2   -1    0    0  501    0  0.00000000000E+00  0.00000000000E+00 -0.77381611471E+03  0.77381611471E+03  0.25500000920E-02 0.  1.
    10030    2    1    2    0    0  0.00000000000E+00  0.00000000000E+00  0.50861480865E+02  0.15984937103E+04  0.15976843404E+04 0.  0.
        2    1    3    3  502    0  0.17473936482E+03 -0.40021148205E+03  0.69468345371E+03  0.82054139253E+03  0.25500000920E-02 0. -1.
       -2    1    3    3    0  502 -0.17473936482E+03  0.40021148205E+03 -0.64382197285E+03  0.77795231776E+03  0.25500000920E-02 0.  1.
</event>
<event>
 5   0  0.3042125E-05  0.1597574E+04  0.7818609E-02  0.8822040E-01
        3   -1    0    0  501    0  0.00000000000E+00  0.00000000000E+00  0.59147809064E+03  0.59147809927E+03  0.10100000352E+00 0.  1.
       -3   -1    0    0    0  501  0.00000000000E+00  0.00000000000E+00 -0.10787558363E+04  0.10787558410E+04  0.10100000352E+00 0. -1.
    10030    2    1    2    0    0  0.00000000000E+00  0.00000000000E+00 -0.48727774566E+03  0.16702339403E+04  0.15975737272E+04 0.  0.
        4    1    3    3  502    0  0.65878511637E+03 -0.68687827574E+02  0.22314611736E+03  0.69893608420E+03  0.12699999809E+01 0.  1.
       -4    1    3    3    0  502 -0.65878511637E+03  0.68687827574E+02 -0.71042386302E+03  0.97129785610E+03  0.12699999809E+01 0. -1.
</event>
<event>
 5   0  0.4373026E-05  0.1599160E+04  0.7818609E-02  0.8821064E-01
        1   -1    0    0  501    0  0.00000000000E+00  0.00000000000E+00  0.99228082896E+03  0.99228082898E+03  0.50400001928E-02 0.  1.
       -1   -1    0    0    0  501  0.00000000000E+00  0.00000000000E+00 -0.64430189298E+03  0.64430189300E+03  0.50400001928E-02 0. -1.
    10030    2    1    2    0    0  0.00000000000E+00  0.00000000000E+00  0.34797893599E+03  0.16365827220E+04  0.15991603003E+04 0.  0.
        4    1    3    3  502    0 -0.24647656568E+03  0.69283940825E+03  0.49526194999E+03  0.88660202744E+03  0.12699999809E+01 0.  1.
       -4    1    3    3    0  502  0.24647656568E+03 -0.69283940825E+03 -0.14728301400E+03  0.74998069453E+03  0.12699999809E+01 0. -1.
</event>
<event>
 5   0  0.3042125E-05  0.1599403E+04  0.7818609E-02  0.8820915E-01
       -3   -1    0    0    0  501  0.00000000000E+00  0.00000000000E+00  0.96097390179E+03  0.96097390710E+03  0.10100000352E+00 0.  1.
        3   -1    0    0  501    0  0.00000000000E+00  0.00000000000E+00 -0.66549390108E+03  0.66549390874E+03  0.10100000352E+00 0. -1.
    10030    2    1    2    0    0  0.00000000000E+00  0.00000000000E+00  0.29548000071E+03  0.16264678158E+04  0.15994027401E+04 0.  0.
        5    1    3    3  502    0 -0.28297429296E+03 -0.24244143700E+03  0.86727816410E+03  0.94395222590E+03  0.46999998093E+01 0.  1.
       -5    1    3    3    0  502  0.28297429296E+03  0.24244143700E+03 -0.57179816339E+03  0.68251558994E+03  0.46999998093E+01 0. -1.
</event>
<event>
 5   0  0.8620155E-05  0.1600468E+04  0.7818609E-02  0.8820261E-01
        2   -1    0    0  501    0  0.00000000000E+00  0.00000000000E+00  0.91163533798E+03  0.91163533799E+03  0.25500000920E-02 0.  1.
       -2   -1    0    0    0  501  0.00000000000E+00  0.00000000000E+00 -0.70244589650E+03  0.70244589651E+03  0.25500000920E-02 0. -1.
    10030    2    1    2    0    0  0.00000000000E+00  0.00000000000E+00  0.20918944148E+03  0.16140812345E+04  0.16004680594E+04 0.  0.
        4    1    3    3  502    0 -0.53681867801E+02 -0.27358790842E+03  0.86106869143E+03  0.90508175919E+03  0.12699999809E+01 0.  1.
       -4    1    3    3    0  502  0.53681867801E+02  0.27358790842E+03 -0.65187924995E+03  0.70899947530E+03  0.12699999809E+01 0. -1.
</event>
<event>
 5   0  0.8037548E-05  0.1604098E+04  0.7818609E-02  0.8818035E-01
        2   -1    0    0  501    0  0.00000000000E+00  0.00000000000E+00  0.10208094397E+04  0.10208094397E+04  0.25500000920E-02 0. -1.
       -2   -1    0    0    0  501  0.00000000000E+00  0.00000000000E+00 -0.63016880807E+03  0.63016880808E+03  0.25500000920E-02 0.  1.
    10030    2    1    2    0    0  0.00000000000E+00  0.00000000000E+00  0.39064063163E+03  0.16509782478E+04  0.16040975879E+04 0.  0.
        5    1    3    3  502    0  0.80170147978E+01  0.24661850891E+03  0.98075849501E+03  0.10113329209E+04  0.46999998093E+01 0. -1.
       -5    1    3    3    0  502 -0.80170147978E+01 -0.24661850891E+03 -0.59011786338E+03  0.63964532684E+03  0.46999998093E+01 0.  1.
</event>
<event>
 5   0  0.4504463E-05  0.1598866E+04  0.7818609E-02  0.8821245E-01
        1   -1    0    0  501    0  0.00000000000E+00  0.00000000000E+00  0.14245571985E+04  0.14245571985E+04  0.50400001928E-02 0. -1.
       -1   -1    0    0    0  501  0.00000000000E+00  0.00000000000E+00 -0.44862572342E+03  0.44862572345E+03  0.50400001928E-02 0.  1.
    10030    2    1    2    0    0  0.00000000000E+00  0.00000000000E+00  0.97593147503E+03  0.18731829219E+04  0.15988658527E+04 0.  0.
        1    1    3    3  502    0  0.70496359229E+03 -0.19550348630E+03  0.11033165862E+03  0.73984346623E+03  0.50400001928E-02 0.  1.
       -1    1    3    3    0  502 -0.70496359229E+03  0.19550348630E+03  0.86559981641E+03  0.11333394557E+04  0.50400001928E-02 0. -1.
</event>
<event>
 5   0  0.8620155E-05  0.1597064E+04  0.7818609E-02  0.8822354E-01
       -2   -1    0    0    0  501  0.00000000000E+00  0.00000000000E+00  0.74500935771E+03  0.74500935771E+03  0.25500000920E-02 0. -1.
        2   -1    0    0  501    0  0.00000000000E+00  0.00000000000E+00 -0.85589999458E+03  0.85589999459E+03  0.25500000920E-02 0.  1.
    10030    2    1    2    0    0  0.00000000000E+00  0.00000000000E+00 -0.11089063688E+03  0.16009093523E+04  0.15970641881E+04 0.  0.
        4    1    3    3  502    0  0.71952281496E+03  0.26689270135E+03 -0.27667352240E+03  0.81577855217E+03  0.12699999809E+01 0. -1.
       -4    1    3    3    0  502 -0.71952281496E+03 -0.26689270135E+03  0.16578288552E+03  0.78513080013E+03  0.12699999809E+01 0.  1.
</event>
<event>
 5   0  0.3042125E-05  0.1606363E+04  0.7818609E-02  0.8816649E-01
       -3   -1    0    0    0  501  0.00000000000E+00  0.00000000000E+00  0.69001119713E+03  0.69001120452E+03  0.10100000352E+00 0. -1.
        3   -1    0    0  501    0  0.00000000000E+00  0.00000000000E+00 -0.93491259519E+03  0.93491260064E+03  0.10100000352E+00 0.  1.
    10030    2    1    2    0    0  0.00000000000E+00  0.00000000000E+00 -0.24490139806E+03  0.16249238052E+04  0.16063625611E+04 0.  0.
        3    1    3    3  502    0 -0.70258274267E+03  0.17432373354E+03 -0.47444981062E+03  0.86551366677E+03  0.10100000352E+00 0.  1.
       -3    1    3    3    0  502  0.70258274267E+03 -0.17432373354E+03  0.22954841257E+03  0.75941013839E+03  0.10100000352E+00 0. -1.
</event>
<event>
 5   0  0.4256406E-05  0.1600312E+04  0.7818609E-02  0.8820356E-01
        1   -1    0    0  501    0  0.00000000000E+00  0.00000000000E+00  0.73551853618E+03  0.73551853619E+03  0.50400001928E-02 0. -1.
       -1   -1    0    0    0  501  0.00000000000E+00  0.00000000000E+00 -0.87047400621E+03  0.87047400622E+03  0.50400001928E-02 0.  1.
    10030    2    1    2    0    0  0.00000000000E+00  0.00000000000E+00 -0.13495547003E+03  0.16059925424E+04  0.16003121781E+04 0.  0.
        3    1    3    3  502    0 -0.48448600485E+03 -0.61496765645E+03 -0.23340623477E+03  0.81693964771E+03  0.10100000352E+00 0.  1.
       -3    1    3    3    0  502  0.48448600485E+03  0.61496765645E+03  0.98450764739E+02  0.78905289471E+03  0.10100000352E+00 0. -1.
</event>
<event>
 5   0  0.4211419E-05  0.1607859E+04  0.7818609E-02  0.8815734E-01
        1   -1    0    0  501    0  0.00000000000E+00  0.00000000000E+00  0.12254350813E+04  0.12254350813E+04  0.50400001928E-02 0.  1.
       -1   -1    0    0    0  501  0.00000000000E+00  0.00000000000E+00 -0.52740668727E+03  0.52740668729E+03  0.50400001928E-02 0. -1.
    10030    2    1    2    0    0  0.00000000000E+00  0.00000000000E+00  0.69802839401E+03  0.17528417686E+04  0.16078590196E+04 0.  0.
        2    1    3    3  502    0  0.34842589210E+03  0.11068083638E+03  0.11295736605E+04  0.11872605040E+04  0.25500000920E-02 0.  1.
       -2    1    3    3    0  502 -0.34842589210E+03 -0.11068083638E+03 -0.43154526649E+03  0.56558126460E+03  0.25500000920E-02 0. -1.
</event>
<event>
 5   0  0.4211419E-05  0.1599418E+04  0.7818609E-02  0.8820905E-01
        1   -1    0    0  501    0  0.00000000000E+00  0.00000000000E+00  0.14775161931E+04  0.14775161931E+04  0.50400001928E-02 0.  1.
       -1   -1    0    0    0  501  0.00000000000E+00  0.00000000000E+00 -0.43284451487E+03  0.43284451490E+03  0.50400001928E-02 0. -1.
    10030    2    1    2    0    0  0.00000000000E+00  0.00000000000E+00  0.10446716782E+04  0.19103607080E+04  0.15994183691E+04 0.  0.
        2    1    3    3  502    0 -0.11003227809E+03 -0.72975530427E+02  0.14644080287E+04  0.14703480557E+04  0.25500000920E-02 0.  1.
       -2    1    3    3    0  502  0.11003227809E+03  0.72975530427E+02 -0.41973635049E+03  0.44001265231E+03  0.25500000920E-02 0. -1.
</event>
<event>
 5   0  0.4504463E-05  0.1602604E+04  0.7818609E-02  0.8818950E-01
        1   -1    0    0  501    0  0.00000000000E+00  0.00000000000E+00  0.13924554546E+04  0.13924554546E+04  0.50400001928E-02 0.  1.
       -1   -1    0    0    0  501  0.00000000000E+00  0.00000000000E+00 -0.46111673552E+03  0.46111673555E+03  0.50400001928E-02 0. -1.
    10030    2    1    2    0    0  0.00000000000E+00  0.00000000000E+00  0.93133871910E+03  0.18535721902E+04  0.16026035238E+04 0.  0.
        1    1    3    3  502    0 -0.33546972529E+03 -0.72754216629E+03  0.44824443986E+03  0.91803083729E+03  0.50400001928E-02 0.  1.
       -1    1    3    3    0  502  0.33546972529E+03  0.72754216629E+03  0.48309427925E+03  0.93554135290E+03  0.50400001928E-02 0. -1.
</event>
<event>
 5   0  0.4314657E-05  0.1599937E+04  0.7818609E-02  0.8820587E-01
       -1   -1    0    0    0  501  0.00000000000E+00  0.00000000000E+00  0.97461530185E+03  0.97461530186E+03  0.50400001928E-02 0. -1.
        1   -1    0    0  501    0  0.00000000000E+00  0.00000000000E+00 -0.65661753283E+03  0.65661753285E+03  0.50400001928E-02 0.  1.
    10030    2    1    2    0    0  0.00000000000E+00  0.00000000000E+00  0.31799776901E+03  0.16312328347E+04  0.15999368675E+04 0.  0.
        5    1    3    3  502    0  0.57589612419E+03 -0.10775160095E+03  0.71431858637E+03  0.92387222396E+03  0.46999998093E+01 0. -1.
       -5    1    3    3    0  502 -0.57589612419E+03  0.10775160095E+03 -0.39632081736E+03  0.70736061075E+03  0.46999998093E+01 0.  1.
</event>
<event>
 5   0  0.4211419E-05  0.1596569E+04  0.7818609E-02  0.8822659E-01
       -1   -1    0    0    0  501  0.00000000000E+00  0.00000000000E+00  0.10483535353E+04  0.10483535353E+04  0.50400001928E-02 0. -1.
        1   -1    0    0  501    0  0.00000000000E+00  0.00000000000E+00 -0.60786554939E+03  0.60786554941E+03  0.50400001928E-02 0.  1.
    10030    2    1    2    0    0  0.00000000000E+00  0.00000000000E+00  0.44048798591E+03  0.16562190847E+04  0.15965688181E+04 0.  0.
        2    1    3    3  502    0 -0.43051630739E+03  0.27688211601E+03  0.85570732048E+03  0.99711735289E+03  0.25500000920E-02 0. -1.
       -2    1    3    3    0  502  0.43051630739E+03 -0.27688211601E+03 -0.41521933457E+03  0.65910173183E+03  0.25500000920E-02 0.  1.
</event>
<event>
 5   0  0.8620155E-05  0.1591573E+04  0.7818609E-02  0.8825742E-01
        2   -1    0    0  501    0  0.00000000000E+00  0.00000000000E+00  0.10701882194E+04  0.10701882194E+04  0.25500000920E-02 0.  1.
       -2   -1    0    0    0  501  0.00000000000E+00  0.00000000000E+00 -0.59174265687E+03  0.59174265688E+03  0.25500000920E-02 0. -1.
    10030    2    1    2    0    0  0.00000000000E+00  0.00000000000E+00  0.47844556251E+03  0.16619308763E+04  0.15915728325E+04 0.  0.
        4    1    3    3  502    0  0.27408915757E+03 -0.42102875862E+03 -0.40521796136E+03  0.64544038531E+03  0.12699999809E+01 0. -1.
       -4    1    3    3    0  502 -0.27408915757E+03  0.42102875862E+03  0.88366352387E+03  0.10164904910E+04  0.12699999809E+01 0.  1.
</event>
<event>
 5   0  0.8620155E-05  0.1598425E+04  0.7818609E-02  0.8821516E-01
       -2   -1    0    0    0  501  0.00000000000E+00  0.00000000000E+00  0.80310667117E+03  0.80310667118E+03  0.25500000920E-02 0. -1.
        2   -1    0    0  501    0  0.00000000000E+00  0.00000000000E+00 -0.79533750527E+03  0.79533750527E+03  0.25500000920E-02 0.  1.
    10030    2    1    2    0    0  0.00000000000E+00  0.00000000000E+00  0.77691659069E+01  0.15984441764E+04  0.15984252955E+04 0.  0.
        4    1    3    3  502    0 -0.17426149324E+03 -0.16642222790E+03 -0.75814529551E+03  0.79551827633E+03  0.12699999809E+01 0.  1.
       -4    1    3    3    0  502  0.17426149324E+03  0.16642222790E+03  0.76591446142E+03  0.80292590012E+03  0.12699999809E+01 0. -1.
</event>
<event>
 5   0  0.8694033E-05  0.1592549E+04  0.7818609E-02  0.8825139E-01
        2   -1    0    0  501    0  0.00000000000E+00  0.00000000000E+00  0.12675464799E+04  0.12675464799E+04  0.25500000920E-02 0.  1.
       -2   -1    0    0    0  501  0.00000000000E+00  0.00000000000E+00 -0.50022072390E+03  0.50022072390E+03  0.25500000920E-02 0. -1.
    10030    2    1    2    0    0  0.00000000000E+00  0.00000000000E+00  0.76732575598E+03  0.17677672038E+04  0.15925489226E+04 0.  0.
        1    1    3    3  502    0 -0.23467996958E+03 -0.75046774440E+03  0.24423887705E+03  0.82336453202E+03  0.50400001928E-02 0. -1.
       -1    1    3    3    0  502  0.23467996958E+03  0.75046774440E+03  0.52308687893E+03  0.94440267176E+03  0.50400001928E-02 0.  1.
</event>
<event>
 5   0  0.4373026E-05  0.1602118E+04  0.7818609E-02  0.8819248E-01
       -1   -1    0    0    0  501  0.00000000000E+00  0.00000000000E+00  0.46435127943E+03  0.46435127946E+03  0.50400001928E-02 0.  1.
        1   -1    0    0  501    0  0.00000000000E+00  0.00000000000E+00 -0.13819174544E+04  0.13819174545E+04  0.50400001928E-02 0. -1.
    10030    2    1    2    0    0  0.00000000000E+00  0.00000000000E+00 -0.91756617501E+03  0.18462687339E+04  0.16021175214E+04 0.  0.
        4    1    3    3  502    0 -0.24553946122E+02  0.34717450549E+03  0.37266693035E+03  0.50991694168E+03  0.12699999809E+01 0.  1.
       -4    1    3    3    0  502  0.24553946122E+02 -0.34717450549E+03 -0.12902331054E+04  0.13363517922E+04  0.12699999809E+01 0. -1.
</event>
<event>
 5   0  0.4373026E-05  0.1599613E+04  0.7818609E-02  0.8820786E-01
       -1   -1    0    0    0  501  0.00000000000E+00  0.00000000000E+00  0.90380291439E+03  0.90380291441E+03  0.50400001928E-02 0. -1.
        1   -1    0    0  501    0  0.00000000000E+00  0.00000000000E+00 -0.70777680409E+03  0.70777680410E+03  0.50400001928E-02 0.  1.
    10030    2    1    2    0    0  0.00000000000E+00  0.00000000000E+00  0.19602611031E+03  0.16115797185E+04  0.15996133762E+04 0.  0.
        4    1    3    3  502    0  0.32856879620E+03  0.41486726664E+03 -0.50615361897E+03  0.73230144181E+03  0.12699999809E+01 0.  1.
       -4    1    3    3    0  502 -0.32856879620E+03 -0.41486726664E+03  0.70217972928E+03  0.87927827670E+03  0.12699999809E+01 0. -1.
</event>
<event>
 5   0  0.8037548E-05  0.1600363E+04  0.7818609E-02  0.8820325E-01
       -2   -1    0    0    0  501  0.00000000000E+00  0.00000000000E+00  0.32932052641E+03  0.32932052642E+03  0.25500000920E-02 0.  1.
        2   -1    0    0  501    0  0.00000000000E+00  0.00000000000E+00 -0.19442773499E+04  0.19442773499E+04  0.25500000920E-02 0. -1.
    10030    2    1    2    0    0  0.00000000000E+00  0.00000000000E+00 -0.16149568235E+04  0.22735978763E+04  0.16003630093E+04 0.  0.
        5    1    3    3  502    0  0.20834584339E+03  0.49473414189E+03 -0.16504777445E+04  0.17355888732E+04  0.46999998093E+01 0. -1.
       -5    1    3    3    0  502 -0.20834584339E+03 -0.49473414189E+03  0.35520921031E+02  0.53800900312E+03  0.46999998093E+01 0.  1.
</event>
<event>
 5   0  0.4314657E-05  0.1564357E+04  0.7818609E-02  0.8842749E-01
        1   -1    0    0  501    0  0.00000000000E+00  0.00000000000E+00  0.10204122529E+04  0.10204122529E+04  0.50400001928E-02 0. -1.
       -1   -1    0    0    0  501  0.00000000000E+00  0.00000000000E+00 -0.59956496237E+03  0.59956496239E+03  0.50400001928E-02 0.  1.
    10030    2    1    2    0    0  0.00000000000E+00  0.00000000000E+00  0.42084729051E+03  0.16199772153E+04  0.15643572917E+04 0.  0.
        5    1    3    3  502    0  0.52318205380E+03 -0.49945177593E+03 -0.97833994400E+02  0.72990760946E+03  0.46999998093E+01 0. -1.
       -5    1    3    3    0  502 -0.52318205380E+03  0.49945177593E+03  0.51868128491E+03  0.89006960582E+03  0.46999998093E+01 0.  1.
</event>
<event>
 5   0  0.4314657E-05  0.1622464E+04  0.7818609E-02  0.8806865E-01
        1   -1    0    0  501    0  0.00000000000E+00  0.00000000000E+00  0.37426010814E+03  0.37426010818E+03  0.50400001928E-02 0. -1.
       -1   -1    0    0    0  501  0.00000000000E+00  0.00000000000E+00 -0.17583965707E+04  0.17583965707E+04  0.50400001928E-02 0.  1.
    10030    2    1    2    0    0  0.00000000000E+00  0.00000000000E+00 -0.13841364626E+04  0.21326566789E+04  0.16224644104E+04 0.  0.
        5    1    3    3  502    0 -0.33838741590E+03  0.44186183381E+03  0.83713878137E+02  0.56283037126E+03  0.46999998093E+01 0. -1.
       -5    1    3    3    0  502  0.33838741590E+03 -0.44186183381E+03 -0.14678503407E+04  0.15698263076E+04  0.46999998093E+01 0.  1.
</event>
<event>
 5   0  0.7901257E-05  0.1597480E+04  0.7818609E-02  0.8822098E-01
       -2   -1    0    0    0  501  0.00000000000E+00  0.00000000000E+00  0.58802879866E+03  0.58802879867E+03  0.25500000920E-02 0. -1.
        2   -1    0    0  501    0  0.00000000000E+00  0.00000000000E+00 -0.10849558825E+04  0.10849558825E+04  0.25500000920E-02 0.  1.
    10030    2    1    2    0    0  0.00000000000E+00  0.00000000000E+00 -0.49692708380E+03  0.16729846811E+04  0.15974796452E+04 0.  0.
        2    1    3    3  502    0 -0.41326476965E+03  0.63636048684E+03 -0.50974068515E+03  0.91409955976E+03  0.25500000920E-02 0. -1.
       -2    1    3    3    0  502  0.41326476965E+03 -0.63636048684E+03  0.12813601351E+02  0.75888512137E+03  0.25500000920E-02 0.  1.
</event>
<event>
 5   0  0.4256406E-05  0.1600718E+04  0.7818609E-02  0.8820107E-01
        1   -1    0    0  501    0  0.00000000000E+00  0.00000000000E+00  0.88807118518E+03  0.88807118519E+03  0.50400001928E-02 0. -1.
       -1   -1    0    0    0  501  0.00000000000E+00  0.00000000000E+00 -0.72131006022E+03  0.72131006024E+03  0.50400001928E-02 0.  1.
    10030    2    1    2    0    0  0.00000000000E+00  0.00000000000E+00  0.16676112495E+03  0.16093812454E+04  0.16007181889E+04 0.  0.
        3    1    3    3  502    0  0.11058377066E+02 -0.47777423603E+03  0.72887084126E+03  0.87157513833E+03  0.10100000352E+00 0. -1.
       -3    1    3    3    0  502 -0.11058377066E+02  0.47777423603E+03 -0.56210971630E+03  0.73780610710E+03  0.10100000352E+00 0.  1.
</event>
<event>
 5   0  0.7849690E-05  0.1599188E+04  0.7818609E-02  0.8821047E-01
        2   -1    0    0  501    0  0.00000000000E+00  0.00000000000E+00  0.31724921373E+03  0.31724921374E+03  0.25500000920E-02 0. -1.
       -2   -1    0    0    0  501  0.00000000000E+00  0.00000000000E+00 -0.20152940128E+04  0.20152940128E+04  0.25500000920E-02 0.  1.
    10030    2    1    2    0    0  0.00000000000E+00  0.00000000000E+00 -0.16980447990E+04  0.23325432265E+04  0.15991878451E+04 0.  0.
        3    1    3    3  502    0 -0.25855553790E+03 -0.48452148900E+02  0.25232794252E+03  0.36451060024E+03  0.10100000352E+00 0. -1.
       -3    1    3    3    0  502  0.25855553790E+03  0.48452148900E+02 -0.19503727416E+04  0.19680326263E+04  0.10100000352E+00 0.  1.
</event>
<event>
 5   0  0.3042125E-05  0.1601889E+04  0.7818609E-02  0.8819388E-01
       -3   -1    0    0    0  501  0.00000000000E+00  0.00000000000E+00  0.14205235083E+04  0.14205235118E+04  0.10100000352E+00 0. -1.
        3   -1    0    0  501    0  0.00000000000E+00  0.00000000000E+00 -0.45160273269E+03  0.45160274398E+03  0.10100000352E+00 0.  1.
    10030    2    1    2    0    0  0.00000000000E+00  0.00000000000E+00  0.96892077557E+03  0.18721262558E+04  0.16018892747E+04 0.  0.
        5    1    3    3  502    0 -0.51608195204E+03  0.50941111820E+03  0.87016912381E+02  0.73036586832E+03  0.46999998093E+01 0.  1.
       -5    1    3    3    0  502  0.51608195204E+03 -0.50941111820E+03  0.88190386319E+03  0.11417603875E+04  0.46999998093E+01 0. -1.
</event>
<event>
 5   0  0.8620155E-05  0.1598679E+04  0.7818609E-02  0.8821360E-01
        2   -1    0    0  501    0  0.00000000000E+00  0.00000000000E+00  0.12246767842E+04  0.12246767842E+04  0.25500000920E-02 0.  1.
       -2   -1    0    0    0  501  0.00000000000E+00  0.00000000000E+00 -0.52172412596E+03  0.52172412597E+03  0.25500000920E-02 0. -1.
    10030    2    1    2    0    0  0.00000000000E+00  0.00000000000E+00  0.70295265819E+03  0.17464009101E+04  0.15986787355E+04 0.  0.
        4    1    3    3  502    0 -0.60541277776E+03 -0.48196556781E+03  0.57030171224E+03  0.96128096617E+03  0.12699999809E+01 0.  1.
       -4    1    3    3    0  502  0.60541277776E+03  0.48196556781E+03  0.13265094595E+03  0.78511994395E+03  0.12699999809E+01 0. -1.
</event>
<event>
 5   0  0.8620155E-05  0.1597146E+04  0.7818609E-02  0.8822304E-01
       -2   -1    0    0    0  501  0.00000000000E+00  0.00000000000E+00  0.10280433071E+04  0.10280433071E+04  0.25500000920E-02 0.  1.
        2   -1    0    0  501    0  0.00000000000E+00  0.00000000000E+00 -0.62032254796E+03  0.62032254797E+03  0.25500000920E-02 0. -1.
    10030    2    1    2    0    0  0.00000000000E+00  0.00000000000E+00  0.40772075918E+03  0.16483658551E+04  0.15971455083E+04 0.  0.
        4    1    3    3  502    0  0.93473258500E+02  0.76004697062E+03  0.43763773626E+03  0.88200739719E+03  0.12699999809E+01 0. -1.
       -4    1    3    3    0  502 -0.93473258500E+02 -0.76004697062E+03 -0.29916977081E+02  0.76635845792E+03  0.12699999809E+01 0.  1.
</event>
<event>
 5   0  0.4211419E-05  0.1596727E+04  0.7818609E-02  0.8822561E-01
        1   -1    0    0  501    0  0.00000000000E+00  0.00000000000E+00  0.11572401113E+04  0.11572401113E+04  0.50400001928E-02 0. -1.
       -1   -1    0    0    0  501  0.00000000000E+00  0.00000000000E+00 -0.55077962037E+03  0.55077962039E+03  0.50400001928E-02 0.  1.
    10030    2    1    2    0    0  0.00000000000E+00  0.00000000000E+00  0.60646049091E+03  0.17080197317E+04  0.15967269888E+04 0.  0.
        2    1    3    3  502    0 -0.22966059927E+03 -0.26845726388E+03 -0.46261182995E+03  0.58208504413E+03  0.25500000920E-02 0.  1.
       -2    1    3    3    0  502  0.22966059927E+03  0.26845726388E+03  0.10690723209E+04  0.11259346876E+04  0.25500000920E-02 0. -1.
</event>
<event>
 5   0  0.8694033E-05  0.1595834E+04  0.7818609E-02  0.8823111E-01
        2   -1    0    0  501    0  0.00000000000E+00  0.00000000000E+00  0.85091627203E+03  0.85091627203E+03  0.25500000920E-02 0. -1.
       -2   -1    0    0    0  501  0.00000000000E+00  0.00000000000E+00 -0.74821878021E+03  0.74821878022E+03  0.25500000920E-02 0.  1.
    10030    2    1    2    0    0  0.00000000000E+00  0.00000000000E+00  0.10269749181E+03  0.15991350522E+04  0.15958339953E+04 0.  0.
        1    1    3    3  502    0 -0.68711836041E+01 -0.58304364176E+03  0.59716292157E+03  0.83462006703E+03  0.50400001928E-02 0. -1.
       -1    1    3    3    0  502  0.68711836041E+01  0.58304364176E+03 -0.49446542976E+03  0.76451498522E+03  0.50400001928E-02 0.  1.
</event>
<event>
 5   0  0.4504463E-05  0.1601044E+04  0.7818609E-02  0.8819907E-01
        1   -1    0    0  501    0  0.00000000000E+00  0.00000000000E+00  0.22696557651E+04  0.22696557651E+04  0.50400001928E-02 0.  1.
       -1   -1    0    0    0  501  0.00000000000E+00  0.00000000000E+00 -0.28234917877E+03  0.28234917881E+03  0.50400001928E-02 0. -1.
    10030    2    1    2    0    0  0.00000000000E+00  0.00000000000E+00  0.19873065863E+04  0.25520049439E+04  0.16010439612E+04 0.  0.
        1    1    3    3  502    0  0.26352841531E+03  0.65059441939E+03  0.16071015656E+04  0.17537091453E+04  0.50400001928E-02 0.  1.
       -1    1    3    3    0  502 -0.26352841531E+03 -0.65059441939E+03  0.38020502072E+03  0.79829579858E+03  0.50400001928E-02 0. -1.
</event>
<event>
 5   0  0.4314657E-05  0.1601507E+04  0.7818609E-02  0.8819623E-01
       -1   -1    0    0    0  501  0.00000000000E+00  0.00000000000E+00  0.68557563753E+03  0.68557563755E+03  0.50400001928E-02 0.  1.
        1   -1    0    0  501    0  0.00000000000E+00  0.00000000000E+00 -0.93528111126E+03  0.93528111128E+03  0.50400001928E-02 0. -1.
    10030    2    1    2    0    0  0.00000000000E+00  0.00000000000E+00 -0.24970547373E+03  0.16208567488E+04  0.16015067208E+04 0.  0.
        5    1    3    3  502    0 -0.25071901378E+02  0.22101515928E+03  0.65366663702E+03  0.69049146499E+03  0.46999998093E+01 0.  1.
       -5    1    3    3    0  502  0.25071901378E+02 -0.22101515928E+03 -0.90337211076E+03  0.93036528383E+03  0.46999998093E+01 0. -1.
</event>
<event>
 5   0  0.8694033E-05  0.1598162E+04  0.7818609E-02  0.8821678E-01
       -2   -1    0    0    0  501  0.00000000000E+00  0.00000000000E+00  0.82005700240E+03  0.82005700241E+03  0.25500000920E-02 0. -1.
        2   -1    0    0  501    0  0.00000000000E+00  0.00000000000E+00 -0.77864113047E+03  0.77864113048E+03  0.25500000920E-02 0.  1.
    10030    2    1    2    0    0  0.00000000000E+00  0.00000000000E+00  0.41415871932E+02  0.15986981329E+04  0.15981615831E+04 0.  0.
        1    1    3    3  502    0 -0.20420666175E+03 -0.17682336938E+03  0.77299980942E+03  0.81883793882E+03  0.50400001928E-02 0. -1.
       -1    1    3    3    0  502  0.20420666175E+03  0.17682336938E+03 -0.73158393749E+03  0.77986019406E+03  0.50400001928E-02 0.  1.
</event>
<event>
 5   0  0.4314657E-05  0.1600669E+04  0.7818609E-02  0.8820137E-01
       -1   -1    0    0    0  501  0.00000000000E+00  0.00000000000E+00  0.44531279429E+03  0.44531279432E+03  0.50400001928E-02 0. -1.
        1   -1    0    0  501    0  0.00000000000E+00  0.00000000000E+00 -0.14383945089E+04  0.14383945089E+04  0.50400001928E-02 0.  1.
    10030    2    1    2    0    0  0.00000000000E+00  0.00000000000E+00 -0.99308171464E+03  0.18837073033E+04  0.16006692077E+04 0.  0.
        5    1    3    3  502    0 -0.76159398113E+03  0.23997303923E+03 -0.55992504652E+03  0.97526950089E+03  0.46999998093E+01 0. -1.
       -5    1    3    3    0  502  0.76159398113E+03 -0.23997303923E+03 -0.43315666813E+03  0.90843780238E+03  0.46999998093E+01 0.  1.
</event>
<event>
 5   0  0.4256406E-05  0.1601725E+04  0.7818609E-02  0.8819489E-01
       -1   -1    0    0    0  501  0.00000000000E+00  0.00000000000E+00  0.93308684783E+03  0.93308684785E+03  0.50400001928E-02 0.  1.
        1   -1    0    0  501    0  0.00000000000E+00  0.00000000000E+00 -0.68737482412E+03  0.68737482413E+03  0.50400001928E-02 0. -1.
    10030    2    1    2    0    0  0.00000000000E+00  0.00000000000E+00  0.24571202372E+03  0.16204616720E+04  0.16017245805E+04 0.  0.
        3    1    3    3  502    0  0.46896716641E+03 -0.64791490882E+03  0.81680204775E+02  0.80398731227E+03  0.10100000352E+00 0. -1.
       -3    1    3    3    0  502 -0.46896716641E+03  0.64791490882E+03  0.16403181894E+03  0.81647435971E+03  0.10100000352E+00 0.  1.
</event>
<event>
 5   0  0.4373026E-05  0.1601452E+04  0.7818609E-02  0.8819657E-01
        1   -1    0    0  501    0  0.00000000000E+00  0.00000000000E+00  0.40520341090E+03  0.40520341093E+03  0.50400001928E-02 0.  1.
       -1   -1    0    0    0  501  0.00000000000E+00  0.00000000000E+00 -0.15823212724E+04  0.15823212724E+04  0.50400001928E-02 0. -1.
    10030    2    1    2    0    0  0.00000000000E+00  0.00000000000E+00 -0.11771178615E+04  0.19875246833E+04  0.16014518123E+04 0.  0.
        4    1    3    3  502    0  0.57914741697E+03 -0.12770507541E+03 -0.12562536872E+04  0.13892067004E+04  0.12699999809E+01 0. -1.
       -4    1    3    3    0  502 -0.57914741697E+03  0.12770507541E+03  0.79135825741E+02  0.59831798292E+03  0.12699999809E+01 0.  1.
</event>
<event>
 5   0  0.8037548E-05  0.1610294E+04  0.7818609E-02  0.8814249E-01
        2   -1    0    0  501    0  0.00000000000E+00  0.00000000000E+00  0.81647148059E+03  0.81647148059E+03  0.25500000920E-02 0. -1.
       -2   -1    0    0    0  501  0.00000000000E+00  0.00000000000E+00 -0.79397931831E+03  0.79397931831E+03  0.25500000920E-02 0.  1.
    10030    2    1    2    0    0  0.00000000000E+00  0.00000000000E+00  0.22492162282E+02  0.16104507989E+04  0.16102937242E+04 0.  0.
        5    1    3    3  502    0  0.61130864665E+03 -0.52373618418E+03 -0.42965896798E+01  0.80500832466E+03  0.46999998093E+01 0.  1.
       -5    1    3    3    0  502 -0.61130864665E+03  0.52373618418E+03  0.26788751962E+02  0.80544247425E+03  0.46999998093E+01 0. -1.
</event>
<event>
 5   0  0.8694033E-05  0.1600033E+04  0.7818609E-02  0.8820528E-01
       -2   -1    0    0    0  501  0.00000000000E+00  0.00000000000E+00  0.45208470988E+03  0.45208470988E+03  0.25500000920E-02 0. -1.
        2   -1    0    0  501    0  0.00000000000E+00  0.00000000000E+00 -0.14157228035E+04  0.14157228035E+04  0.25500000920E-02 0.  1.
    10030    2    1    2    0    0  0.00000000000E+00  0.00000000000E+00 -0.96363809362E+03  0.18678075134E+04  0.16000332908E+04 0.  0.
        1    1    3    3  502    0  0.16445718128E+03  0.69706703755E+03 -0.89795794020E+03  0.11485978764E+04  0.50400001928E-02 0.  1.
       -1    1    3    3    0  502 -0.16445718128E+03 -0.69706703755E+03 -0.65680153417E+02  0.71920963696E+03  0.50400001928E-02 0. -1.
</event>
<event>
 5   0  0.4211419E-05  0.1600080E+04  0.7818609E-02  0.8820499E-01
        1   -1    0    0  501    0  0.00000000000E+00  0.00000000000E+00  0.57518874718E+03  0.57518874720E+03  0.50400001928E-02 0. -1.
       -1   -1    0    0    0  501  0.00000000000E+00  0.00000000000E+00 -0.11127895778E+04  0.11127895778E+04  0.50400001928E-02 0.  1.
    10030    2    1    2    0    0  0.00000000000E+00  0.00000000000E+00 -0.53760083063E+03  0.16879783250E+04  0.16000800519E+04 0.  0.
        2    1    3    3  502    0 -0.38751587766E+03 -0.90840234260E+02  0.46332928353E+03  0.61081464339E+03  0.25500000920E-02 0. -1.
       -2    1    3    3    0  502  0.38751587766E+03  0.90840234260E+02 -0.10009301142E+04  0.10771636816E+04  0.25500000920E-02 0.  1.
</event>
<event>
 5   0  0.4314657E-05  0.1602556E+04  0.7818609E-02  0.8818979E-01
        1   -1    0    0  501    0  0.00000000000E+00  0.00000000000E+00  0.14096540946E+04  0.14096540946E+04  0.50400001928E-02 0.  1.
       -1   -1    0    0    0  501  0.00000000000E+00  0.00000000000E+00 -0.45546382703E+03  0.45546382706E+03  0.50400001928E-02 0. -1.
    10030    2    1    2    0    0  0.00000000000E+00  0.00000000000E+00  0.95419026758E+03  0.18651179217E+04  0.16025560193E+04 0.  0.
        5    1    3    3  502    0 -0.12542714659E+03  0.51977709962E+03  0.11716295836E+04  0.12878812730E+04  0.46999998093E+01 0.  1.
       -5    1    3    3    0  502  0.12542714659E+03 -0.51977709962E+03 -0.21743931598E+03  0.57723664863E+03  0.46999998093E+01 0. -1.
</event>
<event>
 5   0  0.7849690E-05  0.1599835E+04  0.7818609E-02  0.8820649E-01
        2   -1    0    0  501    0  0.00000000000E+00  0.00000000000E+00  0.30348085294E+03  0.30348085295E+03  0.25500000920E-02 0.  1.
       -2   -1    0    0    0  501  0.00000000000E+00  0.00000000000E+00 -0.21084292645E+04  0.21084292645E+04  0.25500000920E-02 0. -1.
    10030    2    1    2    0    0  0.00000000000E+00  0.00000000000E+00 -0.18049484116E+04  0.24119101175E+04  0.15998348809E+04 0.  0.
        3    1    3    3  502    0 -0.20791611434E+03  0.22857865680E+03 -0.20148237011E+04  0.20383797167E+04  0.10100000352E+00 0. -1.
       -3    1    3    3    0  502  0.20791611434E+03 -0.22857865680E+03  0.20987528949E+03  0.37353040075E+03  0.10100000352E+00 0.  1.
</event>
<event>
 5   0  0.8694033E-05  0.1599688E+04  0.7818609E-02  0.8820740E-01
       -2   -1    0    0    0  501  0.00000000000E+00  0.00000000000E+00  0.97448190778E+03  0.97448190779E+03  0.25500000920E-02 0. -1.
        2   -1    0    0  501    0  0.00000000000E+00  0.00000000000E+00 -0.65650322609E+03  0.65650322609E+03  0.25500000920E-02 0.  1.
    10030    2    1    2    0    0  0.00000000000E+00  0.00000000000E+00  0.31797868170E+03  0.16309851339E+04  0.15996881149E+04 0.  0.
        1    1    3    3  502    0  0.17552794856E+03 -0.78014991733E+03  0.14113787734E+03  0.81201222570E+03  0.50400001928E-02 0. -1.
       -1    1    3    3    0  502 -0.17552794856E+03  0.78014991733E+03  0.17684080435E+03  0.81897290819E+03  0.50400001928E-02 0.  1.
</event>
<event>
 5   0  0.4314657E-05  0.1600780E+04  0.7818609E-02  0.8820069E-01
        1   -1    0    0  501    0  0.00000000000E+00  0.00000000000E+00  0.13504524913E+04  0.13504524913E+04  0.50400001928E-02 0. -1.
       -1   -1    0    0    0  501  0.00000000000E+00  0.00000000000E+00 -0.47437765638E+03  0.47437765641E+03  0.50400001928E-02 0.  1.
    10030    2    1    2    0    0  0.00000000000E+00  0.00000000000E+00  0.87607483493E+03  0.18248301477E+04  0.16007804196E+04 0.  0.
        5    1    3    3  502    0 -0.42027915092E+03 -0.11299288642E+03 -0.32769219302E+03  0.54479924784E+03  0.46999998093E+01 0.  1.
       -5    1    3    3    0  502  0.42027915092E+03  0.11299288642E+03  0.12037670280E+04  0.12800308999E+04  0.46999998093E+01 0. -1.
</event>
<event>
 5   0  0.4211419E-05  0.1602537E+04  0.7818609E-02  0.8818991E-01
        1   -1    0    0  501    0  0.00000000000E+00  0.00000000000E+00  0.70252061521E+03  0.70252061523E+03  0.50400001928E-02 0. -1.
       -1   -1    0    0    0  501  0.00000000000E+00  0.00000000000E+00 -0.91389705210E+03  0.91389705211E+03  0.50400001928E-02 0.  1.
    10030    2    1    2    0    0  0.00000000000E+00  0.00000000000E+00 -0.21137643689E+03  0.16164176673E+04  0.16025373871E+04 0.  0.
        2    1    3    3  502    0  0.52271868002E+02 -0.26445105492E+02 -0.91173419902E+03  0.91361421916E+03  0.25500000920E-02 0.  1.
       -2    1    3    3    0  502 -0.52271868002E+02  0.26445105492E+02  0.70035776213E+03  0.70280344818E+03  0.25500000920E-02 0. -1.
</event>
<event>
 5   0  0.4314657E-05  0.1600438E+04  0.7818609E-02  0.8820279E-01
        1   -1    0    0  501    0  0.00000000000E+00  0.00000000000E+00  0.33891561102E+03  0.33891561106E+03  0.50400001928E-02 0. -1.
       -1   -1    0    0    0  501  0.00000000000E+00  0.00000000000E+00 -0.18894093323E+04  0.18894093323E+04  0.50400001928E-02 0.  1.
    10030    2    1    2    0    0  0.00000000000E+00  0.00000000000E+00 -0.15504937213E+04  0.22283249434E+04  0.16004378381E+04 0.  0.
        5    1    3    3  502    0 -0.14897151365E+03  0.72632761272E+03 -0.35619742923E+03  0.82258313347E+03  0.46999998093E+01 0. -1.
       -5    1    3    3    0  502  0.14897151365E+03 -0.72632761272E+03 -0.11942962921E+04  0.14057418099E+04  0.46999998093E+01 0.  1.
</event>
<event>
 5   0  0.4211419E-05  0.1599621E+04  0.7818609E-02  0.8820781E-01
       -1   -1    0    0    0  501  0.00000000000E+00  0.00000000000E+00  0.12682310504E+04  0.12682310504E+04  0.50400001928E-02 0.  1.
        1   -1    0    0  501    0  0.00000000000E+00  0.00000000000E+00 -0.50440077299E+03  0.50440077302E+03  0.50400001928E-02 0. -1.
    10030    2    1    2    0    0  0.00000000000E+00  0.00000000000E+00  0.76383027741E+03  0.17726318234E+04  0.15996208578E+04 0.  0.
        2    1    3    3  502    0  0.55111633594E+03 -0.57823969790E+03  0.33750085297E+03  0.86717771520E+03  0.25500000920E-02 0.  1.
       -2    1    3    3    0  502 -0.55111633594E+03  0.57823969790E+03  0.42632942444E+03  0.90545410824E+03  0.25500000920E-02 0. -1.
</event>
<event>
 5   0  0.4314657E-05  0.1578625E+04  0.7818609E-02  0.8833788E-01
        1   -1    0    0  501    0  0.00000000000E+00  0.00000000000E+00  0.14548076234E+04  0.14548076234E+04  0.50400001928E-02 0. -1.
       -1   -1    0    0    0  501  0.00000000000E+00  0.00000000000E+00 -0.42824509114E+03  0.42824509117E+03  0.50400001928E-02 0.  1.
    10030    2    1    2    0    0  0.00000000000E+00  0.00000000000E+00  0.10265625323E+04  0.18830527146E+04  0.15786250008E+04 0.  0.
        5    1    3    3  502    0 -0.66283026415E+03 -0.22995441474E+03  0.81924973864E+02  0.70636873038E+03  0.46999998093E+01 0. -1.
       -5    1    3    3    0  502  0.66283026415E+03  0.22995441474E+03  0.94463755840E+03  0.11766839842E+04  0.46999998093E+01 0.  1.
</event>
<event>
 5   0  0.4211419E-05  0.1598276E+04  0.7818609E-02  0.8821608E-01
       -1   -1    0    0    0  501  0.00000000000E+00  0.00000000000E+00  0.50060163197E+03  0.50060163199E+03  0.50400001928E-02 0.  1.
        1   -1    0    0  501    0  0.00000000000E+00  0.00000000000E+00 -0.12757076200E+04  0.12757076200E+04  0.50400001928E-02 0. -1.
    10030    2    1    2    0    0  0.00000000000E+00  0.00000000000E+00 -0.77510598800E+03  0.17763092520E+04  0.15982757165E+04 0.  0.
        2    1    3    3  502    0 -0.44837908503E+03  0.30904278496E+03 -0.10375695448E+04  0.11717942683E+04  0.25500000920E-02 0. -1.
       -2    1    3    3    0  502  0.44837908503E+03 -0.30904278496E+03  0.26246355682E+03  0.60451498368E+03  0.25500000920E-02 0.  1.
</event>
<event>
 5   0  0.7849690E-05  0.1600125E+04  0.7818609E-02  0.8820471E-01
        2   -1    0    0  501    0  0.00000000000E+00  0.00000000000E+00  0.13682868311E+04  0.13682868311E+04  0.25500000920E-02 0. -1.
       -2   -1    0    0    0  501  0.00000000000E+00  0.00000000000E+00 -0.46781118659E+03  0.46781118660E+03  0.25500000920E-02 0.  1.
    10030    2    1    2    0    0  0.00000000000E+00  0.00000000000E+00  0.90047564452E+03  0.18360980177E+04  0.16001248527E+04 0.  0.
        3    1    3    3  502    0 -0.58338507008E+03  0.30554125638E+03 -0.71081042481E+02  0.66237913927E+03  0.10100000352E+00 0.  1.
       -3    1    3    3    0  502  0.58338507008E+03 -0.30554125638E+03  0.97155668700E+03  0.11737188784E+04  0.10100000352E+00 0. -1.
</event>
<event>
 5   0  0.7901257E-05  0.1599881E+04  0.7818609E-02  0.8820621E-01
        2   -1    0    0  501    0  0.00000000000E+00  0.00000000000E+00  0.64456874846E+03  0.64456874847E+03  0.25500000920E-02 0. -1.
       -2   -1    0    0    0  501  0.00000000000E+00  0.00000000000E+00 -0.99276421043E+03  0.99276421043E+03  0.25500000920E-02 0.  1.
    10030    2    1    2    0    0  0.00000000000E+00  0.00000000000E+00 -0.34819546197E+03  0.16373329589E+04  0.15998809764E+04 0.  0.
        2    1    3    3  502    0 -0.13234985490E+03 -0.33053098362E+03 -0.90720282304E+03  0.97456871351E+03  0.25500000920E-02 0.  1.
       -2    1    3    3    0  502  0.13234985490E+03  0.33053098362E+03  0.55900736107E+03  0.66276424539E+03  0.25500000920E-02 0. -1.
</event>
<event>
 5   0  0.8694033E-05  0.1604925E+04  0.7818609E-02  0.8817528E-01
       -2   -1    0    0    0  501  0.00000000000E+00  0.00000000000E+00  0.55273667073E+03  0.55273667074E+03  0.25500000920E-02 0. -1.
        2   -1    0    0  501    0  0.00000000000E+00  0.00000000000E+00 -0.11650145278E+04  0.11650145278E+04  0.25500000920E-02 0.  1.
    10030    2    1    2    0    0  0.00000000000E+00  0.00000000000E+00 -0.61227785704E+03  0.17177511985E+04  0.16049252337E+04 0.  0.
        1    1    3    3  502    0 -0.71102059167E+03 -0.88172393340E+02  0.80684662447E+02  0.72099560852E+03  0.50400001928E-02 0. -1.
       -1    1    3    3    0  502  0.71102059167E+03  0.88172393340E+02 -0.69296251948E+03  0.99675558999E+03  0.50400001928E-02 0.  1.
</event>
<event>
 5   0  0.4211419E-05  0.1597729E+04  0.7818609E-02  0.8821944E-01
        1   -1    0    0  501    0  0.00000000000E+00  0.00000000000E+00  0.59806980226E+03  0.59806980228E+03  0.50400001928E-02 0. -1.
       -1   -1    0    0    0  501  0.00000000000E+00  0.00000000000E+00 -0.10670735402E+04  0.10670735402E+04  0.50400001928E-02 0.  1.
    10030    2    1    2    0    0  0.00000000000E+00  0.00000000000E+00 -0.46900373793E+03  0.16651433425E+04  0.15977289648E+04 0.  0.
        2    1    3    3  502    0  0.37686932716E+03 -0.60345701224E+03 -0.61314053676E+03  0.93921891655E+03  0.25500000920E-02 0.  1.
       -2    1    3    3    0  502 -0.37686932716E+03  0.60345701224E+03  0.14413679883E+03  0.72592442593E+03  0.25500000920E-02 0. -1.
</event>
<event>
 5   0  0.8620155E-05  0.1610035E+04  0.7818609E-02  0.8814407E-01
        2   -1    0    0  501    0  0.00000000000E+00  0.00000000000E+00  0.10344963440E+04  0.10344963440E+04  0.25500000920E-02 0. -1.
       -2   -1    0    0    0  501  0.00000000000E+00  0.00000000000E+00 -0.62644309073E+03  0.62644309073E+03  0.25500000920E-02 0.  1.
    10030    2    1    2    0    0  0.00000000000E+00  0.00000000000E+00  0.40805325323E+03  0.16609394347E+04  0.16100348904E+04 0.  0.
        4    1    3    3  502    0  0.15376456297E+03  0.76173594341E+02 -0.60735543757E+03  0.63113247242E+03  0.12699999809E+01 0.  1.
       -4    1    3    3    0  502 -0.15376456297E+03 -0.76173594341E+02  0.10154086908E+04  0.10298069623E+04  0.12699999809E+01 0. -1.
</event>
<event>
 5   0  0.4504463E-05  0.1600456E+04  0.7818609E-02  0.8820268E-01
       -1   -1    0    0    0  501  0.00000000000E+00  0.00000000000E+00  0.58825652431E+03  0.58825652433E+03  0.50400001928E-02 0. -1.
        1   -1    0    0  501    0  0.00000000000E+00  0.00000000000E+00 -0.10885806794E+04  0.10885806794E+04  0.50400001928E-02 0.  1.
    10030    2    1    2    0    0  0.00000000000E+00  0.00000000000E+00 -0.50032415506E+03  0.16768372037E+04  0.16004557937E+04 0.  0.
        1    1    3    3  502    0  0.74874080844E+03  0.26444932566E+03 -0.14634506546E+03  0.80744233372E+03  0.50400001928E-02 0. -1.
       -1    1    3    3    0  502 -0.74874080844E+03 -0.26444932566E+03 -0.35397908961E+03  0.86939487000E+03  0.50400001928E-02 0.  1.
</event>
<event>
 5   0  0.4373026E-05  0.1598475E+04  0.7818609E-02  0.8821485E-01
        1   -1    0    0  501    0  0.00000000000E+00  0.00000000000E+00  0.97792550173E+03  0.97792550174E+03  0.50400001928E-02 0. -1.
       -1   -1    0    0    0  501  0.00000000000E+00  0.00000000000E+00 -0.65319968946E+03  0.65319968948E+03  0.50400001928E-02 0.  1.
    10030    2    1    2    0    0  0.00000000000E+00  0.00000000000E+00  0.32472581227E+03  0.16311251912E+04  0.15984750659E+04 0.  0.
        4    1    3    3  502    0 -0.37415857678E+02  0.57375719781E+03 -0.40411749539E+03  0.70278718787E+03  0.12699999809E+01 0.  1.
       -4    1    3    3    0  502  0.37415857678E+02 -0.57375719781E+03  0.72884330766E+03  0.92833800336E+03  0.12699999809E+01 0. -1.
</event>
<event>
 5   0  0.7849690E-05  0.1599340E+04  0.7818609E-02  0.8820953E-01
        2   -1    0    0  501    0  0.00000000000E+00  0.00000000000E+00  0.82741408948E+03  0.82741408948E+03  0.25500000920E-02 0.  1.
       -2   -1    0    0    0  501  0.00000000000E+00  0.00000000000E+00 -0.77285658297E+03  0.77285658298E+03  0.25500000920E-02 0. -1.
    10030    2    1    2    0    0  0.00000000000E+00  0.00000000000E+00  0.54557506503E+02  0.16002706725E+04  0.15993403964E+04 0.  0.
        3    1    3    3  502    0 -0.67734971371E+03  0.32406261571E+03 -0.24793250555E+03  0.79075264847E+03  0.10100000352E+00 0. -1.
       -3    1    3    3    0  502  0.67734971371E+03 -0.32406261571E+03  0.30249001205E+03  0.80951802398E+03  0.10100000352E+00 0.  1.
</event>
<event>
 5   0  0.4314657E-05  0.1599681E+04  0.7818609E-02  0.8820744E-01
        1   -1    0    0  501    0  0.00000000000E+00  0.00000000000E+00  0.67129531193E+03  0.67129531195E+03  0.50400001928E-02 0. -1.
       -1   -1    0    0    0  501  0.00000000000E+00  0.00000000000E+00 -0.95300088216E+03  0.95300088217E+03  0.50400001928E-02 0.  1.
    10030    2    1    2    0    0  0.00000000000E+00  0.00000000000E+00 -0.28170557023E+03  0.16242961941E+04  0.15996812489E+04 0.  0.
        5    1    3    3  502    0  0.87700634718E+02 -0.50179756122E+03  0.48526405588E+03  0.70355915721E+03  0.46999998093E+01 0. -1.
       -5    1    3    3    0  502 -0.87700634718E+02  0.50179756122E+03 -0.76696962610E+03  0.92073703691E+03  0.46999998093E+01 0.  1.
</event>
<event>
 5   0  0.7849690E-05  0.1597450E+04  0.7818609E-02  0.8822116E-01
       -2   -1    0    0    0  501  0.00000000000E+00  0.00000000000E+00  0.47203232355E+03  0.47203232356E+03  0.25500000920E-02 0.  1.
        2   -1    0    0  501    0  0.00000000000E+00  0.00000000000E+00 -0.13515214880E+04  0.13515214880E+04  0.25500000920E-02 0. -1.
    10030    2    1    2    0    0  0.00000000000E+00  0.00000000000E+00 -0.87948916441E+03  0.18235538115E+04  0.15974502537E+04 0.  0.
        3    1    3    3  502    0 -0.44901468907E+02 -0.18361831483E+03 -0.13256195510E+04  0.13390291377E+04  0.10100000352E+00 0. -1.
       -3    1    3    3    0  502  0.44901468907E+02  0.18361831483E+03  0.44613038661E+03  0.48452467379E+03  0.10100000352E+00 0.  1.
</event>
<event>
 5   0  0.4373026E-05  0.1600566E+04  0.7818609E-02  0.8820200E-01
        1   -1    0    0  501    0  0.00000000000E+00  0.00000000000E+00  0.68770599746E+03  0.68770599748E+03  0.50400001928E-02 0. -1.
       -1   -1    0    0    0  501  0.00000000000E+00  0.00000000000E+00 -0.93128925889E+03  0.93128925890E+03  0.50400001928E-02 0.  1.
    10030    2    1    2    0    0  0.00000000000E+00  0.00000000000E+00 -0.24358326143E+03  0.16189952564E+04  0.16005664107E+04 0.  0.
        4    1    3    3  502    0 -0.54224160181E+02  0.34420748427E+03 -0.85052586550E+03  0.91913813574E+03  0.12699999809E+01 0.  1.
       -4    1    3    3    0  502  0.54224160181E+02 -0.34420748427E+03  0.60694260407E+03  0.69985712064E+03  0.12699999809E+01 0. -1.
</event>
<event>
 5   0  0.4314657E-05  0.1601694E+04  0.7818609E-02  0.8819508E-01
       -1   -1    0    0    0  501  0.00000000000E+00  0.00000000000E+00  0.12156026121E+04  0.12156026121E+04  0.50400001928E-02 0. -1.
        1   -1    0    0  501    0  0.00000000000E+00  0.00000000000E+00 -0.52760351269E+03  0.52760351272E+03  0.50400001928E-02 0.  1.
    10030    2    1    2    0    0  0.00000000000E+00  0.00000000000E+00  0.68799909940E+03  0.17432061248E+04  0.16016943631E+04 0.  0.
        5    1    3    3  502    0  0.25488406758E+03 -0.35343601201E+03 -0.38726498192E+03  0.58299155973E+03  0.46999998093E+01 0.  1.
       -5    1    3    3    0  502 -0.25488406758E+03  0.35343601201E+03  0.10752640813E+04  0.11602145651E+04  0.46999998093E+01 0. -1.
</event>
<event>
 5   0  0.8037548E-05  0.1599696E+04  0.7818609E-02  0.8820735E-01
        2   -1    0    0  501    0  0.00000000000E+00  0.00000000000E+00  0.14307929014E+04  0.14307929014E+04  0.25500000920E-02 0. -1.
       -2   -1    0    0    0  501  0.00000000000E+00  0.00000000000E+00 -0.44713422662E+03  0.44713422663E+03  0.25500000920E-02 0.  1.
    10030    2    1    2    0    0  0.00000000000E+00  0.00000000000E+00  0.98365867477E+03  0.18779271280E+04  0.15996955678E+04 0.  0.
        5    1    3    3  502    0 -0.44539677916E+03 -0.20175195122E+03  0.12348915653E+04  0.13281797351E+04  0.46999998093E+01 0. -1.
       -5    1    3    3    0  502  0.44539677916E+03  0.20175195122E+03 -0.25123289055E+03  0.54974739290E+03  0.46999998093E+01 0.  1.
</event>
<event>
 5   0  0.4504463E-05  0.1600293E+04  0.7818609E-02  0.8820368E-01
        1   -1    0    0  501    0  0.00000000000E+00  0.00000000000E+00  0.98310770826E+03  0.98310770827E+03  0.50400001928E-02 0. -1.
       -1   -1    0    0    0  501  0.00000000000E+00  0.00000000000E+00 -0.65123510334E+03  0.65123510336E+03  0.50400001928E-02 0.  1.
    10030    2    1    2    0    0  0.00000000000E+00  0.00000000000E+00  0.33187260492E+03  0.16343428116E+04  0.16002927857E+04 0.  0.
        1    1    3    3  502    0  0.72039894200E+03 -0.58021048081E+02  0.51659776258E+03  0.88837735562E+03  0.50400001928E-02 0. -1.
       -1    1    3    3    0  502 -0.72039894200E+03  0.58021048081E+02 -0.18472515766E+03  0.74596545601E+03  0.50400001928E-02 0.  1.
</event>
<event>
 5   0  0.8037548E-05  0.1601211E+04  0.7818609E-02  0.8819804E-01
       -2   -1    0    0    0  501  0.00000000000E+00  0.00000000000E+00  0.43994203416E+03  0.43994203416E+03  0.25500000920E-02 0. -1.
        2   -1    0    0  501    0  0.00000000000E+00  0.00000000000E+00 -0.14569402947E+04  0.14569402947E+04  0.25500000920E-02 0.  1.
    10030    2    1    2    0    0  0.00000000000E+00  0.00000000000E+00 -0.10169982606E+04  0.18968823289E+04  0.16012111377E+04 0.  0.
        5    1    3    3  502    0  0.64170603341E+03 -0.39778544564E+03 -0.82399848867E+03  0.11175936173E+04  0.46999998093E+01 0. -1.
       -5    1    3    3    0  502 -0.64170603341E+03  0.39778544564E+03 -0.19299977190E+03  0.77928871160E+03  0.46999998093E+01 0.  1.
</event>
<event>
 5   0  0.4211419E-05  0.1600327E+04  0.7818609E-02  0.8820347E-01
       -1   -1    0    0    0  501  0.00000000000E+00  0.00000000000E+00  0.49070441608E+03  0.49070441610E+03  0.50400001928E-02 0.  1.
        1   -1    0    0  501    0  0.00000000000E+00  0.00000000000E+00 -0.13047803346E+04  0.13047803346E+04  0.50400001928E-02 0. -1.
    10030    2    1    2    0    0  0.00000000000E+00  0.00000000000E+00 -0.81407591849E+03  0.17954847507E+04  0.16003268069E+04 0.  0.
        2    1    3    3  502    0 -0.58681378379E+02  0.43500909170E+03 -0.11576418838E+04  0.12380675043E+04  0.25500000920E-02 0. -1.
       -2    1    3    3    0  502  0.58681378379E+02 -0.43500909170E+03  0.34356596532E+03  0.55741724638E+03  0.25500000920E-02 0.  1.
</event>
<event>
 5   0  0.4256406E-05  0.1599828E+04  0.7818609E-02  0.8820654E-01
       -1   -1    0    0    0  501  0.00000000000E+00  0.00000000000E+00  0.79718830347E+03  0.79718830348E+03  0.50400001928E-02 0.  1.
        1   -1    0    0  501    0  0.00000000000E+00  0.00000000000E+00 -0.80264899978E+03  0.80264899980E+03  0.50400001928E-02 0. -1.
    10030    2    1    2    0    0  0.00000000000E+00  0.00000000000E+00 -0.54606963151E+01  0.15998373033E+04  0.15998279838E+04 0.  0.
        3    1    3    3  502    0  0.57363262506E+03 -0.55460887337E+03 -0.59449222991E+02  0.80011224917E+03  0.10100000352E+00 0. -1.
       -3    1    3    3    0  502 -0.57363262506E+03  0.55460887337E+03  0.53988526676E+02  0.79972505411E+03  0.10100000352E+00 0.  1.
</event>
<event>
 5   0  0.4314657E-05  0.1599630E+04  0.7818609E-02  0.8820775E-01
        1   -1    0    0  501    0  0.00000000000E+00  0.00000000000E+00  0.10670735626E+04  0.10670735626E+04  0.50400001928E-02 0.  1.
       -1   -1    0    0    0  501  0.00000000000E+00  0.00000000000E+00 -0.59949409559E+03  0.59949409561E+03  0.50400001928E-02 0. -1.
    10030    2    1    2    0    0  0.00000000000E+00  0.00000000000E+00  0.46757946698E+03  0.16665676582E+04  0.15996303327E+04 0.  0.
        5    1    3    3  502    0  0.64820204917E+03 -0.11883956586E+03 -0.23837835976E+03  0.70081029627E+03  0.46999998093E+01 0. -1.
       -5    1    3    3    0  502 -0.64820204917E+03  0.11883956586E+03  0.70595782674E+03  0.96575736192E+03  0.46999998093E+01 0.  1.
</event>
<event>
 5   0  0.7901257E-05  0.1599863E+04  0.7818609E-02  0.8820632E-01
        2   -1    0    0  501    0  0.00000000000E+00  0.00000000000E+00  0.17391595716E+04  0.17391595716E+04  0.25500000920E-02 0. -1.
       -2   -1    0    0    0  501  0.00000000000E+00  0.00000000000E+00 -0.36793088015E+03  0.36793088016E+03  0.25500000920E-02 0.  1.
    10030    2    1    2    0    0  0.00000000000E+00  0.00000000000E+00  0.13712286915E+04  0.21070904518E+04  0.15998631340E+04 0.  0.
        2    1    3    3  502    0 -0.48000104352E+03 -0.53122518684E+03  0.21572422311E+03  0.74775540209E+03  0.25500000920E-02 0.  1.
       -2    1    3    3    0  502  0.48000104352E+03  0.53122518684E+03  0.11555044683E+04  0.13593350497E+04  0.25500000920E-02 0. -1.
</event>
<event>
 5   0  0.8694033E-05  0.1599697E+04  0.7818609E-02  0.8820734E-01
       -2   -1    0    0    0  501  0.00000000000E+00  0.00000000000E+00  0.38722813041E+03  0.38722813042E+03  0.25500000920E-02 0.  1.
        2   -1    0    0  501    0  0.00000000000E+00  0.00000000000E+00 -0.16521467157E+04  0.16521467157E+04  0.25500000920E-02 0. -1.
    10030    2    1    2    0    0  0.00000000000E+00  0.00000000000E+00 -0.12649185853E+04  0.20393748461E+04  0.15996970762E+04 0.  0.
        1    1    3    3  502    0  0.70202533861E+03  0.24304959925E+03 -0.25461068064E+03  0.78532750013E+03  0.50400001928E-02 0.  1.
       -1    1    3    3    0  502 -0.70202533861E+03 -0.24304959925E+03 -0.10103079047E+04  0.12540473460E+04  0.50400001928E-02 0. -1.
</event>
<event>
 5   0  0.4504463E-05  0.1590241E+04  0.7818609E-02  0.8826566E-01
       -1   -1    0    0    0  501  0.00000000000E+00  0.00000000000E+00  0.76873590312E+03  0.76873590314E+03  0.50400001928E-02 0. -1.
        1   -1    0    0  501    0  0.00000000000E+00  0.00000000000E+00 -0.82241033070E+03  0.82241033071E+03  0.50400001928E-02 0.  1.
    10030    2    1    2    0    0  0.00000000000E+00  0.00000000000E+00 -0.53674427574E+02  0.15911462338E+04  0.15902406715E+04 0.  0.
        1    1    3    3  502    0 -0.57139942021E+02  0.63840932742E+03 -0.49762072347E+03  0.81145414335E+03  0.50400001928E-02 0. -1.
       -1    1    3    3    0  502  0.57139942021E+02 -0.63840932742E+03  0.44394629590E+03  0.77969209049E+03  0.50400001928E-02 0.  1.
</event>
<event>
 5   0  0.4256406E-05  0.1601768E+04  0.7818609E-02  0.8819463E-01
        1   -1    0    0  501    0  0.00000000000E+00  0.00000000000E+00  0.57069106561E+03  0.57069106563E+03  0.50400001928E-02 0. -1.
       -1   -1    0    0    0  501  0.00000000000E+00  0.00000000000E+00 -0.11239270076E+04  0.11239270076E+04  0.50400001928E-02 0.  1.
    10030    2    1    2    0    0  0.00000000000E+00  0.00000000000E+00 -0.55323594202E+03  0.16946180733E+04  0.16017679004E+04 0.  0.
        3    1    3    3  502    0  0.75069468589E+03 -0.17955150256E+02 -0.57123896356E+03  0.94349290539E+03  0.10100000352E+00 0.  1.
       -3    1    3    3    0  502 -0.75069468589E+03  0.17955150256E+02  0.18003021542E+02  0.75112516788E+03  0.10100000352E+00 0. -1.
</event>
<event>
 5   0  0.4256406E-05  0.1596089E+04  0.7818609E-02  0.8822954E-01
       -1   -1    0    0    0  501  0.00000000000E+00  0.00000000000E+00  0.95810521651E+03  0.95810521652E+03  0.50400001928E-02 0. -1.
        1   -1    0    0  501    0  0.00000000000E+00  0.00000000000E+00 -0.66472382964E+03  0.66472382966E+03  0.50400001928E-02 0.  1.
    10030    2    1    2    0    0  0.00000000000E+00  0.00000000000E+00  0.29338138686E+03  0.16228290462E+04  0.15960894320E+04 0.  0.
        3    1    3    3  502    0  0.28850201186E+03 -0.11427764951E+03 -0.60087018929E+03  0.67626754070E+03  0.10100000352E+00 0.  1.
       -3    1    3    3    0  502 -0.28850201186E+03  0.11427764951E+03  0.89425157615E+03  0.94656150549E+03  0.10100000352E+00 0. -1.
</event>
<event>
 5   0  0.4211419E-05  0.1598757E+04  0.7818609E-02  0.8821312E-01
        1   -1    0    0  501    0  0.00000000000E+00  0.00000000000E+00  0.91305851904E+03  0.91305851905E+03  0.50400001928E-02 0.  1.
       -1   -1    0    0    0  501  0.00000000000E+00  0.00000000000E+00 -0.69985227665E+03  0.69985227667E+03  0.50400001928E-02 0. -1.
    10030    2    1    2    0    0  0.00000000000E+00  0.00000000000E+00  0.21320624239E+03  0.16129107957E+04  0.15987571214E+04 0.  0.
        2    1    3    3  502    0 -0.30072530482E+03 -0.60843249351E+03  0.53269305232E+03  0.86277905406E+03  0.25500000920E-02 0.  1.
       -2    1    3    3    0  502  0.30072530482E+03  0.60843249351E+03 -0.31948680993E+03  0.75013174166E+03  0.25500000920E-02 0. -1.
</event>
<event>
 5   0  0.8694033E-05  0.1596321E+04  0.7818609E-02  0.8822811E-01
        2   -1    0    0  501    0  0.00000000000E+00  0.00000000000E+00  0.10494299973E+04  0.10494299973E+04  0.25500000920E-02 0. -1.
       -2   -1    0    0    0  501  0.00000000000E+00  0.00000000000E+00 -0.60705360309E+03  0.60705360309E+03  0.25500000920E-02 0.  1.
    10030    2    1    2    0    0  0.00000000000E+00  0.00000000000E+00  0.44237639423E+03  0.16564836004E+04  0.15963210969E+04 0.  0.
        1    1    3    3  502    0  0.15690344371E+03 -0.16821931247E+03  0.10142860707E+04  0.10400445476E+04  0.50400001928E-02 0. -1.
       -1    1    3    3    0  502 -0.15690344371E+03  0.16821931247E+03 -0.57190967649E+03  0.61643905280E+03  0.50400001928E-02 0.  1.
</event>
<event>
 5   0  0.7849690E-05  0.1603893E+04  0.7818609E-02  0.8818160E-01
       -2   -1    0    0    0  501  0.00000000000E+00  0.00000000000E+00  0.49763927022E+03  0.49763927023E+03  0.25500000920E-02 0. -1.
        2   -1    0    0  501    0  0.00000000000E+00  0.00000000000E+00 -0.12923385719E+04  0.12923385720E+04  0.25500000920E-02 0.  1.
    10030    2    1    2    0    0  0.00000000000E+00  0.00000000000E+00 -0.79469930173E+03  0.17899778422E+04  0.16038932930E+04 0.  0.
        3    1    3    3  502    0 -0.35342351154E+03  0.58022659935E+03 -0.87286781931E+03  0.11061054766E+04  0.10100000352E+00 0.  1.
       -3    1    3    3    0  502  0.35342351154E+03 -0.58022659935E+03  0.78168517587E+02  0.68387236561E+03  0.10100000352E+00 0. -1.
</event>
<event>
 5   0  0.4256406E-05  0.1596891E+04  0.7818609E-02  0.8822460E-01
        1   -1    0    0  501    0  0.00000000000E+00  0.00000000000E+00  0.12339701240E+04  0.12339701240E+04  0.50400001928E-02 0.  1.
       -1   -1    0    0    0  501  0.00000000000E+00  0.00000000000E+00 -0.51663777071E+03  0.51663777073E+03  0.50400001928E-02 0. -1.
    10030    2    1    2    0    0  0.00000000000E+00  0.00000000000E+00  0.71733235331E+03  0.17506078948E+04  0.15968914478E+04 0.  0.
        3    1    3    3  502    0  0.18902319554E+03  0.73250134503E+03  0.63864752697E+03  0.99002962725E+03  0.10100000352E+00 0.  1.
       -3    1    3    3    0  502 -0.18902319554E+03 -0.73250134503E+03  0.78684826334E+02  0.76057826751E+03  0.10100000352E+00 0. -1.
</event>
<event>
 5   0  0.8620155E-05  0.1598403E+04  0.7818609E-02  0.8821530E-01
       -2   -1    0    0    0  501  0.00000000000E+00  0.00000000000E+00  0.48203138406E+03  0.48203138406E+03  0.25500000920E-02 0. -1.
        2   -1    0    0  501    0  0.00000000000E+00  0.00000000000E+00 -0.13250651671E+04  0.13250651671E+04  0.25500000920E-02 0.  1.
    10030    2    1    2    0    0  0.00000000000E+00  0.00000000000E+00 -0.84303378303E+03  0.18070965512E+04  0.15984029485E+04 0.  0.
        4    1    3    3  502    0  0.26064437890E+03 -0.20311427757E+03  0.40118134683E+03  0.51974896628E+03  0.12699999809E+01 0. -1.
       -4    1    3    3    0  502 -0.26064437890E+03  0.20311427757E+03 -0.12442151299E+04  0.12873475849E+04  0.12699999809E+01 0.  1.
</event>
<event>
 5   0  0.4256406E-05  0.1601411E+04  0.7818609E-02  0.8819682E-01
       -1   -1    0    0    0  501  0.00000000000E+00  0.00000000000E+00  0.10905454813E+04  0.10905454813E+04  0.50400001928E-02 0. -1.
        1   -1    0    0  501    0  0.00000000000E+00  0.00000000000E+00 -0.58789776339E+03  0.58789776341E+03  0.50400001928E-02 0.  1.
    10030    2    1    2    0    0  0.00000000000E+00  0.00000000000E+00  0.50264771791E+03  0.16784432447E+04  0.16014109396E+04 0.  0.
        3    1    3    3  502    0 -0.14210710395E+03 -0.76798678426E+03  0.66396499663E+02  0.78384095017E+03  0.10100000352E+00 0.  1.
       -3    1    3    3    0  502  0.14210710395E+03  0.76798678426E+03  0.43625121825E+03  0.89460229455E+03  0.10100000352E+00 0. -1.
</event>
<event>
 5   0  0.4256406E-05  0.1600237E+04  0.7818609E-02  0.8820403E-01
       -1   -1    0    0    0  501  0.00000000000E+00  0.00000000000E+00  0.13093005055E+04  0.13093005055E+04  0.50400001928E-02 0.  1.
        1   -1    0    0  501    0  0.00000000000E+00  0.00000000000E+00 -0.48895515690E+03  0.48895515692E+03  0.50400001928E-02 0. -1.
    10030    2    1    2    0    0  0.00000000000E+00  0.00000000000E+00  0.82034534856E+03  0.17982556624E+04  0.16002365251E+04 0.  0.
        3    1    3    3  502    0 -0.55769288234E+03 -0.39647768436E+03 -0.55840070007E+02  0.68653771115E+03  0.10100000352E+00 0. -1.
       -3    1    3    3    0  502  0.55769288234E+03  0.39647768436E+03  0.87618541856E+03  0.11117179512E+04  0.10100000352E+00 0.  1.
</event>
<event>
 5   0  0.8037548E-05  0.1590854E+04  0.7818609E-02  0.8826187E-01
        2   -1    0    0  501    0  0.00000000000E+00  0.00000000000E+00  0.17581495655E+04  0.17581495655E+04  0.25500000920E-02 0.  1.
       -2   -1    0    0    0  501  0.00000000000E+00  0.00000000000E+00 -0.35986912352E+03  0.35986912352E+03  0.25500000920E-02 0. -1.
    10030    2    1    2    0    0  0.00000000000E+00  0.00000000000E+00  0.13982804420E+04  0.21180186890E+04  0.15908535359E+04 0.  0.
        5    1    3    3  502    0  0.78971272579E+03  0.49565763486E+02  0.80712675396E+03  0.11303002438E+04  0.46999998093E+01 0.  1.
       -5    1    3    3    0  502 -0.78971272579E+03 -0.49565763486E+02  0.59115368802E+03  0.98771844523E+03  0.46999998093E+01 0. -1.
</event>
<event>
 5   0  0.4373026E-05  0.1585379E+04  0.7818609E-02  0.8829581E-01
        1   -1    0    0  501    0  0.00000000000E+00  0.00000000000E+00  0.77612712511E+03  0.77612712512E+03  0.50400001928E-02 0.  1.
       -1   -1    0    0    0  501  0.00000000000E+00  0.00000000000E+00 -0.80960514303E+03  0.80960514305E+03  0.50400001928E-02 0. -1.
    10030    2    1    2    0    0  0.00000000000E+00  0.00000000000E+00 -0.33478017925E+02  0.15857322682E+04  0.15853788344E+04 0.  0.
        4    1    3    3  502    0  0.11698390860E+03  0.61551823717E+03 -0.50244685765E+03  0.80312040991E+03  0.12699999809E+01 0. -1.
       -4    1    3    3    0  502 -0.11698390860E+03 -0.61551823717E+03  0.46896883972E+03  0.78261185826E+03  0.12699999809E+01 0.  1.
</event>
<event>
 5   0  0.4256406E-05  0.1598454E+04  0.7818609E-02  0.8821499E-01
       -1   -1    0    0    0  501  0.00000000000E+00  0.00000000000E+00  0.51533835451E+03  0.51533835454E+03  0.50400001928E-02 0.  1.
        1   -1    0    0  501    0  0.00000000000E+00  0.00000000000E+00 -0.12395030668E+04  0.12395030668E+04  0.50400001928E-02 0. -1.
    10030    2    1    2    0    0  0.00000000000E+00  0.00000000000E+00 -0.72416471226E+03  0.17548414213E+04  0.15984535913E+04 0.  0.
        3    1    3    3  502    0 -0.96158130095E+02  0.14291888186E+03 -0.12188815159E+04  0.12309932383E+04  0.10100000352E+00 0. -1.
       -3    1    3    3    0  502  0.96158130095E+02 -0.14291888186E+03  0.49471680367E+03  0.52384818298E+03  0.10100000352E+00 0.  1.
</event>
<event>
 5   0  0.7901257E-05  0.1601988E+04  0.7818609E-02  0.8819328E-01
       -2   -1    0    0    0  501  0.00000000000E+00  0.00000000000E+00  0.61989737542E+03  0.61989737543E+03  0.25500000920E-02 0.  1.
        2   -1    0    0  501    0  0.00000000000E+00  0.00000000000E+00 -0.10349959752E+04  0.10349959752E+04  0.25500000920E-02 0. -1.
    10030    2    1    2    0    0  0.00000000000E+00  0.00000000000E+00 -0.41509859977E+03  0.16548933506E+04  0.16019878759E+04 0.  0.
        2    1    3    3  502    0 -0.14396819305E+03  0.28127567733E+02 -0.10210019857E+04  0.10314858484E+04  0.25500000920E-02 0. -1.
       -2    1    3    3    0  502  0.14396819305E+03 -0.28127567733E+02  0.60590338595E+03  0.62340750219E+03  0.25500000920E-02 0.  1.
</event>
<event>
 5   0  0.4373026E-05  0.1595688E+04  0.7818609E-02  0.8823201E-01
       -1   -1    0    0    0  501  0.00000000000E+00  0.00000000000E+00  0.28255692816E+03  0.28255692821E+03  0.50400001928E-02 0. -1.
        1   -1    0    0  501    0  0.00000000000E+00  0.00000000000E+00 -0.22528384566E+04  0.22528384566E+04  0.50400001928E-02 0.  1.
    10030    2    1    2    0    0  0.00000000000E+00  0.00000000000E+00 -0.19702815284E+04  0.25353953848E+04  0.15956880823E+04 0.  0.
        4    1    3    3  502    0  0.55749730766E+02 -0.79580863844E+03 -0.96674240623E+03  0.12534001414E+04  0.12699999809E+01 0. -1.
       -4    1    3    3    0  502 -0.55749730766E+02  0.79580863844E+03 -0.10035391222E+04  0.12819952434E+04  0.12699999809E+01 0.  1.
</event>
<event>
 5   0  0.8694033E-05  0.1600421E+04  0.7818609E-02  0.8820289E-01
        2   -1    0    0  501    0  0.00000000000E+00  0.00000000000E+00  0.14861097863E+04  0.14861097863E+04  0.25500000920E-02 0.  1.
       -2   -1    0    0    0  501  0.00000000000E+00  0.00000000000E+00 -0.43088121748E+03  0.43088121749E+03  0.25500000920E-02 0. -1.
    10030    2    1    2    0    0  0.00000000000E+00  0.00000000000E+00  0.10552285688E+04  0.19169910038E+04  0.16004209372E+04 0.  0.
        1    1    3    3  502    0  0.63826908422E+03  0.33097657746E+03  0.10683897345E+03  0.72687515088E+03  0.50400001928E-02 0. -1.
       -1    1    3    3    0  502 -0.63826908422E+03 -0.33097657746E+03  0.94838959535E+03  0.11901158529E+04  0.50400001928E-02 0.  1.
</event>
<event>
 5   0  0.4211419E-05  0.1600350E+04  0.7818609E-02  0.8820333E-01
       -1   -1    0    0    0  501  0.00000000000E+00  0.00000000000E+00  0.39070436079E+03  0.39070436082E+03  0.50400001928E-02 0. -1.
        1   -1    0    0  501    0  0.00000000000E+00  0.00000000000E+00 -0.16387842167E+04  0.16387842167E+04  0.50400001928E-02 0.  1.
    10030    2    1    2    0    0  0.00000000000E+00  0.00000000000E+00 -0.12480798559E+04  0.20294885775E+04  0.16003501366E+04 0.  0.
        2    1    3    3  502    0 -0.36416018296E+03  0.27083727166E+03 -0.14597850515E+04  0.15287046357E+04  0.25500000920E-02 0.  1.
       -2    1    3    3    0  502  0.36416018296E+03 -0.27083727166E+03  0.21170519558E+03  0.50078394185E+03  0.25500000920E-02 0. -1.
</event>
<event>
 5   0  0.4373026E-05  0.1600555E+04  0.7818609E-02  0.8820207E-01
        1   -1    0    0  501    0  0.00000000000E+00  0.00000000000E+00  0.11368199760E+04  0.11368199760E+04  0.50400001928E-02 0. -1.
       -1   -1    0    0    0  501  0.00000000000E+00  0.00000000000E+00 -0.56336479657E+03  0.56336479660E+03  0.50400001928E-02 0.  1.
    10030    2    1    2    0    0  0.00000000000E+00  0.00000000000E+00  0.57345517943E+03  0.17001847726E+04  0.16005553468E+04 0.  0.
        4    1    3    3  502    0  0.43912837941E+03  0.61938128353E+03  0.18048788095E+02  0.75946973583E+03  0.12699999809E+01 0.  1.
       -4    1    3    3    0  502 -0.43912837941E+03 -0.61938128353E+03  0.55540639133E+03  0.94071503678E+03  0.12699999809E+01 0. -1.
</event>
<event>
 5   0  0.7849690E-05  0.1601516E+04  0.7818609E-02  0.8819617E-01
        2   -1    0    0  501    0  0.00000000000E+00  0.00000000000E+00  0.16371909786E+04  0.16371909786E+04  0.25500000920E-02 0. -1.
       -2   -1    0    0    0  501  0.00000000000E+00  0.00000000000E+00 -0.39165459130E+03  0.39165459130E+03  0.25500000920E-02 0.  1.
    10030    2    1    2    0    0  0.00000000000E+00  0.00000000000E+00  0.12455363873E+04  0.20288455699E+04  0.16015159863E+04 0.  0.
        3    1    3    3  502    0  0.66554852316E+03 -0.44252637646E+03  0.68520268422E+03  0.10527521832E+04  0.10100000352E+00 0.  1.
       -3    1    3    3    0  502 -0.66554852316E+03  0.44252637646E+03  0.56033370304E+03  0.97609338667E+03  0.10100000352E+00 0. -1.
</event>
<event>
 5   0  0.4256406E-05  0.1599173E+04  0.7818609E-02  0.8821056E-01
        1   -1    0    0  501    0  0.00000000000E+00  0.00000000000E+00  0.65012892760E+03  0.65012892762E+03  0.50400001928E-02 0. -1.
       -1   -1    0    0    0  501  0.00000000000E+00  0.00000000000E+00 -0.98340315651E+03  0.98340315652E+03  0.50400001928E-02 0.  1.
    10030    2    1    2    0    0  0.00000000000E+00  0.00000000000E+00 -0.33327422892E+03  0.16335320841E+04  0.15991733359E+04 0.  0.
        3    1    3    3  502    0 -0.56543550706E+03 -0.53971240768E+03  0.53005424030E+01  0.78168721468E+03  0.10100000352E+00 0. -1.
       -3    1    3    3    0  502  0.56543550706E+03  0.53971240768E+03 -0.33857477132E+03  0.85184486946E+03  0.10100000352E+00 0.  1.
</event>
<event>
 5   0  0.7901257E-05  0.1599930E+04  0.7818609E-02  0.8820591E-01
        2   -1    0    0  501    0  0.00000000000E+00  0.00000000000E+00  0.88921722882E+03  0.88921722882E+03  0.25500000920E-02 0.  1.
       -2   -1    0    0    0  501  0.00000000000E+00  0.00000000000E+00 -0.71967133033E+03  0.71967133034E+03  0.25500000920E-02 0. -1.
    10030    2    1    2    0    0  0.00000000000E+00  0.00000000000E+00  0.16954589848E+03  0.16088885592E+04  0.15999301810E+04 0.  0.
        2    1    3    3  502    0 -0.19975955519E+03 -0.23246585112E+03  0.82782837837E+03  0.88274802513E+03  0.25500000920E-02 0.  1.
       -2    1    3    3    0  502  0.19975955519E+03  0.23246585112E+03 -0.65828247988E+03  0.72614053403E+03  0.25500000920E-02 0. -1.
</event>
<event>
 5   0  0.7849690E-05  0.1599202E+04  0.7818609E-02  0.8821038E-01
        2   -1    0    0  501    0  0.00000000000E+00  0.00000000000E+00  0.60034847607E+03  0.60034847607E+03  0.25500000920E-02 0.  1.
       -2   -1    0    0    0  501  0.00000000000E+00  0.00000000000E+00 -0.10649846796E+04  0.10649846797E+04  0.25500000920E-02 0. -1.
    10030    2    1    2    0    0  0.00000000000E+00  0.00000000000E+00 -0.46463620358E+03  0.16653331557E+04  0.15992022129E+04 0.  0.
        3    1    3    3  502    0 -0.13732753262E+03  0.66487275080E+02  0.58504906167E+03  0.60461708851E+03  0.10100000352E+00 0.  1.
       -3    1    3    3    0  502  0.13732753262E+03 -0.66487275080E+02 -0.10496852652E+04  0.10607160672E+04  0.10100000352E+00 0. -1.
</event>
<event>
 5   0  0.7901257E-05  0.1599316E+04  0.7818609E-02  0.8820968E-01
       -2   -1    0    0    0  501  0.00000000000E+00  0.00000000000E+00  0.50884629509E+03  0.50884629509E+03  0.25500000920E-02 0.  1.
        2   -1    0    0  501    0  0.00000000000E+00  0.00000000000E+00 -0.12566718767E+04  0.12566718767E+04  0.25500000920E-02 0. -1.
    10030    2    1    2    0    0  0.00000000000E+00  0.00000000000E+00 -0.74782558158E+03  0.17655181718E+04  0.15993158895E+04 0.  0.
        2    1    3    3  502    0  0.23921682106E+03 -0.58087418962E+03 -0.92011752362E+03  0.11141165868E+04  0.25500000920E-02 0. -1.
       -2    1    3    3    0  502 -0.23921682106E+03  0.58087418962E+03  0.17229194203E+03  0.65140158500E+03  0.25500000920E-02 0.  1.
</event>
<event>
 5   0  0.7901257E-05  0.1598827E+04  0.7818609E-02  0.8821269E-01
       -2   -1    0    0    0  501  0.00000000000E+00  0.00000000000E+00  0.46354731869E+03  0.46354731870E+03  0.25500000920E-02 0.  1.
        2   -1    0    0  501    0  0.00000000000E+00  0.00000000000E+00 -0.13786333051E+04  0.13786333051E+04  0.25500000920E-02 0. -1.
    10030    2    1    2    0    0  0.00000000000E+00  0.00000000000E+00 -0.91508598639E+03  0.18421806238E+04  0.15988267849E+04 0.  0.
        2    1    3    3  502    0  0.45685139005E+03  0.61912503066E+03 -0.70742276484E+03  0.10452157502E+04  0.25500000920E-02 0.  1.
       -2    1    3    3    0  502 -0.45685139005E+03 -0.61912503066E+03 -0.20766322155E+03  0.79696487361E+03  0.25500000920E-02 0. -1.
</event>
<event>
 5   0  0.4314657E-05  0.1598909E+04  0.7818609E-02  0.8821219E-01
       -1   -1    0    0    0  501  0.00000000000E+00  0.00000000000E+00  0.43170152499E+03  0.43170152502E+03  0.50400001928E-02 0.  1.
        1   -1    0    0  501    0  0.00000000000E+00  0.00000000000E+00 -0.14804841784E+04  0.14804841784E+04  0.50400001928E-02 0. -1.
    10030    2    1    2    0    0  0.00000000000E+00  0.00000000000E+00 -0.10487826534E+04  0.19121857034E+04  0.15989087248E+04 0.  0.
        5    1    3    3  502    0  0.40542618907E+02  0.23053875051E+03  0.38978360013E+03  0.45469238433E+03  0.46999998093E+01 0.  1.
       -5    1    3    3    0  502 -0.40542618907E+02 -0.23053875051E+03 -0.14385662535E+04  0.14574933191E+04  0.46999998093E+01 0. -1.
</event>
<event>
 5   0  0.4373026E-05  0.1593531E+04  0.7818609E-02  0.8824532E-01
       -1   -1    0    0    0  501  0.00000000000E+00  0.00000000000E+00  0.13775879024E+04  0.13775879025E+04  0.50400001928E-02 0.  1.
        1   -1    0    0  501    0  0.00000000000E+00  0.00000000000E+00 -0.46083102863E+03  0.46083102866E+03  0.50400001928E-02 0. -1.
    10030    2    1    2    0    0  0.00000000000E+00  0.00000000000E+00  0.91675687382E+03  0.18384189311E+04  0.15935309851E+04 0.  0.
        4    1    3    3  502    0 -0.39917784130E+03 -0.52987702910E+02  0.12515533301E+04  0.13147387561E+04  0.12699999809E+01 0.  1.
       -4    1    3    3    0  502  0.39917784130E+03  0.52987702910E+02 -0.33479645633E+03  0.52368017503E+03  0.12699999809E+01 0. -1.
</event>
<event>
 5   0  0.7901257E-05  0.1602170E+04  0.7818609E-02  0.8819216E-01
       -2   -1    0    0    0  501  0.00000000000E+00  0.00000000000E+00  0.30714034444E+03  0.30714034445E+03  0.25500000920E-02 0.  1.
        2   -1    0    0  501    0  0.00000000000E+00  0.00000000000E+00 -0.20893933463E+04  0.20893933463E+04  0.25500000920E-02 0. -1.
    10030    2    1    2    0    0  0.00000000000E+00  0.00000000000E+00 -0.17822530019E+04  0.23965336908E+04  0.16021697689E+04 0.  0.
        2    1    3    3  502    0 -0.26902223633E+03 -0.43879538149E+03  0.27086633503E+02  0.51541055109E+03  0.25500000920E-02 0.  1.
       -2    1    3    3    0  502  0.26902223633E+03  0.43879538149E+03 -0.18093396354E+04  0.18811231397E+04  0.25500000920E-02 0. -1.
</event>
<event>
 5   0  0.7901257E-05  0.1614664E+04  0.7818609E-02  0.8811590E-01
        2   -1    0    0  501    0  0.00000000000E+00  0.00000000000E+00  0.12600192339E+04  0.12600192339E+04  0.25500000920E-02 0. -1.
       -2   -1    0    0    0  501  0.00000000000E+00  0.00000000000E+00 -0.51728177411E+03  0.51728177412E+03  0.25500000920E-02 0.  1.
    10030    2    1    2    0    0  0.00000000000E+00  0.00000000000E+00  0.74273745983E+03  0.17773010081E+04  0.16146640329E+04 0.  0.
        2    1    3    3  502    0 -0.14210219810E+01 -0.66259049403E+03  0.87908437167E+03  0.11008258330E+04  0.25500000920E-02 0. -1.
       -2    1    3    3    0  502  0.14210219810E+01  0.66259049403E+03 -0.13634691184E+03  0.67647517505E+03  0.25500000920E-02 0.  1.
</event>
<event>
 5   0  0.3042125E-05  0.1601985E+04  0.7818609E-02  0.8819330E-01
       -3   -1    0    0    0  501  0.00000000000E+00  0.00000000000E+00  0.82089847208E+03  0.82089847829E+03  0.10100000352E+00 0. -1.
        3   -1    0    0  501    0  0.00000000000E+00  0.00000000000E+00 -0.78156888570E+03  0.78156889223E+03  0.10100000352E+00 0.  1.
    10030    2    1    2    0    0  0.00000000000E+00  0.00000000000E+00  0.39329586378E+02  0.16024673705E+04  0.16019846620E+04 0.  0.
        1    1    3    3  502    0 -0.62411159403E+03 -0.32139568774E+03 -0.36616926096E+03  0.79176410476E+03  0.50400001928E-02 0.  1.
       -1    1    3    3    0  502  0.62411159403E+03  0.32139568774E+03  0.40549884733E+03  0.81070326576E+03  0.50400001928E-02 0. -1.
</event>
<event>
 5   0  0.7849690E-05  0.1599196E+04  0.7818609E-02  0.8821042E-01
       -2   -1    0    0    0  501  0.00000000000E+00  0.00000000000E+00  0.46124152758E+03  0.46124152759E+03  0.25500000920E-02 0. -1.
        2   -1    0    0  501    0  0.00000000000E+00  0.00000000000E+00 -0.13861644308E+04  0.13861644308E+04  0.25500000920E-02 0.  1.
    10030    2    1    2    0    0  0.00000000000E+00  0.00000000000E+00 -0.92492290324E+03  0.18474059584E+04  0.15991955472E+04 0.  0.
        3    1    3    3  502    0  0.31032569015E+03  0.51358585286E+03 -0.10729589588E+04  0.12293548714E+04  0.10100000352E+00 0.  1.
       -3    1    3    3    0  502 -0.31032569015E+03 -0.51358585286E+03  0.14803605560E+03  0.61805108704E+03  0.10100000352E+00 0. -1.
</event>
<event>
 5   0  0.3042125E-05  0.1599811E+04  0.7818609E-02  0.8820664E-01
       -4   -1    0    0    0  501  0.00000000000E+00  0.00000000000E+00  0.12485339438E+04  0.12485345897E+04  0.12699999809E+01 0. -1.
        4   -1    0    0  501    0  0.00000000000E+00  0.00000000000E+00 -0.51247835712E+03  0.51247993075E+03  0.12699999809E+01 0.  1.
    10030    2    1    2    0    0  0.00000000000E+00  0.00000000000E+00  0.73605558671E+03  0.17610145205E+04  0.15998107121E+04 0.  0.
        5    1    3    3  502    0 -0.61376207938E+03  0.23563458909E+03 -0.13351373762E+03  0.67087670834E+03  0.46999998093E+01 0.  1.
       -5    1    3    3    0  502  0.61376207938E+03 -0.23563458909E+03  0.86956932434E+03  0.10901378122E+04  0.46999998093E+01 0. -1.
</event>
<event>
 5   0  0.4504463E-05  0.1600232E+04  0.7818609E-02  0.8820405E-01
       -1   -1    0    0    0  501  0.00000000000E+00  0.00000000000E+00  0.44315209044E+03  0.44315209046E+03  0.50400001928E-02 0. -1.
        1   -1    0    0  501    0  0.00000000000E+00  0.00000000000E+00 -0.14446190164E+04  0.14446190164E+04  0.50400001928E-02 0.  1.
    10030    2    1    2    0    0  0.00000000000E+00  0.00000000000E+00 -0.10014669260E+04  0.18877711069E+04  0.16002324044E+04 0.  0.
        1    1    3    3  502    0 -0.29108706596E+03  0.24331150909E+03  0.33029936949E+03  0.50302071920E+03  0.50400001928E-02 0. -1.
       -1    1    3    3    0  502  0.29108706596E+03 -0.24331150909E+03 -0.13317662954E+04  0.13847503877E+04  0.50400001928E-02 0.  1.
</event>
<event>
 5   0  0.7901257E-05  0.1600613E+04  0.7818609E-02  0.8820171E-01
        2   -1    0    0  501    0  0.00000000000E+00  0.00000000000E+00  0.11334588805E+04  0.11334588805E+04  0.25500000920E-02 0.  1.
       -2   -1    0    0    0  501  0.00000000000E+00  0.00000000000E+00 -0.56507625757E+03  0.56507625757E+03  0.25500000920E-02 0. -1.
    10030    2    1    2    0    0  0.00000000000E+00  0.00000000000E+00  0.56838262295E+03  0.16985351381E+04  0.16006132604E+04 0.  0.
        2    1    3    3  502    0  0.41702695636E+03 -0.61012812249E+03  0.61010055940E+03  0.95832692792E+03  0.25500000920E-02 0. -1.
       -2    1    3    3    0  502 -0.41702695636E+03  0.61012812249E+03 -0.41717936446E+02  0.74020821018E+03  0.25500000920E-02 0.  1.
</event>
<event>
 5   0  0.8037548E-05  0.1595149E+04  0.7818609E-02  0.8823534E-01
        2   -1    0    0  501    0  0.00000000000E+00  0.00000000000E+00  0.10965012567E+04  0.10965012567E+04  0.25500000920E-02 0.  1.
       -2   -1    0    0    0  501  0.00000000000E+00  0.00000000000E+00 -0.58014098021E+03  0.58014098022E+03  0.25500000920E-02 0. -1.
    10030    2    1    2    0    0  0.00000000000E+00  0.00000000000E+00  0.51636027647E+03  0.16766422369E+04  0.15951492894E+04 0.  0.
        5    1    3    3  502    0 -0.21793855324E+03  0.23146795341E+03 -0.51064498334E+03  0.60154385996E+03  0.46999998093E+01 0. -1.
       -5    1    3    3    0  502  0.21793855324E+03 -0.23146795341E+03  0.10270052598E+04  0.10750983770E+04  0.46999998093E+01 0.  1.
</event>
<event>
 5   0  0.3042125E-05  0.1599521E+04  0.7818609E-02  0.8820842E-01
        4   -1    0    0  501    0  0.00000000000E+00  0.00000000000E+00  0.25329896986E+04  0.25329900170E+04  0.12699999809E+01 0.  1.
       -4   -1    0    0    0  501  0.00000000000E+00  0.00000000000E+00 -0.25251264098E+03  0.25251583466E+03  0.12699999809E+01 0. -1.
    10030    2    1    2    0    0  0.00000000000E+00  0.00000000000E+00  0.22804770576E+04  0.27855058517E+04  0.15995209405E+04 0.  0.
        5    1    3    3  502    0  0.39380306970E+03 -0.67381734935E+03  0.83618474019E+03  0.11438258992E+04  0.46999998093E+01 0. -1.
       -5    1    3    3    0  502 -0.39380306970E+03  0.67381734935E+03  0.14442923175E+04  0.16416799524E+04  0.46999998093E+01 0.  1.
</event>
<event>
 5   0  0.4314657E-05  0.1603703E+04  0.7818609E-02  0.8818276E-01
        1   -1    0    0  501    0  0.00000000000E+00  0.00000000000E+00  0.21502533664E+04  0.21502533664E+04  0.50400001928E-02 0.  1.
       -1   -1    0    0    0  501  0.00000000000E+00  0.00000000000E+00 -0.29901877138E+03  0.29901877142E+03  0.50400001928E-02 0. -1.
    10030    2    1    2    0    0  0.00000000000E+00  0.00000000000E+00  0.18512345950E+04  0.24492721378E+04  0.16037033639E+04 0.  0.
        5    1    3    3  502    0 -0.30024415502E+03 -0.53502224681E+03  0.17141165102E+04  0.18206078264E+04  0.46999998093E+01 0.  1.
       -5    1    3    3    0  502  0.30024415502E+03  0.53502224681E+03  0.13711808482E+03  0.62866431137E+03  0.46999998093E+01 0. -1.
</event>
<event>
 5   0  0.8620155E-05  0.1599243E+04  0.7818609E-02  0.8821013E-01
       -2   -1    0    0    0  501  0.00000000000E+00  0.00000000000E+00  0.26305216346E+03  0.26305216347E+03  0.25500000920E-02 0. -1.
        2   -1    0    0  501    0  0.00000000000E+00  0.00000000000E+00 -0.24306758439E+04  0.24306758439E+04  0.25500000920E-02 0.  1.
    10030    2    1    2    0    0  0.00000000000E+00  0.00000000000E+00 -0.21676236804E+04  0.26937280074E+04  0.15992429952E+04 0.  0.
        4    1    3    3  502    0 -0.59556475515E+03 -0.50003774556E+03 -0.77023802325E+03  0.10945333937E+04  0.12699999809E+01 0. -1.
       -4    1    3    3    0  502  0.59556475515E+03  0.50003774556E+03 -0.13973856572E+04  0.15991946137E+04  0.12699999809E+01 0.  1.
</event>
<event>
 5   0  0.4256406E-05  0.1599103E+04  0.7818609E-02  0.8821099E-01
        1   -1    0    0  501    0  0.00000000000E+00  0.00000000000E+00  0.13794091151E+04  0.13794091151E+04  0.50400001928E-02 0.  1.
       -1   -1    0    0    0  501  0.00000000000E+00  0.00000000000E+00 -0.46344696256E+03  0.46344696259E+03  0.50400001928E-02 0. -1.
    10030    2    1    2    0    0  0.00000000000E+00  0.00000000000E+00  0.91596215255E+03  0.18428560777E+04  0.15991034545E+04 0.  0.
        3    1    3    3  502    0 -0.74991358904E+03  0.15446638107E+03  0.19253970929E+03  0.78949465088E+03  0.10100000352E+00 0.  1.
       -3    1    3    3    0  502  0.74991358904E+03 -0.15446638107E+03  0.72342244326E+03  0.10533614268E+04  0.10100000352E+00 0. -1.
</event>
<event>
 5   0  0.4211419E-05  0.1601072E+04  0.7818609E-02  0.8819890E-01
       -1   -1    0    0    0  501  0.00000000000E+00  0.00000000000E+00  0.63453763547E+03  0.63453763549E+03  0.50400001928E-02 0.  1.
        1   -1    0    0  501    0  0.00000000000E+00  0.00000000000E+00 -0.10099598619E+04  0.10099598619E+04  0.50400001928E-02 0. -1.
    10030    2    1    2    0    0  0.00000000000E+00  0.00000000000E+00 -0.37542222641E+03  0.16444974974E+04  0.16010715695E+04 0.  0.
        2    1    3    3  502    0  0.26773655877E+03  0.31775992616E+03  0.51510176307E+03  0.66180364301E+03  0.25500000920E-02 0.  1.
       -2    1    3    3    0  502 -0.26773655877E+03 -0.31775992616E+03 -0.89052398948E+03  0.98269385437E+03  0.25500000920E-02 0. -1.
</event>
<event>
 5   0  0.7901257E-05  0.1599593E+04  0.7818609E-02  0.8820798E-01
        2   -1    0    0  501    0  0.00000000000E+00  0.00000000000E+00  0.24651105002E+04  0.24651105002E+04  0.25500000920E-02 0. -1.
       -2   -1    0    0    0  501  0.00000000000E+00  0.00000000000E+00 -0.25949127877E+03  0.25949127879E+03  0.25500000920E-02 0.  1.
    10030    2    1    2    0    0  0.00000000000E+00  0.00000000000E+00  0.22056192214E+04  0.27246017790E+04  0.15995932934E+04 0.  0.
        2    1    3    3  502    0  0.58423470459E+02  0.58141757565E+03  0.20329707397E+04  0.21152847865E+04  0.25500000920E-02 0. -1.
       -2    1    3    3    0  502 -0.58423470459E+02 -0.58141757565E+03  0.17264848171E+03  0.60931699255E+03  0.25500000920E-02 0.  1.
</event>
<event>
 5   0  0.8037548E-05  0.1595805E+04  0.7818609E-02  0.8823129E-01
       -2   -1    0    0    0  501  0.00000000000E+00  0.00000000000E+00  0.36192428669E+03  0.36192428670E+03  0.25500000920E-02 0.  1.
        2   -1    0    0  501    0  0.00000000000E+00  0.00000000000E+00 -0.17590656909E+04  0.17590656909E+04  0.25500000920E-02 0. -1.
    10030    2    1    2    0    0  0.00000000000E+00  0.00000000000E+00 -0.13971414043E+04  0.21209899776E+04  0.15958052456E+04 0.  0.
        5    1    3    3  502    0 -0.64659708283E+03 -0.82818966237E+02 -0.87068012733E+02  0.65768510515E+03  0.46999998093E+01 0.  1.
       -5    1    3    3    0  502  0.64659708283E+03  0.82818966237E+02 -0.13100733915E+04  0.14633048725E+04  0.46999998093E+01 0. -1.
</event>
<event>
 5   0  0.4373026E-05  0.1598526E+04  0.7818609E-02  0.8821454E-01
        1   -1    0    0  501    0  0.00000000000E+00  0.00000000000E+00  0.11349486979E+04  0.11349486979E+04  0.50400001928E-02 0.  1.
       -1   -1    0    0    0  501  0.00000000000E+00  0.00000000000E+00 -0.56286358550E+03  0.56286358553E+03  0.50400001928E-02 0. -1.
    10030    2    1    2    0    0  0.00000000000E+00  0.00000000000E+00  0.57208511240E+03  0.16978122834E+04  0.15985259378E+04 0.  0.
        4    1    3    3  502    0  0.15632947436E+03  0.69913480664E+02 -0.54314791468E+03  0.56950686515E+03  0.12699999809E+01 0. -1.
       -4    1    3    3    0  502 -0.15632947436E+03 -0.69913480664E+02  0.11152330271E+04  0.11283054183E+04  0.12699999809E+01 0.  1.
</event>
<event>
 5   0  0.8037548E-05  0.1603732E+04  0.7818609E-02  0.8818258E-01
        2   -1    0    0  501    0  0.00000000000E+00  0.00000000000E+00  0.34466379083E+03  0.34466379084E+03  0.25500000920E-02 0. -1.
       -2   -1    0    0    0  501  0.00000000000E+00  0.00000000000E+00 -0.18655553686E+04  0.18655553686E+04  0.25500000920E-02 0.  1.
    10030    2    1    2    0    0  0.00000000000E+00  0.00000000000E+00 -0.15208915778E+04  0.22102191595E+04  0.16037323784E+04 0.  0.
        5    1    3    3  502    0 -0.11108495248E+03  0.28807667529E+03 -0.17803296712E+04  0.18069100326E+04  0.46999998093E+01 0.  1.
       -5    1    3    3    0  502  0.11108495248E+03 -0.28807667529E+03  0.25943809344E+03  0.40330912690E+03  0.46999998093E+01 0. -1.
</event>
<event>
 5   0  0.4256406E-05  0.1604217E+04  0.7818609E-02  0.8817961E-01
        1   -1    0    0  501    0  0.00000000000E+00  0.00000000000E+00  0.12157265928E+04  0.12157265928E+04  0.50400001928E-02 0. -1.
       -1   -1    0    0    0  501  0.00000000000E+00  0.00000000000E+00 -0.52921285603E+03  0.52921285605E+03  0.50400001928E-02 0.  1.
    10030    2    1    2    0    0  0.00000000000E+00  0.00000000000E+00  0.68651373673E+03  0.17449394488E+04  0.16042171204E+04 0.  0.
        3    1    3    3  502    0 -0.62829656021E+03 -0.31246978530E+03 -0.79395164527E+02  0.70618519997E+03  0.10100000352E+00 0.  1.
       -3    1    3    3    0  502  0.62829656021E+03  0.31246978530E+03  0.76590890126E+03  0.10387542489E+04  0.10100000352E+00 0. -1.
</event>
<event>
 5   0  0.7901257E-05  0.1604584E+04  0.7818609E-02  0.8817737E-01
        2   -1    0    0  501    0  0.00000000000E+00  0.00000000000E+00  0.13381525800E+04  0.13381525800E+04  0.25500000920E-02 0. -1.
       -2   -1    0    0    0  501  0.00000000000E+00  0.00000000000E+00 -0.48101563792E+03  0.48101563793E+03  0.25500000920E-02 0.  1.
    10030    2    1    2    0    0  0.00000000000E+00  0.00000000000E+00  0.85713694211E+03  0.18191682180E+04  0.16045838301E+04 0.  0.
        2    1    3    3  502    0  0.71355967068E+03  0.19622007100E+03  0.77289671902E+02  0.74407218284E+03  0.25500000920E-02 0.  1.
       -2    1    3    3    0  502 -0.71355967068E+03 -0.19622007100E+03  0.77984727020E+03  0.10750960351E+04  0.25500000920E-02 0. -1.
</event>
<event>
 5   0  0.7849690E-05  0.1601691E+04  0.7818609E-02  0.8819510E-01
       -2   -1    0    0    0  501  0.00000000000E+00  0.00000000000E+00  0.12105531445E+04  0.12105531445E+04  0.25500000920E-02 0. -1.
        2   -1    0    0  501    0  0.00000000000E+00  0.00000000000E+00 -0.52980221788E+03  0.52980221789E+03  0.25500000920E-02 0.  1.
    10030    2    1    2    0    0  0.00000000000E+00  0.00000000000E+00  0.68075092659E+03  0.17403553624E+04  0.16016912821E+04 0.  0.
        3    1    3    3  502    0 -0.81586905387E+02 -0.21001621704E+03 -0.49465506031E+03  0.54355024924E+03  0.10100000352E+00 0.  1.
       -3    1    3    3    0  502  0.81586905387E+02  0.21001621704E+03  0.11754059869E+04  0.11968051131E+04  0.10100000352E+00 0. -1.
</event>
<event>
 5   0  0.8694033E-05  0.1599158E+04  0.7818609E-02  0.8821065E-01
        2   -1    0    0  501    0  0.00000000000E+00  0.00000000000E+00  0.14518681019E+04  0.14518681019E+04  0.25500000920E-02 0.  1.
       -2   -1    0    0    0  501  0.00000000000E+00  0.00000000000E+00 -0.44034756594E+03  0.44034756594E+03  0.25500000920E-02 0. -1.
    10030    2    1    2    0    0  0.00000000000E+00  0.00000000000E+00  0.10115205360E+04  0.18922156678E+04  0.15991580094E+04 0.  0.
        1    1    3    3  502    0  0.78317928122E+03  0.16105506516E+03  0.50073119207E+03  0.94341944398E+03  0.50400001928E-02 0. -1.
       -1    1    3    3    0  502 -0.78317928122E+03 -0.16105506516E+03  0.51078934390E+03  0.94879622386E+03  0.50400001928E-02 0.  1.
</event>
<event>
 5   0  0.4504463E-05  0.1599267E+04  0.7818609E-02  0.8820998E-01
       -1   -1    0    0    0  501  0.00000000000E+00  0.00000000000E+00  0.57791446510E+03  0.57791446512E+03  0.50400001928E-02 0.  1.
        1   -1    0    0  501    0  0.00000000000E+00  0.00000000000E+00 -0.11064159903E+04  0.11064159903E+04  0.50400001928E-02 0. -1.
    10030    2    1    2    0    0  0.00000000000E+00  0.00000000000E+00 -0.52850152522E+03  0.16843304555E+04  0.15992670887E+04 0.  0.
        1    1    3    3  502    0  0.24873860732E+03 -0.27823635993E+03  0.48056119842E+03  0.60846152895E+03  0.50400001928E-02 0.  1.
       -1    1    3    3    0  502 -0.24873860732E+03  0.27823635993E+03 -0.10090627236E+04  0.10758689265E+04  0.50400001928E-02 0. -1.
</event>
<event>
 5   0  0.7849690E-05  0.1602388E+04  0.7818609E-02  0.8819082E-01
       -2   -1    0    0    0  501  0.00000000000E+00  0.00000000000E+00  0.59921922927E+03  0.59921922928E+03  0.25500000920E-02 0.  1.
        2   -1    0    0  501    0  0.00000000000E+00  0.00000000000E+00 -0.10712475600E+04  0.10712475600E+04  0.25500000920E-02 0. -1.
    10030    2    1    2    0    0  0.00000000000E+00  0.00000000000E+00 -0.47202833075E+03  0.16704667893E+04  0.16023883890E+04 0.  0.
        3    1    3    3  502    0 -0.69307251450E+03 -0.39593662524E+03 -0.30821564744E+03  0.85563556324E+03  0.10100000352E+00 0. -1.
       -3    1    3    3    0  502  0.69307251450E+03  0.39593662524E+03 -0.16381268331E+03  0.81483122607E+03  0.10100000352E+00 0.  1.
</event>
<event>
 5   0  0.4373026E-05  0.1599172E+04  0.7818609E-02  0.8821057E-01
        1   -1    0    0  501    0  0.00000000000E+00  0.00000000000E+00  0.12418404218E+04  0.12418404218E+04  0.50400001928E-02 0.  1.
       -1   -1    0    0    0  501  0.00000000000E+00  0.00000000000E+00 -0.51483089668E+03  0.51483089671E+03  0.50400001928E-02 0. -1.
    10030    2    1    2    0    0  0.00000000000E+00  0.00000000000E+00  0.72700952507E+03  0.17566713185E+04  0.15991720582E+04 0.  0.
        4    1    3    3  502    0 -0.33758582877E+03  0.33233400823E+03  0.10710931636E+04  0.11711755901E+04  0.12699999809E+01 0.  1.
       -4    1    3    3    0  502  0.33758582877E+03 -0.33233400823E+03 -0.34408363849E+03  0.58549572842E+03  0.12699999809E+01 0. -1.
</event>
<event>
 5   0  0.8037548E-05  0.1597351E+04  0.7818609E-02  0.8822177E-01
        2   -1    0    0  501    0  0.00000000000E+00  0.00000000000E+00  0.83546389355E+03  0.83546389355E+03  0.25500000920E-02 0. -1.
       -2   -1    0    0    0  501  0.00000000000E+00  0.00000000000E+00 -0.76350724140E+03  0.76350724141E+03  0.25500000920E-02 0.  1.
    10030    2    1    2    0    0  0.00000000000E+00  0.00000000000E+00  0.71956652147E+02  0.15989711350E+04  0.15973512233E+04 0.  0.
        5    1    3    3  502    0  0.31062196602E+03  0.57811267133E+03  0.49158864385E+03  0.81998887266E+03  0.46999998093E+01 0.  1.
       -5    1    3    3    0  502 -0.31062196602E+03 -0.57811267133E+03 -0.41963199170E+03  0.77898226230E+03  0.46999998093E+01 0. -1.
</event>
<event>
 5   0  0.4373026E-05  0.1600547E+04  0.7818609E-02  0.8820212E-01
       -1   -1    0    0    0  501  0.00000000000E+00  0.00000000000E+00  0.62906702044E+03  0.62906702046E+03  0.50400001928E-02 0.  1.
        1   -1    0    0  501    0  0.00000000000E+00  0.00000000000E+00 -0.10180753232E+04  0.10180753232E+04  0.50400001928E-02 0. -1.
    10030    2    1    2    0    0  0.00000000000E+00  0.00000000000E+00 -0.38900830278E+03  0.16471423437E+04  0.16005469193E+04 0.  0.
        4    1    3    3  502    0  0.32529305879E+03  0.17274766013E+03  0.53665718713E+03  0.65089160202E+03  0.12699999809E+01 0.  1.
       -4    1    3    3    0  502 -0.32529305879E+03 -0.17274766013E+03 -0.92566548991E+03  0.99625074168E+03  0.12699999809E+01 0. -1.
</event>
<event>
 5   0  0.4256406E-05  0.1611958E+04  0.7818609E-02  0.8813235E-01
        1   -1    0    0  501    0  0.00000000000E+00  0.00000000000E+00  0.15756699479E+04  0.15756699479E+04  0.50400001928E-02 0.  1.
       -1   -1    0    0    0  501  0.00000000000E+00  0.00000000000E+00 -0.41227063071E+03  0.41227063074E+03  0.50400001928E-02 0. -1.
    10030    2    1    2    0    0  0.00000000000E+00  0.00000000000E+00  0.11633993172E+04  0.19879405787E+04  0.16119583658E+04 0.  0.
        3    1    3    3  502    0 -0.58809233216E+03 -0.52989568031E+03  0.39482973987E+03  0.88460870268E+03  0.10100000352E+00 0. -1.
       -3    1    3    3    0  502  0.58809233216E+03  0.52989568031E+03  0.76856957735E+03  0.11033318760E+04  0.10100000352E+00 0.  1.
</event>
<event>
 5   0  0.8694033E-05  0.1600816E+04  0.7818609E-02  0.8820047E-01
        2   -1    0    0  501    0  0.00000000000E+00  0.00000000000E+00  0.10068277170E+04  0.10068277170E+04  0.25500000920E-02 0.  1.
       -2   -1    0    0    0  501  0.00000000000E+00  0.00000000000E+00 -0.63630871891E+03  0.63630871892E+03  0.25500000920E-02 0. -1.
    10030    2    1    2    0    0  0.00000000000E+00  0.00000000000E+00  0.37051899805E+03  0.16431364359E+04  0.16008163602E+04 0.  0.
        1    1    3    3  502    0  0.54587291653E+03 -0.13759003044E+03 -0.39876846877E+03  0.68987285002E+03  0.50400001928E-02 0. -1.
       -1    1    3    3    0  502 -0.54587291653E+03  0.13759003044E+03  0.76928746682E+03  0.95326358585E+03  0.50400001928E-02 0.  1.
</event>
<event>
 5   0  0.8620155E-05  0.1598209E+04  0.7818609E-02  0.8821649E-01
        2   -1    0    0  501    0  0.00000000000E+00  0.00000000000E+00  0.16831462536E+04  0.16831462536E+04  0.25500000920E-02 0.  1.
       -2   -1    0    0    0  501  0.00000000000E+00  0.00000000000E+00 -0.37938961235E+03  0.37938961236E+03  0.25500000920E-02 0. -1.
    10030    2    1    2    0    0  0.00000000000E+00  0.00000000000E+00  0.13037566413E+04  0.20625358660E+04  0.15982092538E+04 0.  0.
        4    1    3    3  502    0 -0.67377831381E+03  0.99853514993E+02  0.11911569161E+04  0.13721531811E+04  0.12699999809E+01 0.  1.
       -4    1    3    3    0  502  0.67377831381E+03 -0.99853514993E+02  0.11259972516E+03  0.69038268491E+03  0.12699999809E+01 0. -1.
</event>
<event>
 5   0  0.7849690E-05  0.1597404E+04  0.7818609E-02  0.8822144E-01
        2   -1    0    0  501    0  0.00000000000E+00  0.00000000000E+00  0.11763575408E+04  0.11763575408E+04  0.25500000920E-02 0. -1.
       -2   -1    0    0    0  501  0.00000000000E+00  0.00000000000E+00 -0.54228831037E+03  0.54228831038E+03  0.25500000920E-02 0.  1.
    10030    2    1    2    0    0  0.00000000000E+00  0.00000000000E+00  0.63406923043E+03  0.17186458512E+04  0.15974040731E+04 0.  0.
        3    1    3    3  502    0  0.17487375255E+03 -0.14637478323E+03  0.11405850897E+04  0.11631598186E+04  0.10100000352E+00 0. -1.
       -3    1    3    3    0  502 -0.17487375255E+03  0.14637478323E+03 -0.50651585929E+03  0.55548603259E+03  0.10100000352E+00 0.  1.
</event>
<event>
 5   0  0.4211419E-05  0.1598790E+04  0.7818609E-02  0.8821291E-01
       -1   -1    0    0    0  501  0.00000000000E+00  0.00000000000E+00  0.72238147798E+03  0.72238147800E+03  0.50400001928E-02 0.  1.
        1   -1    0    0  501    0  0.00000000000E+00  0.00000000000E+00 -0.88461943991E+03  0.88461943993E+03  0.50400001928E-02 0. -1.
    10030    2    1    2    0    0  0.00000000000E+00  0.00000000000E+00 -0.16223796193E+03  0.16070009179E+04  0.15987904159E+04 0.  0.
        2    1    3    3  502    0 -0.56001982084E+03  0.57021179533E+03 -0.64633312840E+02  0.80183611567E+03  0.25500000920E-02 0. -1.
       -2    1    3    3    0  502  0.56001982084E+03 -0.57021179533E+03 -0.97604649089E+02  0.80516480226E+03  0.25500000920E-02 0.  1.
</event>
<event>
 5   0  0.4211419E-05  0.1600001E+04  0.7818609E-02  0.8820547E-01
       -1   -1    0    0    0  501  0.00000000000E+00  0.00000000000E+00  0.64927589988E+03  0.64927589990E+03  0.50400001928E-02 0.  1.
        1   -1    0    0  501    0  0.00000000000E+00  0.00000000000E+00 -0.98571483826E+03  0.98571483827E+03  0.50400001928E-02 0. -1.
    10030    2    1    2    0    0  0.00000000000E+00  0.00000000000E+00 -0.33643893838E+03  0.16349907382E+04  0.16000011108E+04 0.  0.
        2    1    3    3  502    0  0.21476647941E+03  0.59002651089E+02  0.61695527954E+03  0.65592665023E+03  0.25500000920E-02 0.  1.
       -2    1    3    3    0  502 -0.21476647941E+03 -0.59002651089E+02 -0.95339421792E+03  0.97906408794E+03  0.25500000920E-02 0. -1.
</event>
<event>
 5   0  0.8037548E-05  0.1589882E+04  0.7818609E-02  0.8826788E-01
        2   -1    0    0  501    0  0.00000000000E+00  0.00000000000E+00  0.91264252488E+03  0.91264252488E+03  0.25500000920E-02 0. -1.
       -2   -1    0    0    0  501  0.00000000000E+00  0.00000000000E+00 -0.69241885054E+03  0.69241885055E+03  0.25500000920E-02 0.  1.
    10030    2    1    2    0    0  0.00000000000E+00  0.00000000000E+00  0.22022367434E+03  0.16050613754E+04  0.15898816158E+04 0.  0.
        5    1    3    3  502    0  0.50913119810E+03  0.44181679884E+02  0.72481134862E+03  0.88687100460E+03  0.46999998093E+01 0. -1.
       -5    1    3    3    0  502 -0.50913119810E+03 -0.44181679884E+02 -0.50458767428E+03  0.71819037083E+03  0.46999998093E+01 0.  1.
</event>
<event>
 5   0  0.4504463E-05  0.1600663E+04  0.7818609E-02  0.8820141E-01
       -1   -1    0    0    0  501  0.00000000000E+00  0.00000000000E+00  0.30315228266E+03  0.30315228270E+03  0.50400001928E-02 0.  1.
        1   -1    0    0  501    0  0.00000000000E+00  0.00000000000E+00 -0.21128995932E+04  0.21128995932E+04  0.50400001928E-02 0. -1.
    10030    2    1    2    0    0  0.00000000000E+00  0.00000000000E+00 -0.18097473106E+04  0.24160518759E+04  0.16006627812E+04 0.  0.
        1    1    3    3  502    0  0.60245658631E+03 -0.26777881052E+03 -0.15897369566E+04  0.17210238293E+04  0.50400001928E-02 0. -1.
       -1    1    3    3    0  502 -0.60245658631E+03  0.26777881052E+03 -0.22001035398E+03  0.69502804666E+03  0.50400001928E-02 0.  1.
</event>
<event>
 5   0  0.7849690E-05  0.1600661E+04  0.7818609E-02  0.8820142E-01
       -2   -1    0    0    0  501  0.00000000000E+00  0.00000000000E+00  0.29171340284E+03  0.29171340285E+03  0.25500000920E-02 0. -1.
        2   -1    0    0  501    0  0.00000000000E+00  0.00000000000E+00 -0.21957484205E+04  0.21957484205E+04  0.25500000920E-02 0.  1.
    10030    2    1    2    0    0  0.00000000000E+00  0.00000000000E+00 -0.19040350177E+04  0.24874618234E+04  0.16006614177E+04 0.  0.
        3    1    3    3  502    0 -0.57082718497E+03  0.36947667891E+03 -0.16079774758E+04  0.17458374106E+04  0.10100000352E+00 0.  1.
       -3    1    3    3    0  502  0.57082718497E+03 -0.36947667891E+03 -0.29605754191E+03  0.74162441281E+03  0.10100000352E+00 0. -1.
</event>
<event>
 5   0  0.4211419E-05  0.1597558E+04  0.7818609E-02  0.8822050E-01
        1   -1    0    0  501    0  0.00000000000E+00  0.00000000000E+00  0.82392945472E+03  0.82392945474E+03  0.50400001928E-02 0.  1.
       -1   -1    0    0    0  501  0.00000000000E+00  0.00000000000E+00 -0.77439582583E+03  0.77439582585E+03  0.50400001928E-02 0. -1.
    10030    2    1    2    0    0  0.00000000000E+00  0.00000000000E+00  0.49533628893E+02  0.15983252806E+04  0.15975575489E+04 0.  0.
        2    1    3    3  502    0 -0.42414021607E+03  0.63974556024E+03 -0.19642363631E+03  0.79230773670E+03  0.25500000920E-02 0. -1.
       -2    1    3    3    0  502  0.42414021607E+03 -0.63974556024E+03  0.24595726520E+03  0.80601754388E+03  0.25500000920E-02 0.  1.
</event>
<event>
 5   0  0.4373026E-05  0.1593307E+04  0.7818609E-02  0.8824670E-01
       -1   -1    0    0    0  501  0.00000000000E+00  0.00000000000E+00  0.62131196657E+03  0.62131196659E+03  0.50400001928E-02 0.  1.
        1   -1    0    0  501    0  0.00000000000E+00  0.00000000000E+00 -0.10214782634E+04  0.10214782635E+04  0.50400001928E-02 0. -1.
    10030    2    1    2    0    0  0.00000000000E+00  0.00000000000E+00 -0.40016629688E+03  0.16427902300E+04  0.15933068364E+04 0.  0.
        4    1    3    3  502    0 -0.28184323168E+03  0.51944654083E+03 -0.75089804100E+03  0.95556778771E+03  0.12699999809E+01 0. -1.
       -4    1    3    3    0  502  0.28184323168E+03 -0.51944654083E+03  0.35073174412E+03  0.68722244234E+03  0.12699999809E+01 0.  1.
</event>
<event>
 5   0  0.3042125E-05  0.1594512E+04  0.7818609E-02  0.8823927E-01
        3   -1    0    0  501    0  0.00000000000E+00  0.00000000000E+00  0.72856057545E+03  0.72856058245E+03  0.10100000352E+00 0.  1.
       -3   -1    0    0    0  501  0.00000000000E+00  0.00000000000E+00 -0.87242838783E+03  0.87242839368E+03  0.10100000352E+00 0. -1.
    10030    2    1    2    0    0  0.00000000000E+00  0.00000000000E+00 -0.14386781238E+03  0.16009889761E+04  0.15945117605E+04 0.  0.
        2    1    3    3  502    0  0.46739857342E+03 -0.25545432155E+03 -0.66755406127E+03  0.85401801008E+03  0.25500000920E-02 0. -1.
       -2    1    3    3    0  502 -0.46739857342E+03  0.25545432155E+03  0.52368624889E+03  0.74697096604E+03  0.25500000920E-02 0.  1.
</event>
<event>
 5   0  0.8620155E-05  0.1600509E+04  0.7818609E-02  0.8820235E-01
       -2   -1    0    0    0  501  0.00000000000E+00  0.00000000000E+00  0.28908716411E+03  0.28908716412E+03  0.25500000920E-02 0.  1.
        2   -1    0    0  501    0  0.00000000000E+00  0.00000000000E+00 -0.22152740961E+04  0.22152740961E+04  0.25500000920E-02 0. -1.
    10030    2    1    2    0    0  0.00000000000E+00  0.00000000000E+00 -0.19261869319E+04  0.25043612602E+04  0.16005090517E+04 0.  0.
        4    1    3    3  502    0 -0.18078390017E+03  0.24203602976E+03  0.19643375771E+03  0.36034995814E+03  0.12699999809E+01 0.  1.
       -4    1    3    3    0  502  0.18078390017E+03 -0.24203602976E+03 -0.21226206897E+04  0.21440113021E+04  0.12699999809E+01 0. -1.
</event>
<event>
 5   0  0.4314657E-05  0.1593941E+04  0.7818609E-02  0.8824279E-01
        1   -1    0    0  501    0  0.00000000000E+00  0.00000000000E+00  0.11014771314E+04  0.11014771314E+04  0.50400001928E-02 0. -1.
       -1   -1    0    0    0  501  0.00000000000E+00  0.00000000000E+00 -0.57664597575E+03  0.57664597577E+03  0.50400001928E-02 0.  1.
    10030    2    1    2    0    0  0.00000000000E+00  0.00000000000E+00  0.52483115567E+03  0.16781231072E+04  0.15939414735E+04 0.  0.
        5    1    3    3  502    0  0.12071692210E+03  0.78774157215E+03  0.25656270470E+03  0.83723107396E+03  0.46999998093E+01 0. -1.
       -5    1    3    3    0  502 -0.12071692210E+03 -0.78774157215E+03  0.26826845097E+03  0.84089203323E+03  0.46999998093E+01 0.  1.
</event>
<event>
 5   0  0.7901257E-05  0.1597825E+04  0.7818609E-02  0.8821885E-01
       -2   -1    0    0    0  501  0.00000000000E+00  0.00000000000E+00  0.55098624324E+03  0.55098624325E+03  0.25500000920E-02 0.  1.
        2   -1    0    0  501    0  0.00000000000E+00  0.00000000000E+00 -0.11583977051E+04  0.11583977051E+04  0.25500000920E-02 0. -1.
    10030    2    1    2    0    0  0.00000000000E+00  0.00000000000E+00 -0.60741146181E+03  0.17093839483E+04  0.15978250213E+04 0.  0.
        2    1    3    3  502    0  0.22600457003E+03 -0.75441000392E+03 -0.15998046319E+03  0.80362072416E+03  0.25500000920E-02 0. -1.
       -2    1    3    3    0  502 -0.22600457003E+03  0.75441000392E+03 -0.44743099862E+03  0.90576322415E+03  0.25500000920E-02 0.  1.
</event>
<event>
 5   0  0.4211419E-05  0.1600028E+04  0.7818609E-02  0.8820531E-01
       -1   -1    0    0    0  501  0.00000000000E+00  0.00000000000E+00  0.79860843214E+03  0.79860843215E+03  0.50400001928E-02 0.  1.
        1   -1    0    0  501    0  0.00000000000E+00  0.00000000000E+00 -0.80142250685E+03  0.80142250687E+03  0.50400001928E-02 0. -1.
    10030    2    1    2    0    0  0.00000000000E+00  0.00000000000E+00 -0.28140747174E+01  0.16000309390E+04  0.16000284644E+04 0.  0.
        2    1    3    3  502    0  0.64806994566E+03  0.46836933936E+03  0.24249954066E+02  0.79997034495E+03  0.25500000920E-02 0. -1.
       -2    1    3    3    0  502 -0.64806994566E+03 -0.46836933936E+03 -0.27064028784E+02  0.80006059407E+03  0.25500000920E-02 0.  1.
</event>
<event>
 5   0  0.4504463E-05  0.1599084E+04  0.7818609E-02  0.8821111E-01
        1   -1    0    0  501    0  0.00000000000E+00  0.00000000000E+00  0.14234842486E+04  0.14234842486E+04  0.50400001928E-02 0. -1.
       -1   -1    0    0    0  501  0.00000000000E+00  0.00000000000E+00 -0.44908618235E+03  0.44908618238E+03  0.50400001928E-02 0.  1.
    10030    2    1    2    0    0  0.00000000000E+00  0.00000000000E+00  0.97439806625E+03  0.18725704310E+04  0.15990836212E+04 0.  0.
        1    1    3    3  502    0 -0.29515551009E+03  0.39453741214E+03  0.12245655510E+04  0.13199762624E+04  0.50400001928E-02 0. -1.
       -1    1    3    3    0  502  0.29515551009E+03 -0.39453741214E+03 -0.25016748471E+03  0.55259416857E+03  0.50400001928E-02 0.  1.
</event>
<event>
 5   0  0.7901257E-05  0.1602888E+04  0.7818609E-02  0.8818776E-01
        2   -1    0    0  501    0  0.00000000000E+00  0.00000000000E+00  0.46330626717E+03  0.46330626718E+03  0.25500000920E-02 0.  1.
       -2   -1    0    0    0  501  0.00000000000E+00  0.00000000000E+00 -0.13863662636E+04  0.13863662636E+04  0.25500000920E-02 0. -1.
    10030    2    1    2    0    0  0.00000000000E+00  0.00000000000E+00 -0.92305999641E+03  0.18496725308E+04  0.16028876174E+04 0.  0.
        2    1    3    3  502    0 -0.65248431058E+03  0.45743248618E+03 -0.36272003517E+03  0.87552617259E+03  0.25500000920E-02 0.  1.
       -2    1    3    3    0  502  0.65248431058E+03 -0.45743248618E+03 -0.56033996124E+03  0.97414635818E+03  0.25500000920E-02 0. -1.
</event>
<event>
 5   0  0.8694033E-05  0.1612303E+04  0.7818609E-02  0.8813025E-01
       -2   -1    0    0    0  501  0.00000000000E+00  0.00000000000E+00  0.90113289217E+03  0.90113289217E+03  0.25500000920E-02 0.  1.
        2   -1    0    0  501    0  0.00000000000E+00  0.00000000000E+00 -0.72118123883E+03  0.72118123884E+03  0.25500000920E-02 0. -1.
    10030    2    1    2    0    0  0.00000000000E+00  0.00000000000E+00  0.17995165334E+03  0.16223141310E+04  0.16123028692E+04 0.  0.
        1    1    3    3  502    0  0.80063506599E+03  0.81127935075E+02  0.13804151644E+03  0.81648864721E+03  0.50400001928E-02 0. -1.
       -1    1    3    3    0  502 -0.80063506599E+03 -0.81127935075E+02  0.41910136896E+02  0.80582548380E+03  0.50400001928E-02 0.  1.
</event>
<event>
 5   0  0.4211419E-05  0.1607756E+04  0.7818609E-02  0.8815797E-01
       -1   -1    0    0    0  501  0.00000000000E+00  0.00000000000E+00  0.36255209168E+03  0.36255209172E+03  0.50400001928E-02 0.  1.
        1   -1    0    0  501    0  0.00000000000E+00  0.00000000000E+00 -0.17824188757E+04  0.17824188757E+04  0.50400001928E-02 0. -1.
    10030    2    1    2    0    0  0.00000000000E+00  0.00000000000E+00 -0.14198667840E+04  0.21449709674E+04  0.16077558169E+04 0.  0.
        2    1    3    3  502    0  0.23129688702E+03 -0.65114368291E+03 -0.12579601804E+04  0.14352526472E+04  0.25500000920E-02 0. -1.
       -2    1    3    3    0  502 -0.23129688702E+03  0.65114368291E+03 -0.16190660356E+03  0.70971832019E+03  0.25500000920E-02 0.  1.
</event>
<event>
 5   0  0.4504463E-05  0.1600427E+04  0.7818609E-02  0.8820286E-01
        1   -1    0    0  501    0  0.00000000000E+00  0.00000000000E+00  0.36507284133E+03  0.36507284136E+03  0.50400001928E-02 0. -1.
       -1   -1    0    0    0  501  0.00000000000E+00  0.00000000000E+00 -0.17540108024E+04  0.17540108024E+04  0.50400001928E-02 0.  1.
    10030    2    1    2    0    0  0.00000000000E+00  0.00000000000E+00 -0.13889379610E+04  0.21190836437E+04  0.16004270772E+04 0.  0.
        1    1    3    3  502    0  0.15338891631E+02  0.74741277672E+02  0.36024553703E+03  0.36823686285E+03  0.50400001928E-02 0. -1.
       -1    1    3    3    0  502 -0.15338891631E+02 -0.74741277672E+02 -0.17491834981E+04  0.17508467809E+04  0.50400001928E-02 0.  1.
</event>
<event>
 5   0  0.4373026E-05  0.1600433E+04  0.7818609E-02  0.8820282E-01
        1   -1    0    0  501    0  0.00000000000E+00  0.00000000000E+00  0.65143604320E+03  0.65143604322E+03  0.50400001928E-02 0.  1.
       -1   -1    0    0    0  501  0.00000000000E+00  0.00000000000E+00 -0.98297699209E+03  0.98297699210E+03  0.50400001928E-02 0. -1.
    10030    2    1    2    0    0  0.00000000000E+00  0.00000000000E+00 -0.33154094888E+03  0.16344130353E+04  0.16004332442E+04 0.  0.
        4    1    3    3  502    0  0.86355226219E+02 -0.51204270519E+01 -0.97818676050E+03  0.98200529285E+03  0.12699999809E+01 0. -1.
       -4    1    3    3    0  502 -0.86355226219E+02  0.51204270519E+01  0.64664581161E+03  0.65240774248E+03  0.12699999809E+01 0.  1.
</event>
<event>
 5   0  0.8620155E-05  0.1605269E+04  0.7818609E-02  0.8817317E-01
       -2   -1    0    0    0  501  0.00000000000E+00  0.00000000000E+00  0.28267003601E+03  0.28267003602E+03  0.25500000920E-02 0. -1.
        2   -1    0    0  501    0  0.00000000000E+00  0.00000000000E+00 -0.22790612756E+04  0.22790612756E+04  0.25500000920E-02 0.  1.
    10030    2    1    2    0    0  0.00000000000E+00  0.00000000000E+00 -0.19963912396E+04  0.25617313117E+04  0.16052692396E+04 0.  0.
        4    1    3    3  502    0  0.46392240675E+02  0.70438263199E+03 -0.38861161768E+03  0.80580874563E+03  0.12699999809E+01 0. -1.
       -4    1    3    3    0  502 -0.46392240675E+02 -0.70438263199E+03 -0.16077796219E+04  0.17559225660E+04  0.12699999809E+01 0.  1.
</event>
<event>
 5   0  0.4256406E-05  0.1598313E+04  0.7818609E-02  0.8821585E-01
       -1   -1    0    0    0  501  0.00000000000E+00  0.00000000000E+00  0.31053482311E+03  0.31053482315E+03  0.50400001928E-02 0.  1.
        1   -1    0    0  501    0  0.00000000000E+00  0.00000000000E+00 -0.20566175243E+04  0.20566175244E+04  0.50400001928E-02 0. -1.
    10030    2    1    2    0    0  0.00000000000E+00  0.00000000000E+00 -0.17460827012E+04  0.23671523475E+04  0.15983133099E+04 0.  0.
        3    1    3    3  502    0 -0.26438070318E+03 -0.67070070028E+03 -0.36232215468E+03  0.80685434841E+03  0.10100000352E+00 0.  1.
       -3    1    3    3    0  502  0.26438070318E+03  0.67070070028E+03 -0.13837605466E+04  0.15602979991E+04  0.10100000352E+00 0. -1.
</event>
<event>
 5   0  0.4504463E-05  0.1552374E+04  0.7818609E-02  0.8850353E-01
        1   -1    0    0  501    0  0.00000000000E+00  0.00000000000E+00  0.57512678608E+03  0.57512678610E+03  0.50400001928E-02 0.  1.
       -1   -1    0    0    0  501  0.00000000000E+00  0.00000000000E+00 -0.10475360364E+04  0.10475360364E+04  0.50400001928E-02 0. -1.
    10030    2    1    2    0    0  0.00000000000E+00  0.00000000000E+00 -0.47240925033E+03  0.16226628225E+04  0.15523737101E+04 0.  0.
        1    1    3    3  502    0 -0.69222906873E+03 -0.14884340978E+02  0.13048318543E+03  0.70457681548E+03  0.50400001928E-02 0.  1.
       -1    1    3    3    0  502  0.69222906873E+03  0.14884340978E+02 -0.60289243575E+03  0.91808600704E+03  0.50400001928E-02 0. -1.
</event>
<event>
 5   0  0.4504463E-05  0.1601360E+04  0.7818609E-02  0.8819713E-01
       -1   -1    0    0    0  501  0.00000000000E+00  0.00000000000E+00  0.60345156578E+03  0.60345156580E+03  0.50400001928E-02 0. -1.
        1   -1    0    0  501    0  0.00000000000E+00  0.00000000000E+00 -0.10623694624E+04  0.10623694624E+04  0.50400001928E-02 0.  1.
    10030    2    1    2    0    0  0.00000000000E+00  0.00000000000E+00 -0.45891789660E+03  0.16658210282E+04  0.16013600664E+04 0.  0.
        1    1    3    3  502    0 -0.20644271725E+03  0.11908164812E+03 -0.10246168514E+04  0.10519689761E+04  0.50400001928E-02 0.  1.
       -1    1    3    3    0  502  0.20644271725E+03 -0.11908164812E+03  0.56569895479E+03  0.61385205212E+03  0.50400001928E-02 0. -1.
</event>
<event>
 5   0  0.8620155E-05  0.1596521E+04  0.7818609E-02  0.8822688E-01
       -2   -1    0    0    0  501  0.00000000000E+00  0.00000000000E+00  0.65236166768E+03  0.65236166768E+03  0.25500000920E-02 0. -1.
        2   -1    0    0  501    0  0.00000000000E+00  0.00000000000E+00 -0.97678968851E+03  0.97678968852E+03  0.25500000920E-02 0.  1.
    10030    2    1    2    0    0  0.00000000000E+00  0.00000000000E+00 -0.32442802084E+03  0.16291513562E+04  0.15965214063E+04 0.  0.
        4    1    3    3  502    0  0.68192387775E+03 -0.31333063044E+03  0.11541696067E+03  0.75928844764E+03  0.12699999809E+01 0. -1.
       -4    1    3    3    0  502 -0.68192387775E+03  0.31333063044E+03 -0.43984498151E+03  0.86986290855E+03  0.12699999809E+01 0.  1.
</event>
<event>
 5   0  0.7849690E-05  0.1600640E+04  0.7818609E-02  0.8820155E-01
        2   -1    0    0  501    0  0.00000000000E+00  0.00000000000E+00  0.18150727497E+04  0.18150727497E+04  0.25500000920E-02 0. -1.
       -2   -1    0    0    0  501  0.00000000000E+00  0.00000000000E+00 -0.35288512684E+03  0.35288512685E+03  0.25500000920E-02 0.  1.
    10030    2    1    2    0    0  0.00000000000E+00  0.00000000000E+00  0.14621876229E+04  0.21679578766E+04  0.16006400939E+04 0.  0.
        3    1    3    3  502    0  0.59785711172E+03 -0.52748713708E+03  0.63690126760E+03  0.10204504107E+04  0.10100000352E+00 0. -1.
       -3    1    3    3    0  502 -0.59785711172E+03  0.52748713708E+03  0.82528635526E+03  0.11475074659E+04  0.10100000352E+00 0.  1.
</event>
<event>
 5   0  0.8037548E-05  0.1596553E+04  0.7818609E-02  0.8822668E-01
        2   -1    0    0  501    0  0.00000000000E+00  0.00000000000E+00  0.18575660836E+04  0.18575660836E+04  0.25500000920E-02 0. -1.
       -2   -1    0    0    0  501  0.00000000000E+00  0.00000000000E+00 -0.34305413504E+03  0.34305413505E+03  0.25500000920E-02 0.  1.
    10030    2    1    2    0    0  0.00000000000E+00  0.00000000000E+00  0.15145119486E+04  0.22006202187E+04  0.15965534455E+04 0.  0.
        5    1    3    3  502    0  0.61402862831E+03 -0.43386582586E+03  0.38752497568E+03  0.84585365638E+03  0.46999998093E+01 0.  1.
       -5    1    3    3    0  502 -0.61402862831E+03  0.43386582586E+03  0.11269869729E+04  0.13547665623E+04  0.46999998093E+01 0. -1.
</event>
<event>
 5   0  0.7849690E-05  0.1600185E+04  0.7818609E-02  0.8820434E-01
        2   -1    0    0  501    0  0.00000000000E+00  0.00000000000E+00  0.13363281189E+04  0.13363281189E+04  0.25500000920E-02 0. -1.
       -2   -1    0    0    0  501  0.00000000000E+00  0.00000000000E+00 -0.47903531325E+03  0.47903531326E+03  0.25500000920E-02 0.  1.
    10030    2    1    2    0    0  0.00000000000E+00  0.00000000000E+00  0.85729280563E+03  0.18153634321E+04  0.16001854381E+04 0.  0.
        3    1    3    3  502    0 -0.57535963549E+03  0.53503873014E+03  0.25718289607E+03  0.82670926276E+03  0.10100000352E+00 0. -1.
       -3    1    3    3    0  502  0.57535963549E+03 -0.53503873014E+03  0.60010990955E+03  0.98865416938E+03  0.10100000352E+00 0.  1.
</event>
<event>
 5   0  0.4314657E-05  0.1600200E+04  0.7818609E-02  0.8820425E-01
       -1   -1    0    0    0  501  0.00000000000E+00  0.00000000000E+00  0.35244442796E+03  0.35244442800E+03  0.50400001928E-02 0. -1.
        1   -1    0    0  501    0  0.00000000000E+00  0.00000000000E+00 -0.18163421799E+04  0.18163421799E+04  0.50400001928E-02 0.  1.
    10030    2    1    2    0    0  0.00000000000E+00  0.00000000000E+00 -0.14638977520E+04  0.21687866079E+04  0.16001995884E+04 0.  0.
        5    1    3    3  502    0 -0.65751824229E+03  0.45584054319E+03 -0.72640183277E+03  0.10806491347E+04  0.46999998093E+01 0. -1.
       -5    1    3    3    0  502  0.65751824229E+03 -0.45584054319E+03 -0.73749591920E+03  0.10881374732E+04  0.46999998093E+01 0.  1.
</event>
<event>
 5   0  0.8037548E-05  0.1599279E+04  0.7818609E-02  0.8820991E-01
        2   -1    0    0  501    0  0.00000000000E+00  0.00000000000E+00  0.12915394658E+04  0.12915394658E+04  0.25500000920E-02 0.  1.
       -2   -1    0    0    0  501  0.00000000000E+00  0.00000000000E+00 -0.49508596595E+03  0.49508596595E+03  0.25500000920E-02 0. -1.
    10030    2    1    2    0    0  0.00000000000E+00  0.00000000000E+00  0.79645349988E+03  0.17866254318E+04  0.15992786674E+04 0.  0.
        5    1    3    3  502    0 -0.74346271852E+03 -0.29407604016E+03  0.41335747324E+03  0.90005778809E+03  0.46999998093E+01 0. -1.
       -5    1    3    3    0  502  0.74346271852E+03  0.29407604016E+03  0.38309602665E+03  0.88656764370E+03  0.46999998093E+01 0.  1.
</event>
<event>
 5   0  0.7901257E-05  0.1596492E+04  0.7818609E-02  0.8822706E-01
        2   -1    0    0  501    0  0.00000000000E+00  0.00000000000E+00  0.87098972388E+03  0.87098972388E+03  0.25500000920E-02 0.  1.
       -2   -1    0    0    0  501  0.00000000000E+00  0.00000000000E+00 -0.73157754689E+03  0.73157754689E+03  0.25500000920E-02 0. -1.
    10030    2    1    2    0    0  0.00000000000E+00  0.00000000000E+00  0.13941217699E+03  0.16025672708E+04  0.15964918109E+04 0.  0.
        2    1    3    3  502    0 -0.38279619172E+03  0.62213960115E+03 -0.25339755467E+03  0.77317587161E+03  0.25500000920E-02 0. -1.
       -2    1    3    3    0  502  0.38279619172E+03 -0.62213960115E+03  0.39280973166E+03  0.82939139917E+03  0.25500000920E-02 0.  1.
</event>
<event>
 5   0  0.8037548E-05  0.1604391E+04  0.7818609E-02  0.8817855E-01
        2   -1    0    0  501    0  0.00000000000E+00  0.00000000000E+00  0.21009746690E+04  0.21009746690E+04  0.25500000920E-02 0. -1.
       -2   -1    0    0    0  501  0.00000000000E+00  0.00000000000E+00 -0.30629472410E+03  0.30629472411E+03  0.25500000920E-02 0.  1.
    10030    2    1    2    0    0  0.00000000000E+00  0.00000000000E+00  0.17946799449E+04  0.24072693931E+04  0.16043907960E+04 0.  0.
        5    1    3    3  502    0 -0.66136288145E+03 -0.41347433701E+03  0.61610125671E+03  0.99396415270E+03  0.46999998093E+01 0.  1.
       -5    1    3    3    0  502  0.66136288145E+03  0.41347433701E+03  0.11785786882E+04  0.14133052404E+04  0.46999998093E+01 0. -1.
</event>
<event>
 5   0  0.4504463E-05  0.1599556E+04  0.7818609E-02  0.8820821E-01
        1   -1    0    0  501    0  0.00000000000E+00  0.00000000000E+00  0.13978313440E+04  0.13978313440E+04  0.50400001928E-02 0.  1.
       -1   -1    0    0    0  501  0.00000000000E+00  0.00000000000E+00 -0.45759818692E+03  0.45759818695E+03  0.50400001928E-02 0. -1.
    10030    2    1    2    0    0  0.00000000000E+00  0.00000000000E+00  0.94023315704E+03  0.18554295309E+04  0.15995562993E+04 0.  0.
        1    1    3    3  502    0  0.67344111975E+03 -0.41301339479E+03  0.32550617425E+03  0.85443389185E+03  0.50400001928E-02 0. -1.
       -1    1    3    3    0  502 -0.67344111975E+03  0.41301339479E+03  0.61472698280E+03  0.10009956391E+04  0.50400001928E-02 0.  1.
</event>
<event>
 5   0  0.7901257E-05  0.1598179E+04  0.7818609E-02  0.8821667E-01
        2   -1    0    0  501    0  0.00000000000E+00  0.00000000000E+00  0.91743069287E+03  0.91743069288E+03  0.25500000920E-02 0. -1.
       -2   -1    0    0    0  501  0.00000000000E+00  0.00000000000E+00 -0.69601341415E+03  0.69601341415E+03  0.25500000920E-02 0.  1.
    10030    2    1    2    0    0  0.00000000000E+00  0.00000000000E+00  0.22141727873E+03  0.16134441070E+04  0.15981790498E+04 0.  0.
        2    1    3    3  502    0  0.38011245132E+03 -0.30855599441E+03  0.74828802278E+03  0.89421878887E+03  0.25500000920E-02 0. -1.
       -2    1    3    3    0  502 -0.38011245132E+03  0.30855599441E+03 -0.52687074405E+03  0.71922531815E+03  0.25500000920E-02 0.  1.
</event>
<event>
 5   0  0.4314657E-05  0.1598739E+04  0.7818609E-02  0.8821323E-01
       -1   -1    0    0    0  501  0.00000000000E+00  0.00000000000E+00  0.66391903262E+03  0.66391903264E+03  0.50400001928E-02 0.  1.
        1   -1    0    0  501    0  0.00000000000E+00  0.00000000000E+00 -0.96245456328E+03  0.96245456329E+03  0.50400001928E-02 0. -1.
    10030    2    1    2    0    0  0.00000000000E+00  0.00000000000E+00 -0.29853553065E+03  0.16263735959E+04  0.15987393817E+04 0.  0.
        5    1    3    3  502    0 -0.31340661586E+03  0.65861095763E+03 -0.48199572355E+03  0.87426201329E+03  0.46999998093E+01 0. -1.
       -5    1    3    3    0  502  0.31340661586E+03 -0.65861095763E+03  0.18346019289E+03  0.75211158264E+03  0.46999998093E+01 0.  1.
</event>
<event>
 5   0  0.4256406E-05  0.1596680E+04  0.7818609E-02  0.8822590E-01
        1   -1    0    0  501    0  0.00000000000E+00  0.00000000000E+00  0.10778747356E+04  0.10778747356E+04  0.50400001928E-02 0.  1.
       -1   -1    0    0    0  501  0.00000000000E+00  0.00000000000E+00 -0.59129946629E+03  0.59129946631E+03  0.50400001928E-02 0. -1.
    10030    2    1    2    0    0  0.00000000000E+00  0.00000000000E+00  0.48657526927E+03  0.16691742019E+04  0.15966800004E+04 0.  0.
        3    1    3    3  502    0 -0.40764753554E+03  0.16365476404E+02  0.96066758054E+03  0.10437080782E+04  0.10100000352E+00 0.  1.
       -3    1    3    3    0  502  0.40764753554E+03 -0.16365476404E+02 -0.47409231127E+03  0.62546612367E+03  0.10100000352E+00 0. -1.
</event>
<event>
 5   0  0.8620155E-05  0.1597513E+04  0.7818609E-02  0.8822078E-01
        2   -1    0    0  501    0  0.00000000000E+00  0.00000000000E+00  0.13464458886E+04  0.13464458886E+04  0.25500000920E-02 0. -1.
       -2   -1    0    0    0  501  0.00000000000E+00  0.00000000000E+00 -0.47384873882E+03  0.47384873882E+03  0.25500000920E-02 0.  1.
    10030    2    1    2    0    0  0.00000000000E+00  0.00000000000E+00  0.87259714976E+03  0.18202946274E+04  0.15975126744E+04 0.  0.
        4    1    3    3  502    0  0.61594969003E+02  0.52238161659E+03  0.11212370091E+04  0.12384871970E+04  0.12699999809E+01 0. -1.
       -4    1    3    3    0  502 -0.61594969003E+02 -0.52238161659E+03 -0.24863985935E+03  0.58180743044E+03  0.12699999809E+01 0.  1.
</event>
<event>
 5   0  0.4256406E-05  0.1599487E+04  0.7818609E-02  0.8820863E-01
       -1   -1    0    0    0  501  0.00000000000E+00  0.00000000000E+00  0.95361109915E+03  0.95361109916E+03  0.50400001928E-02 0.  1.
        1   -1    0    0  501    0  0.00000000000E+00  0.00000000000E+00 -0.67070295345E+03  0.67070295347E+03  0.50400001928E-02 0. -1.
    10030    2    1    2    0    0  0.00000000000E+00  0.00000000000E+00  0.28290814570E+03  0.16243140526E+04  0.15994871436E+04 0.  0.
        3    1    3    3  502    0 -0.87808413648E+02 -0.17171213646E+02 -0.66560442503E+03  0.67159096846E+03  0.10100000352E+00 0. -1.
       -3    1    3    3    0  502  0.87808413648E+02  0.17171213646E+02  0.94851257073E+03  0.95272308417E+03  0.10100000352E+00 0.  1.
</event>
<event>
 5   0  0.4373026E-05  0.1610823E+04  0.7818609E-02  0.8813926E-01
        1   -1    0    0  501    0  0.00000000000E+00  0.00000000000E+00  0.54985455851E+03  0.54985455854E+03  0.50400001928E-02 0.  1.
       -1   -1    0    0    0  501  0.00000000000E+00  0.00000000000E+00 -0.11797443382E+04  0.11797443382E+04  0.50400001928E-02 0. -1.
    10030    2    1    2    0    0  0.00000000000E+00  0.00000000000E+00 -0.62988977965E+03  0.17295988967E+04  0.16108231464E+04 0.  0.
        4    1    3    3  502    0 -0.12469246080E+03  0.19676426280E+03 -0.11427820247E+04  0.11662833077E+04  0.12699999809E+01 0. -1.
       -4    1    3    3    0  502  0.12469246080E+03 -0.19676426280E+03  0.51289224506E+03  0.56331558902E+03  0.12699999809E+01 0.  1.
</event>
<event>
 5   0  0.4256406E-05  0.1597006E+04  0.7818609E-02  0.8822389E-01
       -1   -1    0    0    0  501  0.00000000000E+00  0.00000000000E+00  0.13508891283E+04  0.13508891283E+04  0.50400001928E-02 0.  1.
        1   -1    0    0  501    0  0.00000000000E+00  0.00000000000E+00 -0.47199084205E+03  0.47199084208E+03  0.50400001928E-02 0. -1.
    10030    2    1    2    0    0  0.00000000000E+00  0.00000000000E+00  0.87889828620E+03  0.18228799703E+04  0.15970063208E+04 0.  0.
        3    1    3    3  502    0  0.21761530178E+03  0.76825681765E+03  0.44593924224E+03  0.91456917475E+03  0.10100000352E+00 0. -1.
       -3    1    3    3    0  502 -0.21761530178E+03 -0.76825681765E+03  0.43295904396E+03  0.90831079559E+03  0.10100000352E+00 0.  1.
</event>
<event>
 5   0  0.8037548E-05  0.1598936E+04  0.7818609E-02  0.8821202E-01
       -2   -1    0    0    0  501  0.00000000000E+00  0.00000000000E+00  0.16015321639E+04  0.16015321639E+04  0.25500000920E-02 0.  1.
        2   -1    0    0  501    0  0.00000000000E+00  0.00000000000E+00 -0.39908611914E+03  0.39908611915E+03  0.25500000920E-02 0. -1.
    10030    2    1    2    0    0  0.00000000000E+00  0.00000000000E+00  0.12024460448E+04  0.20006182831E+04  0.15989362163E+04 0.  0.
        5    1    3    3  502    0  0.58270233104E+02 -0.21473431984E+03 -0.35954720173E+03  0.42285048002E+03  0.46999998093E+01 0. -1.
       -5    1    3    3    0  502 -0.58270233104E+02  0.21473431984E+03  0.15619932465E+04  0.15777678030E+04  0.46999998093E+01 0.  1.
</event>
<event>
 5   0  0.4373026E-05  0.1599480E+04  0.7818609E-02  0.8820867E-01
        1   -1    0    0  501    0  0.00000000000E+00  0.00000000000E+00  0.12915693909E+04  0.12915693910E+04  0.50400001928E-02 0. -1.
       -1   -1    0    0    0  501  0.00000000000E+00  0.00000000000E+00 -0.49519933543E+03  0.49519933546E+03  0.50400001928E-02 0.  1.
    10030    2    1    2    0    0  0.00000000000E+00  0.00000000000E+00  0.79637005551E+03  0.17867687264E+04  0.15994802957E+04 0.  0.
        4    1    3    3  502    0  0.19389970326E+03  0.76367037633E+03  0.55132524831E+03  0.96163957953E+03  0.12699999809E+01 0. -1.
       -4    1    3    3    0  502 -0.19389970326E+03 -0.76367037633E+03  0.24504480720E+03  0.82512914688E+03  0.12699999809E+01 0.  1.
</event>
<event>
 5   0  0.4314657E-05  0.1600027E+04  0.7818609E-02  0.8820531E-01
       -1   -1    0    0    0  501  0.00000000000E+00  0.00000000000E+00  0.11783736418E+04  0.11783736418E+04  0.50400001928E-02 0.  1.
        1   -1    0    0  501    0  0.00000000000E+00  0.00000000000E+00 -0.54313986504E+03  0.54313986506E+03  0.50400001928E-02 0. -1.
    10030    2    1    2    0    0  0.00000000000E+00  0.00000000000E+00  0.63523377673E+03  0.17215135068E+04  0.16000271258E+04 0.  0.
        5    1    3    3  502    0  0.38664142233E+03  0.16630806779E+02  0.10709441224E+04  0.11387324429E+04  0.46999998093E+01 0.  1.
       -5    1    3    3    0  502 -0.38664142233E+03 -0.16630806779E+02 -0.43571034566E+03  0.58278106396E+03  0.46999998093E+01 0. -1.
</event>
<event>
 5   0  0.8037548E-05  0.1600092E+04  0.7818609E-02  0.8820492E-01
       -2   -1    0    0    0  501  0.00000000000E+00  0.00000000000E+00  0.79828552318E+03  0.79828552318E+03  0.25500000920E-02 0.  1.
        2   -1    0    0  501    0  0.00000000000E+00  0.00000000000E+00 -0.80181022843E+03  0.80181022843E+03  0.25500000920E-02 0. -1.
    10030    2    1    2    0    0  0.00000000000E+00  0.00000000000E+00 -0.35247052513E+01  0.16000957516E+04  0.16000918695E+04 0.  0.
        5    1    3    3  502    0  0.31213475387E+03 -0.17491726472E+03 -0.71732488531E+03  0.80162412336E+03  0.46999998093E+01 0. -1.
       -5    1    3    3    0  502 -0.31213475387E+03  0.17491726472E+03  0.71380018006E+03  0.79847162825E+03  0.46999998093E+01 0.  1.
</event>
<event>
 5   0  0.4314657E-05  0.1602163E+04  0.7818609E-02  0.8819220E-01
        1   -1    0    0  501    0  0.00000000000E+00  0.00000000000E+00  0.21423906527E+04  0.21423906527E+04  0.50400001928E-02 0. -1.
       -1   -1    0    0    0  501  0.00000000000E+00  0.00000000000E+00 -0.29954005979E+03  0.29954005984E+03  0.50400001928E-02 0.  1.
    10030    2    1    2    0    0  0.00000000000E+00  0.00000000000E+00  0.18428505929E+04  0.24419307126E+04  0.16021633179E+04 0.  0.
        5    1    3    3  502    0  0.29728057601E+03 -0.37392927935E+03  0.19015244797E+04  0.19606163020E+04  0.46999998093E+01 0. -1.
       -5    1    3    3    0  502 -0.29728057601E+03  0.37392927935E+03 -0.58673886760E+02  0.48131441056E+03  0.46999998093E+01 0.  1.
</event>
<event>
 5   0  0.8620155E-05  0.1610792E+04  0.7818609E-02  0.8813946E-01
        2   -1    0    0  501    0  0.00000000000E+00  0.00000000000E+00  0.59142943433E+03  0.59142943434E+03  0.25500000920E-02 0. -1.
       -2   -1    0    0    0  501  0.00000000000E+00  0.00000000000E+00 -0.10967707491E+04  0.10967707492E+04  0.25500000920E-02 0.  1.
    10030    2    1    2    0    0  0.00000000000E+00  0.00000000000E+00 -0.50534131482E+03  0.16882001835E+04  0.16107917355E+04 0.  0.
        4    1    3    3  502    0  0.71469779391E+02 -0.72737008877E+03  0.10194687357E+03  0.73794983118E+03  0.12699999809E+01 0.  1.
       -4    1    3    3    0  502 -0.71469779391E+02  0.72737008877E+03 -0.60728818838E+03  0.95025035231E+03  0.12699999809E+01 0. -1.
</event>
<event>
 5   0  0.4373026E-05  0.1601560E+04  0.7818609E-02  0.8819590E-01
        1   -1    0    0  501    0  0.00000000000E+00  0.00000000000E+00  0.19852423030E+04  0.19852423030E+04  0.50400001928E-02 0. -1.
       -1   -1    0    0    0  501  0.00000000000E+00  0.00000000000E+00 -0.32300766208E+03  0.32300766212E+03  0.50400001928E-02 0.  1.
    10030    2    1    2    0    0  0.00000000000E+00  0.00000000000E+00  0.16622346409E+04  0.23082499651E+04  0.16015598334E+04 0.  0.
        4    1    3    3  502    0  0.35124852835E+03 -0.51329406687E+03  0.10417713246E+03  0.63063524765E+03  0.12699999809E+01 0.  1.
       -4    1    3    3    0  502 -0.35124852835E+03  0.51329406687E+03  0.15580575085E+04  0.16776147175E+04  0.12699999809E+01 0. -1.
</event>
<event>
 5   0  0.4211419E-05  0.1599355E+04  0.7818609E-02  0.8820944E-01
       -1   -1    0    0    0  501  0.00000000000E+00  0.00000000000E+00  0.69190613533E+03  0.69190613535E+03  0.50400001928E-02 0.  1.
        1   -1    0    0  501    0  0.00000000000E+00  0.00000000000E+00 -0.92423580795E+03  0.92423580796E+03  0.50400001928E-02 0. -1.
    10030    2    1    2    0    0  0.00000000000E+00  0.00000000000E+00 -0.23232967262E+03  0.16161419433E+04  0.15993554027E+04 0.  0.
        2    1    3    3  502    0 -0.37694797844E+03  0.65798453897E+03 -0.37270143354E+03  0.84494957870E+03  0.25500000920E-02 0. -1.
       -2    1    3    3    0  502  0.37694797844E+03 -0.65798453897E+03  0.14037176092E+03  0.77119236462E+03  0.25500000920E-02 0.  1.
</event>
<event>
 5   0  0.4256406E-05  0.1600685E+04  0.7818609E-02  0.8820127E-01
       -1   -1    0    0    0  501  0.00000000000E+00  0.00000000000E+00  0.55045073659E+03  0.55045073661E+03  0.50400001928E-02 0. -1.
        1   -1    0    0  501    0  0.00000000000E+00  0.00000000000E+00 -0.11636788230E+04  0.11636788230E+04  0.50400001928E-02 0.  1.
    10030    2    1    2    0    0  0.00000000000E+00  0.00000000000E+00 -0.61322808645E+03  0.17141295597E+04  0.16006846852E+04 0.  0.
        3    1    3    3  502    0  0.47957496372E+03 -0.37553573458E+02 -0.99159218226E+03  0.11021150044E+04  0.10100000352E+00 0.  1.
       -3    1    3    3    0  502 -0.47957496372E+03  0.37553573458E+02  0.37836409581E+03  0.61201455531E+03  0.10100000352E+00 0. -1.
</event>
<event>
 5   0  0.7849690E-05  0.1601481E+04  0.7818609E-02  0.8819639E-01
       -2   -1    0    0    0  501  0.00000000000E+00  0.00000000000E+00  0.62119106492E+03  0.62119106493E+03  0.25500000920E-02 0.  1.
        2   -1    0    0  501    0  0.00000000000E+00  0.00000000000E+00 -0.10321864653E+04  0.10321864653E+04  0.25500000920E-02 0. -1.
    10030    2    1    2    0    0  0.00000000000E+00  0.00000000000E+00 -0.41099540040E+03  0.16533775303E+04  0.16014805770E+04 0.  0.
        3    1    3    3  502    0 -0.10885980802E+03  0.18037100441E+03  0.59206542982E+03  0.62843109441E+03  0.10100000352E+00 0.  1.
       -3    1    3    3    0  502  0.10885980802E+03 -0.18037100441E+03 -0.10030608302E+04  0.10249464358E+04  0.10100000352E+00 0. -1.
</event>
<event>
 5   0  0.4211419E-05  0.1602200E+04  0.7818609E-02  0.8819198E-01
        1   -1    0    0  501    0  0.00000000000E+00  0.00000000000E+00  0.12633264684E+04  0.12633264684E+04  0.50400001928E-02 0. -1.
       -1   -1    0    0    0  501  0.00000000000E+00  0.00000000000E+00 -0.50799319481E+03  0.50799319484E+03  0.50400001928E-02 0.  1.
    10030    2    1    2    0    0  0.00000000000E+00  0.00000000000E+00  0.75533327357E+03  0.17713196632E+04  0.16022000484E+04 0.  0.
        2    1    3    3  502    0 -0.33830849561E+03  0.16359995335E+01  0.11804743428E+04  0.12279963309E+04  0.25500000920E-02 0. -1.
       -2    1    3    3    0  502  0.33830849561E+03 -0.16359995335E+01 -0.42514106923E+03  0.54332333233E+03  0.25500000920E-02 0.  1.
</event>
<event>
 5   0  0.4211419E-05  0.1598537E+04  0.7818609E-02  0.8821448E-01
        1   -1    0    0  501    0  0.00000000000E+00  0.00000000000E+00  0.25230696427E+04  0.25230696427E+04  0.50400001928E-02 0.  1.
       -1   -1    0    0    0  501  0.00000000000E+00  0.00000000000E+00 -0.25319546061E+03  0.25319546066E+03  0.50400001928E-02 0. -1.
    10030    2    1    2    0    0  0.00000000000E+00  0.00000000000E+00  0.22698741821E+04  0.27762651033E+04  0.15985365562E+04 0.  0.
        2    1    3    3  502    0 -0.62758828444E+03  0.46392618828E+03  0.83545288680E+03  0.11432742842E+04  0.25500000920E-02 0.  1.
       -2    1    3    3    0  502  0.62758828444E+03 -0.46392618828E+03  0.14344212953E+04  0.16329908191E+04  0.25500000920E-02 0. -1.
</event>
<event>
 5   0  0.8037548E-05  0.1598348E+04  0.7818609E-02  0.8821563E-01
       -2   -1    0    0    0  501  0.00000000000E+00  0.00000000000E+00  0.81862533768E+03  0.81862533768E+03  0.25500000920E-02 0.  1.
        2   -1    0    0  501    0  0.00000000000E+00  0.00000000000E+00 -0.78018507149E+03  0.78018507149E+03  0.25500000920E-02 0. -1.
    10030    2    1    2    0    0  0.00000000000E+00  0.00000000000E+00  0.38440266190E+02  0.15988104092E+04  0.15983482319E+04 0.  0.
        5    1    3    3  502    0  0.24881734650E+03  0.63650450359E+03  0.43359723393E+03  0.80936809072E+03  0.46999998093E+01 0.  1.
       -5    1    3    3    0  502 -0.24881734650E+03 -0.63650450359E+03 -0.39515696774E+03  0.78944231845E+03  0.46999998093E+01 0. -1.
</event>
<event>
 5   0  0.8620155E-05  0.1600224E+04  0.7818609E-02  0.8820410E-01
       -2   -1    0    0    0  501  0.00000000000E+00  0.00000000000E+00  0.71282184059E+03  0.71282184059E+03  0.25500000920E-02 0.  1.
        2   -1    0    0  501    0  0.00000000000E+00  0.00000000000E+00 -0.89809160737E+03  0.89809160737E+03  0.25500000920E-02 0. -1.
    10030    2    1    2    0    0  0.00000000000E+00  0.00000000000E+00 -0.18526976678E+03  0.16109134480E+04  0.16002241250E+04 0.  0.
        4    1    3    3  502    0 -0.30056504894E+03  0.64187303208E+03  0.28110966748E+03  0.76247268541E+03  0.12699999809E+01 0.  1.
       -4    1    3    3    0  502  0.30056504894E+03 -0.64187303208E+03 -0.46637943426E+03  0.84844076255E+03  0.12699999809E+01 0. -1.
</event>
<event>
 5   0  0.4211419E-05  0.1599973E+04  0.7818609E-02  0.8820565E-01
       -1   -1    0    0    0  501  0.00000000000E+00  0.00000000000E+00  0.19989597844E+04  0.19989597844E+04  0.50400001928E-02 0. -1.
        1   -1    0    0  501    0  0.00000000000E+00  0.00000000000E+00 -0.32015568309E+03  0.32015568313E+03  0.50400001928E-02 0.  1.
    10030    2    1    2    0    0  0.00000000000E+00  0.00000000000E+00  0.16788041013E+04  0.23191154676E+04  0.15999729189E+04 0.  0.
        2    1    3    3  502    0 -0.41161271193E+03  0.57780778970E+03  0.30350613660E+03  0.77162351015E+03  0.25500000920E-02 0.  1.
       -2    1    3    3    0  502  0.41161271193E+03 -0.57780778970E+03  0.13752979647E+04  0.15474919574E+04  0.25500000920E-02 0. -1.
</event>
<event>
 5   0  0.4256406E-05  0.1608189E+04  0.7818609E-02  0.8815533E-01
       -1   -1    0    0    0  501  0.00000000000E+00  0.00000000000E+00  0.15505563870E+04  0.15505563870E+04  0.50400001928E-02 0.  1.
        1   -1    0    0  501    0  0.00000000000E+00  0.00000000000E+00 -0.41699114383E+03  0.41699114386E+03  0.50400001928E-02 0. -1.
    10030    2    1    2    0    0  0.00000000000E+00  0.00000000000E+00  0.11335652432E+04  0.19675475309E+04  0.16081893936E+04 0.  0.
        3    1    3    3  502    0 -0.63040903655E+03 -0.45761462961E+03  0.81068191477E+03  0.11242917236E+04  0.10100000352E+00 0.  1.
       -3    1    3    3    0  502  0.63040903655E+03  0.45761462961E+03  0.32288332843E+03  0.84325580732E+03  0.10100000352E+00 0. -1.
</event>
<event>
 5   0  0.4256406E-05  0.1600233E+04  0.7818609E-02  0.8820405E-01
       -1   -1    0    0    0  501  0.00000000000E+00  0.00000000000E+00  0.25874858507E+03  0.25874858512E+03  0.50400001928E-02 0.  1.
        1   -1    0    0  501    0  0.00000000000E+00  0.00000000000E+00 -0.24741642498E+04  0.24741642498E+04  0.50400001928E-02 0. -1.
    10030    2    1    2    0    0  0.00000000000E+00  0.00000000000E+00 -0.22154156647E+04  0.27329128349E+04  0.16002331067E+04 0.  0.
        3    1    3    3  502    0  0.25290035065E+03  0.53235243628E+03 -0.20318726089E+04  0.21156237881E+04  0.10100000352E+00 0. -1.
       -3    1    3    3    0  502 -0.25290035065E+03 -0.53235243628E+03 -0.18354305581E+03  0.61728904681E+03  0.10100000352E+00 0.  1.
</event>
<event>
 5   0  0.7901257E-05  0.1597926E+04  0.7818609E-02  0.8821823E-01
       -2   -1    0    0    0  501  0.00000000000E+00  0.00000000000E+00  0.11156321892E+04  0.11156321892E+04  0.25500000920E-02 0. -1.
        2   -1    0    0  501    0  0.00000000000E+00  0.00000000000E+00 -0.57217950649E+03  0.57217950649E+03  0.25500000920E-02 0.  1.
    10030    2    1    2    0    0  0.00000000000E+00  0.00000000000E+00  0.54345268270E+03  0.16878116957E+04  0.15979260001E+04 0.  0.
        2    1    3    3  502    0  0.13323552365E+03 -0.11856614083E+02 -0.56026839777E+03  0.57601472342E+03  0.25500000920E-02 0.  1.
       -2    1    3    3    0  502 -0.13323552365E+03  0.11856614083E+02  0.11037210805E+04  0.11117969723E+04  0.25500000920E-02 0. -1.
</event>
<event>
 5   0  0.4504463E-05  0.1600666E+04  0.7818609E-02  0.8820139E-01
       -1   -1    0    0    0  501  0.00000000000E+00  0.00000000000E+00  0.11236265975E+04  0.11236265975E+04  0.50400001928E-02 0. -1.
        1   -1    0    0  501    0  0.00000000000E+00  0.00000000000E+00 -0.57005816667E+03  0.57005816669E+03  0.50400001928E-02 0.  1.
    10030    2    1    2    0    0  0.00000000000E+00  0.00000000000E+00  0.55356843078E+03  0.16936847642E+04  0.16006655093E+04 0.  0.
        1    1    3    3  502    0  0.65253793374E+03 -0.24482671113E+03  0.69307685942E+03  0.98290457652E+03  0.50400001928E-02 0. -1.
       -1    1    3    3    0  502 -0.65253793374E+03  0.24482671113E+03 -0.13950842864E+03  0.71078018764E+03  0.50400001928E-02 0.  1.
</event>
<event>
 5   0  0.8037548E-05  0.1601955E+04  0.7818609E-02  0.8819348E-01
        2   -1    0    0  501    0  0.00000000000E+00  0.00000000000E+00  0.18376536049E+04  0.18376536049E+04  0.25500000920E-02 0. -1.
       -2   -1    0    0    0  501  0.00000000000E+00  0.00000000000E+00 -0.34912172043E+03  0.34912172044E+03  0.25500000920E-02 0.  1.
    10030    2    1    2    0    0  0.00000000000E+00  0.00000000000E+00  0.14885318845E+04  0.21867753253E+04  0.16019547910E+04 0.  0.
        5    1    3    3  502    0  0.18650861981E+03  0.36325058929E+03 -0.19634953214E+03  0.45311332429E+03  0.46999998093E+01 0.  1.
       -5    1    3    3    0  502 -0.18650861981E+03 -0.36325058929E+03  0.16848814166E+04  0.17336620010E+04  0.46999998093E+01 0. -1.
</event>
<event>
 5   0  0.4256406E-05  0.1601681E+04  0.7818609E-02  0.8819516E-01
       -1   -1    0    0    0  501  0.00000000000E+00  0.00000000000E+00  0.90357583090E+03  0.90357583092E+03  0.50400001928E-02 0. -1.
        1   -1    0    0  501    0  0.00000000000E+00  0.00000000000E+00 -0.70978642965E+03  0.70978642967E+03  0.50400001928E-02 0.  1.
    10030    2    1    2    0    0  0.00000000000E+00  0.00000000000E+00  0.19378940126E+03  0.16133622606E+04  0.16016814452E+04 0.  0.
        3    1    3    3  502    0 -0.73354439910E+03 -0.31925551611E+03  0.60099094759E+02  0.80226141712E+03  0.10100000352E+00 0.  1.
       -3    1    3    3    0  502  0.73354439910E+03  0.31925551611E+03  0.13369030650E+03  0.81110084346E+03  0.10100000352E+00 0. -1.
</event>
<event>
 5   0  0.7901257E-05  0.1599724E+04  0.7818609E-02  0.8820718E-01
       -2   -1    0    0    0  501  0.00000000000E+00  0.00000000000E+00  0.70279641925E+03  0.70279641925E+03  0.25500000920E-02 0.  1.
        2   -1    0    0  501    0  0.00000000000E+00  0.00000000000E+00 -0.91033311960E+03  0.91033311960E+03  0.25500000920E-02 0. -1.
    10030    2    1    2    0    0  0.00000000000E+00  0.00000000000E+00 -0.20753670035E+03  0.16131295389E+04  0.15997235471E+04 0.  0.
        2    1    3    3  502    0  0.27086463350E+03  0.36871162052E+03  0.55782661910E+03  0.72144746571E+03  0.25500000920E-02 0.  1.
       -2    1    3    3    0  502 -0.27086463350E+03 -0.36871162052E+03 -0.76536331946E+03  0.89168207314E+03  0.25500000920E-02 0. -1.
</event>
<event>
 5   0  0.3042125E-05  0.1596583E+04  0.7818609E-02  0.8822650E-01
       -3   -1    0    0    0  501  0.00000000000E+00  0.00000000000E+00  0.12115791817E+04  0.12115791859E+04  0.10100000352E+00 0.  1.
        3   -1    0    0  501    0  0.00000000000E+00  0.00000000000E+00 -0.52598255305E+03  0.52598256275E+03  0.10100000352E+00 0. -1.
    10030    2    1    2    0    0  0.00000000000E+00  0.00000000000E+00  0.68559662865E+03  0.17375617487E+04  0.15965832560E+04 0.  0.
        1    1    3    3  502    0  0.77067509392E+03  0.19222721442E+03  0.25588325088E+03  0.83448645313E+03  0.50400001928E-02 0. -1.
       -1    1    3    3    0  502 -0.77067509392E+03 -0.19222721442E+03  0.42971337777E+03  0.90307529554E+03  0.50400001928E-02 0.  1.
</event>
<event>
 5   0  0.8037548E-05  0.1604521E+04  0.7818609E-02  0.8817776E-01
       -2   -1    0    0    0  501  0.00000000000E+00  0.00000000000E+00  0.67886880418E+03  0.67886880418E+03  0.25500000920E-02 0. -1.
        2   -1    0    0  501    0  0.00000000000E+00  0.00000000000E+00 -0.94807958555E+03  0.94807958556E+03  0.25500000920E-02 0.  1.
    10030    2    1    2    0    0  0.00000000000E+00  0.00000000000E+00 -0.26921078138E+03  0.16269483897E+04  0.16045206817E+04 0.  0.
        5    1    3    3  502    0  0.19122886842E+03  0.25113604441E+03 -0.88245220298E+03  0.93722023743E+03  0.46999998093E+01 0.  1.
       -5    1    3    3    0  502 -0.19122886842E+03 -0.25113604441E+03  0.61324142160E+03  0.68972815231E+03  0.46999998093E+01 0. -1.
</event>
<event>
 5   0  0.4504463E-05  0.1603679E+04  0.7818609E-02  0.8818291E-01
       -1   -1    0    0    0  501  0.00000000000E+00  0.00000000000E+00  0.23201704081E+03  0.23201704087E+03  0.50400001928E-02 0.  1.
        1   -1    0    0  501    0  0.00000000000E+00  0.00000000000E+00 -0.27711177375E+04  0.27711177375E+04  0.50400001928E-02 0. -1.
    10030    2    1    2    0    0  0.00000000000E+00  0.00000000000E+00 -0.25391006967E+04  0.30031347784E+04  0.16036789420E+04 0.  0.
        1    1    3    3  502    0  0.90537795145E+02 -0.79664483177E+03 -0.12888720060E+04  0.15179035306E+04  0.50400001928E-02 0. -1.
       -1    1    3    3    0  502 -0.90537795145E+02  0.79664483177E+03 -0.12502286907E+04  0.14852312478E+04  0.50400001928E-02 0.  1.
</event>
<event>
 5   0  0.4211419E-05  0.1559375E+04  0.7818609E-02  0.8845902E-01
        1   -1    0    0  501    0  0.00000000000E+00  0.00000000000E+00  0.13171040455E+04  0.13171040455E+04  0.50400001928E-02 0.  1.
       -1   -1    0    0    0  501  0.00000000000E+00  0.00000000000E+00 -0.46155252059E+03  0.46155252062E+03  0.50400001928E-02 0. -1.
    10030    2    1    2    0    0  0.00000000000E+00  0.00000000000E+00  0.85555152491E+03  0.17786565661E+04  0.15593751211E+04 0.  0.
        2    1    3    3  502    0  0.46412629889E+03  0.59035011737E+02 -0.28364134304E+03  0.54712956913E+03  0.25500000920E-02 0. -1.
       -2    1    3    3    0  502 -0.46412629889E+03 -0.59035011737E+02  0.11391928680E+04  0.12315269970E+04  0.25500000920E-02 0.  1.
</event>
<event>
 5   0  0.7849690E-05  0.1601363E+04  0.7818609E-02  0.8819711E-01
        2   -1    0    0  501    0  0.00000000000E+00  0.00000000000E+00  0.28593335339E+04  0.28593335339E+04  0.25500000920E-02 0. -1.
       -2   -1    0    0    0  501  0.00000000000E+00  0.00000000000E+00 -0.22420986598E+03  0.22420986600E+03  0.25500000920E-02 0.  1.
    10030    2    1    2    0    0  0.00000000000E+00  0.00000000000E+00  0.26351236679E+04  0.30835433999E+04  0.16013629051E+04 0.  0.
        3    1    3    3  502    0 -0.65822257159E+03 -0.25778817190E+03  0.59353796898E+03  0.92303793321E+03  0.10100000352E+00 0.  1.
       -3    1    3    3    0  502  0.65822257159E+03  0.25778817190E+03  0.20415856989E+04  0.21605054667E+04  0.10100000352E+00 0. -1.
</event>
<event>
 5   0  0.4314657E-05  0.1598019E+04  0.7818609E-02  0.8821766E-01
       -1   -1    0    0    0  501  0.00000000000E+00  0.00000000000E+00  0.77731320916E+03  0.77731320918E+03  0.50400001928E-02 0. -1.
        1   -1    0    0  501    0  0.00000000000E+00  0.00000000000E+00 -0.82131159346E+03  0.82131159347E+03  0.50400001928E-02 0.  1.
    10030    2    1    2    0    0  0.00000000000E+00  0.00000000000E+00 -0.43998384292E+02  0.15986248026E+04  0.15980192120E+04 0.  0.
        5    1    3    3  502    0  0.51077171993E+03 -0.15644034842E+02  0.59244996416E+03  0.78240113480E+03  0.46999998093E+01 0. -1.
       -5    1    3    3    0  502 -0.51077171993E+03  0.15644034842E+02 -0.63644834846E+03  0.81622366785E+03  0.46999998093E+01 0.  1.
</event>
<event>
 5   0  0.8694033E-05  0.1600122E+04  0.7818609E-02  0.8820473E-01
        2   -1    0    0  501    0  0.00000000000E+00  0.00000000000E+00  0.12854533457E+04  0.12854533457E+04  0.25500000920E-02 0. -1.
       -2   -1    0    0    0  501  0.00000000000E+00  0.00000000000E+00 -0.49795503812E+03  0.49795503812E+03  0.25500000920E-02 0.  1.
    10030    2    1    2    0    0  0.00000000000E+00  0.00000000000E+00  0.78749830757E+03  0.17834083838E+04  0.16001224575E+04 0.  0.
        1    1    3    3  502    0 -0.30492388480E+03  0.64675608814E+03 -0.62870262559E+01  0.71506051477E+03  0.50400001928E-02 0.  1.
       -1    1    3    3    0  502  0.30492388480E+03 -0.64675608814E+03  0.79378533383E+03  0.10683478690E+04  0.50400001928E-02 0. -1.
</event>
<event>
 5   0  0.4504463E-05  0.1601419E+04  0.7818609E-02  0.8819677E-01
       -1   -1    0    0    0  501  0.00000000000E+00  0.00000000000E+00  0.39934711221E+03  0.39934711224E+03  0.50400001928E-02 0. -1.
        1   -1    0    0  501    0  0.00000000000E+00  0.00000000000E+00 -0.16054590750E+04  0.16054590750E+04  0.50400001928E-02 0.  1.
    10030    2    1    2    0    0  0.00000000000E+00  0.00000000000E+00 -0.12061119628E+04  0.20048061872E+04  0.16014186778E+04 0.  0.
        1    1    3    3  502    0  0.30335404276E+03 -0.73863094180E+03 -0.52861194843E+03  0.95761679992E+03  0.50400001928E-02 0.  1.
       -1    1    3    3    0  502 -0.30335404276E+03  0.73863094180E+03 -0.67750001435E+03  0.10471893873E+04  0.50400001928E-02 0. -1.
</event>
<event>
 5   0  0.7901257E-05  0.1599710E+04  0.7818609E-02  0.8820726E-01
        2   -1    0    0  501    0  0.00000000000E+00  0.00000000000E+00  0.19026980419E+04  0.19026980419E+04  0.25500000920E-02 0. -1.
       -2   -1    0    0    0  501  0.00000000000E+00  0.00000000000E+00 -0.33624239271E+03  0.33624239272E+03  0.25500000920E-02 0.  1.
    10030    2    1    2    0    0  0.00000000000E+00  0.00000000000E+00  0.15664556492E+04  0.22389404346E+04  0.15997096514E+04 0.  0.
        2    1    3    3  502    0 -0.69686912821E+03  0.24727271258E+03  0.12100399006E+04  0.14180856593E+04  0.25500000920E-02 0. -1.
       -2    1    3    3    0  502  0.69686912821E+03 -0.24727271258E+03  0.35641574861E+03  0.82085477528E+03  0.25500000920E-02 0.  1.
</event>
<event>
 5   0  0.4256406E-05  0.1601025E+04  0.7818609E-02  0.8819919E-01
       -1   -1    0    0    0  501  0.00000000000E+00  0.00000000000E+00  0.57164523896E+03  0.57164523898E+03  0.50400001928E-02 0.  1.
        1   -1    0    0  501    0  0.00000000000E+00  0.00000000000E+00 -0.11210102739E+04  0.11210102740E+04  0.50400001928E-02 0. -1.
    10030    2    1    2    0    0  0.00000000000E+00  0.00000000000E+00 -0.54936503499E+03  0.16926555129E+04  0.16010249042E+04 0.  0.
        3    1    3    3  502    0 -0.38927291184E+03 -0.31589473005E+03  0.38513328972E+03  0.63217920040E+03  0.10100000352E+00 0.  1.
       -3    1    3    3    0  502  0.38927291184E+03  0.31589473005E+03 -0.93449832471E+03  0.10604763125E+04  0.10100000352E+00 0. -1.
</event>
<event>
 5   0  0.8620155E-05  0.1605973E+04  0.7818609E-02  0.8816887E-01
        2   -1    0    0  501    0  0.00000000000E+00  0.00000000000E+00  0.12171686256E+04  0.12171686256E+04  0.25500000920E-02 0.  1.
       -2   -1    0    0    0  501  0.00000000000E+00  0.00000000000E+00 -0.52974354860E+03  0.52974354861E+03  0.25500000920E-02 0. -1.
    10030    2    1    2    0    0  0.00000000000E+00  0.00000000000E+00  0.68742507704E+03  0.17469121743E+04  0.16059728852E+04 0.  0.
        4    1    3    3  502    0  0.47696403268E+02  0.10078637407E+02 -0.52813129692E+03  0.53037798362E+03  0.12699999809E+01 0. -1.
       -4    1    3    3    0  502 -0.47696403268E+02 -0.10078637407E+02  0.12155563740E+04  0.12165341906E+04  0.12699999809E+01 0.  1.
</event>
<event>
 5   0  0.8694033E-05  0.1603831E+04  0.7818609E-02  0.8818198E-01
       -2   -1    0    0    0  501  0.00000000000E+00  0.00000000000E+00  0.11742280036E+04  0.11742280036E+04  0.25500000920E-02 0. -1.
        2   -1    0    0  501    0  0.00000000000E+00  0.00000000000E+00 -0.54765239918E+03  0.54765239919E+03  0.25500000920E-02 0.  1.
    10030    2    1    2    0    0  0.00000000000E+00  0.00000000000E+00  0.62657560441E+03  0.17218804028E+04  0.16038313918E+04 0.  0.
        1    1    3    3  502    0  0.50580306465E+03  0.38878819874E+03 -0.20835112114E+03  0.67112084858E+03  0.50400001928E-02 0.  1.
       -1    1    3    3    0  502 -0.50580306465E+03 -0.38878819874E+03  0.83492672554E+03  0.10507595542E+04  0.50400001928E-02 0. -1.
</event>
<event>
 5   0  0.4256406E-05  0.1596921E+04  0.7818609E-02  0.8822442E-01
        1   -1    0    0  501    0  0.00000000000E+00  0.00000000000E+00  0.11633351817E+04  0.11633351817E+04  0.50400001928E-02 0.  1.
       -1   -1    0    0    0  501  0.00000000000E+00  0.00000000000E+00 -0.54802701353E+03  0.54802701356E+03  0.50400001928E-02 0. -1.
    10030    2    1    2    0    0  0.00000000000E+00  0.00000000000E+00  0.61530816814E+03  0.17113621952E+04  0.15969209190E+04 0.  0.
        3    1    3    3  502    0 -0.53347094286E+03 -0.42391899146E+03 -0.13839564982E+03  0.69530707194E+03  0.10100000352E+00 0. -1.
       -3    1    3    3    0  502  0.53347094286E+03  0.42391899146E+03  0.75370381796E+03  0.10160551233E+04  0.10100000352E+00 0.  1.
</event>
<event>
 5   0  0.4314657E-05  0.1630495E+04  0.7818609E-02  0.8802030E-01
       -1   -1    0    0    0  501  0.00000000000E+00  0.00000000000E+00  0.10330687981E+04  0.10330687981E+04  0.50400001928E-02 0.  1.
        1   -1    0    0  501    0  0.00000000000E+00  0.00000000000E+00 -0.64335352894E+03  0.64335352896E+03  0.50400001928E-02 0. -1.
    10030    2    1    2    0    0  0.00000000000E+00  0.00000000000E+00  0.38971526911E+03  0.16764223270E+04  0.16304949640E+04 0.  0.
        5    1    3    3  502    0  0.33367639980E+03  0.83723048406E+02  0.95476811418E+03  0.10148663609E+04  0.46999998093E+01 0.  1.
       -5    1    3    3    0  502 -0.33367639980E+03 -0.83723048406E+02 -0.56505284506E+03  0.66155596613E+03  0.46999998093E+01 0. -1.
</event>
<event>
 5   0  0.4256406E-05  0.1599160E+04  0.7818609E-02  0.8821064E-01
        1   -1    0    0  501    0  0.00000000000E+00  0.00000000000E+00  0.10459930589E+04  0.10459930589E+04  0.50400001928E-02 0.  1.
       -1   -1    0    0    0  501  0.00000000000E+00  0.00000000000E+00 -0.61121681795E+03  0.61121681797E+03  0.50400001928E-02 0. -1.
    10030    2    1    2    0    0  0.00000000000E+00  0.00000000000E+00  0.43477624098E+03  0.16572098769E+04  0.15991604661E+04 0.  0.
        3    1    3    3  502    0 -0.22528531612E+03  0.75218341244E+03  0.37384943490E+03  0.86965324687E+03  0.10100000352E+00 0. -1.
       -3    1    3    3    0  502  0.22528531612E+03 -0.75218341244E+03  0.60926806076E+02  0.78755663004E+03  0.10100000352E+00 0.  1.
</event>
<event>
 5   0  0.4314657E-05  0.1597194E+04  0.7818609E-02  0.8822273E-01
       -1   -1    0    0    0  501  0.00000000000E+00  0.00000000000E+00  0.52674828319E+03  0.52674828321E+03  0.50400001928E-02 0. -1.
        1   -1    0    0  501    0  0.00000000000E+00  0.00000000000E+00 -0.12107441973E+04  0.12107441973E+04  0.50400001928E-02 0.  1.
    10030    2    1    2    0    0  0.00000000000E+00  0.00000000000E+00 -0.68399591413E+03  0.17374924805E+04  0.15971943242E+04 0.  0.
        5    1    3    3  502    0 -0.41529838598E+03 -0.57086743743E+03 -0.74811800840E+03  0.10286228779E+04  0.46999998093E+01 0.  1.
       -5    1    3    3    0  502  0.41529838598E+03  0.57086743743E+03  0.64122094275E+02  0.70886960260E+03  0.46999998093E+01 0. -1.
</event>
<event>
 5   0  0.7901257E-05  0.1603570E+04  0.7818609E-02  0.8818358E-01
        2   -1    0    0  501    0  0.00000000000E+00  0.00000000000E+00  0.10077041187E+04  0.10077041187E+04  0.25500000920E-02 0.  1.
       -2   -1    0    0    0  501  0.00000000000E+00  0.00000000000E+00 -0.63794475628E+03  0.63794475628E+03  0.25500000920E-02 0. -1.
    10030    2    1    2    0    0  0.00000000000E+00  0.00000000000E+00  0.36975936237E+03  0.16456488749E+04  0.16035704642E+04 0.  0.
        2    1    3    3  502    0 -0.63530413184E+03 -0.48200212000E+03  0.27026248425E+03  0.84200902253E+03  0.25500000920E-02 0.  1.
       -2    1    3    3    0  502  0.63530413184E+03  0.48200212000E+03  0.99496878120E+02  0.80363985241E+03  0.25500000920E-02 0. -1.
</event>
<event>
 5   0  0.4256406E-05  0.1555773E+04  0.7818609E-02  0.8848189E-01
        1   -1    0    0  501    0  0.00000000000E+00  0.00000000000E+00  0.13505890445E+04  0.13505890445E+04  0.50400001928E-02 0.  1.
       -1   -1    0    0    0  501  0.00000000000E+00  0.00000000000E+00 -0.44803230948E+03  0.44803230951E+03  0.50400001928E-02 0. -1.
    10030    2    1    2    0    0  0.00000000000E+00  0.00000000000E+00  0.90255673497E+03  0.17986213540E+04  0.15557731567E+04 0.  0.
        3    1    3    3  502    0 -0.17344120302E+03 -0.65327257750E+03  0.61283871885E+01  0.67593230338E+03  0.10100000352E+00 0. -1.
       -3    1    3    3    0  502  0.17344120302E+03  0.65327257750E+03  0.89642834778E+03  0.11226890506E+04  0.10100000352E+00 0.  1.
</event>
<event>
 5   0  0.8694033E-05  0.1600963E+04  0.7818609E-02  0.8819957E-01
       -2   -1    0    0    0  501  0.00000000000E+00  0.00000000000E+00  0.11119310340E+04  0.11119310340E+04  0.25500000920E-02 0. -1.
        2   -1    0    0  501    0  0.00000000000E+00  0.00000000000E+00 -0.57626818606E+03  0.57626818607E+03  0.25500000920E-02 0.  1.
    10030    2    1    2    0    0  0.00000000000E+00  0.00000000000E+00  0.53566284790E+03  0.16881992200E+04  0.16009628103E+04 0.  0.
        1    1    3    3  502    0  0.27462546451E+03  0.22492930165E+03  0.10243926236E+04  0.10841552397E+04  0.50400001928E-02 0. -1.
       -1    1    3    3    0  502 -0.27462546451E+03 -0.22492930165E+03 -0.48872977568E+03  0.60404398032E+03  0.50400001928E-02 0.  1.
</event>
<event>
 5   0  0.8620155E-05  0.1601784E+04  0.7818609E-02  0.8819453E-01
       -2   -1    0    0    0  501  0.00000000000E+00  0.00000000000E+00  0.12466991830E+04  0.12466991830E+04  0.25500000920E-02 0. -1.
        2   -1    0    0  501    0  0.00000000000E+00  0.00000000000E+00 -0.51450121328E+03  0.51450121329E+03  0.25500000920E-02 0.  1.
    10030    2    1    2    0    0  0.00000000000E+00  0.00000000000E+00  0.73219796970E+03  0.17612003963E+04  0.16017843079E+04 0.  0.
        4    1    3    3  502    0  0.14349423076E+03 -0.69762114441E+03 -0.36634293416E+02  0.71316866150E+03  0.12699999809E+01 0.  1.
       -4    1    3    3    0  502 -0.14349423076E+03  0.69762114441E+03  0.76883226312E+03  0.10480317348E+04  0.12699999809E+01 0. -1.
</event>
<event>
 5   0  0.4256406E-05  0.1605650E+04  0.7818609E-02  0.8817084E-01
        1   -1    0    0  501    0  0.00000000000E+00  0.00000000000E+00  0.27148594966E+04  0.27148594966E+04  0.50400001928E-02 0.  1.
       -1   -1    0    0    0  501  0.00000000000E+00  0.00000000000E+00 -0.23740759366E+03  0.23740759371E+03  0.50400001928E-02 0. -1.
    10030    2    1    2    0    0  0.00000000000E+00  0.00000000000E+00  0.24774519030E+04  0.29522670903E+04  0.16056503484E+04 0.  0.
        3    1    3    3  502    0  0.21420691098E+03  0.56504476889E+02  0.26575470667E+04  0.26667646651E+04  0.10100000352E+00 0.  1.
       -3    1    3    3    0  502 -0.21420691098E+03 -0.56504476889E+02 -0.18009516378E+03  0.28550242528E+03  0.10100000352E+00 0. -1.
</event>
<event>
 5   0  0.7849690E-05  0.1598064E+04  0.7818609E-02  0.8821738E-01
        2   -1    0    0  501    0  0.00000000000E+00  0.00000000000E+00  0.25456977108E+04  0.25456977108E+04  0.25500000920E-02 0. -1.
       -2   -1    0    0    0  501  0.00000000000E+00  0.00000000000E+00 -0.25079648164E+03  0.25079648165E+03  0.25500000920E-02 0.  1.
    10030    2    1    2    0    0  0.00000000000E+00  0.00000000000E+00  0.22949012291E+04  0.27964941924E+04  0.15980638650E+04 0.  0.
        3    1    3    3  502    0  0.26004764231E+03  0.74659439455E+03  0.13502009658E+04  0.15646311465E+04  0.10100000352E+00 0.  1.
       -3    1    3    3    0  502 -0.26004764231E+03 -0.74659439455E+03  0.94470026332E+03  0.12318630459E+04  0.10100000352E+00 0. -1.
</event>
<event>
 5   0  0.7849690E-05  0.1601487E+04  0.7818609E-02  0.8819635E-01
       -2   -1    0    0    0  501  0.00000000000E+00  0.00000000000E+00  0.63713246564E+03  0.63713246564E+03  0.25500000920E-02 0. -1.
        2   -1    0    0  501    0  0.00000000000E+00  0.00000000000E+00 -0.10063686878E+04  0.10063686878E+04  0.25500000920E-02 0.  1.
    10030    2    1    2    0    0  0.00000000000E+00  0.00000000000E+00 -0.36923622217E+03  0.16435011535E+04  0.16014870133E+04 0.  0.
        3    1    3    3  502    0  0.41552314314E+03 -0.68803457539E+02 -0.88351071544E+03  0.97876687355E+03  0.10100000352E+00 0.  1.
       -3    1    3    3    0  502 -0.41552314314E+03  0.68803457539E+02  0.51427449327E+03  0.66473427991E+03  0.10100000352E+00 0. -1.
</event>
<event>
 5   0  0.4211419E-05  0.1601567E+04  0.7818609E-02  0.8819586E-01
       -1   -1    0    0    0  501  0.00000000000E+00  0.00000000000E+00  0.12054385769E+04  0.12054385769E+04  0.50400001928E-02 0. -1.
        1   -1    0    0  501    0  0.00000000000E+00  0.00000000000E+00 -0.53196749647E+03  0.53196749650E+03  0.50400001928E-02 0.  1.
    10030    2    1    2    0    0  0.00000000000E+00  0.00000000000E+00  0.67347108046E+03  0.17374060734E+04  0.16015669102E+04 0.  0.
        2    1    3    3  502    0 -0.61210861970E+03 -0.27054750790E+03  0.81378499323E+03  0.10536218162E+04  0.25500000920E-02 0.  1.
       -2    1    3    3    0  502  0.61210861970E+03  0.27054750790E+03 -0.14031391276E+03  0.68378425725E+03  0.25500000920E-02 0. -1.
</event>
<event>
 5   0  0.4314657E-05  0.1599828E+04  0.7818609E-02  0.8820653E-01
        1   -1    0    0  501    0  0.00000000000E+00  0.00000000000E+00  0.71577850111E+03  0.71577850113E+03  0.50400001928E-02 0. -1.
       -1   -1    0    0    0  501  0.00000000000E+00  0.00000000000E+00 -0.89393965284E+03  0.89393965285E+03  0.50400001928E-02 0.  1.
    10030    2    1    2    0    0  0.00000000000E+00  0.00000000000E+00 -0.17816115173E+03  0.16097181540E+04  0.15998284718E+04 0.  0.
        5    1    3    3  502    0  0.41913280815E+03  0.62028313971E+03 -0.37263324174E+03  0.83624225385E+03  0.46999998093E+01 0.  1.
       -5    1    3    3    0  502 -0.41913280815E+03 -0.62028313971E+03  0.19447209001E+03  0.77347590012E+03  0.46999998093E+01 0. -1.
</event>
<event>
 5   0  0.4504463E-05  0.1590282E+04  0.7818609E-02  0.8826540E-01
        1   -1    0    0  501    0  0.00000000000E+00  0.00000000000E+00  0.15775048763E+04  0.15775048764E+04  0.50400001928E-02 0.  1.
       -1   -1    0    0    0  501  0.00000000000E+00  0.00000000000E+00 -0.40079090413E+03  0.40079090416E+03  0.50400001928E-02 0. -1.
    10030    2    1    2    0    0  0.00000000000E+00  0.00000000000E+00  0.11767139722E+04  0.19782957805E+04  0.15902824978E+04 0.  0.
        1    1    3    3  502    0 -0.28540365352E+03  0.43351307428E+03 -0.16099688838E+03  0.54342325043E+03  0.50400001928E-02 0. -1.
       -1    1    3    3    0  502  0.28540365352E+03 -0.43351307428E+03  0.13377108606E+04  0.14348725301E+04  0.50400001928E-02 0.  1.
</event>
<event>
 5   0  0.8037548E-05  0.1592243E+04  0.7818609E-02  0.8825328E-01
        2   -1    0    0  501    0  0.00000000000E+00  0.00000000000E+00  0.93081836493E+03  0.93081836494E+03  0.25500000920E-02 0. -1.
       -2   -1    0    0    0  501  0.00000000000E+00  0.00000000000E+00 -0.68091647531E+03  0.68091647532E+03  0.25500000920E-02 0.  1.
    10030    2    1    2    0    0  0.00000000000E+00  0.00000000000E+00  0.24990188962E+03  0.16117348403E+04  0.15922431475E+04 0.  0.
        5    1    3    3  502    0 -0.65894980955E+03 -0.24484759771E+03 -0.25328391845E+03  0.74722154074E+03  0.46999998093E+01 0. -1.
       -5    1    3    3    0  502  0.65894980955E+03  0.24484759771E+03  0.50318580806E+03  0.86451329952E+03  0.46999998093E+01 0.  1.
</event>
<event>
 5   0  0.7849690E-05  0.1597650E+04  0.7818609E-02  0.8821993E-01
        2   -1    0    0  501    0  0.00000000000E+00  0.00000000000E+00  0.74546145185E+03  0.74546145185E+03  0.25500000920E-02 0. -1.
       -2   -1    0    0    0  501  0.00000000000E+00  0.00000000000E+00 -0.85600813610E+03  0.85600813611E+03  0.25500000920E-02 0.  1.
    10030    2    1    2    0    0  0.00000000000E+00  0.00000000000E+00 -0.11054668426E+03  0.16014695880E+04  0.15976496086E+04 0.  0.
        3    1    3    3  502    0  0.22382944887E+03  0.24880481785E+03 -0.78234727216E+03  0.85092345368E+03  0.10100000352E+00 0.  1.
       -3    1    3    3    0  502 -0.22382944887E+03 -0.24880481785E+03  0.67180058790E+03  0.75054613428E+03  0.10100000352E+00 0. -1.
</event>
<event>
 5   0  0.8620155E-05  0.1591189E+04  0.7818609E-02  0.8825979E-01
        2   -1    0    0  501    0  0.00000000000E+00  0.00000000000E+00  0.83945535011E+03  0.83945535011E+03  0.25500000920E-02 0. -1.
       -2   -1    0    0    0  501  0.00000000000E+00  0.00000000000E+00 -0.75402577472E+03  0.75402577472E+03  0.25500000920E-02 0.  1.
    10030    2    1    2    0    0  0.00000000000E+00  0.00000000000E+00  0.85429575387E+02  0.15934811248E+04  0.15911894554E+04 0.  0.
        4    1    3    3  502    0  0.18824297224E+03  0.81054323313E+01  0.81678872399E+03  0.83824014887E+03  0.12699999809E+01 0. -1.
       -4    1    3    3    0  502 -0.18824297224E+03 -0.81054323313E+01 -0.73135914860E+03  0.75524097597E+03  0.12699999809E+01 0.  1.
</event>
<event>
 5   0  0.7849690E-05  0.1599073E+04  0.7818609E-02  0.8821118E-01
       -2   -1    0    0    0  501  0.00000000000E+00  0.00000000000E+00  0.68660035318E+03  0.68660035318E+03  0.25500000920E-02 0. -1.
        2   -1    0    0  501    0  0.00000000000E+00  0.00000000000E+00 -0.93104901962E+03  0.93104901962E+03  0.25500000920E-02 0.  1.
    10030    2    1    2    0    0  0.00000000000E+00  0.00000000000E+00 -0.24444866644E+03  0.16176493728E+04  0.15990729636E+04 0.  0.
        3    1    3    3  502    0 -0.73357795301E+03 -0.28356773004E+03  0.23361743817E+02  0.78682466403E+03  0.10100000352E+00 0. -1.
       -3    1    3    3    0  502  0.73357795301E+03  0.28356773004E+03 -0.26781041026E+03  0.83082470877E+03  0.10100000352E+00 0.  1.
</event>
<event>
 5   0  0.4314657E-05  0.1604510E+04  0.7818609E-02  0.8817782E-01
        1   -1    0    0  501    0  0.00000000000E+00  0.00000000000E+00  0.11419219417E+04  0.11419219417E+04  0.50400001928E-02 0. -1.
       -1   -1    0    0    0  501  0.00000000000E+00  0.00000000000E+00 -0.56362257899E+03  0.56362257902E+03  0.50400001928E-02 0.  1.
    10030    2    1    2    0    0  0.00000000000E+00  0.00000000000E+00  0.57829936270E+03  0.17055445207E+04  0.16045098813E+04 0.  0.
        5    1    3    3  502    0 -0.34976464255E+03 -0.63731212770E+03 -0.71459917834E+02  0.73050028279E+03  0.46999998093E+01 0.  1.
       -5    1    3    3    0  502  0.34976464255E+03  0.63731212770E+03  0.64975928054E+03  0.97504423794E+03  0.46999998093E+01 0. -1.
</event>
<event>
 5   0  0.4373026E-05  0.1599926E+04  0.7818609E-02  0.8820593E-01
        1   -1    0    0  501    0  0.00000000000E+00  0.00000000000E+00  0.10285149733E+04  0.10285149733E+04  0.50400001928E-02 0.  1.
       -1   -1    0    0    0  501  0.00000000000E+00  0.00000000000E+00 -0.62219885387E+03  0.62219885389E+03  0.50400001928E-02 0. -1.
    10030    2    1    2    0    0  0.00000000000E+00  0.00000000000E+00  0.40631611940E+03  0.16507138272E+04  0.15999260453E+04 0.  0.
        4    1    3    3  502    0  0.62863789723E+03 -0.25647476150E+02 -0.30658586357E+03  0.69988563602E+03  0.12699999809E+01 0. -1.
       -4    1    3    3    0  502 -0.62863789723E+03  0.25647476150E+02  0.71290198297E+03  0.95082819115E+03  0.12699999809E+01 0.  1.
</event>
<event>
 5   0  0.4314657E-05  0.1592923E+04  0.7818609E-02  0.8824907E-01
        1   -1    0    0  501    0  0.00000000000E+00  0.00000000000E+00  0.18248424038E+04  0.18248424039E+04  0.50400001928E-02 0.  1.
       -1   -1    0    0    0  501  0.00000000000E+00  0.00000000000E+00 -0.34761961217E+03  0.34761961221E+03  0.50400001928E-02 0. -1.
    10030    2    1    2    0    0  0.00000000000E+00  0.00000000000E+00  0.14772227917E+04  0.21724620161E+04  0.15929231102E+04 0.  0.
        5    1    3    3  502    0  0.17742113255E+03  0.57746647511E+03  0.14464635803E+04  0.15675537526E+04  0.46999998093E+01 0.  1.
       -5    1    3    3    0  502 -0.17742113255E+03 -0.57746647511E+03  0.30759211396E+02  0.60490826349E+03  0.46999998093E+01 0. -1.
</event>
<event>
 5   0  0.4373026E-05  0.1597852E+04  0.7818609E-02  0.8821869E-01
       -1   -1    0    0    0  501  0.00000000000E+00  0.00000000000E+00  0.73677230910E+03  0.73677230912E+03  0.50400001928E-02 0.  1.
        1   -1    0    0  501    0  0.00000000000E+00  0.00000000000E+00 -0.86632285103E+03  0.86632285104E+03  0.50400001928E-02 0. -1.
    10030    2    1    2    0    0  0.00000000000E+00  0.00000000000E+00 -0.12955054193E+03  0.16030951602E+04  0.15978519173E+04 0.  0.
        4    1    3    3  502    0  0.80058376568E+01  0.76738859724E+03 -0.28761155727E+03  0.81955559505E+03  0.12699999809E+01 0. -1.
       -4    1    3    3    0  502 -0.80058376568E+01 -0.76738859724E+03  0.15806101534E+03  0.78353956510E+03  0.12699999809E+01 0.  1.
</event>
<event>
 5   0  0.7849690E-05  0.1597843E+04  0.7818609E-02  0.8821874E-01
        2   -1    0    0  501    0  0.00000000000E+00  0.00000000000E+00  0.57695268126E+03  0.57695268127E+03  0.25500000920E-02 0.  1.
       -2   -1    0    0    0  501  0.00000000000E+00  0.00000000000E+00 -0.11062878303E+04  0.11062878303E+04  0.25500000920E-02 0. -1.
    10030    2    1    2    0    0  0.00000000000E+00  0.00000000000E+00 -0.52933514904E+03  0.16832405116E+04  0.15978432088E+04 0.  0.
        3    1    3    3  502    0  0.25077682978E+03  0.48868761721E+03  0.34648610961E+03  0.64942839476E+03  0.10100000352E+00 0.  1.
       -3    1    3    3    0  502 -0.25077682978E+03 -0.48868761721E+03 -0.87582125865E+03  0.10338121168E+04  0.10100000352E+00 0. -1.
</event>
<event>
 5   0  0.4256406E-05  0.1601062E+04  0.7818609E-02  0.8819896E-01
        1   -1    0    0  501    0  0.00000000000E+00  0.00000000000E+00  0.12933645841E+04  0.12933645841E+04  0.50400001928E-02 0. -1.
       -1   -1    0    0    0  501  0.00000000000E+00  0.00000000000E+00 -0.49549064121E+03  0.49549064123E+03  0.50400001928E-02 0.  1.
    10030    2    1    2    0    0  0.00000000000E+00  0.00000000000E+00  0.79787394292E+03  0.17888552254E+04  0.16010622063E+04 0.  0.
        3    1    3    3  502    0 -0.50499609566E+03 -0.47191129205E+03 -0.52328591165E+02  0.69315194283E+03  0.10100000352E+00 0.  1.
       -3    1    3    3    0  502  0.50499609566E+03  0.47191129205E+03  0.85020253409E+03  0.10957032825E+04  0.10100000352E+00 0. -1.
</event>
<event>
 5   0  0.8037548E-05  0.1593927E+04  0.7818609E-02  0.8824287E-01
        2   -1    0    0  501    0  0.00000000000E+00  0.00000000000E+00  0.51091495703E+03  0.51091495704E+03  0.25500000920E-02 0.  1.
       -2   -1    0    0    0  501  0.00000000000E+00  0.00000000000E+00 -0.12431642504E+04  0.12431642504E+04  0.25500000920E-02 0. -1.
    10030    2    1    2    0    0  0.00000000000E+00  0.00000000000E+00 -0.73224929341E+03  0.17540792075E+04  0.15939274884E+04 0.  0.
        5    1    3    3  502    0 -0.46833516669E+03  0.23019591533E+03 -0.10289741829E+04  0.11537495165E+04  0.46999998093E+01 0. -1.
       -5    1    3    3    0  502  0.46833516669E+03 -0.23019591533E+03  0.29672488950E+03  0.60032969095E+03  0.46999998093E+01 0.  1.
</event>
<event>
 5   0  0.7849690E-05  0.1600282E+04  0.7818609E-02  0.8820375E-01
       -2   -1    0    0    0  501  0.00000000000E+00  0.00000000000E+00  0.75553077893E+03  0.75553077893E+03  0.25500000920E-02 0.  1.
        2   -1    0    0  501    0  0.00000000000E+00  0.00000000000E+00 -0.84738538934E+03  0.84738538935E+03  0.25500000920E-02 0. -1.
    10030    2    1    2    0    0  0.00000000000E+00  0.00000000000E+00 -0.91854610415E+02  0.16029161683E+04  0.16002821542E+04 0.  0.
        3    1    3    3  502    0  0.78953801965E+03 -0.85717825109E+02 -0.14359627790E+03  0.80705497412E+03  0.10100000352E+00 0. -1.
       -3    1    3    3    0  502 -0.78953801965E+03  0.85717825109E+02  0.51741667483E+02  0.79586119416E+03  0.10100000352E+00 0.  1.
</event>
<event>
 5   0  0.4256406E-05  0.1601955E+04  0.7818609E-02  0.8819348E-01
       -1   -1    0    0    0  501  0.00000000000E+00  0.00000000000E+00  0.57518086508E+03  0.57518086510E+03  0.50400001928E-02 0. -1.
        1   -1    0    0  501    0  0.00000000000E+00  0.00000000000E+00 -0.11154136145E+04  0.11154136145E+04  0.50400001928E-02 0.  1.
    10030    2    1    2    0    0  0.00000000000E+00  0.00000000000E+00 -0.54023274944E+03  0.16905944796E+04  0.16019545159E+04 0.  0.
        3    1    3    3  502    0  0.74296098517E+03 -0.29261640041E+03 -0.20379669572E+03  0.82410465759E+03  0.10100000352E+00 0.  1.
       -3    1    3    3    0  502 -0.74296098517E+03  0.29261640041E+03 -0.33643605372E+03  0.86648982205E+03  0.10100000352E+00 0. -1.
</event>
<event>
 5   0  0.8620155E-05  0.1597726E+04  0.7818609E-02  0.8821946E-01
        2   -1    0    0  501    0  0.00000000000E+00  0.00000000000E+00  0.67357960629E+03  0.67357960630E+03  0.25500000920E-02 0. -1.
       -2   -1    0    0    0  501  0.00000000000E+00  0.00000000000E+00 -0.94744836833E+03  0.94744836833E+03  0.25500000920E-02 0.  1.
    10030    2    1    2    0    0  0.00000000000E+00  0.00000000000E+00 -0.27386876204E+03  0.16210279746E+04  0.15977257574E+04 0.  0.
        4    1    3    3  502    0  0.92717574951E+02 -0.53853773427E+03  0.45428284116E+03  0.71062926523E+03  0.12699999809E+01 0. -1.
       -4    1    3    3    0  502 -0.92717574951E+02  0.53853773427E+03 -0.72815160320E+03  0.91039870940E+03  0.12699999809E+01 0.  1.
</event>
<event>
 5   0  0.3042125E-05  0.1599257E+04  0.7818609E-02  0.8821005E-01
        4   -1    0    0  501    0  0.00000000000E+00  0.00000000000E+00  0.60751238928E+03  0.60751371674E+03  0.12699999809E+01 0.  1.
       -4   -1    0    0    0  501  0.00000000000E+00  0.00000000000E+00 -0.10524952655E+04  0.10524960317E+04  0.12699999809E+01 0. -1.
    10030    2    1    2    0    0  0.00000000000E+00  0.00000000000E+00 -0.44498287619E+03  0.16600097484E+04  0.15992568914E+04 0.  0.
        2    1    3    3  502    0  0.10607824479E+03 -0.17404472168E+03  0.58009662916E+03  0.61486279635E+03  0.25500000920E-02 0.  1.
       -2    1    3    3    0  502 -0.10607824479E+03  0.17404472168E+03 -0.10250795054E+04  0.10451469521E+04  0.25500000920E-02 0. -1.
</event>
<event>
 5   0  0.4211419E-05  0.1599017E+04  0.7818609E-02  0.8821152E-01
        1   -1    0    0  501    0  0.00000000000E+00  0.00000000000E+00  0.55200587798E+03  0.55200587800E+03  0.50400001928E-02 0. -1.
       -1   -1    0    0    0  501  0.00000000000E+00  0.00000000000E+00 -0.11579844331E+04  0.11579844331E+04  0.50400001928E-02 0.  1.
    10030    2    1    2    0    0  0.00000000000E+00  0.00000000000E+00 -0.60597855514E+03  0.17099903111E+04  0.15990174655E+04 0.  0.
        2    1    3    3  502    0  0.17142919361E+02  0.79787110271E+03 -0.25145750800E+03  0.83673356247E+03  0.25500000920E-02 0. -1.
       -2    1    3    3    0  502 -0.17142919361E+02 -0.79787110271E+03 -0.35452104714E+03  0.87325674867E+03  0.25500000920E-02 0.  1.
</event>
<event>
 5   0  0.4373026E-05  0.1601140E+04  0.7818609E-02  0.8819848E-01
       -1   -1    0    0    0  501  0.00000000000E+00  0.00000000000E+00  0.11285168695E+04  0.11285168695E+04  0.50400001928E-02 0.  1.
        1   -1    0    0  501    0  0.00000000000E+00  0.00000000000E+00 -0.56792459093E+03  0.56792459096E+03  0.50400001928E-02 0. -1.
    10030    2    1    2    0    0  0.00000000000E+00  0.00000000000E+00  0.56059227855E+03  0.16964414604E+04  0.16011401956E+04 0.  0.
        4    1    3    3  502    0 -0.42770266316E+03  0.67032343851E+03  0.18176760042E+03  0.81566178882E+03  0.12699999809E+01 0.  1.
       -4    1    3    3    0  502  0.42770266316E+03 -0.67032343851E+03  0.37882467813E+03  0.88077967162E+03  0.12699999809E+01 0. -1.
</event>
<event>
 5   0  0.4256406E-05  0.1599643E+04  0.7818609E-02  0.8820767E-01
       -1   -1    0    0    0  501  0.00000000000E+00  0.00000000000E+00  0.35030042559E+03  0.35030042563E+03  0.50400001928E-02 0.  1.
        1   -1    0    0  501    0  0.00000000000E+00  0.00000000000E+00 -0.18261875369E+04  0.18261875369E+04  0.50400001928E-02 0. -1.
    10030    2    1    2    0    0  0.00000000000E+00  0.00000000000E+00 -0.14758871113E+04  0.21764879625E+04  0.15996427994E+04 0.  0.
        3    1    3    3  502    0 -0.38901487506E+02 -0.30705636966E+03  0.26551559759E+03  0.40779343134E+03  0.10100000352E+00 0.  1.
       -3    1    3    3    0  502  0.38901487506E+02  0.30705636966E+03 -0.17414027089E+04  0.17686945312E+04  0.10100000352E+00 0. -1.
</event>
<event>
 5   0  0.4314657E-05  0.1601190E+04  0.7818609E-02  0.8819817E-01
       -1   -1    0    0    0  501  0.00000000000E+00  0.00000000000E+00  0.56818648426E+03  0.56818648428E+03  0.50400001928E-02 0.  1.
        1   -1    0    0  501    0  0.00000000000E+00  0.00000000000E+00 -0.11280670897E+04  0.11280670897E+04  0.50400001928E-02 0. -1.
    10030    2    1    2    0    0  0.00000000000E+00  0.00000000000E+00 -0.55988060544E+03  0.16962535740E+04  0.16011901495E+04 0.  0.
        5    1    3    3  502    0 -0.19813908876E+03  0.57661416495E+03  0.26969576249E+03  0.66670899800E+03  0.46999998093E+01 0.  1.
       -5    1    3    3    0  502  0.19813908876E+03 -0.57661416495E+03 -0.82957636793E+03  0.10295445760E+04  0.46999998093E+01 0. -1.
</event>
<event>
 5   0  0.7849690E-05  0.1604210E+04  0.7818609E-02  0.8817966E-01
        2   -1    0    0  501    0  0.00000000000E+00  0.00000000000E+00  0.13584473398E+04  0.13584473398E+04  0.25500000920E-02 0.  1.
       -2   -1    0    0    0  501  0.00000000000E+00  0.00000000000E+00 -0.47360848795E+03  0.47360848795E+03  0.25500000920E-02 0. -1.
    10030    2    1    2    0    0  0.00000000000E+00  0.00000000000E+00  0.88483885182E+03  0.18320558277E+04  0.16042097002E+04 0.  0.
        3    1    3    3  502    0 -0.25181375450E+03 -0.88108197515E+02  0.13062948064E+04  0.13332589219E+04  0.10100000352E+00 0.  1.
       -3    1    3    3    0  502  0.25181375450E+03  0.88108197515E+02 -0.42145595456E+03  0.49879690583E+03  0.10100000352E+00 0. -1.
</event>
<event>
 5   0  0.4504463E-05  0.1601432E+04  0.7818609E-02  0.8819669E-01
        1   -1    0    0  501    0  0.00000000000E+00  0.00000000000E+00  0.86077198562E+03  0.86077198563E+03  0.50400001928E-02 0. -1.
       -1   -1    0    0    0  501  0.00000000000E+00  0.00000000000E+00 -0.74484992515E+03  0.74484992517E+03  0.50400001928E-02 0.  1.
    10030    2    1    2    0    0  0.00000000000E+00  0.00000000000E+00  0.11592206047E+03  0.16056219108E+04  0.16014317957E+04 0.  0.
        1    1    3    3  502    0 -0.38371357361E+03  0.63461529465E+03 -0.24477813246E+03  0.78095391217E+03  0.50400001928E-02 0.  1.
       -1    1    3    3    0  502  0.38371357361E+03 -0.63461529465E+03  0.36070019293E+03  0.82466799864E+03  0.50400001928E-02 0. -1.
</event>
<event>
 5   0  0.8694033E-05  0.1604404E+04  0.7818609E-02  0.8817847E-01
       -2   -1    0    0    0  501  0.00000000000E+00  0.00000000000E+00  0.50548267301E+03  0.50548267301E+03  0.25500000920E-02 0.  1.
        2   -1    0    0  501    0  0.00000000000E+00  0.00000000000E+00 -0.12730969193E+04  0.12730969193E+04  0.25500000920E-02 0. -1.
    10030    2    1    2    0    0  0.00000000000E+00  0.00000000000E+00 -0.76761424631E+03  0.17785795923E+04  0.16044044799E+04 0.  0.
        1    1    3    3  502    0 -0.76797729734E+03 -0.11992014270E+03 -0.16388014396E+03  0.79437187228E+03  0.50400001928E-02 0.  1.
       -1    1    3    3    0  502  0.76797729734E+03  0.11992014270E+03 -0.60373410235E+03  0.98420772005E+03  0.50400001928E-02 0. -1.
</event>
<event>
 5   0  0.4256406E-05  0.1602260E+04  0.7818609E-02  0.8819161E-01
       -1   -1    0    0    0  501  0.00000000000E+00  0.00000000000E+00  0.35560620576E+03  0.35560620579E+03  0.50400001928E-02 0.  1.
        1   -1    0    0  501    0  0.00000000000E+00  0.00000000000E+00 -0.18048310482E+04  0.18048310482E+04  0.50400001928E-02 0. -1.
    10030    2    1    2    0    0  0.00000000000E+00  0.00000000000E+00 -0.14492248424E+04  0.21604372540E+04  0.16022598056E+04 0.  0.
        3    1    3    3  502    0  0.64298842978E+03 -0.31637729778E+03 -0.24167721743E+03  0.75626490267E+03  0.10100000352E+00 0.  1.
       -3    1    3    3    0  502 -0.64298842978E+03  0.31637729778E+03 -0.12075476250E+04  0.14041723513E+04  0.10100000352E+00 0. -1.
</event>
<event>
 5   0  0.4211419E-05  0.1598103E+04  0.7818609E-02  0.8821714E-01
        1   -1    0    0  501    0  0.00000000000E+00  0.00000000000E+00  0.20557362963E+04  0.20557362963E+04  0.50400001928E-02 0. -1.
       -1   -1    0    0    0  501  0.00000000000E+00  0.00000000000E+00 -0.31058604495E+03  0.31058604499E+03  0.50400001928E-02 0.  1.
    10030    2    1    2    0    0  0.00000000000E+00  0.00000000000E+00  0.17451502513E+04  0.23663223412E+04  0.15981026322E+04 0.  0.
        2    1    3    3  502    0 -0.13872340854E+03 -0.33504977170E+03  0.19268766951E+04  0.19607030198E+04  0.25500000920E-02 0. -1.
       -2    1    3    3    0  502  0.13872340854E+03  0.33504977170E+03 -0.18172644378E+03  0.40561932149E+03  0.25500000920E-02 0.  1.
</event>
<event>
 5   0  0.4314657E-05  0.1606094E+04  0.7818609E-02  0.8816813E-01
        1   -1    0    0  501    0  0.00000000000E+00  0.00000000000E+00  0.75364978423E+03  0.75364978425E+03  0.50400001928E-02 0. -1.
       -1   -1    0    0    0  501  0.00000000000E+00  0.00000000000E+00 -0.85568237801E+03  0.85568237803E+03  0.50400001928E-02 0.  1.
    10030    2    1    2    0    0  0.00000000000E+00  0.00000000000E+00 -0.10203259378E+03  0.16093321623E+04  0.16060944425E+04 0.  0.
        5    1    3    3  502    0 -0.10761956594E+03  0.53555448236E+03 -0.64081325058E+03  0.84205955055E+03  0.46999998093E+01 0.  1.
       -5    1    3    3    0  502  0.10761956594E+03 -0.53555448236E+03  0.53878065681E+03  0.76727261172E+03  0.46999998093E+01 0. -1.
</event>
<event>
 5   0  0.8037548E-05  0.1597074E+04  0.7818609E-02  0.8822347E-01
       -2   -1    0    0    0  501  0.00000000000E+00  0.00000000000E+00  0.50697544585E+03  0.50697544585E+03  0.25500000920E-02 0.  1.
        2   -1    0    0  501    0  0.00000000000E+00  0.00000000000E+00 -0.12577759885E+04  0.12577759885E+04  0.25500000920E-02 0. -1.
    10030    2    1    2    0    0  0.00000000000E+00  0.00000000000E+00 -0.75080054263E+03  0.17647514343E+04  0.15970742532E+04 0.  0.
        5    1    3    3  502    0  0.61499644927E+03 -0.24514000897E+03 -0.86873255316E+03  0.10922603149E+04  0.46999998093E+01 0. -1.
       -5    1    3    3    0  502 -0.61499644927E+03  0.24514000897E+03  0.11793201052E+03  0.67249111943E+03  0.46999998093E+01 0.  1.
</event>
<event>
 5   0  0.8037548E-05  0.1614143E+04  0.7818609E-02  0.8811906E-01
        2   -1    0    0  501    0  0.00000000000E+00  0.00000000000E+00  0.10661573749E+04  0.10661573749E+04  0.25500000920E-02 0.  1.
       -2   -1    0    0    0  501  0.00000000000E+00  0.00000000000E+00 -0.61094587573E+03  0.61094587573E+03  0.25500000920E-02 0. -1.
    10030    2    1    2    0    0  0.00000000000E+00  0.00000000000E+00  0.45521149913E+03  0.16771032506E+04  0.16141430557E+04 0.  0.
        5    1    3    3  502    0  0.20472344453E+03  0.18711604477E+03  0.10150719036E+04  0.10522913866E+04  0.46999998093E+01 0.  1.
       -5    1    3    3    0  502 -0.20472344453E+03 -0.18711604477E+03 -0.55986040442E+03  0.62481186399E+03  0.46999998093E+01 0. -1.
</event>
<event>
 5   0  0.8037548E-05  0.1602264E+04  0.7818609E-02  0.8819159E-01
       -2   -1    0    0    0  501  0.00000000000E+00  0.00000000000E+00  0.77716958334E+03  0.77716958335E+03  0.25500000920E-02 0.  1.
        2   -1    0    0  501    0  0.00000000000E+00  0.00000000000E+00 -0.82583287029E+03  0.82583287030E+03  0.25500000920E-02 0. -1.
    10030    2    1    2    0    0  0.00000000000E+00  0.00000000000E+00 -0.48663286949E+02  0.16030024536E+04  0.16022636334E+04 0.  0.
        5    1    3    3  502    0  0.74309144021E+03  0.76799224135E+02 -0.31378682581E+03  0.81028838779E+03  0.46999998093E+01 0. -1.
       -5    1    3    3    0  502 -0.74309144021E+03 -0.76799224135E+02  0.26512353886E+03  0.79271406585E+03  0.46999998093E+01 0.  1.
</event>
<event>
 5   0  0.4373026E-05  0.1598809E+04  0.7818609E-02  0.8821280E-01
        1   -1    0    0  501    0  0.00000000000E+00  0.00000000000E+00  0.10976053966E+04  0.10976053966E+04  0.50400001928E-02 0. -1.
       -1   -1    0    0    0  501  0.00000000000E+00  0.00000000000E+00 -0.58221970021E+03  0.58221970023E+03  0.50400001928E-02 0.  1.
    10030    2    1    2    0    0  0.00000000000E+00  0.00000000000E+00  0.51538569634E+03  0.16798250968E+04  0.15988089129E+04 0.  0.
        4    1    3    3  502    0  0.16865772064E+03 -0.59197017097E+03 -0.27822421375E+03  0.67548829455E+03  0.12699999809E+01 0.  1.
       -4    1    3    3    0  502 -0.16865772064E+03  0.59197017097E+03  0.79360991009E+03  0.10043368022E+04  0.12699999809E+01 0. -1.
</event>
<event>
 5   0  0.7901257E-05  0.1599262E+04  0.7818609E-02  0.8821001E-01
       -2   -1    0    0    0  501  0.00000000000E+00  0.00000000000E+00  0.73762044938E+03  0.73762044938E+03  0.25500000920E-02 0. -1.
        2   -1    0    0  501    0  0.00000000000E+00  0.00000000000E+00 -0.86685475741E+03  0.86685475742E+03  0.25500000920E-02 0.  1.
    10030    2    1    2    0    0  0.00000000000E+00  0.00000000000E+00 -0.12923430804E+03  0.16044752068E+04  0.15992620745E+04 0.  0.
        2    1    3    3  502    0  0.52011079125E+03 -0.47447115041E+03 -0.44502551877E+03  0.83287803435E+03  0.25500000920E-02 0.  1.
       -2    1    3    3    0  502 -0.52011079125E+03  0.47447115041E+03  0.31579121073E+03  0.77159717245E+03  0.25500000920E-02 0. -1.
</event>
<event>
 5   0  0.7849690E-05  0.1606654E+04  0.7818609E-02  0.8816471E-01
       -2   -1    0    0    0  501  0.00000000000E+00  0.00000000000E+00  0.16551908402E+04  0.16551908402E+04  0.25500000920E-02 0. -1.
        2   -1    0    0  501    0  0.00000000000E+00  0.00000000000E+00 -0.38988496026E+03  0.38988496027E+03  0.25500000920E-02 0.  1.
    10030    2    1    2    0    0  0.00000000000E+00  0.00000000000E+00  0.12653058799E+04  0.20450758005E+04  0.16066536839E+04 0.  0.
        3    1    3    3  502    0  0.36995794669E+03  0.68257666925E+03  0.37007489089E+03  0.86007861664E+03  0.10100000352E+00 0.  1.
       -3    1    3    3    0  502 -0.36995794669E+03 -0.68257666925E+03  0.89523098903E+03  0.11849971838E+04  0.10100000352E+00 0. -1.
</event>
<event>
 5   0  0.4504463E-05  0.1601693E+04  0.7818609E-02  0.8819509E-01
        1   -1    0    0  501    0  0.00000000000E+00  0.00000000000E+00  0.30477610778E+03  0.30477610782E+03  0.50400001928E-02 0. -1.
       -1   -1    0    0    0  501  0.00000000000E+00  0.00000000000E+00 -0.21043485579E+04  0.21043485579E+04  0.50400001928E-02 0.  1.
    10030    2    1    2    0    0  0.00000000000E+00  0.00000000000E+00 -0.17995724501E+04  0.24091246657E+04  0.16016930579E+04 0.  0.
        1    1    3    3  502    0  0.36659183510E+03 -0.63165749951E+03 -0.13940290415E+04  0.15737527566E+04  0.50400001928E-02 0. -1.
       -1    1    3    3    0  502 -0.36659183510E+03  0.63165749951E+03 -0.40554340856E+03  0.83537190910E+03  0.50400001928E-02 0.  1.
</event>
<event>
 5   0  0.7849690E-05  0.1599723E+04  0.7818609E-02  0.8820718E-01
        2   -1    0    0  501    0  0.00000000000E+00  0.00000000000E+00  0.20905776486E+04  0.20905776486E+04  0.25500000920E-02 0.  1.
       -2   -1    0    0    0  501  0.00000000000E+00  0.00000000000E+00 -0.30602947311E+03  0.30602947312E+03  0.25500000920E-02 0. -1.
    10030    2    1    2    0    0  0.00000000000E+00  0.00000000000E+00  0.17845481755E+04  0.23966071218E+04  0.15997229464E+04 0.  0.
        3    1    3    3  502    0  0.40043953726E+03  0.69239841905E+03  0.88731155869E+03  0.11946083903E+04  0.10100000352E+00 0. -1.
       -3    1    3    3    0  502 -0.40043953726E+03 -0.69239841905E+03  0.89723661685E+03  0.12019987315E+04  0.10100000352E+00 0.  1.
</event>
<event>
 5   0  0.4373026E-05  0.1600741E+04  0.7818609E-02  0.8820093E-01
        1   -1    0    0  501    0  0.00000000000E+00  0.00000000000E+00  0.11017995931E+04  0.11017995931E+04  0.50400001928E-02 0.  1.
       -1   -1    0    0    0  501  0.00000000000E+00  0.00000000000E+00 -0.58140620645E+03  0.58140620647E+03  0.50400001928E-02 0. -1.
    10030    2    1    2    0    0  0.00000000000E+00  0.00000000000E+00  0.52039338664E+03  0.16832057996E+04  0.16007412304E+04 0.  0.
        4    1    3    3  502    0 -0.33311233654E+03 -0.51632698686E+03 -0.27909301650E+03  0.67487177365E+03  0.12699999809E+01 0. -1.
       -4    1    3    3    0  502  0.33311233654E+03  0.51632698686E+03  0.79948640314E+03  0.10083340259E+04  0.12699999809E+01 0.  1.
</event>
<event>
 5   0  0.8037548E-05  0.1600022E+04  0.7818609E-02  0.8820535E-01
       -2   -1    0    0    0  501  0.00000000000E+00  0.00000000000E+00  0.25660488541E+03  0.25660488542E+03  0.25500000920E-02 0. -1.
        2   -1    0    0  501    0  0.00000000000E+00  0.00000000000E+00 -0.24941747941E+04  0.24941747941E+04  0.25500000920E-02 0.  1.
    10030    2    1    2    0    0  0.00000000000E+00  0.00000000000E+00 -0.22375699087E+04  0.27507796795E+04  0.16000217964E+04 0.  0.
        5    1    3    3  502    0  0.35009420194E+03 -0.66014717256E+03 -0.16099963045E+04  0.17749564587E+04  0.46999998093E+01 0.  1.
       -5    1    3    3    0  502 -0.35009420194E+03  0.66014717256E+03 -0.62757360416E+03  0.97582322083E+03  0.46999998093E+01 0. -1.
</event>
<event>
 5   0  0.4256406E-05  0.1597262E+04  0.7818609E-02  0.8822232E-01
       -1   -1    0    0    0  501  0.00000000000E+00  0.00000000000E+00  0.69145073098E+03  0.69145073100E+03  0.50400001928E-02 0.  1.
        1   -1    0    0  501    0  0.00000000000E+00  0.00000000000E+00 -0.92242544339E+03  0.92242544341E+03  0.50400001928E-02 0. -1.
    10030    2    1    2    0    0  0.00000000000E+00  0.00000000000E+00 -0.23097471241E+03  0.16138761744E+04  0.15972623418E+04 0.  0.
        3    1    3    3  502    0 -0.64383888238E+03 -0.46486513142E+03 -0.20112530161E+03  0.81919441772E+03  0.10100000352E+00 0. -1.
       -3    1    3    3    0  502  0.64383888238E+03  0.46486513142E+03 -0.29849410806E+02  0.79468175668E+03  0.10100000352E+00 0.  1.
</event>
<event>
 5   0  0.7901257E-05  0.1597369E+04  0.7818609E-02  0.8822166E-01
        2   -1    0    0  501    0  0.00000000000E+00  0.00000000000E+00  0.12121571456E+04  0.12121571456E+04  0.25500000920E-02 0.  1.
       -2   -1    0    0    0  501  0.00000000000E+00  0.00000000000E+00 -0.52624965087E+03  0.52624965087E+03  0.25500000920E-02 0. -1.
    10030    2    1    2    0    0  0.00000000000E+00  0.00000000000E+00  0.68590749469E+03  0.17384067964E+04  0.15973694308E+04 0.  0.
        2    1    3    3  502    0  0.16794821278E+03 -0.76526196442E+03  0.17412859315E+03  0.80259157940E+03  0.25500000920E-02 0. -1.
       -2    1    3    3    0  502 -0.16794821278E+03  0.76526196442E+03  0.51177890154E+03  0.93581521703E+03  0.25500000920E-02 0.  1.
</event>
<event>
 5   0  0.4314657E-05  0.1602338E+04  0.7818609E-02  0.8819113E-01
        1   -1    0    0  501    0  0.00000000000E+00  0.00000000000E+00  0.77248965917E+03  0.77248965918E+03  0.50400001928E-02 0. -1.
       -1   -1    0    0    0  501  0.00000000000E+00  0.00000000000E+00 -0.83091342609E+03  0.83091342610E+03  0.50400001928E-02 0.  1.
    10030    2    1    2    0    0  0.00000000000E+00  0.00000000000E+00 -0.58423766920E+02  0.16034030853E+04  0.16023383280E+04 0.  0.
        5    1    3    3  502    0  0.56562602768E+03  0.22237058591E+03  0.49312009024E+03  0.78266914725E+03  0.46999998093E+01 0. -1.
       -5    1    3    3    0  502 -0.56562602768E+03 -0.22237058591E+03 -0.55154385716E+03  0.82073393803E+03  0.46999998093E+01 0.  1.
</event>
<event>
 5   0  0.4211419E-05  0.1608954E+04  0.7818609E-02  0.8815066E-01
       -1   -1    0    0    0  501  0.00000000000E+00  0.00000000000E+00  0.46438769140E+03  0.46438769142E+03  0.50400001928E-02 0. -1.
        1   -1    0    0  501    0  0.00000000000E+00  0.00000000000E+00 -0.13936262109E+04  0.13936262109E+04  0.50400001928E-02 0.  1.
    10030    2    1    2    0    0  0.00000000000E+00  0.00000000000E+00 -0.92923851952E+03  0.18580139024E+04  0.16089535218E+04 0.  0.
        2    1    3    3  502    0  0.13749478450E+03  0.74611842767E+03 -0.77359009798E+03  0.10835308780E+04  0.25500000920E-02 0.  1.
       -2    1    3    3    0  502 -0.13749478450E+03 -0.74611842767E+03 -0.15564842155E+03  0.77448302435E+03  0.25500000920E-02 0. -1.
</event>
<event>
 5   0  0.4314657E-05  0.1600873E+04  0.7818609E-02  0.8820012E-01
        1   -1    0    0  501    0  0.00000000000E+00  0.00000000000E+00  0.12855756256E+04  0.12855756256E+04  0.50400001928E-02 0. -1.
       -1   -1    0    0    0  501  0.00000000000E+00  0.00000000000E+00 -0.49837485890E+03  0.49837485893E+03  0.50400001928E-02 0.  1.
    10030    2    1    2    0    0  0.00000000000E+00  0.00000000000E+00  0.78720076669E+03  0.17839504845E+04  0.16008729756E+04 0.  0.
        5    1    3    3  502    0 -0.46284473649E+03  0.21144599869E+03  0.10821112400E+04  0.11957932456E+04  0.46999998093E+01 0. -1.
       -5    1    3    3    0  502  0.46284473649E+03 -0.21144599869E+03 -0.29491047331E+03  0.58815723894E+03  0.46999998093E+01 0.  1.
</event>
<event>
 5   0  0.8037548E-05  0.1601201E+04  0.7818609E-02  0.8819811E-01
       -2   -1    0    0    0  501  0.00000000000E+00  0.00000000000E+00  0.75385929683E+03  0.75385929684E+03  0.25500000920E-02 0. -1.
        2   -1    0    0  501    0  0.00000000000E+00  0.00000000000E+00 -0.85023972057E+03  0.85023972057E+03  0.25500000920E-02 0.  1.
    10030    2    1    2    0    0  0.00000000000E+00  0.00000000000E+00 -0.96380423735E+02  0.16040990174E+04  0.16012009467E+04 0.  0.
        5    1    3    3  502    0 -0.16719642592E+03 -0.84541318507E+02  0.73157397411E+03  0.75519828453E+03  0.46999998093E+01 0. -1.
       -5    1    3    3    0  502  0.16719642592E+03  0.84541318507E+02 -0.82795439784E+03  0.84890073288E+03  0.46999998093E+01 0.  1.
</event>
<event>
 5   0  0.4314657E-05  0.1602278E+04  0.7818609E-02  0.8819150E-01
       -1   -1    0    0    0  501  0.00000000000E+00  0.00000000000E+00  0.58068805843E+03  0.58068805845E+03  0.50400001928E-02 0.  1.
        1   -1    0    0  501    0  0.00000000000E+00  0.00000000000E+00 -0.11052806984E+04  0.11052806984E+04  0.50400001928E-02 0. -1.
    10030    2    1    2    0    0  0.00000000000E+00  0.00000000000E+00 -0.52459263998E+03  0.16859687569E+04  0.16022775076E+04 0.  0.
        5    1    3    3  502    0  0.73113750884E+03  0.21505026380E+03 -0.52216272953E+03  0.92384234527E+03  0.46999998093E+01 0. -1.
       -5    1    3    3    0  502 -0.73113750884E+03 -0.21505026380E+03 -0.24299104504E+01  0.76212641160E+03  0.46999998093E+01 0.  1.
</event>
<event>
 5   0  0.8694033E-05  0.1598486E+04  0.7818609E-02  0.8821479E-01
        2   -1    0    0  501    0  0.00000000000E+00  0.00000000000E+00  0.12939116928E+04  0.12939116928E+04  0.25500000920E-02 0. -1.
       -2   -1    0    0    0  501  0.00000000000E+00  0.00000000000E+00 -0.49368848286E+03  0.49368848286E+03  0.25500000920E-02 0.  1.
    10030    2    1    2    0    0  0.00000000000E+00  0.00000000000E+00  0.80022320999E+03  0.17876001757E+04  0.15984859093E+04 0.  0.
        1    1    3    3  502    0  0.12574397114E+03  0.43228586379E+03 -0.33840106236E+03  0.56320324337E+03  0.50400001928E-02 0.  1.
       -1    1    3    3    0  502 -0.12574397114E+03 -0.43228586379E+03  0.11386242724E+04  0.12243969323E+04  0.50400001928E-02 0. -1.
</event>
<event>
 5   0  0.8037548E-05  0.1604912E+04  0.7818609E-02  0.8817536E-01
       -2   -1    0    0    0  501  0.00000000000E+00  0.00000000000E+00  0.10474368056E+04  0.10474368057E+04  0.25500000920E-02 0. -1.
        2   -1    0    0  501    0  0.00000000000E+00  0.00000000000E+00 -0.61477284176E+03  0.61477284176E+03  0.25500000920E-02 0.  1.
    10030    2    1    2    0    0  0.00000000000E+00  0.00000000000E+00  0.43266396389E+03  0.16622096474E+04  0.16049120868E+04 0.  0.
        5    1    3    3  502    0 -0.33543014976E+03  0.65267414532E+03 -0.11993887518E+03  0.74357538227E+03  0.46999998093E+01 0.  1.
       -5    1    3    3    0  502  0.33543014976E+03 -0.65267414532E+03  0.55260283908E+03  0.91863426514E+03  0.46999998093E+01 0. -1.
</event>
<event>
 5   0  0.8037548E-05  0.1599766E+04  0.7818609E-02  0.8820692E-01
        2   -1    0    0  501    0  0.00000000000E+00  0.00000000000E+00  0.77272419464E+03  0.77272419464E+03  0.25500000920E-02 0. -1.
       -2   -1    0    0    0  501  0.00000000000E+00  0.00000000000E+00 -0.82799670373E+03  0.82799670373E+03  0.25500000920E-02 0.  1.
    10030    2    1    2    0    0  0.00000000000E+00  0.00000000000E+00 -0.55272509092E+02  0.16007208984E+04  0.15997663405E+04 0.  0.
        5    1    3    3  502    0  0.24997548552E+02  0.66515733125E+03  0.41617303732E+03  0.78503582067E+03  0.46999998093E+01 0. -1.
       -5    1    3    3    0  502 -0.24997548552E+02 -0.66515733125E+03 -0.47144554641E+03  0.81568507770E+03  0.46999998093E+01 0.  1.
</event>
<event>
 5   0  0.4314657E-05  0.1597140E+04  0.7818609E-02  0.8822307E-01
        1   -1    0    0  501    0  0.00000000000E+00  0.00000000000E+00  0.73227361249E+03  0.73227361250E+03  0.50400001928E-02 0.  1.
       -1   -1    0    0    0  501  0.00000000000E+00  0.00000000000E+00 -0.87086821571E+03  0.87086821572E+03  0.50400001928E-02 0. -1.
    10030    2    1    2    0    0  0.00000000000E+00  0.00000000000E+00 -0.13859460323E+03  0.16031418282E+04  0.15971397113E+04 0.  0.
        5    1    3    3  502    0  0.25178620612E+03  0.74451253391E+03 -0.21123776618E+03  0.81384193220E+03  0.46999998093E+01 0. -1.
       -5    1    3    3    0  502 -0.25178620612E+03 -0.74451253391E+03  0.72643162957E+02  0.78929989603E+03  0.46999998093E+01 0.  1.
</event>
<event>
 5   0  0.4314657E-05  0.1598356E+04  0.7818609E-02  0.8821559E-01
       -1   -1    0    0    0  501  0.00000000000E+00  0.00000000000E+00  0.67239092096E+03  0.67239092098E+03  0.50400001928E-02 0.  1.
        1   -1    0    0  501    0  0.00000000000E+00  0.00000000000E+00 -0.94987172953E+03  0.94987172954E+03  0.50400001928E-02 0. -1.
    10030    2    1    2    0    0  0.00000000000E+00  0.00000000000E+00 -0.27748080857E+03  0.16222626505E+04  0.15983555637E+04 0.  0.
        5    1    3    3  502    0  0.31992320164E+03  0.36168642133E+03 -0.78504997266E+03  0.92167970136E+03  0.46999998093E+01 0. -1.
       -5    1    3    3    0  502 -0.31992320164E+03 -0.36168642133E+03  0.50756916409E+03  0.70058294916E+03  0.46999998093E+01 0.  1.
</event>
<event>
 5   0  0.8037548E-05  0.1598467E+04  0.7818609E-02  0.8821490E-01
       -2   -1    0    0    0  501  0.00000000000E+00  0.00000000000E+00  0.88178884109E+03  0.88178884110E+03  0.25500000920E-02 0.  1.
        2   -1    0    0  501    0  0.00000000000E+00  0.00000000000E+00 -0.72440728283E+03  0.72440728283E+03  0.25500000920E-02 0. -1.
    10030    2    1    2    0    0  0.00000000000E+00  0.00000000000E+00  0.15738155827E+03  0.16061961239E+04  0.15984670887E+04 0.  0.
        5    1    3    3  502    0 -0.17367593364E+03 -0.50281353885E+03  0.67803723234E+03  0.86182443874E+03  0.46999998093E+01 0.  1.
       -5    1    3    3    0  502  0.17367593364E+03  0.50281353885E+03 -0.52065567407E+03  0.74437168519E+03  0.46999998093E+01 0. -1.
</event>
<event>
 5   0  0.4373026E-05  0.1597138E+04  0.7818609E-02  0.8822308E-01
       -1   -1    0    0    0  501  0.00000000000E+00  0.00000000000E+00  0.60037594688E+03  0.60037594690E+03  0.50400001928E-02 0. -1.
        1   -1    0    0  501    0  0.00000000000E+00  0.00000000000E+00 -0.10621882245E+04  0.10621882245E+04  0.50400001928E-02 0.  1.
    10030    2    1    2    0    0  0.00000000000E+00  0.00000000000E+00 -0.46181227763E+03  0.16625641714E+04  0.15971377662E+04 0.  0.
        4    1    3    3  502    0 -0.77623374710E+03  0.54795859011E+02 -0.44200951859E+02  0.77942078068E+03  0.12699999809E+01 0. -1.
       -4    1    3    3    0  502  0.77623374710E+03 -0.54795859011E+02 -0.41761132577E+03  0.88314339075E+03  0.12699999809E+01 0.  1.
</event>
<event>
 5   0  0.8694033E-05  0.1608186E+04  0.7818609E-02  0.8815535E-01
       -2   -1    0    0    0  501  0.00000000000E+00  0.00000000000E+00  0.71370678368E+03  0.71370678368E+03  0.25500000920E-02 0. -1.
        2   -1    0    0  501    0  0.00000000000E+00  0.00000000000E+00 -0.90592584701E+03  0.90592584701E+03  0.25500000920E-02 0.  1.
    10030    2    1    2    0    0  0.00000000000E+00  0.00000000000E+00 -0.19221906333E+03  0.16196326307E+04  0.16081858382E+04 0.  0.
        1    1    3    3  502    0  0.15688914767E+03 -0.35314526691E+03 -0.80628089414E+03  0.89409991862E+03  0.50400001928E-02 0.  1.
       -1    1    3    3    0  502 -0.15688914767E+03  0.35314526691E+03  0.61406183082E+03  0.72553271207E+03  0.50400001928E-02 0. -1.
</event>
<event>
 5   0  0.4314657E-05  0.1598510E+04  0.7818609E-02  0.8821464E-01
        1   -1    0    0  501    0  0.00000000000E+00  0.00000000000E+00  0.17125035215E+04  0.17125035215E+04  0.50400001928E-02 0.  1.
       -1   -1    0    0    0  501  0.00000000000E+00  0.00000000000E+00 -0.37302609579E+03  0.37302609582E+03  0.50400001928E-02 0. -1.
    10030    2    1    2    0    0  0.00000000000E+00  0.00000000000E+00  0.13394774257E+04  0.20855296174E+04  0.15985099345E+04 0.  0.
        5    1    3    3  502    0  0.65315199690E+03 -0.81015118571E+02  0.12613396804E+04  0.14227335871E+04  0.46999998093E+01 0.  1.
       -5    1    3    3    0  502 -0.65315199690E+03  0.81015118571E+02  0.78137745354E+02  0.66279603027E+03  0.46999998093E+01 0. -1.
</event>
<event>
 5   0  0.4504463E-05  0.1600208E+04  0.7818609E-02  0.8820420E-01
        1   -1    0    0  501    0  0.00000000000E+00  0.00000000000E+00  0.89321489146E+03  0.89321489148E+03  0.50400001928E-02 0. -1.
       -1   -1    0    0    0  501  0.00000000000E+00  0.00000000000E+00 -0.71669918104E+03  0.71669918106E+03  0.50400001928E-02 0.  1.
    10030    2    1    2    0    0  0.00000000000E+00  0.00000000000E+00  0.17651571042E+03  0.16099140725E+04  0.16002079630E+04 0.  0.
        1    1    3    3  502    0 -0.31311694945E+02 -0.75805581294E+03  0.34384076583E+03  0.83297989774E+03  0.50400001928E-02 0. -1.
       -1    1    3    3    0  502  0.31311694945E+02  0.75805581294E+03 -0.16732505541E+03  0.77693417479E+03  0.50400001928E-02 0.  1.
</event>
<event>
 5   0  0.4504463E-05  0.1598666E+04  0.7818609E-02  0.8821368E-01
       -1   -1    0    0    0  501  0.00000000000E+00  0.00000000000E+00  0.47955363487E+03  0.47955363490E+03  0.50400001928E-02 0. -1.
        1   -1    0    0  501    0  0.00000000000E+00  0.00000000000E+00 -0.13323507339E+04  0.13323507339E+04  0.50400001928E-02 0.  1.
    10030    2    1    2    0    0  0.00000000000E+00  0.00000000000E+00 -0.85279709901E+03  0.18119043688E+04  0.15986664910E+04 0.  0.
        1    1    3    3  502    0  0.40000382618E+03  0.44473720878E+03 -0.10273484262E+04  0.11887973060E+04  0.50400001928E-02 0.  1.
       -1    1    3    3    0  502 -0.40000382618E+03 -0.44473720878E+03  0.17455132722E+03  0.62310706279E+03  0.50400001928E-02 0. -1.
</event>
<event>
 5   0  0.4373026E-05  0.1598620E+04  0.7818609E-02  0.8821396E-01
       -1   -1    0    0    0  501  0.00000000000E+00  0.00000000000E+00  0.50913079242E+03  0.50913079245E+03  0.50400001928E-02 0. -1.
        1   -1    0    0  501    0  0.00000000000E+00  0.00000000000E+00 -0.12548773144E+04  0.12548773144E+04  0.50400001928E-02 0.  1.
    10030    2    1    2    0    0  0.00000000000E+00  0.00000000000E+00 -0.74574652200E+03  0.17640081069E+04  0.15986202570E+04 0.  0.
        4    1    3    3  502    0 -0.29960174471E+03 -0.44701172761E+03  0.27930076178E+03  0.60629301372E+03  0.12699999809E+01 0. -1.
       -4    1    3    3    0  502  0.29960174471E+03  0.44701172761E+03 -0.10250472838E+04  0.11577150932E+04  0.12699999809E+01 0.  1.
</event>
<event>
 5   0  0.8620155E-05  0.1598928E+04  0.7818609E-02  0.8821207E-01
       -2   -1    0    0    0  501  0.00000000000E+00  0.00000000000E+00  0.26404500143E+03  0.26404500144E+03  0.25500000920E-02 0.  1.
        2   -1    0    0  501    0  0.00000000000E+00  0.00000000000E+00 -0.24205825999E+04  0.24205825999E+04  0.25500000920E-02 0. -1.
    10030    2    1    2    0    0  0.00000000000E+00  0.00000000000E+00 -0.21565375984E+04  0.26846276013E+04  0.15989280610E+04 0.  0.
        4    1    3    3  502    0 -0.38617667399E+03  0.41638972444E+03 -0.13349032649E+03  0.58338161294E+03  0.12699999809E+01 0.  1.
       -4    1    3    3    0  502  0.38617667399E+03 -0.41638972444E+03 -0.20230472719E+04  0.21012459884E+04  0.12699999809E+01 0. -1.
</event>
<event>
 5   0  0.7849690E-05  0.1600890E+04  0.7818609E-02  0.8820002E-01
       -2   -1    0    0    0  501  0.00000000000E+00  0.00000000000E+00  0.45179429041E+03  0.45179429042E+03  0.25500000920E-02 0.  1.
        2   -1    0    0  501    0  0.00000000000E+00  0.00000000000E+00 -0.14181500807E+04  0.14181500807E+04  0.25500000920E-02 0. -1.
    10030    2    1    2    0    0  0.00000000000E+00  0.00000000000E+00 -0.96635579031E+03  0.18699443711E+04  0.16008898893E+04 0.  0.
        3    1    3    3  502    0  0.47470704430E+03  0.35247146834E+03 -0.11134238947E+04  0.12606727146E+04  0.10100000352E+00 0. -1.
       -3    1    3    3    0  502 -0.47470704430E+03 -0.35247146834E+03  0.14706810439E+03  0.60927165652E+03  0.10100000352E+00 0.  1.
</event>
<event>
 5   0  0.4373026E-05  0.1597134E+04  0.7818609E-02  0.8822310E-01
       -1   -1    0    0    0  501  0.00000000000E+00  0.00000000000E+00  0.49976734261E+03  0.49976734263E+03  0.50400001928E-02 0.  1.
        1   -1    0    0  501    0  0.00000000000E+00  0.00000000000E+00 -0.12760128082E+04  0.12760128082E+04  0.50400001928E-02 0. -1.
    10030    2    1    2    0    0  0.00000000000E+00  0.00000000000E+00 -0.77624546556E+03  0.17757801508E+04  0.15971343466E+04 0.  0.
        4    1    3    3  502    0  0.20631033042E+03  0.20428036478E+03 -0.12152505398E+04  0.12494518427E+04  0.12699999809E+01 0. -1.
       -4    1    3    3    0  502 -0.20631033042E+03 -0.20428036478E+03  0.43900507420E+03  0.52632830814E+03  0.12699999809E+01 0.  1.
</event>
<event>
 5   0  0.8037548E-05  0.1601464E+04  0.7818609E-02  0.8819649E-01
        2   -1    0    0  501    0  0.00000000000E+00  0.00000000000E+00  0.19336727198E+04  0.19336727198E+04  0.25500000920E-02 0. -1.
       -2   -1    0    0    0  501  0.00000000000E+00  0.00000000000E+00 -0.33158222893E+03  0.33158222894E+03  0.25500000920E-02 0.  1.
    10030    2    1    2    0    0  0.00000000000E+00  0.00000000000E+00  0.16020904909E+04  0.22652549488E+04  0.16014637186E+04 0.  0.
        5    1    3    3  502    0 -0.53884501176E+03 -0.37279852330E+03  0.14520439409E+04  0.15930431199E+04  0.46999998093E+01 0.  1.
       -5    1    3    3    0  502  0.53884501176E+03  0.37279852330E+03  0.15004655002E+03  0.67221182885E+03  0.46999998093E+01 0. -1.
</event>
<event>
 5   0  0.7849690E-05  0.1599258E+04  0.7818609E-02  0.8821004E-01
        2   -1    0    0  501    0  0.00000000000E+00  0.00000000000E+00  0.19440846301E+04  0.19440846301E+04  0.25500000920E-02 0.  1.
       -2   -1    0    0    0  501  0.00000000000E+00  0.00000000000E+00 -0.32889831765E+03  0.32889831766E+03  0.25500000920E-02 0. -1.
    10030    2    1    2    0    0  0.00000000000E+00  0.00000000000E+00  0.16151863124E+04  0.22729829478E+04  0.15992575330E+04 0.  0.
        3    1    3    3  502    0  0.76958270217E+03  0.22739282368E+02  0.50067847147E+03  0.91839727375E+03  0.10100000352E+00 0. -1.
       -3    1    3    3    0  502 -0.76958270217E+03 -0.22739282368E+02  0.11145078410E+04  0.13545856740E+04  0.10100000352E+00 0.  1.
</event>
<event>
 5   0  0.8620155E-05  0.1603165E+04  0.7818609E-02  0.8818606E-01
       -2   -1    0    0    0  501  0.00000000000E+00  0.00000000000E+00  0.32582300767E+03  0.32582300768E+03  0.25500000920E-02 0. -1.
        2   -1    0    0  501    0  0.00000000000E+00  0.00000000000E+00 -0.19720353731E+04  0.19720353731E+04  0.25500000920E-02 0.  1.
    10030    2    1    2    0    0  0.00000000000E+00  0.00000000000E+00 -0.16462123654E+04  0.22978583808E+04  0.16031649903E+04 0.  0.
        4    1    3    3  502    0 -0.10300105579E+03 -0.30308133563E+03  0.23023291414E+03  0.39430485814E+03  0.12699999809E+01 0. -1.
       -4    1    3    3    0  502  0.10300105579E+03  0.30308133563E+03 -0.18764452796E+04  0.19035535226E+04  0.12699999809E+01 0.  1.
</event>
<event>
 5   0  0.7901257E-05  0.1603698E+04  0.7818609E-02  0.8818280E-01
       -2   -1    0    0    0  501  0.00000000000E+00  0.00000000000E+00  0.51389739975E+03  0.51389739976E+03  0.25500000920E-02 0.  1.
        2   -1    0    0  501    0  0.00000000000E+00  0.00000000000E+00 -0.12511477704E+04  0.12511477704E+04  0.25500000920E-02 0. -1.
    10030    2    1    2    0    0  0.00000000000E+00  0.00000000000E+00 -0.73725037063E+03  0.17650451701E+04  0.16036977096E+04 0.  0.
        2    1    3    3  502    0  0.40773691421E+02  0.25061900967E+03  0.46848175838E+03  0.53286728166E+03  0.25500000920E-02 0.  1.
       -2    1    3    3    0  502 -0.40773691421E+02 -0.25061900967E+03 -0.12057321290E+04  0.12321778885E+04  0.25500000920E-02 0. -1.
</event>
<event>
 5   0  0.7901257E-05  0.1595660E+04  0.7818609E-02  0.8823219E-01
        2   -1    0    0  501    0  0.00000000000E+00  0.00000000000E+00  0.88359196985E+03  0.88359196986E+03  0.25500000920E-02 0. -1.
       -2   -1    0    0    0  501  0.00000000000E+00  0.00000000000E+00 -0.72039175032E+03  0.72039175033E+03  0.25500000920E-02 0.  1.
    10030    2    1    2    0    0  0.00000000000E+00  0.00000000000E+00  0.16320021953E+03  0.16039837202E+04  0.15956595699E+04 0.  0.
        2    1    3    3  502    0 -0.25876037298E+03 -0.42668492581E+03  0.70735492912E+03  0.86566041396E+03  0.25500000920E-02 0. -1.
       -2    1    3    3    0  502  0.25876037298E+03  0.42668492581E+03 -0.54415470959E+03  0.73832330622E+03  0.25500000920E-02 0.  1.
</event>
<event>
 5   0  0.7901257E-05  0.1600608E+04  0.7818609E-02  0.8820175E-01
        2   -1    0    0  501    0  0.00000000000E+00  0.00000000000E+00  0.76464186177E+03  0.76464186178E+03  0.25500000920E-02 0. -1.
       -2   -1    0    0    0  501  0.00000000000E+00  0.00000000000E+00 -0.83762907438E+03  0.83762907438E+03  0.25500000920E-02 0.  1.
    10030    2    1    2    0    0  0.00000000000E+00  0.00000000000E+00 -0.72987212606E+02  0.16022709362E+04  0.16006077032E+04 0.  0.
        2    1    3    3  502    0 -0.38718976632E+03  0.22871936192E+03 -0.69919193625E+03  0.83132293688E+03  0.25500000920E-02 0.  1.
       -2    1    3    3    0  502  0.38718976632E+03 -0.22871936192E+03  0.62620472365E+03  0.77094799927E+03  0.25500000920E-02 0. -1.
</event>
<event>
 5   0  0.7849690E-05  0.1599753E+04  0.7818609E-02  0.8820700E-01
       -2   -1    0    0    0  501  0.00000000000E+00  0.00000000000E+00  0.67254510708E+03  0.67254510708E+03  0.25500000920E-02 0.  1.
        2   -1    0    0  501    0  0.00000000000E+00  0.00000000000E+00 -0.95131498073E+03  0.95131498073E+03  0.25500000920E-02 0. -1.
    10030    2    1    2    0    0  0.00000000000E+00  0.00000000000E+00 -0.27876987365E+03  0.16238600878E+04  0.15997527754E+04 0.  0.
        3    1    3    3  502    0  0.38002197453E+01  0.75494397134E+03  0.12888425899E+03  0.76587597165E+03  0.10100000352E+00 0.  1.
       -3    1    3    3    0  502 -0.38002197453E+01 -0.75494397134E+03 -0.40765413263E+03  0.85798411616E+03  0.10100000352E+00 0. -1.
</event>
<event>
 5   0  0.8620155E-05  0.1599721E+04  0.7818609E-02  0.8820720E-01
       -2   -1    0    0    0  501  0.00000000000E+00  0.00000000000E+00  0.51148319767E+03  0.51148319768E+03  0.25500000920E-02 0.  1.
        2   -1    0    0  501    0  0.00000000000E+00  0.00000000000E+00 -0.12508263296E+04  0.12508263296E+04  0.25500000920E-02 0. -1.
    10030    2    1    2    0    0  0.00000000000E+00  0.00000000000E+00 -0.73934313197E+03  0.17623095273E+04  0.15997207892E+04 0.  0.
        4    1    3    3  502    0  0.63494232435E+03  0.48005462317E+02 -0.90293466102E+03  0.11048750584E+04  0.12699999809E+01 0. -1.
       -4    1    3    3    0  502 -0.63494232435E+03 -0.48005462317E+02  0.16359152905E+03  0.65743446894E+03  0.12699999809E+01 0.  1.
</event>
<event>
 5   0  0.8694033E-05  0.1598101E+04  0.7818609E-02  0.8821715E-01
       -2   -1    0    0    0  501  0.00000000000E+00  0.00000000000E+00  0.89208613341E+03  0.89208613341E+03  0.25500000920E-02 0.  1.
        2   -1    0    0  501    0  0.00000000000E+00  0.00000000000E+00 -0.71571777470E+03  0.71571777471E+03  0.25500000920E-02 0. -1.
    10030    2    1    2    0    0  0.00000000000E+00  0.00000000000E+00  0.17636835870E+03  0.16078039081E+04  0.15981012512E+04 0.  0.
        1    1    3    3  502    0  0.55025820736E+03 -0.21497675462E+03 -0.45311849480E+03  0.74452365318E+03  0.50400001928E-02 0. -1.
       -1    1    3    3    0  502 -0.55025820736E+03  0.21497675462E+03  0.62948685350E+03  0.86328025493E+03  0.50400001928E-02 0.  1.
</event>
<event>
 5   0  0.4504463E-05  0.1599551E+04  0.7818609E-02  0.8820824E-01
        1   -1    0    0  501    0  0.00000000000E+00  0.00000000000E+00  0.71374734066E+03  0.71374734067E+03  0.50400001928E-02 0.  1.
       -1   -1    0    0    0  501  0.00000000000E+00  0.00000000000E+00 -0.89617262955E+03  0.89617262957E+03  0.50400001928E-02 0. -1.
    10030    2    1    2    0    0  0.00000000000E+00  0.00000000000E+00 -0.18242528890E+03  0.16099199702E+04  0.15995509759E+04 0.  0.
        1    1    3    3  502    0  0.64055864013E+03  0.46801849729E+03 -0.19328081159E+03  0.81652566243E+03  0.50400001928E-02 0. -1.
       -1    1    3    3    0  502 -0.64055864013E+03 -0.46801849729E+03  0.10855522697E+02  0.79339430780E+03  0.50400001928E-02 0.  1.
</event>
<event>
 5   0  0.4256406E-05  0.1602687E+04  0.7818609E-02  0.8818899E-01
       -1   -1    0    0    0  501  0.00000000000E+00  0.00000000000E+00  0.10301779268E+04  0.10301779268E+04  0.50400001928E-02 0. -1.
        1   -1    0    0  501    0  0.00000000000E+00  0.00000000000E+00 -0.62333995404E+03  0.62333995406E+03  0.50400001928E-02 0.  1.
    10030    2    1    2    0    0  0.00000000000E+00  0.00000000000E+00  0.40683797272E+03  0.16535178808E+04  0.16026865714E+04 0.  0.
        3    1    3    3  502    0  0.10565415204E+03  0.65814326578E+03 -0.25547527013E+03  0.71385081213E+03  0.10100000352E+00 0. -1.
       -3    1    3    3    0  502 -0.10565415204E+03 -0.65814326578E+03  0.66231324285E+03  0.93966706870E+03  0.10100000352E+00 0.  1.
</event>
<event>
 5   0  0.4504463E-05  0.1598341E+04  0.7818609E-02  0.8821568E-01
        1   -1    0    0  501    0  0.00000000000E+00  0.00000000000E+00  0.84790012470E+03  0.84790012471E+03  0.50400001928E-02 0. -1.
       -1   -1    0    0    0  501  0.00000000000E+00  0.00000000000E+00 -0.75324179575E+03  0.75324179576E+03  0.50400001928E-02 0.  1.
    10030    2    1    2    0    0  0.00000000000E+00  0.00000000000E+00  0.94658328951E+02  0.16011419205E+04  0.15983414060E+04 0.  0.
        1    1    3    3  502    0 -0.46801481660E+03 -0.12904760333E+03 -0.58859226112E+03  0.76297575476E+03  0.50400001928E-02 0.  1.
       -1    1    3    3    0  502  0.46801481660E+03  0.12904760333E+03  0.68325059007E+03  0.83816616571E+03  0.50400001928E-02 0. -1.
</event>
<event>
 5   0  0.8620155E-05  0.1599811E+04  0.7818609E-02  0.8820664E-01
        2   -1    0    0  501    0  0.00000000000E+00  0.00000000000E+00  0.13337770312E+04  0.13337770312E+04  0.25500000920E-02 0. -1.
       -2   -1    0    0    0  501  0.00000000000E+00  0.00000000000E+00 -0.47972696273E+03  0.47972696274E+03  0.25500000920E-02 0.  1.
    10030    2    1    2    0    0  0.00000000000E+00  0.00000000000E+00  0.85405006845E+03  0.18135039939E+04  0.15998109940E+04 0.  0.
        4    1    3    3  502    0 -0.12287136943E+03  0.28001227227E+03  0.12649063560E+04  0.13013431325E+04  0.12699999809E+01 0. -1.
       -4    1    3    3    0  502  0.12287136943E+03 -0.28001227227E+03 -0.41085628758E+03  0.51216086144E+03  0.12699999809E+01 0.  1.
</event>
<event>
 5   0  0.7901257E-05  0.1604776E+04  0.7818609E-02  0.8817619E-01
       -2   -1    0    0    0  501  0.00000000000E+00  0.00000000000E+00  0.77391241726E+03  0.77391241727E+03  0.25500000920E-02 0. -1.
        2   -1    0    0  501    0  0.00000000000E+00  0.00000000000E+00 -0.83191158933E+03  0.83191158933E+03  0.25500000920E-02 0.  1.
    10030    2    1    2    0    0  0.00000000000E+00  0.00000000000E+00 -0.57999172066E+02  0.16058240066E+04  0.16047762574E+04 0.  0.
        2    1    3    3  502    0  0.39062341262E+03  0.53321321291E+03  0.42618610682E+03  0.78647160061E+03  0.25500000920E-02 0. -1.
       -2    1    3    3    0  502 -0.39062341262E+03 -0.53321321291E+03 -0.48418527888E+03  0.81935240599E+03  0.25500000920E-02 0.  1.
</event>
<event>
 5   0  0.7901257E-05  0.1598703E+04  0.7818609E-02  0.8821345E-01
       -2   -1    0    0    0  501  0.00000000000E+00  0.00000000000E+00  0.59376148375E+03  0.59376148375E+03  0.25500000920E-02 0. -1.
        2   -1    0    0  501    0  0.00000000000E+00  0.00000000000E+00 -0.10761270247E+04  0.10761270247E+04  0.25500000920E-02 0.  1.
    10030    2    1    2    0    0  0.00000000000E+00  0.00000000000E+00 -0.48236554098E+03  0.16698885085E+04  0.15987029479E+04 0.  0.
        2    1    3    3  502    0  0.28603850556E+03 -0.27644019940E+03  0.48303355588E+03  0.62574645554E+03  0.25500000920E-02 0. -1.
       -2    1    3    3    0  502 -0.28603850556E+03  0.27644019940E+03 -0.96539909686E+03  0.10441420530E+04  0.25500000920E-02 0.  1.
</event>
<event>
 5   0  0.8694033E-05  0.1582645E+04  0.7818609E-02  0.8831281E-01
       -2   -1    0    0    0  501  0.00000000000E+00  0.00000000000E+00  0.45231654592E+03  0.45231654592E+03  0.25500000920E-02 0. -1.
        2   -1    0    0  501    0  0.00000000000E+00  0.00000000000E+00 -0.13844097086E+04  0.13844097086E+04  0.25500000920E-02 0.  1.
    10030    2    1    2    0    0  0.00000000000E+00  0.00000000000E+00 -0.93209316270E+03  0.18367262545E+04  0.15826451498E+04 0.  0.
        1    1    3    3  502    0  0.59423507536E+03  0.13692738065E+03  0.11922455185E+03  0.62135249750E+03  0.50400001928E-02 0. -1.
       -1    1    3    3    0  502 -0.59423507536E+03 -0.13692738065E+03 -0.10513177145E+04  0.12153737570E+04  0.50400001928E-02 0.  1.
</event>
<event>
 5   0  0.8037548E-05  0.1601064E+04  0.7818609E-02  0.8819894E-01
       -2   -1    0    0    0  501  0.00000000000E+00  0.00000000000E+00  0.10833801627E+04  0.10833801627E+04  0.25500000920E-02 0. -1.
        2   -1    0    0  501    0  0.00000000000E+00  0.00000000000E+00 -0.59152987212E+03  0.59152987212E+03  0.25500000920E-02 0.  1.
    10030    2    1    2    0    0  0.00000000000E+00  0.00000000000E+00  0.49185029055E+03  0.16749100348E+04  0.16010643074E+04 0.  0.
        5    1    3    3  502    0  0.14947925539E+03  0.11740401801E+03  0.10594173036E+04  0.10763432837E+04  0.46999998093E+01 0. -1.
       -5    1    3    3    0  502 -0.14947925539E+03 -0.11740401801E+03 -0.56756701303E+03  0.59856675109E+03  0.46999998093E+01 0.  1.
</event>
<event>
 5   0  0.4211419E-05  0.1601473E+04  0.7818609E-02  0.8819644E-01
        1   -1    0    0  501    0  0.00000000000E+00  0.00000000000E+00  0.95124110870E+03  0.95124110871E+03  0.50400001928E-02 0. -1.
       -1   -1    0    0    0  501  0.00000000000E+00  0.00000000000E+00 -0.67404454295E+03  0.67404454297E+03  0.50400001928E-02 0.  1.
    10030    2    1    2    0    0  0.00000000000E+00  0.00000000000E+00  0.27719656575E+03  0.16252856517E+04  0.16014729200E+04 0.  0.
        2    1    3    3  502    0 -0.68585970521E+03 -0.38842505134E+03  0.28176796878E+03  0.83706077675E+03  0.25500000920E-02 0.  1.
       -2    1    3    3    0  502  0.68585970521E+03  0.38842505134E+03 -0.45714030291E+01  0.78822487493E+03  0.25500000920E-02 0. -1.
</event>
<event>
 5   0  0.4256406E-05  0.1601798E+04  0.7818609E-02  0.8819444E-01
        1   -1    0    0  501    0  0.00000000000E+00  0.00000000000E+00  0.84833533534E+03  0.84833533535E+03  0.50400001928E-02 0. -1.
       -1   -1    0    0    0  501  0.00000000000E+00  0.00000000000E+00 -0.75611526855E+03  0.75611526856E+03  0.50400001928E-02 0.  1.
    10030    2    1    2    0    0  0.00000000000E+00  0.00000000000E+00  0.92220066792E+02  0.16044506039E+04  0.16017981145E+04 0.  0.
        3    1    3    3  502    0  0.32767409289E+03 -0.26662255126E+03  0.72766414470E+03  0.84139943765E+03  0.10100000352E+00 0. -1.
       -3    1    3    3    0  502 -0.32767409289E+03  0.26662255126E+03 -0.63544407791E+03  0.76305116627E+03  0.10100000352E+00 0.  1.
</event>
<event>
 5   0  0.4504463E-05  0.1602059E+04  0.7818609E-02  0.8819284E-01
        1   -1    0    0  501    0  0.00000000000E+00  0.00000000000E+00  0.19978017806E+04  0.19978017806E+04  0.50400001928E-02 0. -1.
       -1   -1    0    0    0  501  0.00000000000E+00  0.00000000000E+00 -0.32117728758E+03  0.32117728762E+03  0.50400001928E-02 0.  1.
    10030    2    1    2    0    0  0.00000000000E+00  0.00000000000E+00  0.16766244931E+04  0.23189790683E+04  0.16020593710E+04 0.  0.
        1    1    3    3  502    0  0.52914418407E+03 -0.50184696925E+03  0.35865776470E+03  0.81269880047E+03  0.50400001928E-02 0.  1.
       -1    1    3    3    0  502 -0.52914418407E+03  0.50184696925E+03  0.13179667283E+04  0.15062802678E+04  0.50400001928E-02 0. -1.
</event>
<event>
 5   0  0.4211419E-05  0.1597331E+04  0.7818609E-02  0.8822189E-01
        1   -1    0    0  501    0  0.00000000000E+00  0.00000000000E+00  0.73019243600E+03  0.73019243602E+03  0.50400001928E-02 0. -1.
       -1   -1    0    0    0  501  0.00000000000E+00  0.00000000000E+00 -0.87355974383E+03  0.87355974385E+03  0.50400001928E-02 0.  1.
    10030    2    1    2    0    0  0.00000000000E+00  0.00000000000E+00 -0.14336730783E+03  0.16037521799E+04  0.15973311709E+04 0.  0.
        2    1    3    3  502    0 -0.50068741266E+03 -0.48070590779E+03 -0.46836763755E+03  0.83733762539E+03  0.25500000920E-02 0.  1.
       -2    1    3    3    0  502  0.50068741266E+03  0.48070590779E+03  0.32500032972E+03  0.76641455447E+03  0.25500000920E-02 0. -1.
</event>
<event>
 5   0  0.7849690E-05  0.1598367E+04  0.7818609E-02  0.8821552E-01
        2   -1    0    0  501    0  0.00000000000E+00  0.00000000000E+00  0.60698449750E+03  0.60698449750E+03  0.25500000920E-02 0. -1.
       -2   -1    0    0    0  501  0.00000000000E+00  0.00000000000E+00 -0.10522417990E+04  0.10522417990E+04  0.25500000920E-02 0.  1.
    10030    2    1    2    0    0  0.00000000000E+00  0.00000000000E+00 -0.44525730151E+03  0.16592262965E+04  0.15983672414E+04 0.  0.
        3    1    3    3  502    0 -0.42144709636E+03  0.45911572814E+03 -0.74196701327E+03  0.96897882631E+03  0.10100000352E+00 0.  1.
       -3    1    3    3    0  502  0.42144709636E+03 -0.45911572814E+03  0.29670971176E+03  0.69024747020E+03  0.10100000352E+00 0. -1.
</event>
<event>
 5   0  0.4211419E-05  0.1599536E+04  0.7818609E-02  0.8820833E-01
       -1   -1    0    0    0  501  0.00000000000E+00  0.00000000000E+00  0.10748867197E+04  0.10748867197E+04  0.50400001928E-02 0.  1.
        1   -1    0    0  501    0  0.00000000000E+00  0.00000000000E+00 -0.59506592197E+03  0.59506592199E+03  0.50400001928E-02 0. -1.
    10030    2    1    2    0    0  0.00000000000E+00  0.00000000000E+00  0.47982079776E+03  0.16699526417E+04  0.15995355037E+04 0.  0.
        2    1    3    3  502    0  0.27860843218E+03  0.39357812048E+03 -0.42622409308E+03  0.64357856780E+03  0.25500000920E-02 0. -1.
       -2    1    3    3    0  502 -0.27860843218E+03 -0.39357812048E+03  0.90604489084E+03  0.10263740739E+04  0.25500000920E-02 0.  1.
</event>
<event>
 5   0  0.8037548E-05  0.1606171E+04  0.7818609E-02  0.8816766E-01
       -2   -1    0    0    0  501  0.00000000000E+00  0.00000000000E+00  0.31351819272E+03  0.31351819273E+03  0.25500000920E-02 0. -1.
        2   -1    0    0  501    0  0.00000000000E+00  0.00000000000E+00 -0.20571255916E+04  0.20571255916E+04  0.25500000920E-02 0.  1.
    10030    2    1    2    0    0  0.00000000000E+00  0.00000000000E+00 -0.17436073989E+04  0.23706437843E+04  0.16061709718E+04 0.  0.
        5    1    3    3  502    0  0.66055925855E+03  0.17907252558E+03 -0.14919153544E+04  0.16414137255E+04  0.46999998093E+01 0.  1.
       -5    1    3    3    0  502 -0.66055925855E+03 -0.17907252558E+03 -0.25169204445E+03  0.72923005884E+03  0.46999998093E+01 0. -1.
</event>
<event>
 5   0  0.8694033E-05  0.1600162E+04  0.7818609E-02  0.8820448E-01
        2   -1    0    0  501    0  0.00000000000E+00  0.00000000000E+00  0.13142563465E+04  0.13142563466E+04  0.25500000920E-02 0. -1.
       -2   -1    0    0    0  501  0.00000000000E+00  0.00000000000E+00 -0.48706628680E+03  0.48706628681E+03  0.25500000920E-02 0.  1.
    10030    2    1    2    0    0  0.00000000000E+00  0.00000000000E+00  0.82719005975E+03  0.18013226334E+04  0.16001624400E+04 0.  0.
        1    1    3    3  502    0 -0.67735183476E+03 -0.42209677301E+03  0.47686331689E+03  0.92971491160E+03  0.50400001928E-02 0. -1.
       -1    1    3    3    0  502  0.67735183476E+03  0.42209677301E+03  0.35032674286E+03  0.87160772176E+03  0.50400001928E-02 0.  1.
</event>
<event>
 5   0  0.4314657E-05  0.1602779E+04  0.7818609E-02  0.8818843E-01
        1   -1    0    0  501    0  0.00000000000E+00  0.00000000000E+00  0.12795367372E+04  0.12795367372E+04  0.50400001928E-02 0.  1.
       -1   -1    0    0    0  501  0.00000000000E+00  0.00000000000E+00 -0.50192008536E+03  0.50192008539E+03  0.50400001928E-02 0. -1.
    10030    2    1    2    0    0  0.00000000000E+00  0.00000000000E+00  0.77761665182E+03  0.17814568226E+04  0.16027790720E+04 0.  0.
        5    1    3    3  502    0 -0.47647629094E+03 -0.36557602269E+03 -0.20093378185E+03  0.63330242293E+03  0.46999998093E+01 0. -1.
       -5    1    3    3    0  502  0.47647629094E+03  0.36557602269E+03  0.97855043367E+03  0.11481543997E+04  0.46999998093E+01 0.  1.
</event>
<event>
 5   0  0.4256406E-05  0.1588274E+04  0.7818609E-02  0.8827785E-01
        1   -1    0    0  501    0  0.00000000000E+00  0.00000000000E+00  0.63272071156E+03  0.63272071158E+03  0.50400001928E-02 0. -1.
       -1   -1    0    0    0  501  0.00000000000E+00  0.00000000000E+00 -0.99673244563E+03  0.99673244564E+03  0.50400001928E-02 0.  1.
    10030    2    1    2    0    0  0.00000000000E+00  0.00000000000E+00 -0.36401173407E+03  0.16294531572E+04  0.15882736065E+04 0.  0.
        3    1    3    3  502    0  0.39002358417E+03  0.17789790588E+03  0.50382261079E+03  0.66151590644E+03  0.10100000352E+00 0. -1.
       -3    1    3    3    0  502 -0.39002358417E+03 -0.17789790588E+03 -0.86783434486E+03  0.96793725078E+03  0.10100000352E+00 0.  1.
</event>
<event>
 5   0  0.4373026E-05  0.1601575E+04  0.7818609E-02  0.8819581E-01
        1   -1    0    0  501    0  0.00000000000E+00  0.00000000000E+00  0.13677923970E+04  0.13677923970E+04  0.50400001928E-02 0.  1.
       -1   -1    0    0    0  501  0.00000000000E+00  0.00000000000E+00 -0.46882879860E+03  0.46882879863E+03  0.50400001928E-02 0. -1.
    10030    2    1    2    0    0  0.00000000000E+00  0.00000000000E+00  0.89896359836E+03  0.18366211956E+04  0.16015748078E+04 0.  0.
        4    1    3    3  502    0  0.28504621747E+03 -0.64383543483E+03  0.88688216712E+03  0.11324031987E+04  0.12699999809E+01 0.  1.
       -4    1    3    3    0  502 -0.28504621747E+03  0.64383543483E+03  0.12081431240E+02  0.70421799687E+03  0.12699999809E+01 0. -1.
</event>
<event>
 5   0  0.4314657E-05  0.1615208E+04  0.7818609E-02  0.8811259E-01
       -1   -1    0    0    0  501  0.00000000000E+00  0.00000000000E+00  0.88040303926E+03  0.88040303927E+03  0.50400001928E-02 0. -1.
        1   -1    0    0  501    0  0.00000000000E+00  0.00000000000E+00 -0.74082456510E+03  0.74082456512E+03  0.50400001928E-02 0.  1.
    10030    2    1    2    0    0  0.00000000000E+00  0.00000000000E+00  0.13957847415E+03  0.16212276044E+04  0.16152079726E+04 0.  0.
        5    1    3    3  502    0  0.75752819844E+03 -0.50170996405E+01 -0.21112513863E+03  0.78642867247E+03  0.46999998093E+01 0.  1.
       -5    1    3    3    0  502 -0.75752819844E+03  0.50170996405E+01  0.35070361279E+03  0.83479893192E+03  0.46999998093E+01 0. -1.
</event>
<event>
 5   0  0.7901257E-05  0.1585943E+04  0.7818609E-02  0.8829230E-01
        2   -1    0    0  501    0  0.00000000000E+00  0.00000000000E+00  0.12143860011E+04  0.12143860011E+04  0.25500000920E-02 0.  1.
       -2   -1    0    0    0  501  0.00000000000E+00  0.00000000000E+00 -0.51779590889E+03  0.51779590889E+03  0.25500000920E-02 0. -1.
    10030    2    1    2    0    0  0.00000000000E+00  0.00000000000E+00  0.69659009217E+03  0.17321819099E+04  0.15859433825E+04 0.  0.
        2    1    3    3  502    0  0.25694062411E+03  0.23995357254E+03 -0.42802515424E+03  0.55389686220E+03  0.25500000920E-02 0. -1.
       -2    1    3    3    0  502 -0.25694062411E+03 -0.23995357254E+03  0.11246152464E+04  0.11782850477E+04  0.25500000920E-02 0.  1.
</event>
<event>
 5   0  0.4211419E-05  0.1599390E+04  0.7818609E-02  0.8820923E-01
       -1   -1    0    0    0  501  0.00000000000E+00  0.00000000000E+00  0.37678474165E+03  0.37678474168E+03  0.50400001928E-02 0. -1.
        1   -1    0    0  501    0  0.00000000000E+00  0.00000000000E+00 -0.16972871545E+04  0.16972871545E+04  0.50400001928E-02 0.  1.
    10030    2    1    2    0    0  0.00000000000E+00  0.00000000000E+00 -0.13205024129E+04  0.20740718962E+04  0.15993897612E+04 0.  0.
        2    1    3    3  502    0 -0.68703044166E+03  0.14676000666E+03 -0.11556902780E+04  0.13524678724E+04  0.25500000920E-02 0.  1.
       -2    1    3    3    0  502  0.68703044166E+03 -0.14676000666E+03 -0.16481213489E+03  0.72160402378E+03  0.25500000920E-02 0. -1.
</event>
<event>
 5   0  0.8037548E-05  0.1588506E+04  0.7818609E-02  0.8827640E-01
        2   -1    0    0  501    0  0.00000000000E+00  0.00000000000E+00  0.19793807097E+04  0.19793807097E+04  0.25500000920E-02 0.  1.
       -2   -1    0    0    0  501  0.00000000000E+00  0.00000000000E+00 -0.31870478935E+03  0.31870478936E+03  0.25500000920E-02 0. -1.
    10030    2    1    2    0    0  0.00000000000E+00  0.00000000000E+00  0.16606759203E+04  0.22980854990E+04  0.15885063577E+04 0.  0.
        5    1    3    3  502    0  0.53020730134E+03  0.57112493512E+03  0.60850448916E+03  0.98873822483E+03  0.46999998093E+01 0.  1.
       -5    1    3    3    0  502 -0.53020730134E+03 -0.57112493512E+03  0.10521714312E+04  0.13093472742E+04  0.46999998093E+01 0. -1.
</event>
<event>
 5   0  0.4504463E-05  0.1599605E+04  0.7818609E-02  0.8820791E-01
        1   -1    0    0  501    0  0.00000000000E+00  0.00000000000E+00  0.15887717375E+04  0.15887717375E+04  0.50400001928E-02 0.  1.
       -1   -1    0    0    0  501  0.00000000000E+00  0.00000000000E+00 -0.40262780394E+03  0.40262780397E+03  0.50400001928E-02 0. -1.
    10030    2    1    2    0    0  0.00000000000E+00  0.00000000000E+00  0.11861439336E+04  0.19913995415E+04  0.15996045457E+04 0.  0.
        1    1    3    3  502    0 -0.47034688793E+03  0.27460383226E+03  0.13222349645E+04  0.14300135527E+04  0.50400001928E-02 0.  1.
       -1    1    3    3    0  502  0.47034688793E+03 -0.27460383226E+03 -0.13609103089E+03  0.56138598877E+03  0.50400001928E-02 0. -1.
</event>
<event>
 5   0  0.7849690E-05  0.1599267E+04  0.7818609E-02  0.8820998E-01
        2   -1    0    0  501    0  0.00000000000E+00  0.00000000000E+00  0.24675513523E+04  0.24675513523E+04  0.25500000920E-02 0.  1.
       -2   -1    0    0    0  501  0.00000000000E+00  0.00000000000E+00 -0.25912885957E+03  0.25912885958E+03  0.25500000920E-02 0. -1.
    10030    2    1    2    0    0  0.00000000000E+00  0.00000000000E+00  0.22084224928E+04  0.27266802119E+04  0.15992670419E+04 0.  0.
        3    1    3    3  502    0  0.34623649294E+03  0.38258484100E+03  0.62703649993E+02  0.51979094599E+03  0.10100000352E+00 0. -1.
       -3    1    3    3    0  502 -0.34623649294E+03 -0.38258484100E+03  0.21457188428E+04  0.22068892659E+04  0.10100000352E+00 0.  1.
</event>
<event>
 5   0  0.8037548E-05  0.1593858E+04  0.7818609E-02  0.8824330E-01
        2   -1    0    0  501    0  0.00000000000E+00  0.00000000000E+00  0.12318949126E+04  0.12318949126E+04  0.25500000920E-02 0.  1.
       -2   -1    0    0    0  501  0.00000000000E+00  0.00000000000E+00 -0.51554362723E+03  0.51554362723E+03  0.25500000920E-02 0. -1.
    10030    2    1    2    0    0  0.00000000000E+00  0.00000000000E+00  0.71635128535E+03  0.17474385398E+04  0.15938576744E+04 0.  0.
        5    1    3    3  502    0 -0.64709310412E+03  0.35500461476E+03  0.28691858362E+02  0.73864949376E+03  0.46999998093E+01 0. -1.
       -5    1    3    3    0  502  0.64709310412E+03 -0.35500461476E+03  0.68765942699E+03  0.10087890460E+04  0.46999998093E+01 0.  1.
</event>
<event>
 5   0  0.8037548E-05  0.1606136E+04  0.7818609E-02  0.8816787E-01
       -2   -1    0    0    0  501  0.00000000000E+00  0.00000000000E+00  0.68879528404E+03  0.68879528404E+03  0.25500000920E-02 0. -1.
        2   -1    0    0  501    0  0.00000000000E+00  0.00000000000E+00 -0.93629878166E+03  0.93629878166E+03  0.25500000920E-02 0.  1.
    10030    2    1    2    0    0  0.00000000000E+00  0.00000000000E+00 -0.24750349762E+03  0.16250940657E+04  0.16061359659E+04 0.  0.
        5    1    3    3  502    0  0.52469664325E+03  0.41023083106E+03 -0.57771248625E+03  0.88168572007E+03  0.46999998093E+01 0.  1.
       -5    1    3    3    0  502 -0.52469664325E+03 -0.41023083106E+03  0.33020898863E+03  0.74340834564E+03  0.46999998093E+01 0. -1.
</event>
<event>
 5   0  0.7849690E-05  0.1599256E+04  0.7818609E-02  0.8821005E-01
       -2   -1    0    0    0  501  0.00000000000E+00  0.00000000000E+00  0.67612347190E+03  0.67612347191E+03  0.25500000920E-02 0. -1.
        2   -1    0    0  501    0  0.00000000000E+00  0.00000000000E+00 -0.94569271457E+03  0.94569271457E+03  0.25500000920E-02 0.  1.
    10030    2    1    2    0    0  0.00000000000E+00  0.00000000000E+00 -0.26956924267E+03  0.16218161865E+04  0.15992561290E+04 0.  0.
        3    1    3    3  502    0 -0.37553624390E+03  0.33875296078E+03  0.49332650590E+03  0.70650696425E+03  0.10100000352E+00 0. -1.
       -3    1    3    3    0  502  0.37553624390E+03 -0.33875296078E+03 -0.76289574857E+03  0.91530922223E+03  0.10100000352E+00 0.  1.
</event>
<event>
 5   0  0.4504463E-05  0.1596003E+04  0.7818609E-02  0.8823007E-01
       -1   -1    0    0    0  501  0.00000000000E+00  0.00000000000E+00  0.99706149646E+03  0.99706149647E+03  0.50400001928E-02 0. -1.
        1   -1    0    0  501    0  0.00000000000E+00  0.00000000000E+00 -0.63868290378E+03  0.63868290380E+03  0.50400001928E-02 0.  1.
    10030    2    1    2    0    0  0.00000000000E+00  0.00000000000E+00  0.35837859268E+03  0.16357444003E+04  0.15960026715E+04 0.  0.
        1    1    3    3  502    0 -0.16882599635E+03  0.13316810778E+02  0.97843225772E+03  0.99297997838E+03  0.50400001928E-02 0. -1.
       -1    1    3    3    0  502  0.16882599635E+03 -0.13316810778E+02 -0.62005366504E+03  0.64276442189E+03  0.50400001928E-02 0.  1.
</event>
<event>
 5   0  0.4211419E-05  0.1600464E+04  0.7818609E-02  0.8820263E-01
       -1   -1    0    0    0  501  0.00000000000E+00  0.00000000000E+00  0.13167210341E+04  0.13167210341E+04  0.50400001928E-02 0. -1.
        1   -1    0    0  501    0  0.00000000000E+00  0.00000000000E+00 -0.48633777274E+03  0.48633777277E+03  0.50400001928E-02 0.  1.
    10030    2    1    2    0    0  0.00000000000E+00  0.00000000000E+00  0.83038326133E+03  0.18030588068E+04  0.16004639016E+04 0.  0.
        2    1    3    3  502    0 -0.69108760647E+03 -0.11356817268E+03 -0.20945779524E+02  0.70067006169E+03  0.25500000920E-02 0.  1.
       -2    1    3    3    0  502  0.69108760647E+03  0.11356817268E+03  0.85132904085E+03  0.11023887452E+04  0.25500000920E-02 0. -1.
</event>
<event>
 5   0  0.4314657E-05  0.1581068E+04  0.7818609E-02  0.8832264E-01
        1   -1    0    0  501    0  0.00000000000E+00  0.00000000000E+00  0.14402214066E+04  0.14402214066E+04  0.50400001928E-02 0. -1.
       -1   -1    0    0    0  501  0.00000000000E+00  0.00000000000E+00 -0.43392236824E+03  0.43392236827E+03  0.50400001928E-02 0.  1.
    10030    2    1    2    0    0  0.00000000000E+00  0.00000000000E+00  0.10062990384E+04  0.18741437749E+04  0.15810683522E+04 0.  0.
        5    1    3    3  502    0  0.11999268192E+03 -0.56973488013E+03  0.11369888315E+04  0.12774043097E+04  0.46999998093E+01 0. -1.
       -5    1    3    3    0  502 -0.11999268192E+03  0.56973488013E+03 -0.13068979314E+03  0.59673946524E+03  0.46999998093E+01 0.  1.
</event>
<event>
 5   0  0.7901257E-05  0.1598281E+04  0.7818609E-02  0.8821605E-01
       -2   -1    0    0    0  501  0.00000000000E+00  0.00000000000E+00  0.62210200166E+03  0.62210200167E+03  0.25500000920E-02 0. -1.
        2   -1    0    0  501    0  0.00000000000E+00  0.00000000000E+00 -0.10265613064E+04  0.10265613064E+04  0.25500000920E-02 0.  1.
    10030    2    1    2    0    0  0.00000000000E+00  0.00000000000E+00 -0.40445930475E+03  0.16486633081E+04  0.15982813814E+04 0.  0.
        2    1    3    3  502    0 -0.56436282805E+03 -0.25488984397E+03 -0.72327783828E+03  0.95215810956E+03  0.25500000920E-02 0.  1.
       -2    1    3    3    0  502  0.56436282805E+03  0.25488984397E+03  0.31881853353E+03  0.69650519853E+03  0.25500000920E-02 0. -1.
</event>
<event>
 5   0  0.4256406E-05  0.1601565E+04  0.7818609E-02  0.8819587E-01
       -1   -1    0    0    0  501  0.00000000000E+00  0.00000000000E+00  0.90839635918E+03  0.90839635920E+03  0.50400001928E-02 0. -1.
        1   -1    0    0  501    0  0.00000000000E+00  0.00000000000E+00 -0.70591746311E+03  0.70591746312E+03  0.50400001928E-02 0.  1.
    10030    2    1    2    0    0  0.00000000000E+00  0.00000000000E+00  0.20247889608E+03  0.16143138223E+04  0.16015653011E+04 0.  0.
        3    1    3    3  502    0 -0.24341540291E+03 -0.29159196425E+03  0.81181618235E+03  0.89628257604E+03  0.10100000352E+00 0. -1.
       -3    1    3    3    0  502  0.24341540291E+03  0.29159196425E+03 -0.60933728627E+03  0.71803124628E+03  0.10100000352E+00 0.  1.
</event>
<event>
 5   0  0.4373026E-05  0.1601133E+04  0.7818609E-02  0.8819852E-01
       -1   -1    0    0    0  501  0.00000000000E+00  0.00000000000E+00  0.97997127211E+03  0.97997127212E+03  0.50400001928E-02 0. -1.
        1   -1    0    0  501    0  0.00000000000E+00  0.00000000000E+00 -0.65400535712E+03  0.65400535714E+03  0.50400001928E-02 0.  1.
    10030    2    1    2    0    0  0.00000000000E+00  0.00000000000E+00  0.32596591499E+03  0.16339766293E+04  0.16011326763E+04 0.  0.
        4    1    3    3  502    0 -0.64675519597E+03  0.51779118525E+02  0.64157142172E+03  0.91246307470E+03  0.12699999809E+01 0. -1.
       -4    1    3    3    0  502  0.64675519597E+03 -0.51779118525E+02 -0.31560550674E+03  0.72151355456E+03  0.12699999809E+01 0.  1.
</event>
<event>
 5   0  0.8620155E-05  0.1605529E+04  0.7818609E-02  0.8817159E-01
        2   -1    0    0  501    0  0.00000000000E+00  0.00000000000E+00  0.65491906049E+03  0.65491906050E+03  0.25500000920E-02 0.  1.
       -2   -1    0    0    0  501  0.00000000000E+00  0.00000000000E+00 -0.98398530416E+03  0.98398530417E+03  0.25500000920E-02 0. -1.
    10030    2    1    2    0    0  0.00000000000E+00  0.00000000000E+00 -0.32906624367E+03  0.16389043647E+04  0.16055288611E+04 0.  0.
        4    1    3    3  502    0  0.52235680706E+03  0.94667745997E+02 -0.77922246522E+03  0.94287214363E+03  0.12699999809E+01 0. -1.
       -4    1    3    3    0  502 -0.52235680706E+03 -0.94667745997E+02  0.45015622156E+03  0.69603222104E+03  0.12699999809E+01 0.  1.
</event>
<event>
 5   0  0.4373026E-05  0.1593686E+04  0.7818609E-02  0.8824437E-01
        1   -1    0    0  501    0  0.00000000000E+00  0.00000000000E+00  0.36403048240E+03  0.36403048244E+03  0.50400001928E-02 0.  1.
       -1   -1    0    0    0  501  0.00000000000E+00  0.00000000000E+00 -0.17442455420E+04  0.17442455421E+04  0.50400001928E-02 0. -1.
    10030    2    1    2    0    0  0.00000000000E+00  0.00000000000E+00 -0.13802150596E+04  0.21082760245E+04  0.15936857233E+04 0.  0.
        4    1    3    3  502    0  0.24453812466E+03 -0.22643108311E+03  0.26740309151E+03  0.42728907786E+03  0.12699999809E+01 0.  1.
       -4    1    3    3    0  502 -0.24453812466E+03  0.22643108311E+03 -0.16476181512E+04  0.16809869466E+04  0.12699999809E+01 0. -1.
</event>
<event>
 5   0  0.4373026E-05  0.1599651E+04  0.7818609E-02  0.8820762E-01
        1   -1    0    0  501    0  0.00000000000E+00  0.00000000000E+00  0.65054710865E+03  0.65054710867E+03  0.50400001928E-02 0. -1.
       -1   -1    0    0    0  501  0.00000000000E+00  0.00000000000E+00 -0.98335856598E+03  0.98335856600E+03  0.50400001928E-02 0.  1.
    10030    2    1    2    0    0  0.00000000000E+00  0.00000000000E+00 -0.33281145734E+03  0.16339056747E+04  0.15996513019E+04 0.  0.
        4    1    3    3  502    0  0.48970529583E+03 -0.83872915766E+01  0.47946202386E+03  0.68539555633E+03  0.12699999809E+01 0. -1.
       -4    1    3    3    0  502 -0.48970529583E+03  0.83872915766E+01 -0.81227348120E+03  0.94851011833E+03  0.12699999809E+01 0.  1.
</event>
<event>
 5   0  0.4504463E-05  0.1600738E+04  0.7818609E-02  0.8820095E-01
       -1   -1    0    0    0  501  0.00000000000E+00  0.00000000000E+00  0.14495281043E+04  0.14495281043E+04  0.50400001928E-02 0. -1.
        1   -1    0    0  501    0  0.00000000000E+00  0.00000000000E+00 -0.44193060881E+03  0.44193060883E+03  0.50400001928E-02 0.  1.
    10030    2    1    2    0    0  0.00000000000E+00  0.00000000000E+00  0.10075974955E+04  0.18914587131E+04  0.16007383767E+04 0.  0.
        1    1    3    3  502    0 -0.55695070754E+03  0.41766341783E+03  0.97043104106E+03  0.11943086815E+04  0.50400001928E-02 0. -1.
       -1    1    3    3    0  502  0.55695070754E+03 -0.41766341783E+03  0.37166454403E+02  0.69715003162E+03  0.50400001928E-02 0.  1.
</event>
<event>
 5   0  0.8694033E-05  0.1597975E+04  0.7818609E-02  0.8821793E-01
       -2   -1    0    0    0  501  0.00000000000E+00  0.00000000000E+00  0.11027280447E+04  0.11027280447E+04  0.25500000920E-02 0.  1.
        2   -1    0    0  501    0  0.00000000000E+00  0.00000000000E+00 -0.57891101431E+03  0.57891101431E+03  0.25500000920E-02 0. -1.
    10030    2    1    2    0    0  0.00000000000E+00  0.00000000000E+00  0.52381703035E+03  0.16816390590E+04  0.15979754827E+04 0.  0.
        1    1    3    3  502    0  0.77005653887E+02 -0.45749245511E+03  0.94646765387E+03  0.10540541908E+04  0.50400001928E-02 0.  1.
       -1    1    3    3    0  502 -0.77005653887E+02  0.45749245511E+03 -0.42265062353E+03  0.62758486821E+03  0.50400001928E-02 0. -1.
</event>
<event>
 5   0  0.4256406E-05  0.1612998E+04  0.7818609E-02  0.8812603E-01
       -1   -1    0    0    0  501  0.00000000000E+00  0.00000000000E+00  0.15361730303E+04  0.15361730303E+04  0.50400001928E-02 0. -1.
        1   -1    0    0  501    0  0.00000000000E+00  0.00000000000E+00 -0.42341612469E+03  0.42341612472E+03  0.50400001928E-02 0.  1.
    10030    2    1    2    0    0  0.00000000000E+00  0.00000000000E+00  0.11127569056E+04  0.19595891550E+04  0.16129977451E+04 0.  0.
        3    1    3    3  502    0  0.52194663229E+03  0.20573465216E+03 -0.14749969915E+03  0.58009585889E+03  0.10100000352E+00 0.  1.
       -3    1    3    3    0  502 -0.52194663229E+03 -0.20573465216E+03  0.12602566048E+04  0.13794932961E+04  0.10100000352E+00 0. -1.
</event>
<event>
 5   0  0.7901257E-05  0.1598846E+04  0.7818609E-02  0.8821257E-01
       -2   -1    0    0    0  501  0.00000000000E+00  0.00000000000E+00  0.39833005193E+03  0.39833005194E+03  0.25500000920E-02 0. -1.
        2   -1    0    0  501    0  0.00000000000E+00  0.00000000000E+00 -0.16043918696E+04  0.16043918696E+04  0.25500000920E-02 0.  1.
    10030    2    1    2    0    0  0.00000000000E+00  0.00000000000E+00 -0.12060618177E+04  0.20027219215E+04  0.15988464551E+04 0.  0.
        2    1    3    3  502    0  0.69145367757E+03 -0.12546617436E+03 -0.10803825225E+04  0.12888275075E+04  0.25500000920E-02 0. -1.
       -2    1    3    3    0  502 -0.69145367757E+03  0.12546617436E+03 -0.12567929511E+03  0.71389441401E+03  0.25500000920E-02 0.  1.
</event>
<event>
 5   0  0.7849690E-05  0.1599377E+04  0.7818609E-02  0.8820931E-01
       -2   -1    0    0    0  501  0.00000000000E+00  0.00000000000E+00  0.31369928867E+03  0.31369928868E+03  0.25500000920E-02 0.  1.
        2   -1    0    0  501    0  0.00000000000E+00  0.00000000000E+00 -0.20385822506E+04  0.20385822506E+04  0.25500000920E-02 0. -1.
    10030    2    1    2    0    0  0.00000000000E+00  0.00000000000E+00 -0.17248829620E+04  0.23522815393E+04  0.15993771312E+04 0.  0.
        3    1    3    3  502    0  0.40750891017E+03 -0.59426063730E+03 -0.13725444235E+04  0.15501894793E+04  0.10100000352E+00 0. -1.
       -3    1    3    3    0  502 -0.40750891017E+03  0.59426063730E+03 -0.35233853845E+03  0.80209206005E+03  0.10100000352E+00 0.  1.
</event>
<event>
 5   0  0.3042125E-05  0.1601069E+04  0.7818609E-02  0.8819891E-01
        3   -1    0    0  501    0  0.00000000000E+00  0.00000000000E+00  0.94814362291E+03  0.94814362828E+03  0.10100000352E+00 0. -1.
       -3   -1    0    0    0  501  0.00000000000E+00  0.00000000000E+00 -0.67590582929E+03  0.67590583684E+03  0.10100000352E+00 0.  1.
    10030    2    1    2    0    0  0.00000000000E+00  0.00000000000E+00  0.27223779362E+03  0.16240494651E+04  0.16010694079E+04 0.  0.
        3    1    3    3  502    0  0.45260731587E+03  0.10702363530E+03  0.79704465476E+03  0.92281505881E+03  0.10100000352E+00 0. -1.
       -3    1    3    3    0  502 -0.45260731587E+03 -0.10702363530E+03 -0.52480686114E+03  0.70123440631E+03  0.10100000352E+00 0.  1.
</event>
<event>
 5   0  0.4314657E-05  0.1599888E+04  0.7818609E-02  0.8820617E-01
       -1   -1    0    0    0  501  0.00000000000E+00  0.00000000000E+00  0.47237344882E+03  0.47237344885E+03  0.50400001928E-02 0.  1.
        1   -1    0    0  501    0  0.00000000000E+00  0.00000000000E+00 -0.13546711659E+04  0.13546711659E+04  0.50400001928E-02 0. -1.
    10030    2    1    2    0    0  0.00000000000E+00  0.00000000000E+00 -0.88229771707E+03  0.18270446148E+04  0.15998883595E+04 0.  0.
        5    1    3    3  502    0 -0.44936815834E+03 -0.58489583186E+03 -0.87588169964E+02  0.74278439225E+03  0.46999998093E+01 0.  1.
       -5    1    3    3    0  502  0.44936815834E+03  0.58489583186E+03 -0.79470954711E+03  0.10842602225E+04  0.46999998093E+01 0. -1.
</event>
<event>
 5   0  0.8620155E-05  0.1599653E+04  0.7818609E-02  0.8820761E-01
       -2   -1    0    0    0  501  0.00000000000E+00  0.00000000000E+00  0.38269580832E+03  0.38269580833E+03  0.25500000920E-02 0.  1.
        2   -1    0    0  501    0  0.00000000000E+00  0.00000000000E+00 -0.16716207617E+04  0.16716207617E+04  0.25500000920E-02 0. -1.
    10030    2    1    2    0    0  0.00000000000E+00  0.00000000000E+00 -0.12889249534E+04  0.20543165700E+04  0.15996527856E+04 0.  0.
        4    1    3    3  502    0  0.56500488167E+03 -0.44519713488E+03 -0.19536927929E+03  0.74538699574E+03  0.12699999809E+01 0.  1.
       -4    1    3    3    0  502 -0.56500488167E+03  0.44519713488E+03 -0.10935556741E+04  0.13089295743E+04  0.12699999809E+01 0. -1.
</event>
<event>
 5   0  0.8620155E-05  0.1604736E+04  0.7818609E-02  0.8817644E-01
        2   -1    0    0  501    0  0.00000000000E+00  0.00000000000E+00  0.85741509071E+03  0.85741509071E+03  0.25500000920E-02 0.  1.
       -2   -1    0    0    0  501  0.00000000000E+00  0.00000000000E+00 -0.75085483468E+03  0.75085483469E+03  0.25500000920E-02 0. -1.
    10030    2    1    2    0    0  0.00000000000E+00  0.00000000000E+00  0.10656025603E+03  0.16082699254E+04  0.16047358240E+04 0.  0.
        4    1    3    3  502    0 -0.43750735217E+03 -0.45539000262E+03  0.54934486973E+03  0.83700306839E+03  0.12699999809E+01 0.  1.
       -4    1    3    3    0  502  0.43750735217E+03  0.45539000262E+03 -0.44278461371E+03  0.77126685701E+03  0.12699999809E+01 0. -1.
</event>
<event>
 5   0  0.7901257E-05  0.1599921E+04  0.7818609E-02  0.8820596E-01
       -2   -1    0    0    0  501  0.00000000000E+00  0.00000000000E+00  0.72820785950E+03  0.72820785950E+03  0.25500000920E-02 0.  1.
        2   -1    0    0  501    0  0.00000000000E+00  0.00000000000E+00 -0.87878330441E+03  0.87878330441E+03  0.25500000920E-02 0. -1.
    10030    2    1    2    0    0  0.00000000000E+00  0.00000000000E+00 -0.15057544491E+03  0.16069911639E+04  0.15999211344E+04 0.  0.
        2    1    3    3  502    0  0.48401112845E+03  0.80840797589E+02  0.55927530785E+03  0.74403687879E+03  0.25500000920E-02 0.  1.
       -2    1    3    3    0  502 -0.48401112845E+03 -0.80840797589E+02 -0.70985075276E+03  0.86295428513E+03  0.25500000920E-02 0. -1.
</event>
<event>
 5   0  0.4314657E-05  0.1599391E+04  0.7818609E-02  0.8820922E-01
       -1   -1    0    0    0  501  0.00000000000E+00  0.00000000000E+00  0.96186965506E+03  0.96186965507E+03  0.50400001928E-02 0. -1.
        1   -1    0    0  501    0  0.00000000000E+00  0.00000000000E+00 -0.66486430587E+03  0.66486430589E+03  0.50400001928E-02 0.  1.
    10030    2    1    2    0    0  0.00000000000E+00  0.00000000000E+00  0.29700534919E+03  0.16267339610E+04  0.15993908848E+04 0.  0.
        5    1    3    3  502    0  0.64924588351E+03 -0.44508267095E+03  0.51249395635E+01  0.78718940303E+03  0.46999998093E+01 0.  1.
       -5    1    3    3    0  502 -0.64924588351E+03  0.44508267095E+03  0.29188040963E+03  0.83954455793E+03  0.46999998093E+01 0. -1.
</event>
<event>
 5   0  0.7849690E-05  0.1598697E+04  0.7818609E-02  0.8821349E-01
        2   -1    0    0  501    0  0.00000000000E+00  0.00000000000E+00  0.20755976309E+04  0.20755976309E+04  0.25500000920E-02 0.  1.
       -2   -1    0    0    0  501  0.00000000000E+00  0.00000000000E+00 -0.30784286153E+03  0.30784286154E+03  0.25500000920E-02 0. -1.
    10030    2    1    2    0    0  0.00000000000E+00  0.00000000000E+00  0.17677547694E+04  0.23834404925E+04  0.15986968620E+04 0.  0.
        3    1    3    3  502    0 -0.64829439607E+03  0.71945953218E+01  0.15809590340E+04  0.17087331165E+04  0.10100000352E+00 0.  1.
       -3    1    3    3    0  502  0.64829439607E+03 -0.71945953218E+01  0.18679573542E+03  0.67470737594E+03  0.10100000352E+00 0. -1.
</event>
<event>
 5   0  0.3042125E-05  0.1600825E+04  0.7818609E-02  0.8820042E-01
        3   -1    0    0  501    0  0.00000000000E+00  0.00000000000E+00  0.67720342579E+03  0.67720343332E+03  0.10100000352E+00 0.  1.
       -3   -1    0    0    0  501  0.00000000000E+00  0.00000000000E+00 -0.94603766158E+03  0.94603766698E+03  0.10100000352E+00 0. -1.
    10030    2    1    2    0    0  0.00000000000E+00  0.00000000000E+00 -0.26883423580E+03  0.16232411003E+04  0.16008247322E+04 0.  0.
        2    1    3    3  502    0 -0.57347645056E+03 -0.25130604390E+03  0.37119328419E+03  0.72788352178E+03  0.25500000920E-02 0.  1.
       -2    1    3    3    0  502  0.57347645056E+03  0.25130604390E+03 -0.64002751999E+03  0.89535757851E+03  0.25500000920E-02 0. -1.
</event>
<event>
 5   0  0.4256406E-05  0.1595383E+04  0.7818609E-02  0.8823390E-01
       -1   -1    0    0    0  501  0.00000000000E+00  0.00000000000E+00  0.60170529431E+03  0.60170529433E+03  0.50400001928E-02 0. -1.
        1   -1    0    0  501    0  0.00000000000E+00  0.00000000000E+00 -0.10575134628E+04  0.10575134628E+04  0.50400001928E-02 0.  1.
    10030    2    1    2    0    0  0.00000000000E+00  0.00000000000E+00 -0.45580816846E+03  0.16592187571E+04  0.15953826492E+04 0.  0.
        3    1    3    3  502    0  0.73498871658E+03  0.23211805790E+03 -0.14196631305E+02  0.77090126530E+03  0.10100000352E+00 0. -1.
       -3    1    3    3    0  502 -0.73498871658E+03 -0.23211805790E+03 -0.44161153716E+03  0.88831749181E+03  0.10100000352E+00 0.  1.
</event>
<event>
 5   0  0.3042125E-05  0.1596970E+04  0.7818609E-02  0.8822412E-01
        3   -1    0    0  501    0  0.00000000000E+00  0.00000000000E+00  0.15358652085E+04  0.15358652119E+04  0.10100000352E+00 0. -1.
       -3   -1    0    0    0  501  0.00000000000E+00  0.00000000000E+00 -0.41512648574E+03  0.41512649803E+03  0.10100000352E+00 0.  1.
    10030    2    1    2    0    0  0.00000000000E+00  0.00000000000E+00  0.11207387228E+04  0.19509917099E+04  0.15969700584E+04 0.  0.
        4    1    3    3  502    0 -0.47842363785E+03  0.63880389534E+03  0.59071866478E+03  0.99292988059E+03  0.12699999809E+01 0.  1.
       -4    1    3    3    0  502  0.47842363785E+03 -0.63880389534E+03  0.53002005803E+03  0.95806182930E+03  0.12699999809E+01 0. -1.
</event>
<event>
 5   0  0.8620155E-05  0.1599216E+04  0.7818609E-02  0.8821030E-01
        2   -1    0    0  501    0  0.00000000000E+00  0.00000000000E+00  0.86119441524E+03  0.86119441525E+03  0.25500000920E-02 0.  1.
       -2   -1    0    0    0  501  0.00000000000E+00  0.00000000000E+00 -0.74242558252E+03  0.74242558253E+03  0.25500000920E-02 0. -1.
    10030    2    1    2    0    0  0.00000000000E+00  0.00000000000E+00  0.11876883272E+03  0.16036199978E+04  0.15992157646E+04 0.  0.
        4    1    3    3  502    0 -0.79324818086E+02 -0.49088333047E+03 -0.56852879945E+03  0.75530489182E+03  0.12699999809E+01 0. -1.
       -4    1    3    3    0  502  0.79324818086E+02  0.49088333047E+03  0.68729763217E+03  0.84831510596E+03  0.12699999809E+01 0.  1.
</event>
<event>
 5   0  0.4373026E-05  0.1599403E+04  0.7818609E-02  0.8820915E-01
        1   -1    0    0  501    0  0.00000000000E+00  0.00000000000E+00  0.55284603860E+03  0.55284603862E+03  0.50400001928E-02 0.  1.
       -1   -1    0    0    0  501  0.00000000000E+00  0.00000000000E+00 -0.11567825506E+04  0.11567825506E+04  0.50400001928E-02 0. -1.
    10030    2    1    2    0    0  0.00000000000E+00  0.00000000000E+00 -0.60393651196E+03  0.17096285892E+04  0.15994032020E+04 0.  0.
        4    1    3    3  502    0 -0.41561769704E+03  0.20107143226E+03  0.39598863244E+03  0.60825685437E+03  0.12699999809E+01 0.  1.
       -4    1    3    3    0  502  0.41561769704E+03 -0.20107143226E+03 -0.99992514439E+03  0.11013717348E+04  0.12699999809E+01 0. -1.
</event>
<event>
 5   0  0.4256406E-05  0.1600343E+04  0.7818609E-02  0.8820337E-01
        1   -1    0    0  501    0  0.00000000000E+00  0.00000000000E+00  0.79522704112E+03  0.79522704113E+03  0.50400001928E-02 0.  1.
       -1   -1    0    0    0  501  0.00000000000E+00  0.00000000000E+00 -0.80514658594E+03  0.80514658596E+03  0.50400001928E-02 0. -1.
    10030    2    1    2    0    0  0.00000000000E+00  0.00000000000E+00 -0.99195448296E+01  0.16003736271E+04  0.16003428848E+04 0.  0.
        3    1    3    3  502    0  0.75703024525E+03 -0.12014887105E+03  0.22470478735E+03  0.79876329103E+03  0.10100000352E+00 0.  1.
       -3    1    3    3    0  502 -0.75703024525E+03  0.12014887105E+03 -0.23462433218E+03  0.80161033606E+03  0.10100000352E+00 0. -1.
</event>
<event>
 5   0  0.7901257E-05  0.1598260E+04  0.7818609E-02  0.8821617E-01
        2   -1    0    0  501    0  0.00000000000E+00  0.00000000000E+00  0.21484724292E+04  0.21484724292E+04  0.25500000920E-02 0.  1.
       -2   -1    0    0    0  501  0.00000000000E+00  0.00000000000E+00 -0.29723861761E+03  0.29723861762E+03  0.25500000920E-02 0. -1.
    10030    2    1    2    0    0  0.00000000000E+00  0.00000000000E+00  0.18512338116E+04  0.24457110468E+04  0.15982602727E+04 0.  0.
        2    1    3    3  502    0 -0.15717130539E+03 -0.67982813003E+03  0.15217009451E+04  0.16740498416E+04  0.25500000920E-02 0. -1.
       -2    1    3    3    0  502  0.15717130539E+03  0.67982813003E+03  0.32953286644E+03  0.77166120525E+03  0.25500000920E-02 0.  1.
</event>
<event>
 5   0  0.4256406E-05  0.1596794E+04  0.7818609E-02  0.8822520E-01
       -1   -1    0    0    0  501  0.00000000000E+00  0.00000000000E+00  0.60726169063E+03  0.60726169065E+03  0.50400001928E-02 0. -1.
        1   -1    0    0  501    0  0.00000000000E+00  0.00000000000E+00 -0.10496923433E+04  0.10496923433E+04  0.50400001928E-02 0.  1.
    10030    2    1    2    0    0  0.00000000000E+00  0.00000000000E+00 -0.44243065264E+03  0.16569540339E+04  0.15967942222E+04 0.  0.
        3    1    3    3  502    0 -0.59524449740E+02 -0.48317634901E+03  0.43542528032E+03  0.65314449343E+03  0.10100000352E+00 0. -1.
       -3    1    3    3    0  502  0.59524449740E+02  0.48317634901E+03 -0.87785593296E+03  0.10038095405E+04  0.10100000352E+00 0.  1.
</event>
<event>
 5   0  0.8620155E-05  0.1599207E+04  0.7818609E-02  0.8821035E-01
       -2   -1    0    0    0  501  0.00000000000E+00  0.00000000000E+00  0.14028481833E+04  0.14028481833E+04  0.25500000920E-02 0. -1.
        2   -1    0    0  501    0  0.00000000000E+00  0.00000000000E+00 -0.45576276365E+03  0.45576276366E+03  0.25500000920E-02 0.  1.
    10030    2    1    2    0    0  0.00000000000E+00  0.00000000000E+00  0.94708541968E+03  0.18586109470E+04  0.15992072599E+04 0.  0.
        4    1    3    3  502    0 -0.70470257846E+03  0.37117830772E+03  0.39148317790E+03  0.88749070513E+03  0.12699999809E+01 0.  1.
       -4    1    3    3    0  502  0.70470257846E+03 -0.37117830772E+03  0.55560224178E+03  0.97112024187E+03  0.12699999809E+01 0. -1.
</event>
<event>
 5   0  0.8694033E-05  0.1598773E+04  0.7818609E-02  0.8821302E-01
       -2   -1    0    0    0  501  0.00000000000E+00  0.00000000000E+00  0.48716718841E+03  0.48716718842E+03  0.25500000920E-02 0.  1.
        2   -1    0    0  501    0  0.00000000000E+00  0.00000000000E+00 -0.13117036300E+04  0.13117036300E+04  0.25500000920E-02 0. -1.
    10030    2    1    2    0    0  0.00000000000E+00  0.00000000000E+00 -0.82453644163E+03  0.17988708185E+04  0.15987732416E+04 0.  0.
        1    1    3    3  502    0  0.39372378924E+02 -0.63998293396E+03 -0.94939442427E+03  0.11456343714E+04  0.50400001928E-02 0. -1.
       -1    1    3    3    0  502 -0.39372378924E+02  0.63998293396E+03  0.12485798264E+03  0.65323644711E+03  0.50400001928E-02 0.  1.
</event>
<event>
 5   0  0.7849690E-05  0.1601047E+04  0.7818609E-02  0.8819905E-01
       -2   -1    0    0    0  501  0.00000000000E+00  0.00000000000E+00  0.41028701559E+03  0.41028701560E+03  0.25500000920E-02 0. -1.
        2   -1    0    0  501    0  0.00000000000E+00  0.00000000000E+00 -0.15619256917E+04  0.15619256917E+04  0.25500000920E-02 0.  1.
    10030    2    1    2    0    0  0.00000000000E+00  0.00000000000E+00 -0.11516386761E+04  0.19722127073E+04  0.16010469457E+04 0.  0.
        3    1    3    3  502    0  0.14968706244E+03  0.67216213694E+03 -0.72983934988E+02  0.69248452688E+03  0.10100000352E+00 0. -1.
       -3    1    3    3    0  502 -0.14968706244E+03 -0.67216213694E+03 -0.10786547411E+04  0.12797281804E+04  0.10100000352E+00 0.  1.
</event>
<event>
 5   0  0.7849690E-05  0.1598599E+04  0.7818609E-02  0.8821409E-01
        2   -1    0    0  501    0  0.00000000000E+00  0.00000000000E+00  0.73086179042E+03  0.73086179043E+03  0.25500000920E-02 0.  1.
       -2   -1    0    0    0  501  0.00000000000E+00  0.00000000000E+00 -0.87414549190E+03  0.87414549190E+03  0.25500000920E-02 0. -1.
    10030    2    1    2    0    0  0.00000000000E+00  0.00000000000E+00 -0.14328370148E+03  0.16050072823E+04  0.15985988106E+04 0.  0.
        3    1    3    3  502    0 -0.25577611480E+03 -0.27840813280E+03  0.63541635070E+03  0.73938248441E+03  0.10100000352E+00 0.  1.
       -3    1    3    3    0  502  0.25577611480E+03  0.27840813280E+03 -0.77870005218E+03  0.86562479792E+03  0.10100000352E+00 0. -1.
</event>
<event>
 5   0  0.8037548E-05  0.1602410E+04  0.7818609E-02  0.8819069E-01
       -2   -1    0    0    0  501  0.00000000000E+00  0.00000000000E+00  0.11485778013E+04  0.11485778013E+04  0.25500000920E-02 0. -1.
        2   -1    0    0  501    0  0.00000000000E+00  0.00000000000E+00 -0.55889087090E+03  0.55889087091E+03  0.25500000920E-02 0.  1.
    10030    2    1    2    0    0  0.00000000000E+00  0.00000000000E+00  0.58968693042E+03  0.17074686722E+04  0.16024102442E+04 0.  0.
        5    1    3    3  502    0 -0.14977186698E+03  0.38721373499E+03 -0.43531312373E+03  0.60156935959E+03  0.46999998093E+01 0.  1.
       -5    1    3    3    0  502  0.14977186698E+03 -0.38721373499E+03  0.10250000541E+04  0.11058993126E+04  0.46999998093E+01 0. -1.
</event>
<event>
 5   0  0.4256406E-05  0.1598758E+04  0.7818609E-02  0.8821311E-01
        1   -1    0    0  501    0  0.00000000000E+00  0.00000000000E+00  0.51673012192E+03  0.51673012195E+03  0.50400001928E-02 0. -1.
       -1   -1    0    0    0  501  0.00000000000E+00  0.00000000000E+00 -0.12366358744E+04  0.12366358744E+04  0.50400001928E-02 0.  1.
    10030    2    1    2    0    0  0.00000000000E+00  0.00000000000E+00 -0.71990575247E+03  0.17533659964E+04  0.15987582759E+04 0.  0.
        3    1    3    3  502    0 -0.19682303114E+03  0.70499459281E+03 -0.71235252419E+03  0.10213730026E+04  0.10100000352E+00 0.  1.
       -3    1    3    3    0  502  0.19682303114E+03 -0.70499459281E+03 -0.75532282737E+01  0.73199299377E+03  0.10100000352E+00 0. -1.
</event>
<event>
 5   0  0.4373026E-05  0.1601968E+04  0.7818609E-02  0.8819340E-01
        1   -1    0    0  501    0  0.00000000000E+00  0.00000000000E+00  0.20063470827E+04  0.20063470828E+04  0.50400001928E-02 0.  1.
       -1   -1    0    0    0  501  0.00000000000E+00  0.00000000000E+00 -0.31977302485E+03  0.31977302489E+03  0.50400001928E-02 0. -1.
    10030    2    1    2    0    0  0.00000000000E+00  0.00000000000E+00  0.16865740579E+04  0.23261201076E+04  0.16019683837E+04 0.  0.
        4    1    3    3  502    0  0.53908562842E+03 -0.58466463278E+03  0.98201574598E+03  0.12636465431E+04  0.12699999809E+01 0.  1.
       -4    1    3    3    0  502 -0.53908562842E+03  0.58466463278E+03  0.70455831192E+03  0.10624735646E+04  0.12699999809E+01 0. -1.
</event>
<event>
 5   0  0.8620155E-05  0.1605072E+04  0.7818609E-02  0.8817438E-01
        2   -1    0    0  501    0  0.00000000000E+00  0.00000000000E+00  0.49010734188E+03  0.49010734188E+03  0.25500000920E-02 0. -1.
       -2   -1    0    0    0  501  0.00000000000E+00  0.00000000000E+00 -0.13141292919E+04  0.13141292919E+04  0.25500000920E-02 0.  1.
    10030    2    1    2    0    0  0.00000000000E+00  0.00000000000E+00 -0.82402195002E+03  0.18042366338E+04  0.16050724770E+04 0.  0.
        4    1    3    3  502    0  0.39554832612E+03  0.27218448946E+03 -0.11348591185E+04  0.12322539131E+04  0.12699999809E+01 0.  1.
       -4    1    3    3    0  502 -0.39554832612E+03 -0.27218448946E+03  0.31083716846E+03  0.57198272071E+03  0.12699999809E+01 0. -1.
</event>
<event>
 5   0  0.4256406E-05  0.1601362E+04  0.7818609E-02  0.8819712E-01
        1   -1    0    0  501    0  0.00000000000E+00  0.00000000000E+00  0.46508203661E+03  0.46508203664E+03  0.50400001928E-02 0.  1.
       -1   -1    0    0    0  501  0.00000000000E+00  0.00000000000E+00 -0.13784457007E+04  0.13784457008E+04  0.50400001928E-02 0. -1.
    10030    2    1    2    0    0  0.00000000000E+00  0.00000000000E+00 -0.91336366413E+03  0.18435277374E+04  0.16013623374E+04 0.  0.
        3    1    3    3  502    0 -0.57274026390E+03 -0.23033359233E+03 -0.10436995482E+04  0.12125979263E+04  0.10100000352E+00 0. -1.
       -3    1    3    3    0  502  0.57274026390E+03  0.23033359233E+03  0.13033588410E+03  0.63092981110E+03  0.10100000352E+00 0.  1.
</event>
<event>
 5   0  0.4211419E-05  0.1598109E+04  0.7818609E-02  0.8821711E-01
        1   -1    0    0  501    0  0.00000000000E+00  0.00000000000E+00  0.74254426518E+03  0.74254426520E+03  0.50400001928E-02 0. -1.
       -1   -1    0    0    0  501  0.00000000000E+00  0.00000000000E+00 -0.85986527691E+03  0.85986527693E+03  0.50400001928E-02 0.  1.
    10030    2    1    2    0    0  0.00000000000E+00  0.00000000000E+00 -0.11732101173E+03  0.16024095421E+04  0.15981089202E+04 0.  0.
        2    1    3    3  502    0  0.78723028406E+03 -0.49981487227E+00 -0.19598255392E+03  0.81125885598E+03  0.25500000920E-02 0.  1.
       -2    1    3    3    0  502 -0.78723028406E+03  0.49981487227E+00  0.78661542190E+02  0.79115068614E+03  0.25500000920E-02 0. -1.
</event>
<event>
 5   0  0.4256406E-05  0.1602292E+04  0.7818609E-02  0.8819141E-01
        1   -1    0    0  501    0  0.00000000000E+00  0.00000000000E+00  0.13634150981E+04  0.13634150981E+04  0.50400001928E-02 0.  1.
       -1   -1    0    0    0  501  0.00000000000E+00  0.00000000000E+00 -0.47075525443E+03  0.47075525445E+03  0.50400001928E-02 0. -1.
    10030    2    1    2    0    0  0.00000000000E+00  0.00000000000E+00  0.89265984367E+03  0.18341703526E+04  0.16022918853E+04 0.  0.
        3    1    3    3  502    0  0.70916526894E+03  0.35931591867E+03  0.33294225745E+03  0.86190130821E+03  0.10100000352E+00 0.  1.
       -3    1    3    3    0  502 -0.70916526894E+03 -0.35931591867E+03  0.55971758622E+03  0.97226904436E+03  0.10100000352E+00 0. -1.
</event>
<event>
 5   0  0.4256406E-05  0.1600028E+04  0.7818609E-02  0.8820531E-01
       -1   -1    0    0    0  501  0.00000000000E+00  0.00000000000E+00  0.54220930376E+03  0.54220930378E+03  0.50400001928E-02 0. -1.
        1   -1    0    0  501    0  0.00000000000E+00  0.00000000000E+00 -0.11803975097E+04  0.11803975097E+04  0.50400001928E-02 0.  1.
    10030    2    1    2    0    0  0.00000000000E+00  0.00000000000E+00 -0.63818820593E+03  0.17226068135E+04  0.16000281396E+04 0.  0.
        3    1    3    3  502    0  0.59167389506E+03  0.26361972438E+03 -0.82458431304E+03  0.10485764906E+04  0.10100000352E+00 0.  1.
       -3    1    3    3    0  502 -0.59167389506E+03 -0.26361972438E+03  0.18639610711E+03  0.67403032285E+03  0.10100000352E+00 0. -1.
</event>
<event>
 5   0  0.4314657E-05  0.1603200E+04  0.7818609E-02  0.8818585E-01
       -1   -1    0    0    0  501  0.00000000000E+00  0.00000000000E+00  0.42903871874E+03  0.42903871877E+03  0.50400001928E-02 0. -1.
        1   -1    0    0  501    0  0.00000000000E+00  0.00000000000E+00 -0.14976791194E+04  0.14976791194E+04  0.50400001928E-02 0.  1.
    10030    2    1    2    0    0  0.00000000000E+00  0.00000000000E+00 -0.10686404006E+04  0.19267178381E+04  0.16031997137E+04 0.  0.
        5    1    3    3  502    0  0.42642686012E+03 -0.47017235587E+03 -0.11226334550E+04  0.12896626983E+04  0.46999998093E+01 0.  1.
       -5    1    3    3    0  502 -0.42642686012E+03  0.47017235587E+03  0.53993054331E+02  0.63705513982E+03  0.46999998093E+01 0. -1.
</event>
<event>
 5   0  0.4211419E-05  0.1601012E+04  0.7818609E-02  0.8819927E-01
        1   -1    0    0  501    0  0.00000000000E+00  0.00000000000E+00  0.15282198337E+04  0.15282198337E+04  0.50400001928E-02 0.  1.
       -1   -1    0    0    0  501  0.00000000000E+00  0.00000000000E+00 -0.41931787257E+03  0.41931787260E+03  0.50400001928E-02 0. -1.
    10030    2    1    2    0    0  0.00000000000E+00  0.00000000000E+00  0.11089019611E+04  0.19475377063E+04  0.16010120418E+04 0.  0.
        2    1    3    3  502    0  0.51074498539E+03 -0.15841177563E+03  0.12790818614E+04  0.13863639994E+04  0.25500000920E-02 0.  1.
       -2    1    3    3    0  502 -0.51074498539E+03  0.15841177563E+03 -0.17017990031E+03  0.56117370683E+03  0.25500000920E-02 0. -1.
</event>
<event>
 5   0  0.3042125E-05  0.1599671E+04  0.7818609E-02  0.8820750E-01
        3   -1    0    0  501    0  0.00000000000E+00  0.00000000000E+00  0.10825227058E+04  0.10825227105E+04  0.10100000352E+00 0.  1.
       -3   -1    0    0    0  501  0.00000000000E+00  0.00000000000E+00 -0.59096844054E+03  0.59096844917E+03  0.10100000352E+00 0. -1.
    10030    2    1    2    0    0  0.00000000000E+00  0.00000000000E+00  0.49155426525E+03  0.16734911597E+04  0.15996709242E+04 0.  0.
        5    1    3    3  502    0 -0.27986527055E+03  0.42703960245E+03 -0.39828536012E+03  0.64756521664E+03  0.46999998093E+01 0. -1.
       -5    1    3    3    0  502  0.27986527055E+03 -0.42703960245E+03  0.88983962537E+03  0.10259259430E+04  0.46999998093E+01 0.  1.
</event>
<event>
 5   0  0.4211419E-05  0.1598546E+04  0.7818609E-02  0.8821442E-01
       -1   -1    0    0    0  501  0.00000000000E+00  0.00000000000E+00  0.98018398331E+03  0.98018398332E+03  0.50400001928E-02 0.  1.
        1   -1    0    0  501    0  0.00000000000E+00  0.00000000000E+00 -0.65175247673E+03  0.65175247675E+03  0.50400001928E-02 0. -1.
    10030    2    1    2    0    0  0.00000000000E+00  0.00000000000E+00  0.32843150657E+03  0.16319364601E+04  0.15985460129E+04 0.  0.
        2    1    3    3  502    0 -0.95113093745E+02 -0.49848393133E+03 -0.46618123671E+03  0.68909917709E+03  0.25500000920E-02 0. -1.
       -2    1    3    3    0  502  0.95113093745E+02  0.49848393133E+03  0.79461274328E+03  0.94283728299E+03  0.25500000920E-02 0.  1.
</event>
<event>
 5   0  0.8037548E-05  0.1599014E+04  0.7818609E-02  0.8821154E-01
        2   -1    0    0  501    0  0.00000000000E+00  0.00000000000E+00  0.13273931046E+04  0.13273931046E+04  0.25500000920E-02 0.  1.
       -2   -1    0    0    0  501  0.00000000000E+00  0.00000000000E+00 -0.48155409680E+03  0.48155409681E+03  0.25500000920E-02 0. -1.
    10030    2    1    2    0    0  0.00000000000E+00  0.00000000000E+00  0.84583900780E+03  0.18089472014E+04  0.15990141808E+04 0.  0.
        5    1    3    3  502    0 -0.20631918217E+03 -0.36191500683E+03  0.11948859890E+04  0.12654345869E+04  0.46999998093E+01 0.  1.
       -5    1    3    3    0  502  0.20631918217E+03  0.36191500683E+03 -0.34904698115E+03  0.54351261453E+03  0.46999998093E+01 0. -1.
</event>
<event>
 5   0  0.4256406E-05  0.1601891E+04  0.7818609E-02  0.8819387E-01
       -1   -1    0    0    0  501  0.00000000000E+00  0.00000000000E+00  0.11202415380E+04  0.11202415380E+04  0.50400001928E-02 0.  1.
        1   -1    0    0  501    0  0.00000000000E+00  0.00000000000E+00 -0.57265624272E+03  0.57265624274E+03  0.50400001928E-02 0. -1.
    10030    2    1    2    0    0  0.00000000000E+00  0.00000000000E+00  0.54758529529E+03  0.16928977808E+04  0.16018905208E+04 0.  0.
        3    1    3    3  502    0  0.45442146802E+03  0.29286456491E+03 -0.35075109794E+03  0.64443375678E+03  0.10100000352E+00 0. -1.
       -3    1    3    3    0  502 -0.45442146802E+03 -0.29286456491E+03  0.89833639323E+03  0.10484640240E+04  0.10100000352E+00 0.  1.
</event>
<event>
 5   0  0.8037548E-05  0.1613158E+04  0.7818609E-02  0.8812505E-01
        2   -1    0    0  501    0  0.00000000000E+00  0.00000000000E+00  0.15346931452E+04  0.15346931452E+04  0.25500000920E-02 0. -1.
       -2   -1    0    0    0  501  0.00000000000E+00  0.00000000000E+00 -0.42390844802E+03  0.42390844803E+03  0.25500000920E-02 0.  1.
    10030    2    1    2    0    0  0.00000000000E+00  0.00000000000E+00  0.11107846971E+04  0.19586015932E+04  0.16131576356E+04 0.  0.
        5    1    3    3  502    0  0.47838651451E+03 -0.63907369557E+03  0.69530050943E+03  0.10586471244E+04  0.46999998093E+01 0. -1.
       -5    1    3    3    0  502 -0.47838651451E+03  0.63907369557E+03  0.41548418770E+03  0.89995446877E+03  0.46999998093E+01 0.  1.
</event>
<event>
 5   0  0.4256406E-05  0.1597539E+04  0.7818609E-02  0.8822061E-01
       -1   -1    0    0    0  501  0.00000000000E+00  0.00000000000E+00  0.68521968360E+03  0.68521968362E+03  0.50400001928E-02 0.  1.
        1   -1    0    0  501    0  0.00000000000E+00  0.00000000000E+00 -0.93113619860E+03  0.93113619861E+03  0.50400001928E-02 0. -1.
    10030    2    1    2    0    0  0.00000000000E+00  0.00000000000E+00 -0.24591651500E+03  0.16163558822E+04  0.15975391719E+04 0.  0.
        3    1    3    3  502    0 -0.34463535448E+03  0.14484021983E+03  0.59124606141E+03  0.69951707068E+03  0.10100000352E+00 0.  1.
       -3    1    3    3    0  502  0.34463535448E+03 -0.14484021983E+03 -0.83716257641E+03  0.91683881155E+03  0.10100000352E+00 0. -1.
</event>
<event>
 5   0  0.8620155E-05  0.1599333E+04  0.7818609E-02  0.8820958E-01
        2   -1    0    0  501    0  0.00000000000E+00  0.00000000000E+00  0.67060857986E+03  0.67060857987E+03  0.25500000920E-02 0. -1.
       -2   -1    0    0    0  501  0.00000000000E+00  0.00000000000E+00 -0.95356141542E+03  0.95356141542E+03  0.25500000920E-02 0.  1.
    10030    2    1    2    0    0  0.00000000000E+00  0.00000000000E+00 -0.28295283556E+03  0.16241699953E+04  0.15993329442E+04 0.  0.
        4    1    3    3  502    0  0.54658179867E+03  0.47087919651E+03  0.20882386164E+03  0.75105785292E+03  0.12699999809E+01 0. -1.
       -4    1    3    3    0  502 -0.54658179867E+03 -0.47087919651E+03 -0.49177669720E+03  0.87311214237E+03  0.12699999809E+01 0.  1.
</event>
<event>
 5   0  0.4373026E-05  0.1599155E+04  0.7818609E-02  0.8821067E-01
        1   -1    0    0  501    0  0.00000000000E+00  0.00000000000E+00  0.10425703501E+04  0.10425703501E+04  0.50400001928E-02 0. -1.
       -1   -1    0    0    0  501  0.00000000000E+00  0.00000000000E+00 -0.61321922565E+03  0.61321922567E+03  0.50400001928E-02 0.  1.
    10030    2    1    2    0    0  0.00000000000E+00  0.00000000000E+00  0.42935112444E+03  0.16557895758E+04  0.15991550054E+04 0.  0.
        4    1    3    3  502    0  0.16539251313E+03  0.30711557833E+02  0.10240397067E+04  0.10377652996E+04  0.12699999809E+01 0. -1.
       -4    1    3    3    0  502 -0.16539251313E+03 -0.30711557833E+02 -0.59468858227E+03  0.61802427620E+03  0.12699999809E+01 0.  1.
</event>
<event>
 5   0  0.8620155E-05  0.1604782E+04  0.7818609E-02  0.8817616E-01
       -2   -1    0    0    0  501  0.00000000000E+00  0.00000000000E+00  0.13365667342E+04  0.13365667342E+04  0.25500000920E-02 0.  1.
        2   -1    0    0  501    0  0.00000000000E+00  0.00000000000E+00 -0.48170529415E+03  0.48170529416E+03  0.25500000920E-02 0. -1.
    10030    2    1    2    0    0  0.00000000000E+00  0.00000000000E+00  0.85486144001E+03  0.18182720283E+04  0.16047819439E+04 0.  0.
        4    1    3    3  502    0 -0.55764894635E+03 -0.17216856243E+03 -0.19647416013E+03  0.61580684451E+03  0.12699999809E+01 0. -1.
       -4    1    3    3    0  502  0.55764894635E+03  0.17216856243E+03  0.10513356001E+04  0.12024651838E+04  0.12699999809E+01 0.  1.
</event>
<event>
 5   0  0.7901257E-05  0.1599663E+04  0.7818609E-02  0.8820755E-01
        2   -1    0    0  501    0  0.00000000000E+00  0.00000000000E+00  0.78754255426E+03  0.78754255427E+03  0.25500000920E-02 0. -1.
       -2   -1    0    0    0  501  0.00000000000E+00  0.00000000000E+00 -0.81231239278E+03  0.81231239278E+03  0.25500000920E-02 0.  1.
    10030    2    1    2    0    0  0.00000000000E+00  0.00000000000E+00 -0.24769838515E+02  0.15998549471E+04  0.15996631854E+04 0.  0.
        2    1    3    3  502    0  0.68710279662E+03  0.37956962383E+03 -0.16585436267E+03  0.80230357227E+03  0.25500000920E-02 0. -1.
       -2    1    3    3    0  502 -0.68710279662E+03 -0.37956962383E+03  0.14108452416E+03  0.79755137478E+03  0.25500000920E-02 0.  1.
</event>
<event>
 5   0  0.4504463E-05  0.1603502E+04  0.7818609E-02  0.8818399E-01
        1   -1    0    0  501    0  0.00000000000E+00  0.00000000000E+00  0.26568370151E+04  0.26568370151E+04  0.50400001928E-02 0. -1.
       -1   -1    0    0    0  501  0.00000000000E+00  0.00000000000E+00 -0.24194368539E+03  0.24194368545E+03  0.50400001928E-02 0.  1.
    10030    2    1    2    0    0  0.00000000000E+00  0.00000000000E+00  0.24148933297E+04  0.28987807005E+04  0.16035023405E+04 0.  0.
        1    1    3    3  502    0  0.30032370328E+03  0.27836674452E+03  0.24535343177E+04  0.24874712098E+04  0.50400001928E-02 0. -1.
       -1    1    3    3    0  502 -0.30032370328E+03 -0.27836674452E+03 -0.38640988028E+02  0.41130949076E+03  0.50400001928E-02 0.  1.
</event>
<event>
 5   0  0.3042125E-05  0.1599803E+04  0.7818609E-02  0.8820669E-01
       -3   -1    0    0    0  501  0.00000000000E+00  0.00000000000E+00  0.45850533026E+03  0.45850534138E+03  0.10100000352E+00 0.  1.
        3   -1    0    0  501    0  0.00000000000E+00  0.00000000000E+00 -0.13954958252E+04  0.13954958289E+04  0.10100000352E+00 0. -1.
    10030    2    1    2    0    0  0.00000000000E+00  0.00000000000E+00 -0.93699049497E+03  0.18540011703E+04  0.15998028478E+04 0.  0.
        4    1    3    3  502    0  0.78652328556E+03  0.82988973393E+02 -0.32974405307E+03  0.85687735521E+03  0.12699999809E+01 0. -1.
       -4    1    3    3    0  502 -0.78652328556E+03 -0.82988973393E+02 -0.60724644190E+03  0.99712381505E+03  0.12699999809E+01 0.  1.
</event>
<event>
 5   0  0.4504463E-05  0.1600082E+04  0.7818609E-02  0.8820498E-01
       -1   -1    0    0    0  501  0.00000000000E+00  0.00000000000E+00  0.31341305146E+03  0.31341305150E+03  0.50400001928E-02 0. -1.
        1   -1    0    0  501    0  0.00000000000E+00  0.00000000000E+00 -0.20422418203E+04  0.20422418203E+04  0.50400001928E-02 0.  1.
    10030    2    1    2    0    0  0.00000000000E+00  0.00000000000E+00 -0.17288287688E+04  0.23556548718E+04  0.16000815489E+04 0.  0.
        1    1    3    3  502    0 -0.52058158694E+03  0.56065157185E+03 -0.51999963513E+03  0.92505945443E+03  0.50400001928E-02 0. -1.
       -1    1    3    3    0  502  0.52058158694E+03 -0.56065157185E+03 -0.12088291337E+04  0.14305954174E+04  0.50400001928E-02 0.  1.
</event>
<event>
 5   0  0.8037548E-05  0.1597215E+04  0.7818609E-02  0.8822261E-01
        2   -1    0    0  501    0  0.00000000000E+00  0.00000000000E+00  0.98100439301E+03  0.98100439301E+03  0.25500000920E-02 0.  1.
       -2   -1    0    0    0  501  0.00000000000E+00  0.00000000000E+00 -0.65012350645E+03  0.65012350645E+03  0.25500000920E-02 0. -1.
    10030    2    1    2    0    0  0.00000000000E+00  0.00000000000E+00  0.33088088656E+03  0.16311278995E+04  0.15972150961E+04 0.  0.
        5    1    3    3  502    0 -0.18304344103E+03 -0.86299582936E+01 -0.62834860739E+03  0.65454063273E+03  0.46999998093E+01 0. -1.
       -5    1    3    3    0  502  0.18304344103E+03  0.86299582936E+01  0.95922949395E+03  0.97658726673E+03  0.46999998093E+01 0.  1.
</event>
<event>
 5   0  0.7849690E-05  0.1598811E+04  0.7818609E-02  0.8821279E-01
        2   -1    0    0  501    0  0.00000000000E+00  0.00000000000E+00  0.13456760443E+04  0.13456760443E+04  0.25500000920E-02 0. -1.
       -2   -1    0    0    0  501  0.00000000000E+00  0.00000000000E+00 -0.47489096947E+03  0.47489096948E+03  0.25500000920E-02 0.  1.
    10030    2    1    2    0    0  0.00000000000E+00  0.00000000000E+00  0.87078507481E+03  0.18205670138E+04  0.15988113100E+04 0.  0.
        3    1    3    3  502    0 -0.46339402382E+03  0.49071297549E+03  0.92319793018E+03  0.11436029355E+04  0.10100000352E+00 0. -1.
       -3    1    3    3    0  502  0.46339402382E+03 -0.49071297549E+03 -0.52412855366E+02  0.67696407825E+03  0.10100000352E+00 0.  1.
</event>
<event>
 5   0  0.8037548E-05  0.1602009E+04  0.7818609E-02  0.8819315E-01
        2   -1    0    0  501    0  0.00000000000E+00  0.00000000000E+00  0.16461597135E+04  0.16461597135E+04  0.25500000920E-02 0. -1.
       -2   -1    0    0    0  501  0.00000000000E+00  0.00000000000E+00 -0.38976075650E+03  0.38976075651E+03  0.25500000920E-02 0.  1.
    10030    2    1    2    0    0  0.00000000000E+00  0.00000000000E+00  0.12563989570E+04  0.20359204700E+04  0.16020093074E+04 0.  0.
        5    1    3    3  502    0 -0.58554549544E+03 -0.42002271687E+03  0.18375688810E+03  0.74368763190E+03  0.46999998093E+01 0.  1.
       -5    1    3    3    0  502  0.58554549544E+03  0.42002271687E+03  0.10726420689E+04  0.12922328381E+04  0.46999998093E+01 0. -1.
</event>
<event>
 5   0  0.4211419E-05  0.1599570E+04  0.7818609E-02  0.8820812E-01
       -1   -1    0    0    0  501  0.00000000000E+00  0.00000000000E+00  0.38486802640E+03  0.38486802643E+03  0.50400001928E-02 0.  1.
        1   -1    0    0  501    0  0.00000000000E+00  0.00000000000E+00 -0.16620147088E+04  0.16620147088E+04  0.50400001928E-02 0. -1.
    10030    2    1    2    0    0  0.00000000000E+00  0.00000000000E+00 -0.12771466824E+04  0.20468827353E+04  0.15995703434E+04 0.  0.
        2    1    3    3  502    0  0.72295335433E+03  0.34019000309E+03 -0.59305086646E+03  0.99503774850E+03  0.25500000920E-02 0. -1.
       -2    1    3    3    0  502 -0.72295335433E+03 -0.34019000309E+03 -0.68409581595E+03  0.10518449867E+04  0.25500000920E-02 0.  1.
</event>
<event>
 5   0  0.8620155E-05  0.1599148E+04  0.7818609E-02  0.8821072E-01
        2   -1    0    0  501    0  0.00000000000E+00  0.00000000000E+00  0.11845231954E+04  0.11845231954E+04  0.25500000920E-02 0.  1.
       -2   -1    0    0    0  501  0.00000000000E+00  0.00000000000E+00 -0.53972638121E+03  0.53972638121E+03  0.25500000920E-02 0. -1.
    10030    2    1    2    0    0  0.00000000000E+00  0.00000000000E+00  0.64479681421E+03  0.17242495766E+04  0.15991477952E+04 0.  0.
        4    1    3    3  502    0  0.24381956628E+03  0.18158904953E+03  0.11197744799E+04  0.11603098994E+04  0.12699999809E+01 0.  1.
       -4    1    3    3    0  502 -0.24381956628E+03 -0.18158904953E+03 -0.47497766569E+03  0.56393967728E+03  0.12699999809E+01 0. -1.
</event>
<event>
 5   0  0.4504463E-05  0.1600390E+04  0.7818609E-02  0.8820308E-01
       -1   -1    0    0    0  501  0.00000000000E+00  0.00000000000E+00  0.43799472265E+03  0.43799472268E+03  0.50400001928E-02 0.  1.
        1   -1    0    0  501    0  0.00000000000E+00  0.00000000000E+00 -0.14619173200E+04  0.14619173200E+04  0.50400001928E-02 0. -1.
    10030    2    1    2    0    0  0.00000000000E+00  0.00000000000E+00 -0.10239225974E+04  0.18999120427E+04  0.16003900414E+04 0.  0.
        1    1    3    3  502    0 -0.60188035521E+03 -0.46894675048E+03 -0.22570891822E+03  0.79568557393E+03  0.50400001928E-02 0.  1.
       -1    1    3    3    0  502  0.60188035521E+03  0.46894675048E+03 -0.79821367916E+03  0.11042264688E+04  0.50400001928E-02 0. -1.
</event>
<event>
 5   0  0.7849690E-05  0.1607103E+04  0.7818609E-02  0.8816196E-01
        2   -1    0    0  501    0  0.00000000000E+00  0.00000000000E+00  0.84065027363E+03  0.84065027363E+03  0.25500000920E-02 0. -1.
       -2   -1    0    0    0  501  0.00000000000E+00  0.00000000000E+00 -0.76808955695E+03  0.76808955695E+03  0.25500000920E-02 0.  1.
    10030    2    1    2    0    0  0.00000000000E+00  0.00000000000E+00  0.72560716680E+02  0.16087398306E+04  0.16071026056E+04 0.  0.
        3    1    3    3  502    0 -0.37214287619E+03 -0.69261618296E+03 -0.12968114961E+03  0.79688437553E+03  0.10100000352E+00 0. -1.
       -3    1    3    3    0  502  0.37214287619E+03  0.69261618296E+03  0.20224186629E+03  0.81185545505E+03  0.10100000352E+00 0.  1.
</event>
<event>
 5   0  0.4504463E-05  0.1600156E+04  0.7818609E-02  0.8820452E-01
       -1   -1    0    0    0  501  0.00000000000E+00  0.00000000000E+00  0.55789448614E+03  0.55789448616E+03  0.50400001928E-02 0.  1.
        1   -1    0    0  501    0  0.00000000000E+00  0.00000000000E+00 -0.11473942489E+04  0.11473942490E+04  0.50400001928E-02 0. -1.
    10030    2    1    2    0    0  0.00000000000E+00  0.00000000000E+00 -0.58949976280E+03  0.17052887351E+04  0.16001561486E+04 0.  0.
        1    1    3    3  502    0 -0.43641769491E+03 -0.61926383782E+03 -0.20599720891E+02  0.75787363972E+03  0.50400001928E-02 0.  1.
       -1    1    3    3    0  502  0.43641769491E+03  0.61926383782E+03 -0.56890004191E+03  0.94741509539E+03  0.50400001928E-02 0. -1.
</event>
<event>
 5   0  0.8037548E-05  0.1593647E+04  0.7818609E-02  0.8824461E-01
        2   -1    0    0  501    0  0.00000000000E+00  0.00000000000E+00  0.10117561814E+04  0.10117561814E+04  0.25500000920E-02 0. -1.
       -2   -1    0    0    0  501  0.00000000000E+00  0.00000000000E+00 -0.62754991327E+03  0.62754991327E+03  0.25500000920E-02 0.  1.
    10030    2    1    2    0    0  0.00000000000E+00  0.00000000000E+00  0.38420626811E+03  0.16393060947E+04  0.15936467662E+04 0.  0.
        5    1    3    3  502    0  0.46399991924E+03  0.94590057551E+02  0.85129275031E+03  0.97414816161E+03  0.46999998093E+01 0. -1.
       -5    1    3    3    0  502 -0.46399991924E+03 -0.94590057551E+02 -0.46708648220E+03  0.66515793304E+03  0.46999998093E+01 0.  1.
</event>
<event>
 5   0  0.3042125E-05  0.1591762E+04  0.7818609E-02  0.8825625E-01
        3   -1    0    0  501    0  0.00000000000E+00  0.00000000000E+00  0.64157095407E+03  0.64157096202E+03  0.10100000352E+00 0.  1.
       -3   -1    0    0    0  501  0.00000000000E+00  0.00000000000E+00 -0.98730577050E+03  0.98730577567E+03  0.10100000352E+00 0. -1.
    10030    2    1    2    0    0  0.00000000000E+00  0.00000000000E+00 -0.34573481643E+03  0.16288767377E+04  0.15917621880E+04 0.  0.
        1    1    3    3  502    0  0.61499217012E+03 -0.49315017620E+03 -0.60702146728E+02  0.79063089760E+03  0.50400001928E-02 0.  1.
       -1    1    3    3    0  502 -0.61499217012E+03  0.49315017620E+03 -0.28503266970E+03  0.83824584009E+03  0.50400001928E-02 0. -1.
</event>
<event>
 5   0  0.4373026E-05  0.1598519E+04  0.7818609E-02  0.8821459E-01
       -1   -1    0    0    0  501  0.00000000000E+00  0.00000000000E+00  0.75085416553E+03  0.75085416555E+03  0.50400001928E-02 0. -1.
        1   -1    0    0  501    0  0.00000000000E+00  0.00000000000E+00 -0.85078494557E+03  0.85078494558E+03  0.50400001928E-02 0.  1.
    10030    2    1    2    0    0  0.00000000000E+00  0.00000000000E+00 -0.99930780036E+02  0.16016391111E+04  0.15985185897E+04 0.  0.
        4    1    3    3  502    0 -0.71246915561E+03  0.30808583670E+03  0.14089170350E+03  0.78891144337E+03  0.12699999809E+01 0. -1.
       -4    1    3    3    0  502  0.71246915561E+03 -0.30808583670E+03 -0.24082248354E+03  0.81272766776E+03  0.12699999809E+01 0.  1.
</event>
<event>
 5   0  0.7901257E-05  0.1586025E+04  0.7818609E-02  0.8829179E-01
       -2   -1    0    0    0  501  0.00000000000E+00  0.00000000000E+00  0.83371062485E+03  0.83371062486E+03  0.25500000920E-02 0.  1.
        2   -1    0    0  501    0  0.00000000000E+00  0.00000000000E+00 -0.75430137401E+03  0.75430137401E+03  0.25500000920E-02 0. -1.
    10030    2    1    2    0    0  0.00000000000E+00  0.00000000000E+00  0.79409250842E+02  0.15880119989E+04  0.15860253086E+04 0.  0.
        2    1    3    3  502    0 -0.52710562826E+03 -0.62030975733E+02 -0.55025401904E+03  0.76450485334E+03  0.25500000920E-02 0. -1.
       -2    1    3    3    0  502  0.52710562826E+03  0.62030975733E+02  0.62966326989E+03  0.82350714553E+03  0.25500000920E-02 0.  1.
</event>
<event>
 5   0  0.7849690E-05  0.1604768E+04  0.7818609E-02  0.8817624E-01
        2   -1    0    0  501    0  0.00000000000E+00  0.00000000000E+00  0.17852929969E+04  0.17852929969E+04  0.25500000920E-02 0. -1.
       -2   -1    0    0    0  501  0.00000000000E+00  0.00000000000E+00 -0.36062425471E+03  0.36062425471E+03  0.25500000920E-02 0.  1.
    10030    2    1    2    0    0  0.00000000000E+00  0.00000000000E+00  0.14246687422E+04  0.21459172517E+04  0.16047678417E+04 0.  0.
        3    1    3    3  502    0  0.42589564048E+03 -0.44774278604E+03  0.13967463864E+04  0.15273379381E+04  0.10100000352E+00 0. -1.
       -3    1    3    3    0  502 -0.42589564048E+03  0.44774278604E+03  0.27922355850E+02  0.61857931357E+03  0.10100000352E+00 0.  1.
</event>
<event>
 5   0  0.4314657E-05  0.1596964E+04  0.7818609E-02  0.8822415E-01
       -1   -1    0    0    0  501  0.00000000000E+00  0.00000000000E+00  0.45230653750E+03  0.45230653753E+03  0.50400001928E-02 0.  1.
        1   -1    0    0  501    0  0.00000000000E+00  0.00000000000E+00 -0.14096057469E+04  0.14096057469E+04  0.50400001928E-02 0. -1.
    10030    2    1    2    0    0  0.00000000000E+00  0.00000000000E+00 -0.95729920937E+03  0.18619122844E+04  0.15969644888E+04 0.  0.
        5    1    3    3  502    0  0.15140385517E+03 -0.16022587731E+03  0.41610823233E+03  0.47091783798E+03  0.46999998093E+01 0.  1.
       -5    1    3    3    0  502 -0.15140385517E+03  0.16022587731E+03 -0.13734074417E+04  0.13909944464E+04  0.46999998093E+01 0. -1.
</event>
<event>
 5   0  0.3042125E-05  0.1597966E+04  0.7818609E-02  0.8821799E-01
       -4   -1    0    0    0  501  0.00000000000E+00  0.00000000000E+00  0.56027550218E+03  0.56027694156E+03  0.12699999809E+01 0.  1.
        4   -1    0    0  501    0  0.00000000000E+00  0.00000000000E+00 -0.11393893493E+04  0.11393900570E+04  0.12699999809E+01 0. -1.
    10030    2    1    2    0    0  0.00000000000E+00  0.00000000000E+00 -0.57911384707E+03  0.16996669986E+04  0.15979659127E+04 0.  0.
        4    1    3    3  502    0  0.25020643167E+02 -0.11031840328E+02 -0.11388914932E+04  0.11392204266E+04  0.12699999809E+01 0. -1.
       -4    1    3    3    0  502 -0.25020643167E+02  0.11031840328E+02  0.55977764614E+03  0.56044657203E+03  0.12699999809E+01 0.  1.
</event>
<event>
 5   0  0.8620155E-05  0.1596014E+04  0.7818609E-02  0.8823001E-01
       -2   -1    0    0    0  501  0.00000000000E+00  0.00000000000E+00  0.43688740331E+03  0.43688740331E+03  0.25500000920E-02 0. -1.
        2   -1    0    0  501    0  0.00000000000E+00  0.00000000000E+00 -0.14576176608E+04  0.14576176608E+04  0.25500000920E-02 0.  1.
    10030    2    1    2    0    0  0.00000000000E+00  0.00000000000E+00 -0.10207302575E+04  0.18945050641E+04  0.15960135273E+04 0.  0.
        4    1    3    3  502    0  0.32737695103E+02  0.15833578319E+03  0.41723953530E+03  0.44747337310E+03  0.12699999809E+01 0. -1.
       -4    1    3    3    0  502 -0.32737695103E+02 -0.15833578319E+03 -0.14379697928E+04  0.14470316910E+04  0.12699999809E+01 0.  1.
</event>
<event>
 5   0  0.7901257E-05  0.1601746E+04  0.7818609E-02  0.8819476E-01
        2   -1    0    0  501    0  0.00000000000E+00  0.00000000000E+00  0.10140025449E+04  0.10140025450E+04  0.25500000920E-02 0. -1.
       -2   -1    0    0    0  501  0.00000000000E+00  0.00000000000E+00 -0.63254044674E+03  0.63254044674E+03  0.25500000920E-02 0.  1.
    10030    2    1    2    0    0  0.00000000000E+00  0.00000000000E+00  0.38146209821E+03  0.16465429917E+04  0.16017460757E+04 0.  0.
        2    1    3    3  502    0 -0.19254209527E+03 -0.52746323062E+03 -0.39629846376E+03  0.68727170063E+03  0.25500000920E-02 0.  1.
       -2    1    3    3    0  502  0.19254209527E+03  0.52746323062E+03  0.77776056196E+03  0.95927129106E+03  0.25500000920E-02 0. -1.
</event>
<event>
 5   0  0.4211419E-05  0.1605139E+04  0.7818609E-02  0.8817397E-01
       -1   -1    0    0    0  501  0.00000000000E+00  0.00000000000E+00  0.81183766167E+03  0.81183766169E+03  0.50400001928E-02 0. -1.
        1   -1    0    0  501    0  0.00000000000E+00  0.00000000000E+00 -0.79340700250E+03  0.79340700252E+03  0.50400001928E-02 0.  1.
    10030    2    1    2    0    0  0.00000000000E+00  0.00000000000E+00  0.18430659168E+02  0.16052446642E+04  0.16051388547E+04 0.  0.
        2    1    3    3  502    0 -0.78577148580E+03  0.14997071482E+03 -0.55516384893E+02  0.80187911321E+03  0.25500000920E-02 0.  1.
       -2    1    3    3    0  502  0.78577148580E+03 -0.14997071482E+03  0.73947044061E+02  0.80336555100E+03  0.25500000920E-02 0. -1.
</event>
<event>
 5   0  0.7901257E-05  0.1599381E+04  0.7818609E-02  0.8820928E-01
       -2   -1    0    0    0  501  0.00000000000E+00  0.00000000000E+00  0.11497959900E+04  0.11497959900E+04  0.25500000920E-02 0. -1.
        2   -1    0    0  501    0  0.00000000000E+00  0.00000000000E+00 -0.55618993601E+03  0.55618993602E+03  0.25500000920E-02 0.  1.
    10030    2    1    2    0    0  0.00000000000E+00  0.00000000000E+00  0.59360605399E+03  0.17059859260E+04  0.15993810779E+04 0.  0.
        2    1    3    3  502    0  0.35401795051E+03  0.17159374813E+03 -0.44583000357E+03  0.59459020827E+03  0.25500000920E-02 0.  1.
       -2    1    3    3    0  502 -0.35401795051E+03 -0.17159374813E+03  0.10394360576E+04  0.11113957178E+04  0.25500000920E-02 0. -1.
</event>
<event>
 5   0  0.8037548E-05  0.1598918E+04  0.7818609E-02  0.8821213E-01
       -2   -1    0    0    0  501  0.00000000000E+00  0.00000000000E+00  0.42345966572E+03  0.42345966573E+03  0.25500000920E-02 0.  1.
        2   -1    0    0  501    0  0.00000000000E+00  0.00000000000E+00 -0.15093156540E+04  0.15093156540E+04  0.25500000920E-02 0. -1.
    10030    2    1    2    0    0  0.00000000000E+00  0.00000000000E+00 -0.10858559883E+04  0.19327753197E+04  0.15989175117E+04 0.  0.
        5    1    3    3  502    0 -0.15764354966E+03 -0.72881737630E+02  0.40036316588E+03  0.43643555196E+03  0.46999998093E+01 0.  1.
       -5    1    3    3    0  502  0.15764354966E+03  0.72881737630E+02 -0.14862191541E+04  0.14963397678E+04  0.46999998093E+01 0. -1.
</event>
<event>
 5   0  0.8620155E-05  0.1599464E+04  0.7818609E-02  0.8820877E-01
       -2   -1    0    0    0  501  0.00000000000E+00  0.00000000000E+00  0.45581535070E+03  0.45581535070E+03  0.25500000920E-02 0. -1.
        2   -1    0    0  501    0  0.00000000000E+00  0.00000000000E+00 -0.14031368781E+04  0.14031368781E+04  0.25500000920E-02 0.  1.
    10030    2    1    2    0    0  0.00000000000E+00  0.00000000000E+00 -0.94732152743E+03  0.18589522288E+04  0.15994640705E+04 0.  0.
        4    1    3    3  502    0 -0.62073606726E+03  0.35138777668E+03 -0.53350958098E+02  0.71528635694E+03  0.12699999809E+01 0. -1.
       -4    1    3    3    0  502  0.62073606726E+03 -0.35138777668E+03 -0.89397056933E+03  0.11436658719E+04  0.12699999809E+01 0.  1.
</event>
<event>
 5   0  0.7901257E-05  0.1597380E+04  0.7818609E-02  0.8822159E-01
        2   -1    0    0  501    0  0.00000000000E+00  0.00000000000E+00  0.13210072295E+04  0.13210072295E+04  0.25500000920E-02 0. -1.
       -2   -1    0    0    0  501  0.00000000000E+00  0.00000000000E+00 -0.48289369134E+03  0.48289369135E+03  0.25500000920E-02 0.  1.
    10030    2    1    2    0    0  0.00000000000E+00  0.00000000000E+00  0.83811353815E+03  0.18039009208E+04  0.15973804273E+04 0.  0.
        2    1    3    3  502    0 -0.72436694504E+03  0.70925589312E+02  0.47646406484E+02  0.72938884714E+03  0.25500000920E-02 0.  1.
       -2    1    3    3    0  502  0.72436694504E+03 -0.70925589312E+02  0.79046713167E+03  0.10745120737E+04  0.25500000920E-02 0. -1.
</event>
<event>
 5   0  0.8037548E-05  0.1597667E+04  0.7818609E-02  0.8821983E-01
       -2   -1    0    0    0  501  0.00000000000E+00  0.00000000000E+00  0.46612711314E+03  0.46612711314E+03  0.25500000920E-02 0. -1.
        2   -1    0    0  501    0  0.00000000000E+00  0.00000000000E+00 -0.13690144535E+04  0.13690144535E+04  0.25500000920E-02 0.  1.
    10030    2    1    2    0    0  0.00000000000E+00  0.00000000000E+00 -0.90288734033E+03  0.18351415666E+04  0.15976667425E+04 0.  0.
        5    1    3    3  502    0  0.43401228857E+03 -0.32976860940E+03  0.21930483775E+03  0.58756336189E+03  0.46999998093E+01 0. -1.
       -5    1    3    3    0  502 -0.43401228857E+03  0.32976860940E+03 -0.11221921781E+04  0.12475782047E+04  0.46999998093E+01 0.  1.
</event>
<event>
 5   0  0.4504463E-05  0.1600075E+04  0.7818609E-02  0.8820502E-01
       -1   -1    0    0    0  501  0.00000000000E+00  0.00000000000E+00  0.63282790841E+03  0.63282790843E+03  0.50400001928E-02 0. -1.
        1   -1    0    0  501    0  0.00000000000E+00  0.00000000000E+00 -0.10114288114E+04  0.10114288114E+04  0.50400001928E-02 0.  1.
    10030    2    1    2    0    0  0.00000000000E+00  0.00000000000E+00 -0.37860090302E+03  0.16442567199E+04  0.16000754723E+04 0.  0.
        1    1    3    3  502    0  0.64221014388E+03 -0.45882759151E+03 -0.54908008737E+02  0.79118361781E+03  0.50400001928E-02 0. -1.
       -1    1    3    3    0  502 -0.64221014388E+03  0.45882759151E+03 -0.32369289428E+03  0.85307310207E+03  0.50400001928E-02 0.  1.
</event>
<event>
 5   0  0.7849690E-05  0.1599582E+04  0.7818609E-02  0.8820805E-01
       -2   -1    0    0    0  501  0.00000000000E+00  0.00000000000E+00  0.77398750266E+03  0.77398750267E+03  0.25500000920E-02 0. -1.
        2   -1    0    0  501    0  0.00000000000E+00  0.00000000000E+00 -0.82645455313E+03  0.82645455314E+03  0.25500000920E-02 0.  1.
    10030    2    1    2    0    0  0.00000000000E+00  0.00000000000E+00 -0.52467050473E+02  0.16004420558E+04  0.15995818149E+04 0.  0.
        3    1    3    3  502    0  0.51668434525E+03  0.36299519445E+03  0.46488405656E+03  0.78412079431E+03  0.10100000352E+00 0. -1.
       -3    1    3    3    0  502 -0.51668434525E+03 -0.36299519445E+03 -0.51735110703E+03  0.81632126150E+03  0.10100000352E+00 0.  1.
</event>
<event>
 5   0  0.4504463E-05  0.1599699E+04  0.7818609E-02  0.8820733E-01
        1   -1    0    0  501    0  0.00000000000E+00  0.00000000000E+00  0.95061290029E+03  0.95061290031E+03  0.50400001928E-02 0. -1.
       -1   -1    0    0    0  501  0.00000000000E+00  0.00000000000E+00 -0.67299663643E+03  0.67299663645E+03  0.50400001928E-02 0.  1.
    10030    2    1    2    0    0  0.00000000000E+00  0.00000000000E+00  0.27761626387E+03  0.16236095368E+04  0.15996990773E+04 0.  0.
        1    1    3    3  502    0  0.11296259762E+03  0.36328223660E+03  0.85290438942E+03  0.93390600673E+03  0.50400001928E-02 0. -1.
       -1    1    3    3    0  502 -0.11296259762E+03 -0.36328223660E+03 -0.57528812556E+03  0.68970353002E+03  0.50400001928E-02 0.  1.
</event>
<event>
 5   0  0.7901257E-05  0.1600749E+04  0.7818609E-02  0.8820088E-01
        2   -1    0    0  501    0  0.00000000000E+00  0.00000000000E+00  0.60653396920E+03  0.60653396920E+03  0.25500000920E-02 0.  1.
       -2   -1    0    0    0  501  0.00000000000E+00  0.00000000000E+00 -0.10561645225E+04  0.10561645225E+04  0.25500000920E-02 0. -1.
    10030    2    1    2    0    0  0.00000000000E+00  0.00000000000E+00 -0.44963055332E+03  0.16626984917E+04  0.16007493995E+04 0.  0.
        2    1    3    3  502    0  0.14999152106E+03  0.26725437589E+03  0.54317492032E+03  0.62366766142E+03  0.25500000920E-02 0.  1.
       -2    1    3    3    0  502 -0.14999152106E+03 -0.26725437589E+03 -0.99280547365E+03  0.10390308303E+04  0.25500000920E-02 0. -1.
</event>
<event>
 5   0  0.8037548E-05  0.1593410E+04  0.7818609E-02  0.8824607E-01
       -2   -1    0    0    0  501  0.00000000000E+00  0.00000000000E+00  0.67775139696E+03  0.67775139696E+03  0.25500000920E-02 0. -1.
        2   -1    0    0  501    0  0.00000000000E+00  0.00000000000E+00 -0.93653636134E+03  0.93653636134E+03  0.25500000920E-02 0.  1.
    10030    2    1    2    0    0  0.00000000000E+00  0.00000000000E+00 -0.25878496438E+03  0.16142877583E+04  0.15934099626E+04 0.  0.
        5    1    3    3  502    0 -0.37893643510E+03 -0.52664331148E+03  0.33901902252E+03  0.73205326787E+03  0.46999998093E+01 0. -1.
       -5    1    3    3    0  502  0.37893643510E+03  0.52664331148E+03 -0.59780398689E+03  0.88223449044E+03  0.46999998093E+01 0.  1.
</event>
<event>
 5   0  0.4504463E-05  0.1599998E+04  0.7818609E-02  0.8820549E-01
       -1   -1    0    0    0  501  0.00000000000E+00  0.00000000000E+00  0.33221680869E+03  0.33221680872E+03  0.50400001928E-02 0. -1.
        1   -1    0    0  501    0  0.00000000000E+00  0.00000000000E+00 -0.19264490473E+04  0.19264490473E+04  0.50400001928E-02 0.  1.
    10030    2    1    2    0    0  0.00000000000E+00  0.00000000000E+00 -0.15942322386E+04  0.22586658561E+04  0.15999984433E+04 0.  0.
        1    1    3    3  502    0 -0.19533992940E+03  0.71178181361E+03 -0.12326966914E+04  0.14367784002E+04  0.50400001928E-02 0. -1.
       -1    1    3    3    0  502  0.19533992940E+03 -0.71178181361E+03 -0.36153554726E+03  0.82188745590E+03  0.50400001928E-02 0.  1.
</event>
<event>
 5   0  0.4373026E-05  0.1601122E+04  0.7818609E-02  0.8819859E-01
        1   -1    0    0  501    0  0.00000000000E+00  0.00000000000E+00  0.18466350140E+04  0.18466350140E+04  0.50400001928E-02 0.  1.
       -1   -1    0    0    0  501  0.00000000000E+00  0.00000000000E+00 -0.34706253976E+03  0.34706253980E+03  0.50400001928E-02 0. -1.
    10030    2    1    2    0    0  0.00000000000E+00  0.00000000000E+00  0.14995724743E+04  0.21936975538E+04  0.16011219042E+04 0.  0.
        4    1    3    3  502    0 -0.24030568116E+02  0.19188500648E+03 -0.31457878462E+03  0.36926785474E+03  0.12699999809E+01 0. -1.
       -4    1    3    3    0  502  0.24030568116E+02 -0.19188500648E+03  0.18141512589E+04  0.18244296991E+04  0.12699999809E+01 0.  1.
</event>
<event>
 5   0  0.4314657E-05  0.1600273E+04  0.7818609E-02  0.8820380E-01
       -1   -1    0    0    0  501  0.00000000000E+00  0.00000000000E+00  0.85218745005E+03  0.85218745007E+03  0.50400001928E-02 0.  1.
        1   -1    0    0  501    0  0.00000000000E+00  0.00000000000E+00 -0.75126493465E+03  0.75126493466E+03  0.50400001928E-02 0. -1.
    10030    2    1    2    0    0  0.00000000000E+00  0.00000000000E+00  0.10092251541E+03  0.16034523847E+04  0.16002731629E+04 0.  0.
        5    1    3    3  502    0 -0.62732729263E+03 -0.18026182447E+03  0.51415769889E+03  0.83091159985E+03  0.46999998093E+01 0.  1.
       -5    1    3    3    0  502  0.62732729263E+03  0.18026182447E+03 -0.41323518348E+03  0.77254078488E+03  0.46999998093E+01 0. -1.
</event>
<event>
 5   0  0.3042125E-05  0.1603550E+04  0.7818609E-02  0.8818370E-01
        3   -1    0    0  501    0  0.00000000000E+00  0.00000000000E+00  0.70390436008E+03  0.70390436733E+03  0.10100000352E+00 0. -1.
       -3   -1    0    0    0  501  0.00000000000E+00  0.00000000000E+00 -0.91325389935E+03  0.91325390493E+03  0.10100000352E+00 0.  1.
    10030    2    1    2    0    0  0.00000000000E+00  0.00000000000E+00 -0.20934953926E+03  0.16171582723E+04  0.16035503260E+04 0.  0.
        3    1    3    3  502    0  0.73705182083E+02 -0.52339951469E+03  0.50332101883E+03  0.72987092286E+03  0.10100000352E+00 0. -1.
       -3    1    3    3    0  502 -0.73705182083E+02  0.52339951469E+03 -0.71267055809E+03  0.88728734941E+03  0.10100000352E+00 0.  1.
</event>
<event>
 5   0  0.3042125E-05  0.1601422E+04  0.7818609E-02  0.8819675E-01
       -3   -1    0    0    0  501  0.00000000000E+00  0.00000000000E+00  0.63503296675E+03  0.63503297478E+03  0.10100000352E+00 0.  1.
        3   -1    0    0  501    0  0.00000000000E+00  0.00000000000E+00 -0.10096142177E+04  0.10096142228E+04  0.10100000352E+00 0. -1.
    10030    2    1    2    0    0  0.00000000000E+00  0.00000000000E+00 -0.37458125100E+03  0.16446471976E+04  0.16014222713E+04 0.  0.
        2    1    3    3  502    0  0.33269882373E+02  0.17867676524E+03  0.61356927319E+03  0.63992149872E+03  0.25500000920E-02 0.  1.
       -2    1    3    3    0  502 -0.33269882373E+02 -0.17867676524E+03 -0.98815052419E+03  0.10047256989E+04  0.25500000920E-02 0. -1.
</event>
<event>
 5   0  0.4256406E-05  0.1597970E+04  0.7818609E-02  0.8821796E-01
        1   -1    0    0  501    0  0.00000000000E+00  0.00000000000E+00  0.16824919918E+04  0.16824919918E+04  0.50400001928E-02 0.  1.
       -1   -1    0    0    0  501  0.00000000000E+00  0.00000000000E+00 -0.37942338488E+03  0.37942338491E+03  0.50400001928E-02 0. -1.
    10030    2    1    2    0    0  0.00000000000E+00  0.00000000000E+00  0.13030686069E+04  0.20619153767E+04  0.15979697201E+04 0.  0.
        3    1    3    3  502    0 -0.40960843290E+03 -0.67836025852E+03  0.78328173330E+03  0.11142181082E+04  0.10100000352E+00 0.  1.
       -3    1    3    3    0  502  0.40960843290E+03  0.67836025852E+03  0.51978687364E+03  0.94769726857E+03  0.10100000352E+00 0. -1.
</event>
<event>
 5   0  0.8037548E-05  0.1599990E+04  0.7818609E-02  0.8820554E-01
        2   -1    0    0  501    0  0.00000000000E+00  0.00000000000E+00  0.14142957005E+04  0.14142957005E+04  0.25500000920E-02 0. -1.
       -2   -1    0    0    0  501  0.00000000000E+00  0.00000000000E+00 -0.45251625290E+03  0.45251625291E+03  0.25500000920E-02 0.  1.
    10030    2    1    2    0    0  0.00000000000E+00  0.00000000000E+00  0.96177944761E+03  0.18668119534E+04  0.15999897386E+04 0.  0.
        5    1    3    3  502    0 -0.42864126338E+03 -0.30594145511E+03  0.11835072034E+04  0.12953937228E+04  0.46999998093E+01 0. -1.
       -5    1    3    3    0  502  0.42864126338E+03  0.30594145511E+03 -0.22172775576E+03  0.57141823063E+03  0.46999998093E+01 0.  1.
</event>
<event>
 5   0  0.3042125E-05  0.1601401E+04  0.7818609E-02  0.8819688E-01
       -3   -1    0    0    0  501  0.00000000000E+00  0.00000000000E+00  0.35885627492E+03  0.35885628913E+03  0.10100000352E+00 0. -1.
        3   -1    0    0  501    0  0.00000000000E+00  0.00000000000E+00 -0.17865690970E+04  0.17865690999E+04  0.10100000352E+00 0.  1.
    10030    2    1    2    0    0  0.00000000000E+00  0.00000000000E+00 -0.14277128221E+04  0.21454253890E+04  0.16014013230E+04 0.  0.
        2    1    3    3  502    0  0.12222485788E+03  0.17367010101E+03 -0.17481507169E+04  0.17610028815E+04  0.25500000920E-02 0.  1.
       -2    1    3    3    0  502 -0.12222485788E+03 -0.17367010101E+03  0.32043789475E+03  0.38442250749E+03  0.25500000920E-02 0. -1.
</event>
<event>
 5   0  0.8037548E-05  0.1600010E+04  0.7818609E-02  0.8820542E-01
        2   -1    0    0  501    0  0.00000000000E+00  0.00000000000E+00  0.93875708174E+03  0.93875708174E+03  0.25500000920E-02 0. -1.
       -2   -1    0    0    0  501  0.00000000000E+00  0.00000000000E+00 -0.68176142200E+03  0.68176142201E+03  0.25500000920E-02 0.  1.
    10030    2    1    2    0    0  0.00000000000E+00  0.00000000000E+00  0.25699565974E+03  0.16205185037E+04  0.16000104537E+04 0.  0.
        5    1    3    3  502    0 -0.34227590519E+03 -0.52285826028E+03 -0.37735629281E+03  0.73003658630E+03  0.46999998093E+01 0.  1.
       -5    1    3    3    0  502  0.34227590519E+03  0.52285826028E+03  0.63435195254E+03  0.89048191745E+03  0.46999998093E+01 0. -1.
</event>
<event>
 5   0  0.4373026E-05  0.1609373E+04  0.7818609E-02  0.8814811E-01
        1   -1    0    0  501    0  0.00000000000E+00  0.00000000000E+00  0.15247906066E+04  0.15247906066E+04  0.50400001928E-02 0.  1.
       -1   -1    0    0    0  501  0.00000000000E+00  0.00000000000E+00 -0.42466169096E+03  0.42466169099E+03  0.50400001928E-02 0. -1.
    10030    2    1    2    0    0  0.00000000000E+00  0.00000000000E+00  0.11001289156E+04  0.19494522975E+04  0.16093727441E+04 0.  0.
        4    1    3    3  502    0 -0.14604512532E+03  0.48639576501E+03 -0.20601980120E+03  0.54804725183E+03  0.12699999809E+01 0. -1.
       -4    1    3    3    0  502  0.14604512532E+03 -0.48639576501E+03  0.13061487168E+04  0.14014050457E+04  0.12699999809E+01 0.  1.
</event>
<event>
 5   0  0.4314657E-05  0.1599524E+04  0.7818609E-02  0.8820840E-01
       -1   -1    0    0    0  501  0.00000000000E+00  0.00000000000E+00  0.88108632871E+03  0.88108632873E+03  0.50400001928E-02 0. -1.
        1   -1    0    0  501    0  0.00000000000E+00  0.00000000000E+00 -0.72594410987E+03  0.72594410989E+03  0.50400001928E-02 0.  1.
    10030    2    1    2    0    0  0.00000000000E+00  0.00000000000E+00  0.15514221884E+03  0.16070304386E+04  0.15995242176E+04 0.  0.
        5    1    3    3  502    0  0.16876946038E+03  0.67417709740E+03 -0.32001243473E+03  0.76513262758E+03  0.46999998093E+01 0.  1.
       -5    1    3    3    0  502 -0.16876946038E+03 -0.67417709740E+03  0.47515465357E+03  0.84189781103E+03  0.46999998093E+01 0. -1.
</event>
<event>
 5   0  0.7849690E-05  0.1599975E+04  0.7818609E-02  0.8820563E-01
       -2   -1    0    0    0  501  0.00000000000E+00  0.00000000000E+00  0.66915922694E+03  0.66915922695E+03  0.25500000920E-02 0.  1.
        2   -1    0    0  501    0  0.00000000000E+00  0.00000000000E+00 -0.95639449901E+03  0.95639449901E+03  0.25500000920E-02 0. -1.
    10030    2    1    2    0    0  0.00000000000E+00  0.00000000000E+00 -0.28723527207E+03  0.16255537260E+04  0.15999752543E+04 0.  0.
        3    1    3    3  502    0 -0.61747368630E+03  0.34181121682E+03  0.23906229907E+03  0.74515733524E+03  0.10100000352E+00 0.  1.
       -3    1    3    3    0  502  0.61747368630E+03 -0.34181121682E+03 -0.52629757114E+03  0.88039639073E+03  0.10100000352E+00 0. -1.
</event>
<event>
 5   0  0.8037548E-05  0.1604271E+04  0.7818609E-02  0.8817928E-01
       -2   -1    0    0    0  501  0.00000000000E+00  0.00000000000E+00  0.22484826807E+03  0.22484826809E+03  0.25500000920E-02 0.  1.
        2   -1    0    0  501    0  0.00000000000E+00  0.00000000000E+00 -0.28615815491E+04  0.28615815491E+04  0.25500000920E-02 0. -1.
    10030    2    1    2    0    0  0.00000000000E+00  0.00000000000E+00 -0.26367332810E+04  0.30864298172E+04  0.16042713677E+04 0.  0.
        5    1    3    3  502    0  0.31195483673E+03 -0.22198179987E+03 -0.26744075371E+04  0.27016790157E+04  0.46999998093E+01 0. -1.
       -5    1    3    3    0  502 -0.31195483673E+03  0.22198179987E+03  0.37674256091E+02  0.38475080143E+03  0.46999998093E+01 0.  1.
</event>
<event>
 5   0  0.3042125E-05  0.1600377E+04  0.7818609E-02  0.8820316E-01
        3   -1    0    0  501    0  0.00000000000E+00  0.00000000000E+00  0.57067116975E+03  0.57067117869E+03  0.10100000352E+00 0.  1.
       -3   -1    0    0    0  501  0.00000000000E+00  0.00000000000E+00 -0.11220152591E+04  0.11220152636E+04  0.10100000352E+00 0. -1.
    10030    2    1    2    0    0  0.00000000000E+00  0.00000000000E+00 -0.55134408934E+03  0.16926864423E+04  0.16003771703E+04 0.  0.
        4    1    3    3  502    0 -0.49403863654E+03  0.31801982784E+03  0.29888208894E+03  0.65919868119E+03  0.12699999809E+01 0.  1.
       -4    1    3    3    0  502  0.49403863654E+03 -0.31801982784E+03 -0.85022617829E+03  0.10334877611E+04  0.12699999809E+01 0. -1.
</event>
<event>
 5   0  0.8620155E-05  0.1602218E+04  0.7818609E-02  0.8819186E-01
        2   -1    0    0  501    0  0.00000000000E+00  0.00000000000E+00  0.15362017403E+04  0.15362017403E+04  0.25500000920E-02 0.  1.
       -2   -1    0    0    0  501  0.00000000000E+00  0.00000000000E+00 -0.41776804512E+03  0.41776804512E+03  0.25500000920E-02 0. -1.
    10030    2    1    2    0    0  0.00000000000E+00  0.00000000000E+00  0.11184336952E+04  0.19539697855E+04  0.16022184595E+04 0.  0.
        4    1    3    3  502    0  0.70785560410E+03  0.17169103951E+03  0.96596049382E+03  0.12098010819E+04  0.12699999809E+01 0.  1.
       -4    1    3    3    0  502 -0.70785560410E+03 -0.17169103951E+03  0.15247320141E+03  0.74416870355E+03  0.12699999809E+01 0. -1.
</event>
<event>
 5   0  0.4504463E-05  0.1598915E+04  0.7818609E-02  0.8821215E-01
        1   -1    0    0  501    0  0.00000000000E+00  0.00000000000E+00  0.12301201543E+04  0.12301201543E+04  0.50400001928E-02 0. -1.
       -1   -1    0    0    0  501  0.00000000000E+00  0.00000000000E+00 -0.51956929321E+03  0.51956929324E+03  0.50400001928E-02 0.  1.
    10030    2    1    2    0    0  0.00000000000E+00  0.00000000000E+00  0.71055086109E+03  0.17496894476E+04  0.15989154564E+04 0.  0.
        1    1    3    3  502    0 -0.14494603518E+03  0.15379122123E+03  0.11990006203E+04  0.12174824764E+04  0.50400001928E-02 0. -1.
       -1    1    3    3    0  502  0.14494603518E+03 -0.15379122123E+03 -0.48844975921E+03  0.53220697115E+03  0.50400001928E-02 0.  1.
</event>
<event>
 5   0  0.4211419E-05  0.1600773E+04  0.7818609E-02  0.8820073E-01
       -1   -1    0    0    0  501  0.00000000000E+00  0.00000000000E+00  0.29741502616E+03  0.29741502620E+03  0.50400001928E-02 0. -1.
        1   -1    0    0  501    0  0.00000000000E+00  0.00000000000E+00 -0.21539547545E+04  0.21539547545E+04  0.50400001928E-02 0.  1.
    10030    2    1    2    0    0  0.00000000000E+00  0.00000000000E+00 -0.18565397283E+04  0.24513697807E+04  0.16007729504E+04 0.  0.
        2    1    3    3  502    0 -0.31252945702E+03 -0.32076788029E+03  0.87583444242E+02  0.45633053179E+03  0.25500000920E-02 0. -1.
       -2    1    3    3    0  502  0.31252945702E+03  0.32076788029E+03 -0.19441231726E+04  0.19950392489E+04  0.25500000920E-02 0.  1.
</event>
<event>
 5   0  0.4373026E-05  0.1596826E+04  0.7818609E-02  0.8822501E-01
       -1   -1    0    0    0  501  0.00000000000E+00  0.00000000000E+00  0.40722651251E+03  0.40722651254E+03  0.50400001928E-02 0.  1.
        1   -1    0    0  501    0  0.00000000000E+00  0.00000000000E+00 -0.15653769386E+04  0.15653769386E+04  0.50400001928E-02 0. -1.
    10030    2    1    2    0    0  0.00000000000E+00  0.00000000000E+00 -0.11581504260E+04  0.19726034511E+04  0.15968255903E+04 0.  0.
        4    1    3    3  502    0 -0.47974662977E+03 -0.13399178510E+03  0.19174450077E+03  0.53373981838E+03  0.12699999809E+01 0.  1.
       -4    1    3    3    0  502  0.47974662977E+03  0.13399178510E+03 -0.13498949268E+04  0.14388636327E+04  0.12699999809E+01 0. -1.
</event>
<event>
 5   0  0.4373026E-05  0.1599613E+04  0.7818609E-02  0.8820786E-01
        1   -1    0    0  501    0  0.00000000000E+00  0.00000000000E+00  0.75536353643E+03  0.75536353645E+03  0.50400001928E-02 0. -1.
       -1   -1    0    0    0  501  0.00000000000E+00  0.00000000000E+00 -0.84686444493E+03  0.84686444495E+03  0.50400001928E-02 0.  1.
    10030    2    1    2    0    0  0.00000000000E+00  0.00000000000E+00 -0.91500908503E+02  0.16022279814E+04  0.15996131058E+04 0.  0.
        4    1    3    3  502    0 -0.38601434523E+02 -0.87119011622E+02  0.74965667759E+03  0.75568944685E+03  0.12699999809E+01 0. -1.
       -4    1    3    3    0  502  0.38601434523E+02  0.87119011622E+02 -0.84115758609E+03  0.84653853454E+03  0.12699999809E+01 0.  1.
</event>
<event>
 5   0  0.4504463E-05  0.1603489E+04  0.7818609E-02  0.8818407E-01
       -1   -1    0    0    0  501  0.00000000000E+00  0.00000000000E+00  0.13822464647E+04  0.13822464647E+04  0.50400001928E-02 0.  1.
        1   -1    0    0  501    0  0.00000000000E+00  0.00000000000E+00 -0.46503598497E+03  0.46503598500E+03  0.50400001928E-02 0. -1.
    10030    2    1    2    0    0  0.00000000000E+00  0.00000000000E+00  0.91721047971E+03  0.18472824497E+04  0.16034891284E+04 0.  0.
        1    1    3    3  502    0  0.57369430427E+03 -0.54243713059E+03  0.29801596193E+03  0.84390562801E+03  0.50400001928E-02 0. -1.
       -1    1    3    3    0  502 -0.57369430427E+03  0.54243713059E+03  0.61919451777E+03  0.10033768217E+04  0.50400001928E-02 0.  1.
</event>
<event>
 5   0  0.4314657E-05  0.1602011E+04  0.7818609E-02  0.8819314E-01
        1   -1    0    0  501    0  0.00000000000E+00  0.00000000000E+00  0.16342619432E+04  0.16342619432E+04  0.50400001928E-02 0. -1.
       -1   -1    0    0    0  501  0.00000000000E+00  0.00000000000E+00 -0.39259909464E+03  0.39259909467E+03  0.50400001928E-02 0.  1.
    10030    2    1    2    0    0  0.00000000000E+00  0.00000000000E+00  0.12416628485E+04  0.20268610379E+04  0.16020109355E+04 0.  0.
        5    1    3    3  502    0 -0.77812084133E+02 -0.35910410597E+03  0.15213264401E+04  0.15650772207E+04  0.46999998093E+01 0. -1.
       -5    1    3    3    0  502  0.77812084133E+02  0.35910410597E+03 -0.27966359155E+03  0.46178381717E+03  0.46999998093E+01 0.  1.
</event>
<event>
 5   0  0.8620155E-05  0.1600156E+04  0.7818609E-02  0.8820452E-01
       -2   -1    0    0    0  501  0.00000000000E+00  0.00000000000E+00  0.55353587864E+03  0.55353587864E+03  0.25500000920E-02 0.  1.
        2   -1    0    0  501    0  0.00000000000E+00  0.00000000000E+00 -0.11564283163E+04  0.11564283163E+04  0.25500000920E-02 0. -1.
    10030    2    1    2    0    0  0.00000000000E+00  0.00000000000E+00 -0.60289243768E+03  0.17099641950E+04  0.16001556976E+04 0.  0.
        4    1    3    3  502    0  0.57130083933E+03  0.36483415622E+03  0.15273056820E+03  0.69485023561E+03  0.12699999809E+01 0.  1.
       -4    1    3    3    0  502 -0.57130083933E+03 -0.36483415622E+03 -0.75562300588E+03  0.10151139594E+04  0.12699999809E+01 0. -1.
</event>
<event>
 5   0  0.4314657E-05  0.1598932E+04  0.7818609E-02  0.8821204E-01
       -1   -1    0    0    0  501  0.00000000000E+00  0.00000000000E+00  0.84700507338E+03  0.84700507340E+03  0.50400001928E-02 0.  1.
        1   -1    0    0  501    0  0.00000000000E+00  0.00000000000E+00 -0.75459516422E+03  0.75459516423E+03  0.50400001928E-02 0. -1.
    10030    2    1    2    0    0  0.00000000000E+00  0.00000000000E+00  0.92409909163E+02  0.16016002376E+04  0.15989320592E+04 0.  0.
        5    1    3    3  502    0  0.47671386012E+02 -0.57273794064E+03  0.60285032887E+03  0.83291771425E+03  0.46999998093E+01 0.  1.
       -5    1    3    3    0  502 -0.47671386012E+02  0.57273794064E+03 -0.51044041970E+03  0.76868252338E+03  0.46999998093E+01 0. -1.
</event>
<event>
 5   0  0.8620155E-05  0.1618445E+04  0.7818609E-02  0.8809296E-01
       -2   -1    0    0    0  501  0.00000000000E+00  0.00000000000E+00  0.59788100001E+03  0.59788100001E+03  0.25500000920E-02 0.  1.
        2   -1    0    0  501    0  0.00000000000E+00  0.00000000000E+00 -0.10952702643E+04  0.10952702643E+04  0.25500000920E-02 0. -1.
    10030    2    1    2    0    0  0.00000000000E+00  0.00000000000E+00 -0.49738926432E+03  0.16931512643E+04  0.16184452798E+04 0.  0.
        4    1    3    3  502    0 -0.15825401875E+03 -0.91681458182E+02 -0.10733639073E+04  0.10888349345E+04  0.12699999809E+01 0. -1.
       -4    1    3    3    0  502  0.15825401875E+03  0.91681458182E+02  0.57597464299E+03  0.60431632982E+03  0.12699999809E+01 0.  1.
</event>
<event>
 5   0  0.4504463E-05  0.1598521E+04  0.7818609E-02  0.8821457E-01
        1   -1    0    0  501    0  0.00000000000E+00  0.00000000000E+00  0.80261079276E+03  0.80261079277E+03  0.50400001928E-02 0. -1.
       -1   -1    0    0    0  501  0.00000000000E+00  0.00000000000E+00 -0.79592393470E+03  0.79592393472E+03  0.50400001928E-02 0.  1.
    10030    2    1    2    0    0  0.00000000000E+00  0.00000000000E+00  0.66868580549E+01  0.15985347275E+04  0.15985207415E+04 0.  0.
        1    1    3    3  502    0 -0.69533917632E+03  0.32289296088E+03  0.22931156704E+03  0.80021261494E+03  0.50400001928E-02 0. -1.
       -1    1    3    3    0  502  0.69533917632E+03 -0.32289296088E+03 -0.22262470898E+03  0.79832211255E+03  0.50400001928E-02 0.  1.
</event>
<event>
 5   0  0.8694033E-05  0.1597183E+04  0.7818609E-02  0.8822280E-01
       -2   -1    0    0    0  501  0.00000000000E+00  0.00000000000E+00  0.25479180116E+03  0.25479180117E+03  0.25500000920E-02 0. -1.
        2   -1    0    0  501    0  0.00000000000E+00  0.00000000000E+00 -0.25030181053E+04  0.25030181053E+04  0.25500000920E-02 0.  1.
    10030    2    1    2    0    0  0.00000000000E+00  0.00000000000E+00 -0.22482263042E+04  0.27578099065E+04  0.15971831347E+04 0.  0.
        1    1    3    3  502    0  0.38661370809E+03 -0.65175339257E+03 -0.15592063296E+04  0.17336023253E+04  0.50400001928E-02 0.  1.
       -1    1    3    3    0  502 -0.38661370809E+03  0.65175339257E+03 -0.68901997458E+03  0.10242075812E+04  0.50400001928E-02 0. -1.
</event>
<event>
 5   0  0.4256406E-05  0.1610772E+04  0.7818609E-02  0.8813958E-01
       -1   -1    0    0    0  501  0.00000000000E+00  0.00000000000E+00  0.42199057886E+03  0.42199057889E+03  0.50400001928E-02 0. -1.
        1   -1    0    0  501    0  0.00000000000E+00  0.00000000000E+00 -0.15371110451E+04  0.15371110451E+04  0.50400001928E-02 0.  1.
    10030    2    1    2    0    0  0.00000000000E+00  0.00000000000E+00 -0.11151204663E+04  0.19591016240E+04  0.16107717154E+04 0.  0.
        3    1    3    3  502    0 -0.62728671680E+03  0.35799777801E+03 -0.12413234235E+03  0.73284369599E+03  0.10100000352E+00 0. -1.
       -3    1    3    3    0  502  0.62728671680E+03 -0.35799777801E+03 -0.99098812391E+03  0.12262579280E+04  0.10100000352E+00 0.  1.
</event>
<event>
 5   0  0.7901257E-05  0.1598232E+04  0.7818609E-02  0.8821635E-01
       -2   -1    0    0    0  501  0.00000000000E+00  0.00000000000E+00  0.51671014456E+03  0.51671014457E+03  0.25500000920E-02 0. -1.
        2   -1    0    0  501    0  0.00000000000E+00  0.00000000000E+00 -0.12358697350E+04  0.12358697350E+04  0.25500000920E-02 0.  1.
    10030    2    1    2    0    0  0.00000000000E+00  0.00000000000E+00 -0.71915959046E+03  0.17525798796E+04  0.15982320601E+04 0.  0.
        2    1    3    3  502    0  0.73889053439E+03  0.15664632824E+03 -0.64571868864E+03  0.99370514683E+03  0.25500000920E-02 0.  1.
       -2    1    3    3    0  502 -0.73889053439E+03 -0.15664632824E+03 -0.73440901824E+02  0.75887473277E+03  0.25500000920E-02 0. -1.
</event>
<event>
 5   0  0.4504463E-05  0.1611661E+04  0.7818609E-02  0.8813416E-01
        1   -1    0    0  501    0  0.00000000000E+00  0.00000000000E+00  0.10383377676E+04  0.10383377676E+04  0.50400001928E-02 0.  1.
       -1   -1    0    0    0  501  0.00000000000E+00  0.00000000000E+00 -0.62538671645E+03  0.62538671647E+03  0.50400001928E-02 0. -1.
    10030    2    1    2    0    0  0.00000000000E+00  0.00000000000E+00  0.41295105112E+03  0.16637244841E+04  0.16116608167E+04 0.  0.
        1    1    3    3  502    0  0.40144570621E+03 -0.55024202485E+03  0.65101136834E+03  0.94219994836E+03  0.50400001928E-02 0.  1.
       -1    1    3    3    0  502 -0.40144570621E+03  0.55024202485E+03 -0.23806031722E+03  0.72152453569E+03  0.50400001928E-02 0. -1.
</event>
<event>
 5   0  0.4256406E-05  0.1607717E+04  0.7818609E-02  0.8815821E-01
        1   -1    0    0  501    0  0.00000000000E+00  0.00000000000E+00  0.81446010141E+03  0.81446010142E+03  0.50400001928E-02 0.  1.
       -1   -1    0    0    0  501  0.00000000000E+00  0.00000000000E+00 -0.79339482605E+03  0.79339482607E+03  0.50400001928E-02 0. -1.
    10030    2    1    2    0    0  0.00000000000E+00  0.00000000000E+00  0.21065275357E+02  0.16078549275E+04  0.16077169285E+04 0.  0.
        3    1    3    3  502    0 -0.41325114228E+03  0.14845848318E+03  0.68391947046E+03  0.81274982627E+03  0.10100000352E+00 0.  1.
       -3    1    3    3    0  502  0.41325114228E+03 -0.14845848318E+03 -0.66285419510E+03  0.79510510122E+03  0.10100000352E+00 0. -1.
</event>
<event>
 5   0  0.4504463E-05  0.1599517E+04  0.7818609E-02  0.8820845E-01
        1   -1    0    0  501    0  0.00000000000E+00  0.00000000000E+00  0.51751902719E+03  0.51751902722E+03  0.50400001928E-02 0. -1.
       -1   -1    0    0    0  501  0.00000000000E+00  0.00000000000E+00 -0.12359231297E+04  0.12359231297E+04  0.50400001928E-02 0.  1.
    10030    2    1    2    0    0  0.00000000000E+00  0.00000000000E+00 -0.71840410249E+03  0.17534421569E+04  0.15995170969E+04 0.  0.
        1    1    3    3  502    0 -0.39128738022E+03  0.23515099760E+03 -0.10790618840E+04  0.11716553910E+04  0.50400001928E-02 0.  1.
       -1    1    3    3    0  502  0.39128738022E+03 -0.23515099760E+03  0.36065778155E+03  0.58178676593E+03  0.50400001928E-02 0. -1.
</event>
<event>
 5   0  0.8037548E-05  0.1598029E+04  0.7818609E-02  0.8821760E-01
       -2   -1    0    0    0  501  0.00000000000E+00  0.00000000000E+00  0.47417643199E+03  0.47417643199E+03  0.25500000920E-02 0.  1.
        2   -1    0    0  501    0  0.00000000000E+00  0.00000000000E+00 -0.13463849915E+04  0.13463849915E+04  0.25500000920E-02 0. -1.
    10030    2    1    2    0    0  0.00000000000E+00  0.00000000000E+00 -0.87220855950E+03  0.18205614235E+04  0.15980288250E+04 0.  0.
        5    1    3    3  502    0  0.30985014813E+03  0.56687102711E+03 -0.97173813120E+03  0.11668962941E+04  0.46999998093E+01 0. -1.
       -5    1    3    3    0  502 -0.30985014813E+03 -0.56687102711E+03  0.99529571695E+02  0.65366512934E+03  0.46999998093E+01 0.  1.
</event>
<event>
 5   0  0.7849690E-05  0.1597361E+04  0.7818609E-02  0.8822171E-01
        2   -1    0    0  501    0  0.00000000000E+00  0.00000000000E+00  0.12734928989E+04  0.12734928989E+04  0.25500000920E-02 0.  1.
       -2   -1    0    0    0  501  0.00000000000E+00  0.00000000000E+00 -0.50089810728E+03  0.50089810729E+03  0.25500000920E-02 0. -1.
    10030    2    1    2    0    0  0.00000000000E+00  0.00000000000E+00  0.77259479158E+03  0.17743910062E+04  0.15973605513E+04 0.  0.
        3    1    3    3  502    0 -0.16608114419E+03 -0.26314493888E+03  0.12033873598E+04  0.12429679615E+04  0.10100000352E+00 0.  1.
       -3    1    3    3    0  502  0.16608114419E+03  0.26314493888E+03 -0.43079256826E+03  0.53142304465E+03  0.10100000352E+00 0. -1.
</event>
<event>
 5   0  0.8694033E-05  0.1602095E+04  0.7818609E-02  0.8819262E-01
        2   -1    0    0  501    0  0.00000000000E+00  0.00000000000E+00  0.11309204607E+04  0.11309204607E+04  0.25500000920E-02 0. -1.
       -2   -1    0    0    0  501  0.00000000000E+00  0.00000000000E+00 -0.56739360837E+03  0.56739360837E+03  0.25500000920E-02 0.  1.
    10030    2    1    2    0    0  0.00000000000E+00  0.00000000000E+00  0.56352685233E+03  0.16983140691E+04  0.16020949297E+04 0.  0.
        1    1    3    3  502    0  0.18006255192E+03 -0.54588643209E+03 -0.30965272021E+03  0.65291601796E+03  0.50400001928E-02 0.  1.
       -1    1    3    3    0  502 -0.18006255192E+03  0.54588643209E+03  0.87317957254E+03  0.10453980511E+04  0.50400001928E-02 0. -1.
</event>
<event>
 5   0  0.4211419E-05  0.1600873E+04  0.7818609E-02  0.8820012E-01
        1   -1    0    0  501    0  0.00000000000E+00  0.00000000000E+00  0.62378065341E+03  0.62378065343E+03  0.50400001928E-02 0.  1.
       -1   -1    0    0    0  501  0.00000000000E+00  0.00000000000E+00 -0.10271213594E+04  0.10271213594E+04  0.50400001928E-02 0. -1.
    10030    2    1    2    0    0  0.00000000000E+00  0.00000000000E+00 -0.40334070595E+03  0.16509020128E+04  0.16008728028E+04 0.  0.
        2    1    3    3  502    0  0.20274798046E+03  0.57384818889E+02 -0.99800643030E+03  0.10200081352E+04  0.25500000920E-02 0. -1.
       -2    1    3    3    0  502 -0.20274798046E+03 -0.57384818889E+02  0.59466572435E+03  0.63089387756E+03  0.25500000920E-02 0.  1.
</event>
<event>
 5   0  0.4504463E-05  0.1596279E+04  0.7818609E-02  0.8822837E-01
        1   -1    0    0  501    0  0.00000000000E+00  0.00000000000E+00  0.14774221395E+04  0.14774221395E+04  0.50400001928E-02 0. -1.
       -1   -1    0    0    0  501  0.00000000000E+00  0.00000000000E+00 -0.43117447301E+03  0.43117447304E+03  0.50400001928E-02 0.  1.
    10030    2    1    2    0    0  0.00000000000E+00  0.00000000000E+00  0.10462476665E+04  0.19085966126E+04  0.15962790639E+04 0.  0.
        1    1    3    3  502    0  0.75350474820E+03 -0.20893737741E+03  0.33181001392E+03  0.84942458088E+03  0.50400001928E-02 0.  1.
       -1    1    3    3    0  502 -0.75350474820E+03  0.20893737741E+03  0.71443765260E+03  0.10591720317E+04  0.50400001928E-02 0. -1.
</event>
<event>
 5   0  0.8037548E-05  0.1596354E+04  0.7818609E-02  0.8822791E-01
       -2   -1    0    0    0  501  0.00000000000E+00  0.00000000000E+00  0.42705443356E+03  0.42705443357E+03  0.25500000920E-02 0. -1.
        2   -1    0    0  501    0  0.00000000000E+00  0.00000000000E+00 -0.14918153683E+04  0.14918153683E+04  0.25500000920E-02 0.  1.
    10030    2    1    2    0    0  0.00000000000E+00  0.00000000000E+00 -0.10647609348E+04  0.19188698019E+04  0.15963538043E+04 0.  0.
        5    1    3    3  502    0  0.49778574001E+03 -0.52283304566E+03 -0.12312534851E+03  0.73234348364E+03  0.46999998093E+01 0.  1.
       -5    1    3    3    0  502 -0.49778574001E+03  0.52283304566E+03 -0.94163558625E+03  0.11865263182E+04  0.46999998093E+01 0. -1.
</event>
<event>
 5   0  0.4256406E-05  0.1600038E+04  0.7818609E-02  0.8820525E-01
        1   -1    0    0  501    0  0.00000000000E+00  0.00000000000E+00  0.76977197503E+03  0.76977197504E+03  0.50400001928E-02 0. -1.
       -1   -1    0    0    0  501  0.00000000000E+00  0.00000000000E+00 -0.83145480763E+03  0.83145480764E+03  0.50400001928E-02 0.  1.
    10030    2    1    2    0    0  0.00000000000E+00  0.00000000000E+00 -0.61682832600E+02  0.16012267827E+04  0.16000382613E+04 0.  0.
        3    1    3    3  502    0  0.46925667942E+03  0.48293833429E+03  0.40145090525E+03  0.78396052543E+03  0.10100000352E+00 0. -1.
       -3    1    3    3    0  502 -0.46925667942E+03 -0.48293833429E+03 -0.46313373785E+03  0.81726625725E+03  0.10100000352E+00 0.  1.
</event>
<event>
 5   0  0.4373026E-05  0.1598567E+04  0.7818609E-02  0.8821429E-01
        1   -1    0    0  501    0  0.00000000000E+00  0.00000000000E+00  0.94801618324E+03  0.94801618326E+03  0.50400001928E-02 0.  1.
       -1   -1    0    0    0  501  0.00000000000E+00  0.00000000000E+00 -0.67388547231E+03  0.67388547233E+03  0.50400001928E-02 0. -1.
    10030    2    1    2    0    0  0.00000000000E+00  0.00000000000E+00  0.27413071093E+03  0.16219016556E+04  0.15985672753E+04 0.  0.
        4    1    3    3  502    0  0.78006835433E+03 -0.17165519804E+03  0.16717301834E+03  0.81603956730E+03  0.12699999809E+01 0. -1.
       -4    1    3    3    0  502 -0.78006835433E+03  0.17165519804E+03  0.10695769259E+03  0.80586208829E+03  0.12699999809E+01 0.  1.
</event>
<event>
 5   0  0.8037548E-05  0.1596193E+04  0.7818609E-02  0.8822890E-01
       -2   -1    0    0    0  501  0.00000000000E+00  0.00000000000E+00  0.11827729002E+04  0.11827729002E+04  0.25500000920E-02 0.  1.
        2   -1    0    0  501    0  0.00000000000E+00  0.00000000000E+00 -0.53852932035E+03  0.53852932036E+03  0.25500000920E-02 0. -1.
    10030    2    1    2    0    0  0.00000000000E+00  0.00000000000E+00  0.64424357986E+03  0.17213022206E+04  0.15961928281E+04 0.  0.
        5    1    3    3  502    0 -0.28176590846E+03  0.66072442830E+03  0.69721666095E+03  0.10010404386E+04  0.46999998093E+01 0.  1.
       -5    1    3    3    0  502  0.28176590846E+03 -0.66072442830E+03 -0.52973081090E+02  0.72026178202E+03  0.46999998093E+01 0. -1.
</event>
<event>
 5   0  0.4314657E-05  0.1598072E+04  0.7818609E-02  0.8821733E-01
       -1   -1    0    0    0  501  0.00000000000E+00  0.00000000000E+00  0.12109526038E+04  0.12109526038E+04  0.50400001928E-02 0. -1.
        1   -1    0    0  501    0  0.00000000000E+00  0.00000000000E+00 -0.52723691499E+03  0.52723691502E+03  0.50400001928E-02 0.  1.
    10030    2    1    2    0    0  0.00000000000E+00  0.00000000000E+00  0.68371568879E+03  0.17381895188E+04  0.15980724828E+04 0.  0.
        5    1    3    3  502    0 -0.49895376303E+03 -0.15408759304E+03 -0.31593065891E+03  0.61035409002E+03  0.46999998093E+01 0.  1.
       -5    1    3    3    0  502  0.49895376303E+03  0.15408759304E+03  0.99964634769E+03  0.11278354288E+04  0.46999998093E+01 0. -1.
</event>
<event>
 5   0  0.8037548E-05  0.1599581E+04  0.7818609E-02  0.8820805E-01
        2   -1    0    0  501    0  0.00000000000E+00  0.00000000000E+00  0.16885417173E+04  0.16885417173E+04  0.25500000920E-02 0.  1.
       -2   -1    0    0    0  501  0.00000000000E+00  0.00000000000E+00 -0.37882696765E+03  0.37882696766E+03  0.25500000920E-02 0. -1.
    10030    2    1    2    0    0  0.00000000000E+00  0.00000000000E+00  0.13097147497E+04  0.20673686850E+04  0.15995813684E+04 0.  0.
        5    1    3    3  502    0 -0.39838413783E+03  0.18240301991E+03 -0.20988519849E+03  0.48585457648E+03  0.46999998093E+01 0. -1.
       -5    1    3    3    0  502  0.39838413783E+03 -0.18240301991E+03  0.15195999482E+04  0.15815141085E+04  0.46999998093E+01 0.  1.
</event>
<event>
 5   0  0.8620155E-05  0.1599211E+04  0.7818609E-02  0.8821033E-01
        2   -1    0    0  501    0  0.00000000000E+00  0.00000000000E+00  0.78491350067E+03  0.78491350067E+03  0.25500000920E-02 0.  1.
       -2   -1    0    0    0  501  0.00000000000E+00  0.00000000000E+00 -0.81457270347E+03  0.81457270347E+03  0.25500000920E-02 0. -1.
    10030    2    1    2    0    0  0.00000000000E+00  0.00000000000E+00 -0.29659202802E+02  0.15994862041E+04  0.15992111958E+04 0.  0.
        4    1    3    3  502    0 -0.53631381288E+03 -0.59062041023E+03  0.39054745269E+02  0.79874392698E+03  0.12699999809E+01 0.  1.
       -4    1    3    3    0  502  0.53631381288E+03  0.59062041023E+03 -0.68713948071E+02  0.80074227716E+03  0.12699999809E+01 0. -1.
</event>
<event>
 5   0  0.8694033E-05  0.1592284E+04  0.7818609E-02  0.8825302E-01
        2   -1    0    0  501    0  0.00000000000E+00  0.00000000000E+00  0.17315852264E+04  0.17315852264E+04  0.25500000920E-02 0. -1.
       -2   -1    0    0    0  501  0.00000000000E+00  0.00000000000E+00 -0.36604732171E+03  0.36604732172E+03  0.25500000920E-02 0.  1.
    10030    2    1    2    0    0  0.00000000000E+00  0.00000000000E+00  0.13655379047E+04  0.20976325481E+04  0.15922840632E+04 0.  0.
        1    1    3    3  502    0  0.49772874309E+03 -0.34688340692E+03  0.36120427979E+01  0.60669188767E+03  0.50400001928E-02 0.  1.
       -1    1    3    3    0  502 -0.49772874309E+03  0.34688340692E+03  0.13619258619E+04  0.14909406605E+04  0.50400001928E-02 0. -1.
</event>
<event>
 5   0  0.8694033E-05  0.1643265E+04  0.7818609E-02  0.8794401E-01
        2   -1    0    0  501    0  0.00000000000E+00  0.00000000000E+00  0.93893178151E+03  0.93893178152E+03  0.25500000920E-02 0. -1.
       -2   -1    0    0    0  501  0.00000000000E+00  0.00000000000E+00 -0.71898682578E+03  0.71898682578E+03  0.25500000920E-02 0.  1.
    10030    2    1    2    0    0  0.00000000000E+00  0.00000000000E+00  0.21994495573E+03  0.16579186073E+04  0.16432645328E+04 0.  0.
        1    1    3    3  502    0 -0.21075353254E+03 -0.36378455780E+03 -0.60224287596E+03  0.73447446357E+03  0.50400001928E-02 0.  1.
       -1    1    3    3    0  502  0.21075353254E+03  0.36378455780E+03  0.82218783170E+03  0.92344414373E+03  0.50400001928E-02 0. -1.
</event>
<event>
 5   0  0.4211419E-05  0.1600199E+04  0.7818609E-02  0.8820426E-01
        1   -1    0    0  501    0  0.00000000000E+00  0.00000000000E+00  0.98550379981E+03  0.98550379982E+03  0.50400001928E-02 0. -1.
       -1   -1    0    0    0  501  0.00000000000E+00  0.00000000000E+00 -0.64957568453E+03  0.64957568454E+03  0.50400001928E-02 0.  1.
    10030    2    1    2    0    0  0.00000000000E+00  0.00000000000E+00  0.33592811529E+03  0.16350794844E+04  0.16001991193E+04 0.  0.
        2    1    3    3  502    0  0.71432414260E+03  0.50339221305E+02  0.53262738248E+03  0.89246005315E+03  0.25500000920E-02 0.  1.
       -2    1    3    3    0  502 -0.71432414260E+03 -0.50339221305E+02 -0.19669926719E+03  0.74261943122E+03  0.25500000920E-02 0. -1.
</event>
<event>
 5   0  0.8694033E-05  0.1599088E+04  0.7818609E-02  0.8821109E-01
        2   -1    0    0  501    0  0.00000000000E+00  0.00000000000E+00  0.56723086309E+03  0.56723086310E+03  0.25500000920E-02 0. -1.
       -2   -1    0    0    0  501  0.00000000000E+00  0.00000000000E+00 -0.11270019857E+04  0.11270019857E+04  0.25500000920E-02 0.  1.
    10030    2    1    2    0    0  0.00000000000E+00  0.00000000000E+00 -0.55977112257E+03  0.16942328488E+04  0.15990876262E+04 0.  0.
        1    1    3    3  502    0 -0.69032296052E+03 -0.31301968221E+03 -0.10299205477E+02  0.75804563513E+03  0.50400001928E-02 0.  1.
       -1    1    3    3    0  502  0.69032296052E+03  0.31301968221E+03 -0.54947191709E+03  0.93618721363E+03  0.50400001928E-02 0. -1.
</event>
<event>
 5   0  0.4314657E-05  0.1599874E+04  0.7818609E-02  0.8820625E-01
        1   -1    0    0  501    0  0.00000000000E+00  0.00000000000E+00  0.44508925079E+03  0.44508925082E+03  0.50400001928E-02 0.  1.
       -1   -1    0    0    0  501  0.00000000000E+00  0.00000000000E+00 -0.14376873413E+04  0.14376873413E+04  0.50400001928E-02 0. -1.
    10030    2    1    2    0    0  0.00000000000E+00  0.00000000000E+00 -0.99259809055E+03  0.18827765922E+04  0.15998739721E+04 0.  0.
        5    1    3    3  502    0 -0.26859830526E+02  0.61512971548E+03  0.10465702352E+03  0.62456480843E+03  0.46999998093E+01 0.  1.
       -5    1    3    3    0  502  0.26859830526E+02 -0.61512971548E+03 -0.10972551141E+04  0.12582117837E+04  0.46999998093E+01 0. -1.
</event>
<event>
 5   0  0.4256406E-05  0.1596474E+04  0.7818609E-02  0.8822717E-01
       -1   -1    0    0    0  501  0.00000000000E+00  0.00000000000E+00  0.63048115617E+03  0.63048115619E+03  0.50400001928E-02 0. -1.
        1   -1    0    0  501    0  0.00000000000E+00  0.00000000000E+00 -0.10106283963E+04  0.10106283963E+04  0.50400001928E-02 0.  1.
    10030    2    1    2    0    0  0.00000000000E+00  0.00000000000E+00 -0.38014724014E+03  0.16411095525E+04  0.15964738141E+04 0.  0.
        3    1    3    3  502    0  0.60501471311E+03 -0.49615534000E+02  0.34275990314E+03  0.69712901654E+03  0.10100000352E+00 0. -1.
       -3    1    3    3    0  502 -0.60501471311E+03  0.49615534000E+02 -0.72290714328E+03  0.94398053598E+03  0.10100000352E+00 0.  1.
</event>
<event>
 5   0  0.8620155E-05  0.1598333E+04  0.7818609E-02  0.8821573E-01
        2   -1    0    0  501    0  0.00000000000E+00  0.00000000000E+00  0.81577812642E+03  0.81577812643E+03  0.25500000920E-02 0. -1.
       -2   -1    0    0    0  501  0.00000000000E+00  0.00000000000E+00 -0.78289269002E+03  0.78289269002E+03  0.25500000920E-02 0.  1.
    10030    2    1    2    0    0  0.00000000000E+00  0.00000000000E+00  0.32885436406E+02  0.15986708164E+04  0.15983325459E+04 0.  0.
        4    1    3    3  502    0 -0.25880237555E+03 -0.75497773324E+03  0.57622679797E+02  0.80018250007E+03  0.12699999809E+01 0.  1.
       -4    1    3    3    0  502  0.25880237555E+03  0.75497773324E+03 -0.24737243391E+02  0.79848831638E+03  0.12699999809E+01 0. -1.
</event>
<event>
 5   0  0.4373026E-05  0.1600083E+04  0.7818609E-02  0.8820497E-01
       -1   -1    0    0    0  501  0.00000000000E+00  0.00000000000E+00  0.61148832557E+03  0.61148832559E+03  0.50400001928E-02 0. -1.
        1   -1    0    0  501    0  0.00000000000E+00  0.00000000000E+00 -0.10467356872E+04  0.10467356872E+04  0.50400001928E-02 0.  1.
    10030    2    1    2    0    0  0.00000000000E+00  0.00000000000E+00 -0.43524736161E+03  0.16582240128E+04  0.16000833137E+04 0.  0.
        4    1    3    3  502    0 -0.62038279381E+03 -0.35906564339E+03 -0.58586888127E+03  0.92576827882E+03  0.12699999809E+01 0.  1.
       -4    1    3    3    0  502  0.62038279381E+03  0.35906564339E+03  0.15062151966E+03  0.73245573396E+03  0.12699999809E+01 0. -1.
</event>
<event>
 5   0  0.7849690E-05  0.1603455E+04  0.7818609E-02  0.8818428E-01
        2   -1    0    0  501    0  0.00000000000E+00  0.00000000000E+00  0.89460236833E+03  0.89460236834E+03  0.25500000920E-02 0. -1.
       -2   -1    0    0    0  501  0.00000000000E+00  0.00000000000E+00 -0.71849462005E+03  0.71849462006E+03  0.25500000920E-02 0.  1.
    10030    2    1    2    0    0  0.00000000000E+00  0.00000000000E+00  0.17610774828E+03  0.16130969884E+04  0.16034550056E+04 0.  0.
        3    1    3    3  502    0 -0.73859835343E+03  0.28852884807E+03 -0.30939058828E+02  0.79355759679E+03  0.10100000352E+00 0.  1.
       -3    1    3    3    0  502  0.73859835343E+03 -0.28852884807E+03  0.20704680711E+03  0.81953939161E+03  0.10100000352E+00 0. -1.
</event>
<event>
 5   0  0.7849690E-05  0.1595150E+04  0.7818609E-02  0.8823533E-01
       -2   -1    0    0    0  501  0.00000000000E+00  0.00000000000E+00  0.47792799503E+03  0.47792799504E+03  0.25500000920E-02 0.  1.
        2   -1    0    0  501    0  0.00000000000E+00  0.00000000000E+00 -0.13310071897E+04  0.13310071897E+04  0.25500000920E-02 0. -1.
    10030    2    1    2    0    0  0.00000000000E+00  0.00000000000E+00 -0.85307919468E+03  0.18089351847E+04  0.15951496451E+04 0.  0.
        3    1    3    3  502    0  0.24012152786E+03 -0.33356240309E+03  0.34859041799E+03  0.53892254973E+03  0.10100000352E+00 0.  1.
       -3    1    3    3    0  502 -0.24012152786E+03  0.33356240309E+03 -0.12016696127E+04  0.12700126350E+04  0.10100000352E+00 0. -1.
</event>
<event>
 5   0  0.7849690E-05  0.1608040E+04  0.7818609E-02  0.8815624E-01
        2   -1    0    0  501    0  0.00000000000E+00  0.00000000000E+00  0.69582296164E+03  0.69582296164E+03  0.25500000920E-02 0.  1.
       -2   -1    0    0    0  501  0.00000000000E+00  0.00000000000E+00 -0.92904131471E+03  0.92904131472E+03  0.25500000920E-02 0. -1.
    10030    2    1    2    0    0  0.00000000000E+00  0.00000000000E+00 -0.23321835307E+03  0.16248642764E+04  0.16080401476E+04 0.  0.
        3    1    3    3  502    0  0.27949428214E+03  0.68458094246E+02 -0.87522678431E+03  0.92131726272E+03  0.10100000352E+00 0. -1.
       -3    1    3    3    0  502 -0.27949428214E+03 -0.68458094246E+02  0.64200843124E+03  0.70354701364E+03  0.10100000352E+00 0.  1.
</event>
<event>
 5   0  0.4211419E-05  0.1598975E+04  0.7818609E-02  0.8821178E-01
       -1   -1    0    0    0  501  0.00000000000E+00  0.00000000000E+00  0.10815271016E+04  0.10815271016E+04  0.50400001928E-02 0. -1.
        1   -1    0    0  501    0  0.00000000000E+00  0.00000000000E+00 -0.59099786355E+03  0.59099786357E+03  0.50400001928E-02 0.  1.
    10030    2    1    2    0    0  0.00000000000E+00  0.00000000000E+00  0.49052923807E+03  0.16725249652E+04  0.15989749297E+04 0.  0.
        2    1    3    3  502    0  0.34286155824E+03  0.15559048023E+03 -0.49245545065E+03  0.61989903738E+03  0.25500000920E-02 0.  1.
       -2    1    3    3    0  502 -0.34286155824E+03 -0.15559048023E+03  0.98298468872E+03  0.10526259278E+04  0.25500000920E-02 0. -1.
</event>
<event>
 5   0  0.8037548E-05  0.1597733E+04  0.7818609E-02  0.8821942E-01
        2   -1    0    0  501    0  0.00000000000E+00  0.00000000000E+00  0.70152796149E+03  0.70152796149E+03  0.25500000920E-02 0.  1.
       -2   -1    0    0    0  501  0.00000000000E+00  0.00000000000E+00 -0.90971062216E+03  0.90971062217E+03  0.25500000920E-02 0. -1.
    10030    2    1    2    0    0  0.00000000000E+00  0.00000000000E+00 -0.20818266067E+03  0.16112385837E+04  0.15977326914E+04 0.  0.
        5    1    3    3  502    0  0.64208247781E+03  0.15320656625E+03  0.34962651607E+03  0.74699595112E+03  0.46999998093E+01 0.  1.
       -5    1    3    3    0  502 -0.64208247781E+03 -0.15320656625E+03 -0.55780917674E+03  0.86424263254E+03  0.46999998093E+01 0. -1.
</event>
<event>
 5   0  0.8037548E-05  0.1604170E+04  0.7818609E-02  0.8817990E-01
       -2   -1    0    0    0  501  0.00000000000E+00  0.00000000000E+00  0.12843658621E+04  0.12843658621E+04  0.25500000920E-02 0. -1.
        2   -1    0    0  501    0  0.00000000000E+00  0.00000000000E+00 -0.50090111009E+03  0.50090111009E+03  0.25500000920E-02 0.  1.
    10030    2    1    2    0    0  0.00000000000E+00  0.00000000000E+00  0.78346475199E+03  0.17852669722E+04  0.16041699238E+04 0.  0.
        5    1    3    3  502    0  0.24965997155E+03 -0.76217671745E+03  0.40135396852E+03  0.89685592380E+03  0.46999998093E+01 0. -1.
       -5    1    3    3    0  502 -0.24965997155E+03  0.76217671745E+03  0.38211078347E+03  0.88841104837E+03  0.46999998093E+01 0.  1.
</event>
<event>
 5   0  0.8620155E-05  0.1600100E+04  0.7818609E-02  0.8820487E-01
        2   -1    0    0  501    0  0.00000000000E+00  0.00000000000E+00  0.50092565136E+03  0.50092565137E+03  0.25500000920E-02 0.  1.
       -2   -1    0    0    0  501  0.00000000000E+00  0.00000000000E+00 -0.12777936736E+04  0.12777936736E+04  0.25500000920E-02 0. -1.
    10030    2    1    2    0    0  0.00000000000E+00  0.00000000000E+00 -0.77686802224E+03  0.17787193250E+04  0.16000995322E+04 0.  0.
        4    1    3    3  502    0  0.66945751425E+03 -0.34657886870E+03 -0.90592267882E+02  0.75927521197E+03  0.12699999809E+01 0.  1.
       -4    1    3    3    0  502 -0.66945751425E+03  0.34657886870E+03 -0.68627575436E+03  0.10194441130E+04  0.12699999809E+01 0. -1.
</event>
<event>
 5   0  0.8620155E-05  0.1582959E+04  0.7818609E-02  0.8831086E-01
        2   -1    0    0  501    0  0.00000000000E+00  0.00000000000E+00  0.69479316876E+03  0.69479316877E+03  0.25500000920E-02 0. -1.
       -2   -1    0    0    0  501  0.00000000000E+00  0.00000000000E+00 -0.90162097531E+03  0.90162097531E+03  0.25500000920E-02 0.  1.
    10030    2    1    2    0    0  0.00000000000E+00  0.00000000000E+00 -0.20682780655E+03  0.15964141441E+04  0.15829593734E+04 0.  0.
        4    1    3    3  502    0  0.34193387556E+03  0.45362803999E+03 -0.65922565789E+03  0.87021678612E+03  0.12699999809E+01 0.  1.
       -4    1    3    3    0  502 -0.34193387556E+03 -0.45362803999E+03  0.45239785134E+03  0.72619735796E+03  0.12699999809E+01 0. -1.
</event>
<event>
 5   0  0.4211419E-05  0.1601525E+04  0.7818609E-02  0.8819612E-01
       -1   -1    0    0    0  501  0.00000000000E+00  0.00000000000E+00  0.71365659579E+03  0.71365659580E+03  0.50400001928E-02 0. -1.
        1   -1    0    0  501    0  0.00000000000E+00  0.00000000000E+00 -0.89849968394E+03  0.89849968396E+03  0.50400001928E-02 0.  1.
    10030    2    1    2    0    0  0.00000000000E+00  0.00000000000E+00 -0.18484308816E+03  0.16121562798E+04  0.16015245559E+04 0.  0.
        2    1    3    3  502    0 -0.51806990508E+03 -0.34227677069E+03 -0.60141684448E+03  0.86443740961E+03  0.25500000920E-02 0.  1.
       -2    1    3    3    0  502  0.51806990508E+03  0.34227677069E+03  0.41657375633E+03  0.74771887015E+03  0.25500000920E-02 0. -1.
</event>
<event>
 5   0  0.7849690E-05  0.1600245E+04  0.7818609E-02  0.8820397E-01
       -2   -1    0    0    0  501  0.00000000000E+00  0.00000000000E+00  0.84977082335E+03  0.84977082335E+03  0.25500000920E-02 0.  1.
        2   -1    0    0  501    0  0.00000000000E+00  0.00000000000E+00 -0.75337535647E+03  0.75337535647E+03  0.25500000920E-02 0. -1.
    10030    2    1    2    0    0  0.00000000000E+00  0.00000000000E+00  0.96395466885E+02  0.16031461798E+04  0.16002454774E+04 0.  0.
        3    1    3    3  502    0 -0.77362649524E+03 -0.16896211189E+03  0.16308008378E+03  0.80848084289E+03  0.10100000352E+00 0.  1.
       -3    1    3    3    0  502  0.77362649524E+03  0.16896211189E+03 -0.66684616898E+02  0.79466533693E+03  0.10100000352E+00 0. -1.
</event>
<event>
 5   0  0.4373026E-05  0.1599808E+04  0.7818609E-02  0.8820666E-01
       -1   -1    0    0    0  501  0.00000000000E+00  0.00000000000E+00  0.10668398566E+04  0.10668398566E+04  0.50400001928E-02 0. -1.
        1   -1    0    0  501    0  0.00000000000E+00  0.00000000000E+00 -0.59975864265E+03  0.59975864267E+03  0.50400001928E-02 0.  1.
    10030    2    1    2    0    0  0.00000000000E+00  0.00000000000E+00  0.46708121396E+03  0.16665984993E+04  0.15998080189E+04 0.  0.
        4    1    3    3  502    0 -0.52030097925E+03 -0.19304541602E+03 -0.36658748184E+03  0.66510723677E+03  0.12699999809E+01 0.  1.
       -4    1    3    3    0  502  0.52030097925E+03  0.19304541602E+03  0.83366869580E+03  0.10014912625E+04  0.12699999809E+01 0. -1.
</event>
<event>
 5   0  0.8694033E-05  0.1598438E+04  0.7818609E-02  0.8821508E-01
        2   -1    0    0  501    0  0.00000000000E+00  0.00000000000E+00  0.31320447727E+04  0.31320447727E+04  0.25500000920E-02 0.  1.
       -2   -1    0    0    0  501  0.00000000000E+00  0.00000000000E+00 -0.20394069377E+03  0.20394069378E+03  0.25500000920E-02 0. -1.
    10030    2    1    2    0    0  0.00000000000E+00  0.00000000000E+00  0.29281040789E+04  0.33359854665E+04  0.15984384679E+04 0.  0.
        1    1    3    3  502    0  0.40030167906E+03 -0.69168362381E+03  0.14831473914E+04  0.16847533512E+04  0.50400001928E-02 0. -1.
       -1    1    3    3    0  502 -0.40030167906E+03  0.69168362381E+03  0.14449566875E+04  0.16512321153E+04  0.50400001928E-02 0.  1.
</event>
<event>
 5   0  0.7901257E-05  0.1600249E+04  0.7818609E-02  0.8820395E-01
        2   -1    0    0  501    0  0.00000000000E+00  0.00000000000E+00  0.74271513141E+03  0.74271513141E+03  0.25500000920E-02 0. -1.
       -2   -1    0    0    0  501  0.00000000000E+00  0.00000000000E+00 -0.86197114689E+03  0.86197114690E+03  0.25500000920E-02 0.  1.
    10030    2    1    2    0    0  0.00000000000E+00  0.00000000000E+00 -0.11925601548E+03  0.16046862783E+04  0.16002487477E+04 0.  0.
        2    1    3    3  502    0 -0.56148157424E+02 -0.52816623313E+03  0.54043494697E+03  0.75774805662E+03  0.25500000920E-02 0. -1.
       -2    1    3    3    0  502  0.56148157424E+02  0.52816623313E+03 -0.65969096246E+03  0.84693822169E+03  0.25500000920E-02 0.  1.
</event>
<event>
 5   0  0.4373026E-05  0.1601613E+04  0.7818609E-02  0.8819558E-01
        1   -1    0    0  501    0  0.00000000000E+00  0.00000000000E+00  0.73221265224E+03  0.73221265226E+03  0.50400001928E-02 0. -1.
       -1   -1    0    0    0  501  0.00000000000E+00  0.00000000000E+00 -0.87582643098E+03  0.87582643100E+03  0.50400001928E-02 0.  1.
    10030    2    1    2    0    0  0.00000000000E+00  0.00000000000E+00 -0.14361377874E+03  0.16080390833E+04  0.16016131792E+04 0.  0.
        4    1    3    3  502    0  0.15139711972E+03 -0.94990707982E+02 -0.85554449232E+03  0.87401505347E+03  0.12699999809E+01 0.  1.
       -4    1    3    3    0  502 -0.15139711972E+03  0.94990707982E+02  0.71193071358E+03  0.73402402978E+03  0.12699999809E+01 0. -1.
</event>
<event>
 5   0  0.4211419E-05  0.1579990E+04  0.7818609E-02  0.8832936E-01
       -1   -1    0    0    0  501  0.00000000000E+00  0.00000000000E+00  0.47835923922E+03  0.47835923924E+03  0.50400001928E-02 0. -1.
        1   -1    0    0  501    0  0.00000000000E+00  0.00000000000E+00 -0.13046521124E+04  0.13046521124E+04  0.50400001928E-02 0.  1.
    10030    2    1    2    0    0  0.00000000000E+00  0.00000000000E+00 -0.82629287316E+03  0.17830113516E+04  0.15799903695E+04 0.  0.
        2    1    3    3  502    0 -0.50958929320E+03 -0.21866470161E+03  0.22182324944E+03  0.59724455081E+03  0.25500000920E-02 0. -1.
       -2    1    3    3    0  502  0.50958929320E+03  0.21866470161E+03 -0.10481161226E+04  0.11857668008E+04  0.25500000920E-02 0.  1.
</event>
<event>
 5   0  0.8620155E-05  0.1588372E+04  0.7818609E-02  0.8827723E-01
       -2   -1    0    0    0  501  0.00000000000E+00  0.00000000000E+00  0.67841393994E+03  0.67841393995E+03  0.25500000920E-02 0.  1.
        2   -1    0    0  501    0  0.00000000000E+00  0.00000000000E+00 -0.92971515905E+03  0.92971515905E+03  0.25500000920E-02 0. -1.
    10030    2    1    2    0    0  0.00000000000E+00  0.00000000000E+00 -0.25130121911E+03  0.16081290990E+04  0.15883724048E+04 0.  0.
        4    1    3    3  502    0  0.26637395712E+03 -0.88995639665E+02 -0.87775996395E+03  0.92159615674E+03  0.12699999809E+01 0. -1.
       -4    1    3    3    0  502 -0.26637395712E+03  0.88995639665E+02  0.62645874484E+03  0.68653294225E+03  0.12699999809E+01 0.  1.
</event>
<event>
 5   0  0.8620155E-05  0.1597345E+04  0.7818609E-02  0.8822181E-01
        2   -1    0    0  501    0  0.00000000000E+00  0.00000000000E+00  0.69428084989E+03  0.69428084989E+03  0.25500000920E-02 0. -1.
       -2   -1    0    0    0  501  0.00000000000E+00  0.00000000000E+00 -0.91876051251E+03  0.91876051251E+03  0.25500000920E-02 0.  1.
    10030    2    1    2    0    0  0.00000000000E+00  0.00000000000E+00 -0.22447966262E+03  0.16130413624E+04  0.15973450842E+04 0.  0.
        4    1    3    3  502    0 -0.50210902605E+03  0.27856774224E+03  0.44833917421E+03  0.72850743928E+03  0.12699999809E+01 0. -1.
       -4    1    3    3    0  502  0.50210902605E+03 -0.27856774224E+03 -0.67281883683E+03  0.88453392312E+03  0.12699999809E+01 0.  1.
</event>
<event>
 5   0  0.4373026E-05  0.1602055E+04  0.7818609E-02  0.8819287E-01
        1   -1    0    0  501    0  0.00000000000E+00  0.00000000000E+00  0.85033671730E+03  0.85033671731E+03  0.50400001928E-02 0. -1.
       -1   -1    0    0    0  501  0.00000000000E+00  0.00000000000E+00 -0.75457727539E+03  0.75457727540E+03  0.50400001928E-02 0.  1.
    10030    2    1    2    0    0  0.00000000000E+00  0.00000000000E+00  0.95759441910E+02  0.16049139927E+04  0.16020546349E+04 0.  0.
        4    1    3    3  502    0  0.50402427727E+02  0.76105315931E+03 -0.19730357384E+03  0.78782779156E+03  0.12699999809E+01 0.  1.
       -4    1    3    3    0  502 -0.50402427727E+02 -0.76105315931E+03  0.29306301575E+03  0.81708620115E+03  0.12699999809E+01 0. -1.
</event>
<event>
 5   0  0.4211419E-05  0.1599367E+04  0.7818609E-02  0.8820937E-01
        1   -1    0    0  501    0  0.00000000000E+00  0.00000000000E+00  0.19049078844E+04  0.19049078844E+04  0.50400001928E-02 0.  1.
       -1   -1    0    0    0  501  0.00000000000E+00  0.00000000000E+00 -0.33570847088E+03  0.33570847092E+03  0.50400001928E-02 0. -1.
    10030    2    1    2    0    0  0.00000000000E+00  0.00000000000E+00  0.15691994135E+04  0.22406163553E+04  0.15993670162E+04 0.  0.
        2    1    3    3  502    0 -0.21425220655E+02  0.45789310923E+03  0.17025824002E+04  0.17632106990E+04  0.25500000920E-02 0.  1.
       -2    1    3    3    0  502  0.21425220655E+02 -0.45789310923E+03 -0.13338298668E+03  0.47740565634E+03  0.25500000920E-02 0. -1.
</event>
<event>
 5   0  0.8037548E-05  0.1597081E+04  0.7818609E-02  0.8822343E-01
        2   -1    0    0  501    0  0.00000000000E+00  0.00000000000E+00  0.50533601414E+03  0.50533601415E+03  0.25500000920E-02 0.  1.
       -2   -1    0    0    0  501  0.00000000000E+00  0.00000000000E+00 -0.12618669592E+04  0.12618669592E+04  0.25500000920E-02 0. -1.
    10030    2    1    2    0    0  0.00000000000E+00  0.00000000000E+00 -0.75653094504E+03  0.17672029733E+04  0.15970808615E+04 0.  0.
        5    1    3    3  502    0  0.45322246720E+02 -0.77770366693E+03 -0.57235698751E+03  0.96669111445E+03  0.46999998093E+01 0. -1.
       -5    1    3    3    0  502 -0.45322246720E+02  0.77770366693E+03 -0.18417395753E+03  0.80051185889E+03  0.46999998093E+01 0.  1.
</event>
<event>
 5   0  0.8037548E-05  0.1602823E+04  0.7818609E-02  0.8818815E-01
       -2   -1    0    0    0  501  0.00000000000E+00  0.00000000000E+00  0.21706778359E+03  0.21706778361E+03  0.25500000920E-02 0.  1.
        2   -1    0    0  501    0  0.00000000000E+00  0.00000000000E+00 -0.29588020300E+04  0.29588020300E+04  0.25500000920E-02 0. -1.
    10030    2    1    2    0    0  0.00000000000E+00  0.00000000000E+00 -0.27417342464E+04  0.31758698136E+04  0.16028232576E+04 0.  0.
        5    1    3    3  502    0 -0.22441128982E+03 -0.69815960261E+03 -0.20112414006E+04  0.21407711973E+04  0.46999998093E+01 0. -1.
       -5    1    3    3    0  502  0.22441128982E+03  0.69815960261E+03 -0.73049284582E+03  0.10350986163E+04  0.46999998093E+01 0.  1.
</event>
<event>
 5   0  0.4314657E-05  0.1598040E+04  0.7818609E-02  0.8821753E-01
        1   -1    0    0  501    0  0.00000000000E+00  0.00000000000E+00  0.61058682766E+03  0.61058682768E+03  0.50400001928E-02 0.  1.
       -1   -1    0    0    0  501  0.00000000000E+00  0.00000000000E+00 -0.10456058426E+04  0.10456058426E+04  0.50400001928E-02 0. -1.
    10030    2    1    2    0    0  0.00000000000E+00  0.00000000000E+00 -0.43501901496E+03  0.16561926703E+04  0.15980402429E+04 0.  0.
        5    1    3    3  502    0 -0.79363254807E+03 -0.65594454454E+02 -0.14989898457E+03  0.81033761445E+03  0.46999998093E+01 0.  1.
       -5    1    3    3    0  502  0.79363254807E+03  0.65594454454E+02 -0.28512003039E+03  0.84585505587E+03  0.46999998093E+01 0. -1.
</event>
<event>
 5   0  0.7901257E-05  0.1597120E+04  0.7818609E-02  0.8822319E-01
       -2   -1    0    0    0  501  0.00000000000E+00  0.00000000000E+00  0.76813391684E+03  0.76813391684E+03  0.25500000920E-02 0. -1.
        2   -1    0    0  501    0  0.00000000000E+00  0.00000000000E+00 -0.83019170087E+03  0.83019170087E+03  0.25500000920E-02 0.  1.
    10030    2    1    2    0    0  0.00000000000E+00  0.00000000000E+00 -0.62057784033E+02  0.15983256177E+04  0.15971204124E+04 0.  0.
        2    1    3    3  502    0 -0.26993718419E+03  0.18659226651E+03 -0.75959999982E+03  0.82745085477E+03  0.25500000920E-02 0.  1.
       -2    1    3    3    0  502  0.26993718419E+03 -0.18659226651E+03  0.69754221579E+03  0.77087476294E+03  0.25500000920E-02 0. -1.
</event>
<event>
 5   0  0.4373026E-05  0.1601915E+04  0.7818609E-02  0.8819372E-01
       -1   -1    0    0    0  501  0.00000000000E+00  0.00000000000E+00  0.12951711326E+04  0.12951711326E+04  0.50400001928E-02 0. -1.
        1   -1    0    0  501    0  0.00000000000E+00  0.00000000000E+00 -0.49532670730E+03  0.49532670732E+03  0.50400001928E-02 0.  1.
    10030    2    1    2    0    0  0.00000000000E+00  0.00000000000E+00  0.79984442529E+03  0.17904978399E+04  0.16019149197E+04 0.  0.
        4    1    3    3  502    0  0.24989165557E+03  0.40597395063E+03 -0.31948764827E+03  0.57387686694E+03  0.12699999809E+01 0.  1.
       -4    1    3    3    0  502 -0.24989165557E+03 -0.40597395063E+03  0.11193320736E+04  0.12166209730E+04  0.12699999809E+01 0. -1.
</event>
<event>
 5   0  0.7849690E-05  0.1600221E+04  0.7818609E-02  0.8820412E-01
        2   -1    0    0  501    0  0.00000000000E+00  0.00000000000E+00  0.38648503447E+03  0.38648503448E+03  0.25500000920E-02 0. -1.
       -2   -1    0    0    0  501  0.00000000000E+00  0.00000000000E+00 -0.16564069833E+04  0.16564069833E+04  0.25500000920E-02 0.  1.
    10030    2    1    2    0    0  0.00000000000E+00  0.00000000000E+00 -0.12699219489E+04  0.20428920178E+04  0.16002206224E+04 0.  0.
        3    1    3    3  502    0 -0.38019137366E+03 -0.70367485733E+03 -0.60720445742E+03  0.10041917390E+04  0.10100000352E+00 0.  1.
       -3    1    3    3    0  502  0.38019137366E+03  0.70367485733E+03 -0.66271749144E+03  0.10387002788E+04  0.10100000352E+00 0. -1.
</event>
<event>
 5   0  0.3042125E-05  0.1600955E+04  0.7818609E-02  0.8819961E-01
        4   -1    0    0  501    0  0.00000000000E+00  0.00000000000E+00  0.16268364802E+04  0.16268369759E+04  0.12699999809E+01 0.  1.
       -4   -1    0    0    0  501  0.00000000000E+00  0.00000000000E+00 -0.39386989425E+03  0.39387194175E+03  0.12699999809E+01 0. -1.
    10030    2    1    2    0    0  0.00000000000E+00  0.00000000000E+00  0.12329665859E+04  0.20207089176E+04  0.16009553172E+04 0.  0.
        4    1    3    3  502    0  0.34732415106E+03 -0.84923166942E+01 -0.29374407271E+03  0.45496524978E+03  0.12699999809E+01 0. -1.
       -4    1    3    3    0  502 -0.34732415106E+03  0.84923166942E+01  0.15267106586E+04  0.15657436679E+04  0.12699999809E+01 0.  1.
</event>
<event>
 5   0  0.7901257E-05  0.1574538E+04  0.7818609E-02  0.8836345E-01
        2   -1    0    0  501    0  0.00000000000E+00  0.00000000000E+00  0.60103486478E+03  0.60103486478E+03  0.25500000920E-02 0.  1.
       -2   -1    0    0    0  501  0.00000000000E+00  0.00000000000E+00 -0.10312082445E+04  0.10312082445E+04  0.25500000920E-02 0. -1.
    10030    2    1    2    0    0  0.00000000000E+00  0.00000000000E+00 -0.43017337968E+03  0.16322431093E+04  0.15745375293E+04 0.  0.
        2    1    3    3  502    0 -0.39776038614E+03 -0.67632515678E+03 -0.14820019484E+03  0.79849379474E+03  0.25500000920E-02 0. -1.
       -2    1    3    3    0  502  0.39776038614E+03  0.67632515678E+03 -0.28197318484E+03  0.83374931451E+03  0.25500000920E-02 0.  1.
</event>
<event>
 5   0  0.4256406E-05  0.1601746E+04  0.7818609E-02  0.8819476E-01
       -1   -1    0    0    0  501  0.00000000000E+00  0.00000000000E+00  0.33976180210E+03  0.33976180213E+03  0.50400001928E-02 0. -1.
        1   -1    0    0  501    0  0.00000000000E+00  0.00000000000E+00 -0.18877861223E+04  0.18877861223E+04  0.50400001928E-02 0.  1.
    10030    2    1    2    0    0  0.00000000000E+00  0.00000000000E+00 -0.15480243202E+04  0.22275479244E+04  0.16017460659E+04 0.  0.
        3    1    3    3  502    0 -0.57151761770E+03 -0.35069314854E+03 -0.13830363163E+04  0.15370125355E+04  0.10100000352E+00 0.  1.
       -3    1    3    3    0  502  0.57151761770E+03  0.35069314854E+03 -0.16498800389E+03  0.69053538896E+03  0.10100000352E+00 0. -1.
</event>
<event>
 5   0  0.7901257E-05  0.1598531E+04  0.7818609E-02  0.8821451E-01
       -2   -1    0    0    0  501  0.00000000000E+00  0.00000000000E+00  0.23512569238E+03  0.23512569239E+03  0.25500000920E-02 0. -1.
        2   -1    0    0  501    0  0.00000000000E+00  0.00000000000E+00 -0.27169537827E+04  0.27169537827E+04  0.25500000920E-02 0.  1.
    10030    2    1    2    0    0  0.00000000000E+00  0.00000000000E+00 -0.24818280903E+04  0.29520794751E+04  0.15985313751E+04 0.  0.
        2    1    3    3  502    0 -0.21931773331E+01 -0.16433009933E+03 -0.26854137404E+04  0.26904379102E+04  0.25500000920E-02 0.  1.
       -2    1    3    3    0  502  0.21931773331E+01  0.16433009933E+03  0.20358565005E+03  0.26164156491E+03  0.25500000920E-02 0. -1.
</event>
<event>
 5   0  0.4314657E-05  0.1596030E+04  0.7818609E-02  0.8822991E-01
        1   -1    0    0  501    0  0.00000000000E+00  0.00000000000E+00  0.14518467502E+04  0.14518467502E+04  0.50400001928E-02 0. -1.
       -1   -1    0    0    0  501  0.00000000000E+00  0.00000000000E+00 -0.43863291350E+03  0.43863291353E+03  0.50400001928E-02 0.  1.
    10030    2    1    2    0    0  0.00000000000E+00  0.00000000000E+00  0.10132138367E+04  0.18904796637E+04  0.15960297867E+04 0.  0.
        5    1    3    3  502    0 -0.26460683198E+02 -0.47707109459E+03 -0.25045545796E+03  0.53948774173E+03  0.46999998093E+01 0.  1.
       -5    1    3    3    0  502  0.26460683198E+02  0.47707109459E+03  0.12636692947E+04  0.13509919220E+04  0.46999998093E+01 0. -1.
</event>
<event>
 5   0  0.4373026E-05  0.1601358E+04  0.7818609E-02  0.8819714E-01
       -1   -1    0    0    0  501  0.00000000000E+00  0.00000000000E+00  0.61671218469E+03  0.61671218471E+03  0.50400001928E-02 0. -1.
        1   -1    0    0  501    0  0.00000000000E+00  0.00000000000E+00 -0.10395237659E+04  0.10395237660E+04  0.50400001928E-02 0.  1.
    10030    2    1    2    0    0  0.00000000000E+00  0.00000000000E+00 -0.42281158126E+03  0.16562359507E+04  0.16013581395E+04 0.  0.
        4    1    3    3  502    0 -0.12284923982E+03  0.59999422630E+03  0.32202102220E+03  0.69194230898E+03  0.12699999809E+01 0. -1.
       -4    1    3    3    0  502  0.12284923982E+03 -0.59999422630E+03 -0.74483260346E+03  0.96429364169E+03  0.12699999809E+01 0.  1.
</event>
<event>
 5   0  0.7849690E-05  0.1601124E+04  0.7818609E-02  0.8819858E-01
        2   -1    0    0  501    0  0.00000000000E+00  0.00000000000E+00  0.55024371259E+03  0.55024371260E+03  0.25500000920E-02 0. -1.
       -2   -1    0    0    0  501  0.00000000000E+00  0.00000000000E+00 -0.11647552872E+04  0.11647552872E+04  0.25500000920E-02 0.  1.
    10030    2    1    2    0    0  0.00000000000E+00  0.00000000000E+00 -0.61451157456E+03  0.17149989998E+04  0.16011236973E+04 0.  0.
        3    1    3    3  502    0  0.28713509956E+03  0.23465109203E+03  0.45270634380E+03  0.58519291204E+03  0.10100000352E+00 0. -1.
       -3    1    3    3    0  502 -0.28713509956E+03 -0.23465109203E+03 -0.10672179184E+04  0.11298060877E+04  0.10100000352E+00 0.  1.
</event>
<event>
 5   0  0.4256406E-05  0.1600498E+04  0.7818609E-02  0.8820242E-01
        1   -1    0    0  501    0  0.00000000000E+00  0.00000000000E+00  0.43273725079E+03  0.43273725082E+03  0.50400001928E-02 0. -1.
       -1   -1    0    0    0  501  0.00000000000E+00  0.00000000000E+00 -0.14798786392E+04  0.14798786392E+04  0.50400001928E-02 0.  1.
    10030    2    1    2    0    0  0.00000000000E+00  0.00000000000E+00 -0.10471413884E+04  0.19126158900E+04  0.16004981898E+04 0.  0.
        3    1    3    3  502    0 -0.57130409410E+02 -0.17557312497E+03 -0.14540774001E+04  0.14657526741E+04  0.10100000352E+00 0.  1.
       -3    1    3    3    0  502  0.57130409410E+02  0.17557312497E+03  0.40693601173E+03  0.44686321591E+03  0.10100000352E+00 0. -1.
</event>
<event>
 5   0  0.4211419E-05  0.1592871E+04  0.7818609E-02  0.8824939E-01
       -1   -1    0    0    0  501  0.00000000000E+00  0.00000000000E+00  0.27102019489E+03  0.27102019493E+03  0.50400001928E-02 0.  1.
        1   -1    0    0  501    0  0.00000000000E+00  0.00000000000E+00 -0.23404522069E+04  0.23404522069E+04  0.50400001928E-02 0. -1.
    10030    2    1    2    0    0  0.00000000000E+00  0.00000000000E+00 -0.20694320120E+04  0.26114724018E+04  0.15928713863E+04 0.  0.
        2    1    3    3  502    0 -0.56323239260E+03  0.56124728497E+03 -0.11094978090E+04  0.13649962019E+04  0.25500000920E-02 0.  1.
       -2    1    3    3    0  502  0.56323239260E+03 -0.56124728497E+03 -0.95993420303E+03  0.12464762000E+04  0.25500000920E-02 0. -1.
</event>
<event>
 5   0  0.4211419E-05  0.1607963E+04  0.7818609E-02  0.8815671E-01
        1   -1    0    0  501    0  0.00000000000E+00  0.00000000000E+00  0.10255224564E+04  0.10255224564E+04  0.50400001928E-02 0.  1.
       -1   -1    0    0    0  501  0.00000000000E+00  0.00000000000E+00 -0.63029975694E+03  0.63029975696E+03  0.50400001928E-02 0. -1.
    10030    2    1    2    0    0  0.00000000000E+00  0.00000000000E+00  0.39522269949E+03  0.16558222134E+04  0.16079633765E+04 0.  0.
        2    1    3    3  502    0  0.21307792426E+03  0.61576357302E+03  0.68260660112E+03  0.94367301093E+03  0.25500000920E-02 0.  1.
       -2    1    3    3    0  502 -0.21307792426E+03 -0.61576357302E+03 -0.28738390163E+03  0.71214920247E+03  0.25500000920E-02 0. -1.
</event>
<event>
 5   0  0.8620155E-05  0.1601969E+04  0.7818609E-02  0.8819339E-01
       -2   -1    0    0    0  501  0.00000000000E+00  0.00000000000E+00  0.54750458037E+03  0.54750458037E+03  0.25500000920E-02 0.  1.
        2   -1    0    0  501    0  0.00000000000E+00  0.00000000000E+00 -0.11718191381E+04  0.11718191381E+04  0.25500000920E-02 0. -1.
    10030    2    1    2    0    0  0.00000000000E+00  0.00000000000E+00 -0.62431455776E+03  0.17193237185E+04  0.16019692200E+04 0.  0.
        4    1    3    3  502    0  0.24740430983E+03  0.34968791848E+03 -0.10385577935E+04  0.11234297647E+04  0.12699999809E+01 0. -1.
       -4    1    3    3    0  502 -0.24740430983E+03 -0.34968791848E+03  0.41424323578E+03  0.59589395377E+03  0.12699999809E+01 0.  1.
</event>
<event>
 5   0  0.4373026E-05  0.1599597E+04  0.7818609E-02  0.8820796E-01
       -1   -1    0    0    0  501  0.00000000000E+00  0.00000000000E+00  0.39331744011E+03  0.39331744014E+03  0.50400001928E-02 0. -1.
        1   -1    0    0  501    0  0.00000000000E+00  0.00000000000E+00 -0.16263650694E+04  0.16263650695E+04  0.50400001928E-02 0.  1.
    10030    2    1    2    0    0  0.00000000000E+00  0.00000000000E+00 -0.12330476293E+04  0.20196825096E+04  0.15995971316E+04 0.  0.
        4    1    3    3  502    0  0.19087022871E+03 -0.23658142480E+03 -0.15505840062E+04  0.15800995500E+04  0.12699999809E+01 0.  1.
       -4    1    3    3    0  502 -0.19087022871E+03  0.23658142480E+03  0.31753637690E+03  0.43958295954E+03  0.12699999809E+01 0. -1.
</event>
<event>
 5   0  0.4504463E-05  0.1599118E+04  0.7818609E-02  0.8821090E-01
       -1   -1    0    0    0  501  0.00000000000E+00  0.00000000000E+00  0.11928307308E+04  0.11928307308E+04  0.50400001928E-02 0. -1.
        1   -1    0    0  501    0  0.00000000000E+00  0.00000000000E+00 -0.53594719475E+03  0.53594719478E+03  0.50400001928E-02 0.  1.
    10030    2    1    2    0    0  0.00000000000E+00  0.00000000000E+00  0.65688353606E+03  0.17287779256E+04  0.15991176117E+04 0.  0.
        1    1    3    3  502    0 -0.21340432848E+03 -0.36086323362E+02 -0.50367618813E+03  0.54820920520E+03  0.50400001928E-02 0.  1.
       -1    1    3    3    0  502  0.21340432848E+03  0.36086323362E+02  0.11605597242E+04  0.11805687204E+04  0.50400001928E-02 0. -1.
</event>
<event>
 5   0  0.8037548E-05  0.1599844E+04  0.7818609E-02  0.8820644E-01
        2   -1    0    0  501    0  0.00000000000E+00  0.00000000000E+00  0.75888606990E+03  0.75888606991E+03  0.25500000920E-02 0.  1.
       -2   -1    0    0    0  501  0.00000000000E+00  0.00000000000E+00 -0.84317682296E+03  0.84317682296E+03  0.25500000920E-02 0. -1.
    10030    2    1    2    0    0  0.00000000000E+00  0.00000000000E+00 -0.84290753055E+02  0.16020628929E+04  0.15998439242E+04 0.  0.
        5    1    3    3  502    0 -0.36012535219E+03 -0.11957990355E+03  0.66300702025E+03  0.76393063921E+03  0.46999998093E+01 0.  1.
       -5    1    3    3    0  502  0.36012535219E+03  0.11957990355E+03 -0.74729777331E+03  0.83813225365E+03  0.46999998093E+01 0. -1.
</event>
<event>
 5   0  0.8694033E-05  0.1598810E+04  0.7818609E-02  0.8821279E-01
       -2   -1    0    0    0  501  0.00000000000E+00  0.00000000000E+00  0.51624318287E+03  0.51624318287E+03  0.25500000920E-02 0. -1.
        2   -1    0    0  501    0  0.00000000000E+00  0.00000000000E+00 -0.12378825055E+04  0.12378825055E+04  0.25500000920E-02 0.  1.
    10030    2    1    2    0    0  0.00000000000E+00  0.00000000000E+00 -0.72163932267E+03  0.17541256884E+04  0.15988100634E+04 0.  0.
        1    1    3    3  502    0 -0.94689781374E+02  0.42656540912E+02 -0.12304495607E+04  0.12348246259E+04  0.50400001928E-02 0.  1.
       -1    1    3    3    0  502  0.94689781374E+02 -0.42656540912E+02  0.50881023805E+03  0.51930106253E+03  0.50400001928E-02 0. -1.
</event>
<event>
 5   0  0.8694033E-05  0.1601391E+04  0.7818609E-02  0.8819694E-01
        2   -1    0    0  501    0  0.00000000000E+00  0.00000000000E+00  0.29821238333E+04  0.29821238334E+04  0.25500000920E-02 0. -1.
       -2   -1    0    0    0  501  0.00000000000E+00  0.00000000000E+00 -0.21498544313E+03  0.21498544315E+03  0.25500000920E-02 0.  1.
    10030    2    1    2    0    0  0.00000000000E+00  0.00000000000E+00  0.27671383902E+04  0.31971092765E+04  0.16013909127E+04 0.  0.
        1    1    3    3  502    0  0.10161176537E+03  0.75031462965E+03  0.86366070598E+03  0.11485672855E+04  0.50400001928E-02 0.  1.
       -1    1    3    3    0  502 -0.10161176537E+03 -0.75031462965E+03  0.19034776842E+04  0.20485419910E+04  0.50400001928E-02 0. -1.
</event>
<event>
 5   0  0.4256406E-05  0.1599517E+04  0.7818609E-02  0.8820845E-01
       -1   -1    0    0    0  501  0.00000000000E+00  0.00000000000E+00  0.37621685414E+03  0.37621685418E+03  0.50400001928E-02 0.  1.
        1   -1    0    0  501    0  0.00000000000E+00  0.00000000000E+00 -0.17001188583E+04  0.17001188583E+04  0.50400001928E-02 0. -1.
    10030    2    1    2    0    0  0.00000000000E+00  0.00000000000E+00 -0.13239020042E+04  0.20763357125E+04  0.15995166377E+04 0.  0.
        3    1    3    3  502    0 -0.57517841404E+03 -0.23399820547E+03 -0.76921639386E+01  0.62100285646E+03  0.10100000352E+00 0.  1.
       -3    1    3    3    0  502  0.57517841404E+03  0.23399820547E+03 -0.13162098402E+04  0.14553328560E+04  0.10100000352E+00 0. -1.
</event>
<event>
 5   0  0.8037548E-05  0.1597376E+04  0.7818609E-02  0.8822162E-01
        2   -1    0    0  501    0  0.00000000000E+00  0.00000000000E+00  0.12138595776E+04  0.12138595776E+04  0.25500000920E-02 0.  1.
       -2   -1    0    0    0  501  0.00000000000E+00  0.00000000000E+00 -0.52551571566E+03  0.52551571567E+03  0.25500000920E-02 0. -1.
    10030    2    1    2    0    0  0.00000000000E+00  0.00000000000E+00  0.68834386193E+03  0.17393752933E+04  0.15973757036E+04 0.  0.
        5    1    3    3  502    0  0.13526556915E+02  0.65346712340E+03  0.84397136471E+03  0.10674792755E+04  0.46999998093E+01 0.  1.
       -5    1    3    3    0  502 -0.13526556915E+02 -0.65346712340E+03 -0.15562750279E+03  0.67189601779E+03  0.46999998093E+01 0. -1.
</event>
<event>
 5   0  0.7901257E-05  0.1599252E+04  0.7818609E-02  0.8821008E-01
        2   -1    0    0  501    0  0.00000000000E+00  0.00000000000E+00  0.74200675216E+03  0.74200675216E+03  0.25500000920E-02 0. -1.
       -2   -1    0    0    0  501  0.00000000000E+00  0.00000000000E+00 -0.86171924204E+03  0.86171924204E+03  0.25500000920E-02 0.  1.
    10030    2    1    2    0    0  0.00000000000E+00  0.00000000000E+00 -0.11971248988E+03  0.16037259942E+04  0.15992516951E+04 0.  0.
        2    1    3    3  502    0  0.31741940297E+03 -0.70392811390E+03 -0.26811884211E+03  0.81740906554E+03  0.25500000920E-02 0. -1.
       -2    1    3    3    0  502 -0.31741940297E+03  0.70392811390E+03  0.14840635223E+03  0.78631692867E+03  0.25500000920E-02 0.  1.
</event>
<event>
 5   0  0.4314657E-05  0.1600281E+04  0.7818609E-02  0.8820375E-01
        1   -1    0    0  501    0  0.00000000000E+00  0.00000000000E+00  0.13364907989E+04  0.13364907989E+04  0.50400001928E-02 0. -1.
       -1   -1    0    0    0  501  0.00000000000E+00  0.00000000000E+00 -0.47903417714E+03  0.47903417716E+03  0.50400001928E-02 0.  1.
    10030    2    1    2    0    0  0.00000000000E+00  0.00000000000E+00  0.85745662178E+03  0.18155249761E+04  0.16002809380E+04 0.  0.
        5    1    3    3  502    0 -0.32501774960E+02  0.71471847402E+03  0.22322759649E+02  0.71582068849E+03  0.46999998093E+01 0. -1.
       -5    1    3    3    0  502  0.32501774960E+02 -0.71471847402E+03  0.83513386213E+03  0.10997042876E+04  0.46999998093E+01 0.  1.
</event>
<event>
 5   0  0.8694033E-05  0.1600545E+04  0.7818609E-02  0.8820213E-01
        2   -1    0    0  501    0  0.00000000000E+00  0.00000000000E+00  0.59477157682E+03  0.59477157683E+03  0.25500000920E-02 0. -1.
       -2   -1    0    0    0  501  0.00000000000E+00  0.00000000000E+00 -0.10767766309E+04  0.10767766309E+04  0.25500000920E-02 0.  1.
    10030    2    1    2    0    0  0.00000000000E+00  0.00000000000E+00 -0.48200505407E+03  0.16715482077E+04  0.16005450755E+04 0.  0.
        1    1    3    3  502    0  0.63709903000E+03  0.44399727924E+03 -0.44299241248E+03  0.89401959460E+03  0.50400001928E-02 0.  1.
       -1    1    3    3    0  502 -0.63709903000E+03 -0.44399727924E+03 -0.39012641594E+02  0.77752861312E+03  0.50400001928E-02 0. -1.
</event>
<event>
 5   0  0.8620155E-05  0.1600543E+04  0.7818609E-02  0.8820214E-01
        2   -1    0    0  501    0  0.00000000000E+00  0.00000000000E+00  0.11058345091E+04  0.11058345091E+04  0.25500000920E-02 0. -1.
       -2   -1    0    0    0  501  0.00000000000E+00  0.00000000000E+00 -0.57914153875E+03  0.57914153875E+03  0.25500000920E-02 0.  1.
    10030    2    1    2    0    0  0.00000000000E+00  0.00000000000E+00  0.52669297040E+03  0.16849760479E+04  0.16005432818E+04 0.  0.
        4    1    3    3  502    0 -0.12452445369E+03  0.26933692136E+03  0.10457791977E+04  0.10870623074E+04  0.12699999809E+01 0. -1.
       -4    1    3    3    0  502  0.12452445369E+03 -0.26933692136E+03 -0.51908622735E+03  0.59791374052E+03  0.12699999809E+01 0.  1.
</event>
<event>
 5   0  0.8694033E-05  0.1600085E+04  0.7818609E-02  0.8820496E-01
        2   -1    0    0  501    0  0.00000000000E+00  0.00000000000E+00  0.10788330352E+04  0.10788330353E+04  0.25500000920E-02 0. -1.
       -2   -1    0    0    0  501  0.00000000000E+00  0.00000000000E+00 -0.59329677602E+03  0.59329677603E+03  0.25500000920E-02 0.  1.
    10030    2    1    2    0    0  0.00000000000E+00  0.00000000000E+00  0.48553625923E+03  0.16721298113E+04  0.16000851998E+04 0.  0.
        1    1    3    3  502    0  0.43245490393E+02  0.28229166654E+03 -0.53821585244E+03  0.60929062137E+03  0.50400001928E-02 0.  1.
       -1    1    3    3    0  502 -0.43245490393E+02 -0.28229166654E+03  0.10237521117E+04  0.10628391899E+04  0.50400001928E-02 0. -1.
</event>
<event>
 5   0  0.7901257E-05  0.1596165E+04  0.7818609E-02  0.8822907E-01
       -2   -1    0    0    0  501  0.00000000000E+00  0.00000000000E+00  0.40988056954E+03  0.40988056955E+03  0.25500000920E-02 0. -1.
        2   -1    0    0  501    0  0.00000000000E+00  0.00000000000E+00 -0.15539550634E+04  0.15539550634E+04  0.25500000920E-02 0.  1.
    10030    2    1    2    0    0  0.00000000000E+00  0.00000000000E+00 -0.11440744939E+04  0.19638356330E+04  0.15961653880E+04 0.  0.
        2    1    3    3  502    0  0.77318354940E+03  0.15291578016E+03 -0.72639516587E+03  0.10718423270E+04  0.25500000920E-02 0. -1.
       -2    1    3    3    0  502 -0.77318354940E+03 -0.15291578016E+03 -0.41767932802E+03  0.89199330600E+03  0.25500000920E-02 0.  1.
</event>
<event>
 5   0  0.4211419E-05  0.1603597E+04  0.7818609E-02  0.8818341E-01
       -1   -1    0    0    0  501  0.00000000000E+00  0.00000000000E+00  0.75439348037E+03  0.75439348039E+03  0.50400001928E-02 0.  1.
        1   -1    0    0  501    0  0.00000000000E+00  0.00000000000E+00 -0.85218200609E+03  0.85218200611E+03  0.50400001928E-02 0. -1.
    10030    2    1    2    0    0  0.00000000000E+00  0.00000000000E+00 -0.97788525720E+02  0.16065754865E+04  0.16035966444E+04 0.  0.
        2    1    3    3  502    0  0.28426761893E+03  0.55473897154E+03  0.45636105386E+03  0.77253402333E+03  0.25500000920E-02 0.  1.
       -2    1    3    3    0  502 -0.28426761893E+03 -0.55473897154E+03 -0.55414957958E+03  0.83404146316E+03  0.25500000920E-02 0. -1.
</event>
<event>
 5   0  0.4211419E-05  0.1600393E+04  0.7818609E-02  0.8820307E-01
        1   -1    0    0  501    0  0.00000000000E+00  0.00000000000E+00  0.31843204572E+03  0.31843204576E+03  0.50400001928E-02 0.  1.
       -1   -1    0    0    0  501  0.00000000000E+00  0.00000000000E+00 -0.20108358688E+04  0.20108358688E+04  0.50400001928E-02 0. -1.
    10030    2    1    2    0    0  0.00000000000E+00  0.00000000000E+00 -0.16924038231E+04  0.23292679146E+04  0.16003931759E+04 0.  0.
        2    1    3    3  502    0  0.55580155356E+03 -0.49562972402E+03 -0.42000450452E+03  0.85496665086E+03  0.25500000920E-02 0.  1.
       -2    1    3    3    0  502 -0.55580155356E+03  0.49562972402E+03 -0.12723993186E+04  0.14743012637E+04  0.25500000920E-02 0. -1.
</event>
<event>
 5   0  0.8694033E-05  0.1600744E+04  0.7818609E-02  0.8820091E-01
        2   -1    0    0  501    0  0.00000000000E+00  0.00000000000E+00  0.51441876410E+03  0.51441876411E+03  0.25500000920E-02 0.  1.
       -2   -1    0    0    0  501  0.00000000000E+00  0.00000000000E+00 -0.12452798951E+04  0.12452798951E+04  0.25500000920E-02 0. -1.
    10030    2    1    2    0    0  0.00000000000E+00  0.00000000000E+00 -0.73086113104E+03  0.17596986593E+04  0.16007440078E+04 0.  0.
        1    1    3    3  502    0 -0.15801611504E+03 -0.69501255038E+03  0.34847378703E+02  0.71360064295E+03  0.50400001928E-02 0.  1.
       -1    1    3    3    0  502  0.15801611504E+03  0.69501255038E+03 -0.76570850974E+03  0.10460980163E+04  0.50400001928E-02 0. -1.
</event>
<event>
 5   0  0.4504463E-05  0.1599846E+04  0.7818609E-02  0.8820642E-01
       -1   -1    0    0    0  501  0.00000000000E+00  0.00000000000E+00  0.33838106294E+03  0.33838106298E+03  0.50400001928E-02 0. -1.
        1   -1    0    0  501    0  0.00000000000E+00  0.00000000000E+00 -0.18909957764E+04  0.18909957764E+04  0.50400001928E-02 0.  1.
    10030    2    1    2    0    0  0.00000000000E+00  0.00000000000E+00 -0.15526147135E+04  0.22293768394E+04  0.15998464437E+04 0.  0.
        1    1    3    3  502    0  0.32502786596E+02  0.44822552305E+03 -0.16984538141E+04  0.17569029311E+04  0.50400001928E-02 0.  1.
       -1    1    3    3    0  502 -0.32502786596E+02 -0.44822552305E+03  0.14583910069E+03  0.47247390824E+03  0.50400001928E-02 0. -1.
</event>
<event>
 5   0  0.4314657E-05  0.1600170E+04  0.7818609E-02  0.8820444E-01
        1   -1    0    0  501    0  0.00000000000E+00  0.00000000000E+00  0.73364366492E+03  0.73364366494E+03  0.50400001928E-02 0.  1.
       -1   -1    0    0    0  501  0.00000000000E+00  0.00000000000E+00 -0.87254316400E+03  0.87254316402E+03  0.50400001928E-02 0. -1.
    10030    2    1    2    0    0  0.00000000000E+00  0.00000000000E+00 -0.13889949908E+03  0.16061868290E+04  0.16001696968E+04 0.  0.
        5    1    3    3  502    0 -0.72617740236E+03 -0.32149905588E+03  0.27963686350E+02  0.79466931511E+03  0.46999998093E+01 0.  1.
       -5    1    3    3    0  502  0.72617740236E+03  0.32149905588E+03 -0.16686318543E+03  0.81151751384E+03  0.46999998093E+01 0. -1.
</event>
<event>
 5   0  0.7849690E-05  0.1603510E+04  0.7818609E-02  0.8818395E-01
       -2   -1    0    0    0  501  0.00000000000E+00  0.00000000000E+00  0.79198650121E+03  0.79198650122E+03  0.25500000920E-02 0.  1.
        2   -1    0    0  501    0  0.00000000000E+00  0.00000000000E+00 -0.81164396326E+03  0.81164396326E+03  0.25500000920E-02 0. -1.
    10030    2    1    2    0    0  0.00000000000E+00  0.00000000000E+00 -0.19657462045E+02  0.16036304645E+04  0.16035099784E+04 0.  0.
        3    1    3    3  502    0  0.48531961345E+03 -0.43501042628E+03  0.45715587519E+03  0.79609088840E+03  0.10100000352E+00 0. -1.
       -3    1    3    3    0  502 -0.48531961345E+03  0.43501042628E+03 -0.47681333723E+03  0.80753957608E+03  0.10100000352E+00 0.  1.
</event>
<event>
 5   0  0.4373026E-05  0.1597251E+04  0.7818609E-02  0.8822239E-01
       -1   -1    0    0    0  501  0.00000000000E+00  0.00000000000E+00  0.30881051318E+03  0.30881051322E+03  0.50400001928E-02 0. -1.
        1   -1    0    0  501    0  0.00000000000E+00  0.00000000000E+00 -0.20653519498E+04  0.20653519498E+04  0.50400001928E-02 0.  1.
    10030    2    1    2    0    0  0.00000000000E+00  0.00000000000E+00 -0.17565414366E+04  0.23741624630E+04  0.15972506323E+04 0.  0.
        4    1    3    3  502    0 -0.79704511796E+03 -0.45872623474E+02 -0.90857171048E+03  0.12094996419E+04  0.12699999809E+01 0. -1.
       -4    1    3    3    0  502  0.79704511796E+03  0.45872623474E+02 -0.84796972611E+03  0.11646628211E+04  0.12699999809E+01 0.  1.
</event>
<event>
 5   0  0.7901257E-05  0.1606650E+04  0.7818609E-02  0.8816473E-01
       -2   -1    0    0    0  501  0.00000000000E+00  0.00000000000E+00  0.73560452126E+03  0.73560452126E+03  0.25500000920E-02 0.  1.
        2   -1    0    0  501    0  0.00000000000E+00  0.00000000000E+00 -0.87728009088E+03  0.87728009088E+03  0.25500000920E-02 0. -1.
    10030    2    1    2    0    0  0.00000000000E+00  0.00000000000E+00 -0.14167556962E+03  0.16128846121E+04  0.16066501813E+04 0.  0.
        2    1    3    3  502    0 -0.45504307816E+03  0.66152003529E+03 -0.96593552347E+02  0.80870468926E+03  0.25500000920E-02 0. -1.
       -2    1    3    3    0  502  0.45504307816E+03 -0.66152003529E+03 -0.45082017274E+02  0.80417992288E+03  0.25500000920E-02 0.  1.
</event>
<event>
 5   0  0.4373026E-05  0.1604475E+04  0.7818609E-02  0.8817804E-01
       -1   -1    0    0    0  501  0.00000000000E+00  0.00000000000E+00  0.46121382877E+03  0.46121382880E+03  0.50400001928E-02 0. -1.
        1   -1    0    0  501    0  0.00000000000E+00  0.00000000000E+00 -0.13954152202E+04  0.13954152202E+04  0.50400001928E-02 0.  1.
    10030    2    1    2    0    0  0.00000000000E+00  0.00000000000E+00 -0.93420139146E+03  0.18566290490E+04  0.16044747383E+04 0.  0.
        4    1    3    3  502    0 -0.57176903834E+03  0.56223572562E+03 -0.43985611939E+03  0.91460585119E+03  0.12699999809E+01 0. -1.
       -4    1    3    3    0  502  0.57176903834E+03 -0.56223572562E+03 -0.49434527206E+03  0.94202319785E+03  0.12699999809E+01 0.  1.
</event>
<event>
 5   0  0.4504463E-05  0.1601031E+04  0.7818609E-02  0.8819915E-01
       -1   -1    0    0    0  501  0.00000000000E+00  0.00000000000E+00  0.31671395532E+03  0.31671395536E+03  0.50400001928E-02 0.  1.
        1   -1    0    0  501    0  0.00000000000E+00  0.00000000000E+00 -0.20233548400E+04  0.20233548400E+04  0.50400001928E-02 0. -1.
    10030    2    1    2    0    0  0.00000000000E+00  0.00000000000E+00 -0.17066408846E+04  0.23400687953E+04  0.16010305611E+04 0.  0.
        1    1    3    3  502    0 -0.19754769828E+03 -0.61279391735E+03 -0.15485931693E+04  0.16771053283E+04  0.50400001928E-02 0. -1.
       -1    1    3    3    0  502  0.19754769828E+03  0.61279391735E+03 -0.15804771534E+03  0.66296346701E+03  0.50400001928E-02 0.  1.
</event>
<event>
 5   0  0.8037548E-05  0.1598619E+04  0.7818609E-02  0.8821397E-01
       -2   -1    0    0    0  501  0.00000000000E+00  0.00000000000E+00  0.47316879139E+03  0.47316879139E+03  0.25500000920E-02 0. -1.
        2   -1    0    0  501    0  0.00000000000E+00  0.00000000000E+00 -0.13502482057E+04  0.13502482057E+04  0.25500000920E-02 0.  1.
    10030    2    1    2    0    0  0.00000000000E+00  0.00000000000E+00 -0.87707941432E+03  0.18234169971E+04  0.15986185431E+04 0.  0.
        5    1    3    3  502    0  0.34084220251E+03  0.68111938588E+03 -0.71506947741E+03  0.10447217201E+04  0.46999998093E+01 0. -1.
       -5    1    3    3    0  502 -0.34084220251E+03 -0.68111938588E+03 -0.16200993691E+03  0.77869527704E+03  0.46999998093E+01 0.  1.
</event>
<event>
 5   0  0.4256406E-05  0.1595538E+04  0.7818609E-02  0.8823294E-01
        1   -1    0    0  501    0  0.00000000000E+00  0.00000000000E+00  0.22739189196E+04  0.22739189196E+04  0.50400001928E-02 0.  1.
       -1   -1    0    0    0  501  0.00000000000E+00  0.00000000000E+00 -0.27988496233E+03  0.27988496237E+03  0.50400001928E-02 0. -1.
    10030    2    1    2    0    0  0.00000000000E+00  0.00000000000E+00  0.19940339572E+04  0.25538038819E+04  0.15955384185E+04 0.  0.
        3    1    3    3  502    0 -0.47868148495E+03  0.62569139884E+03  0.11982718283E+04  0.14340436099E+04  0.10100000352E+00 0.  1.
       -3    1    3    3    0  502  0.47868148495E+03 -0.62569139884E+03  0.79576212896E+03  0.11197602720E+04  0.10100000352E+00 0. -1.
</event>
<event>
 5   0  0.4256406E-05  0.1620339E+04  0.7818609E-02  0.8808150E-01
        1   -1    0    0  501    0  0.00000000000E+00  0.00000000000E+00  0.56980330965E+03  0.56980330967E+03  0.50400001928E-02 0. -1.
       -1   -1    0    0    0  501  0.00000000000E+00  0.00000000000E+00 -0.11519313480E+04  0.11519313480E+04  0.50400001928E-02 0.  1.
    10030    2    1    2    0    0  0.00000000000E+00  0.00000000000E+00 -0.58212803831E+03  0.17217346576E+04  0.16203385999E+04 0.  0.
        3    1    3    3  502    0  0.18832809620E+03 -0.78311671187E+03 -0.38391056790E+03  0.89225926198E+03  0.10100000352E+00 0. -1.
       -3    1    3    3    0  502 -0.18832809620E+03  0.78311671187E+03 -0.19821747040E+03  0.82947539566E+03  0.10100000352E+00 0.  1.
</event>
<event>
 5   0  0.7901257E-05  0.1597189E+04  0.7818609E-02  0.8822277E-01
        2   -1    0    0  501    0  0.00000000000E+00  0.00000000000E+00  0.20006943076E+04  0.20006943076E+04  0.25500000920E-02 0.  1.
       -2   -1    0    0    0  501  0.00000000000E+00  0.00000000000E+00 -0.31876581922E+03  0.31876581923E+03  0.25500000920E-02 0. -1.
    10030    2    1    2    0    0  0.00000000000E+00  0.00000000000E+00  0.16819284884E+04  0.23194601268E+04  0.15971887302E+04 0.  0.
        2    1    3    3  502    0  0.10809855200E+03 -0.15894144247E+03 -0.28467064231E+03  0.34348952484E+03  0.25500000920E-02 0. -1.
       -2    1    3    3    0  502 -0.10809855200E+03  0.15894144247E+03  0.19665991307E+04  0.19759706020E+04  0.25500000920E-02 0.  1.
</event>
<event>
 5   0  0.8620155E-05  0.1603993E+04  0.7818609E-02  0.8818099E-01
       -2   -1    0    0    0  501  0.00000000000E+00  0.00000000000E+00  0.39946418050E+03  0.39946418051E+03  0.25500000920E-02 0.  1.
        2   -1    0    0  501    0  0.00000000000E+00  0.00000000000E+00 -0.16101530459E+04  0.16101530459E+04  0.25500000920E-02 0. -1.
    10030    2    1    2    0    0  0.00000000000E+00  0.00000000000E+00 -0.12106888654E+04  0.20096172264E+04  0.16039931009E+04 0.  0.
        4    1    3    3  502    0  0.56685564035E+03  0.28086987240E+03  0.12244317310E+02  0.63274381737E+03  0.12699999809E+01 0.  1.
       -4    1    3    3    0  502 -0.56685564035E+03 -0.28086987240E+03 -0.12229331827E+04  0.13768734090E+04  0.12699999809E+01 0. -1.
</event>
<event>
 5   0  0.4256406E-05  0.1600355E+04  0.7818609E-02  0.8820330E-01
       -1   -1    0    0    0  501  0.00000000000E+00  0.00000000000E+00  0.84763840468E+03  0.84763840470E+03  0.50400001928E-02 0.  1.
        1   -1    0    0  501    0  0.00000000000E+00  0.00000000000E+00 -0.75537412029E+03  0.75537412030E+03  0.50400001928E-02 0. -1.
    10030    2    1    2    0    0  0.00000000000E+00  0.00000000000E+00  0.92264284398E+02  0.16030125250E+04  0.16003551034E+04 0.  0.
        3    1    3    3  502    0 -0.27292294737E+03  0.38209973071E+03  0.69512542772E+03  0.83886024454E+03  0.10100000352E+00 0.  1.
       -3    1    3    3    0  502  0.27292294737E+03 -0.38209973071E+03 -0.60286114332E+03  0.76415228046E+03  0.10100000352E+00 0. -1.
</event>
<event>
 5   0  0.7901257E-05  0.1569397E+04  0.7818609E-02  0.8839572E-01
        2   -1    0    0  501    0  0.00000000000E+00  0.00000000000E+00  0.10564897235E+04  0.10564897235E+04  0.25500000920E-02 0.  1.
       -2   -1    0    0    0  501  0.00000000000E+00  0.00000000000E+00 -0.58282791747E+03  0.58282791747E+03  0.25500000920E-02 0. -1.
    10030    2    1    2    0    0  0.00000000000E+00  0.00000000000E+00  0.47366180608E+03  0.16393176410E+04  0.15693969611E+04 0.  0.
        2    1    3    3  502    0 -0.69403902574E+03  0.25168533683E+03 -0.40941587485E+02  0.73939968327E+03  0.25500000920E-02 0. -1.
       -2    1    3    3    0  502  0.69403902574E+03 -0.25168533683E+03  0.51460339356E+03  0.89991795776E+03  0.25500000920E-02 0.  1.
</event>
<event>
 5   0  0.8620155E-05  0.1598710E+04  0.7818609E-02  0.8821341E-01
        2   -1    0    0  501    0  0.00000000000E+00  0.00000000000E+00  0.62144210549E+03  0.62144210549E+03  0.25500000920E-02 0. -1.
       -2   -1    0    0    0  501  0.00000000000E+00  0.00000000000E+00 -0.10282021295E+04  0.10282021295E+04  0.25500000920E-02 0.  1.
    10030    2    1    2    0    0  0.00000000000E+00  0.00000000000E+00 -0.40676002402E+03  0.16496442350E+04  0.15987095999E+04 0.  0.
        4    1    3    3  502    0  0.16734480191E+03 -0.38835690629E+03 -0.90332874315E+03  0.99741155021E+03  0.12699999809E+01 0.  1.
       -4    1    3    3    0  502 -0.16734480191E+03  0.38835690629E+03  0.49656871913E+03  0.65223268479E+03  0.12699999809E+01 0. -1.
</event>
<event>
 5   0  0.7849690E-05  0.1599247E+04  0.7818609E-02  0.8821011E-01
        2   -1    0    0  501    0  0.00000000000E+00  0.00000000000E+00  0.14186474642E+04  0.14186474642E+04  0.25500000920E-02 0.  1.
       -2   -1    0    0    0  501  0.00000000000E+00  0.00000000000E+00 -0.45070929156E+03  0.45070929156E+03  0.25500000920E-02 0. -1.
    10030    2    1    2    0    0  0.00000000000E+00  0.00000000000E+00  0.96793817267E+03  0.18693567558E+04  0.15992468147E+04 0.  0.
        3    1    3    3  502    0 -0.79395963564E+03 -0.10122376609E+02  0.59438646822E+03  0.99185162667E+03  0.10100000352E+00 0. -1.
       -3    1    3    3    0  502  0.79395963564E+03  0.10122376609E+02  0.37355170445E+03  0.87750512912E+03  0.10100000352E+00 0.  1.
</event>
<event>
 5   0  0.4256406E-05  0.1601378E+04  0.7818609E-02  0.8819702E-01
        1   -1    0    0  501    0  0.00000000000E+00  0.00000000000E+00  0.15330051009E+04  0.15330051009E+04  0.50400001928E-02 0.  1.
       -1   -1    0    0    0  501  0.00000000000E+00  0.00000000000E+00 -0.41819999330E+03  0.41819999333E+03  0.50400001928E-02 0. -1.
    10030    2    1    2    0    0  0.00000000000E+00  0.00000000000E+00  0.11148051076E+04  0.19512050942E+04  0.16013778104E+04 0.  0.
        3    1    3    3  502    0 -0.15438808081E+03  0.14411127103E+03 -0.38365019060E+03  0.43793974115E+03  0.10100000352E+00 0. -1.
       -3    1    3    3    0  502  0.15438808081E+03 -0.14411127103E+03  0.14984552982E+04  0.15132653531E+04  0.10100000352E+00 0.  1.
</event>
<event>
 5   0  0.7901257E-05  0.1599049E+04  0.7818609E-02  0.8821133E-01
        2   -1    0    0  501    0  0.00000000000E+00  0.00000000000E+00  0.96152226891E+03  0.96152226891E+03  0.25500000920E-02 0.  1.
       -2   -1    0    0    0  501  0.00000000000E+00  0.00000000000E+00 -0.66482006630E+03  0.66482006630E+03  0.25500000920E-02 0. -1.
    10030    2    1    2    0    0  0.00000000000E+00  0.00000000000E+00  0.29670220261E+03  0.16263423352E+04  0.15990488405E+04 0.  0.
        2    1    3    3  502    0 -0.90099064231E+02 -0.69886235478E+03  0.53257272479E+03  0.88326674313E+03  0.25500000920E-02 0.  1.
       -2    1    3    3    0  502  0.90099064231E+02  0.69886235478E+03 -0.23587052219E+03  0.74307559209E+03  0.25500000920E-02 0. -1.
</event>
<event>
 5   0  0.3042125E-05  0.1602868E+04  0.7818609E-02  0.8818788E-01
       -3   -1    0    0    0  501  0.00000000000E+00  0.00000000000E+00  0.17338945194E+04  0.17338945223E+04  0.10100000352E+00 0. -1.
        3   -1    0    0  501    0  0.00000000000E+00  0.00000000000E+00 -0.37043573691E+03  0.37043575068E+03  0.10100000352E+00 0.  1.
    10030    2    1    2    0    0  0.00000000000E+00  0.00000000000E+00  0.13634587825E+04  0.21043302730E+04  0.16028680689E+04 0.  0.
        2    1    3    3  502    0  0.31270097994E+03  0.14910483727E+03  0.16305165607E+04  0.16669128382E+04  0.25500000920E-02 0. -1.
       -2    1    3    3    0  502 -0.31270097994E+03 -0.14910483727E+03 -0.26705777824E+03  0.43741743481E+03  0.25500000920E-02 0.  1.
</event>
<event>
 5   0  0.4373026E-05  0.1599200E+04  0.7818609E-02  0.8821040E-01
       -1   -1    0    0    0  501  0.00000000000E+00  0.00000000000E+00  0.87050131205E+03  0.87050131206E+03  0.50400001928E-02 0. -1.
        1   -1    0    0  501    0  0.00000000000E+00  0.00000000000E+00 -0.73447313502E+03  0.73447313503E+03  0.50400001928E-02 0.  1.
    10030    2    1    2    0    0  0.00000000000E+00  0.00000000000E+00  0.13602817703E+03  0.16049744471E+04  0.15991995844E+04 0.  0.
        4    1    3    3  502    0  0.29073151000E+03 -0.74112469906E+03 -0.68716051480E+01  0.79614035341E+03  0.12699999809E+01 0.  1.
       -4    1    3    3    0  502 -0.29073151000E+03  0.74112469906E+03  0.14289978218E+03  0.80883409369E+03  0.12699999809E+01 0. -1.
</event>
<event>
 5   0  0.7901257E-05  0.1580043E+04  0.7818609E-02  0.8832903E-01
        2   -1    0    0  501    0  0.00000000000E+00  0.00000000000E+00  0.11999540370E+04  0.11999540370E+04  0.25500000920E-02 0. -1.
       -2   -1    0    0    0  501  0.00000000000E+00  0.00000000000E+00 -0.52013133345E+03  0.52013133345E+03  0.25500000920E-02 0.  1.
    10030    2    1    2    0    0  0.00000000000E+00  0.00000000000E+00  0.67982270359E+03  0.17200853705E+04  0.15800426492E+04 0.  0.
        2    1    3    3  502    0 -0.32605861112E+03 -0.26136456149E+02  0.11227706784E+04  0.11694491560E+04  0.25500000920E-02 0. -1.
       -2    1    3    3    0  502  0.32605861112E+03  0.26136456149E+02 -0.44294797485E+03  0.55063621444E+03  0.25500000920E-02 0.  1.
</event>
<event>
 5   0  0.4314657E-05  0.1597065E+04  0.7818609E-02  0.8822353E-01
        1   -1    0    0  501    0  0.00000000000E+00  0.00000000000E+00  0.11906155535E+04  0.11906155535E+04  0.50400001928E-02 0. -1.
       -1   -1    0    0    0  501  0.00000000000E+00  0.00000000000E+00 -0.53556673932E+03  0.53556673934E+03  0.50400001928E-02 0.  1.
    10030    2    1    2    0    0  0.00000000000E+00  0.00000000000E+00  0.65504881417E+03  0.17261822928E+04  0.15970649201E+04 0.  0.
        5    1    3    3  502    0 -0.95078071055E+02  0.64045498445E+03  0.83265063812E+03  0.10547756168E+04  0.46999998093E+01 0. -1.
       -5    1    3    3    0  502  0.95078071055E+02 -0.64045498445E+03 -0.17760182395E+03  0.67140667600E+03  0.46999998093E+01 0.  1.
</event>
<event>
 5   0  0.4256406E-05  0.1602472E+04  0.7818609E-02  0.8819031E-01
       -1   -1    0    0    0  501  0.00000000000E+00  0.00000000000E+00  0.65568574850E+03  0.65568574852E+03  0.50400001928E-02 0. -1.
        1   -1    0    0  501    0  0.00000000000E+00  0.00000000000E+00 -0.97909554206E+03  0.97909554207E+03  0.50400001928E-02 0.  1.
    10030    2    1    2    0    0  0.00000000000E+00  0.00000000000E+00 -0.32340979356E+03  0.16347812906E+04  0.16024718324E+04 0.  0.
        3    1    3    3  502    0 -0.35200068199E+03 -0.15203912867E+03  0.55601286559E+03  0.67540409658E+03  0.10100000352E+00 0. -1.
       -3    1    3    3    0  502  0.35200068199E+03  0.15203912867E+03 -0.87942265915E+03  0.95937719402E+03  0.10100000352E+00 0.  1.
</event>
<event>
 5   0  0.4256406E-05  0.1604486E+04  0.7818609E-02  0.8817797E-01
        1   -1    0    0  501    0  0.00000000000E+00  0.00000000000E+00  0.11056747869E+04  0.11056747869E+04  0.50400001928E-02 0.  1.
       -1   -1    0    0    0  501  0.00000000000E+00  0.00000000000E+00 -0.58208258464E+03  0.58208258466E+03  0.50400001928E-02 0. -1.
    10030    2    1    2    0    0  0.00000000000E+00  0.00000000000E+00  0.52359220224E+03  0.16877573716E+04  0.16044862577E+04 0.  0.
        3    1    3    3  502    0 -0.66395412447E+03 -0.38368921420E+03  0.50969976821E+03  0.92078572774E+03  0.10100000352E+00 0.  1.
       -3    1    3    3    0  502  0.66395412447E+03  0.38368921420E+03  0.13892434031E+02  0.76697164382E+03  0.10100000352E+00 0. -1.
</event>
<event>
 5   0  0.4211419E-05  0.1599205E+04  0.7818609E-02  0.8821037E-01
       -1   -1    0    0    0  501  0.00000000000E+00  0.00000000000E+00  0.12761599397E+04  0.12761599397E+04  0.50400001928E-02 0.  1.
        1   -1    0    0  501    0  0.00000000000E+00  0.00000000000E+00 -0.50100615596E+03  0.50100615598E+03  0.50400001928E-02 0. -1.
    10030    2    1    2    0    0  0.00000000000E+00  0.00000000000E+00  0.77515378371E+03  0.17771660957E+04  0.15992047846E+04 0.  0.
        2    1    3    3  502    0  0.33475377277E+03  0.40461963783E+03  0.10576589973E+04  0.11808554925E+04  0.25500000920E-02 0.  1.
       -2    1    3    3    0  502 -0.33475377277E+03 -0.40461963783E+03 -0.28250521357E+03  0.59631060313E+03  0.25500000920E-02 0. -1.
</event>
<event>
 5   0  0.8037548E-05  0.1597054E+04  0.7818609E-02  0.8822360E-01
       -2   -1    0    0    0  501  0.00000000000E+00  0.00000000000E+00  0.41003599667E+03  0.41003599668E+03  0.25500000920E-02 0. -1.
        2   -1    0    0  501    0  0.00000000000E+00  0.00000000000E+00 -0.15550957945E+04  0.15550957945E+04  0.25500000920E-02 0.  1.
    10030    2    1    2    0    0  0.00000000000E+00  0.00000000000E+00 -0.11450597978E+04  0.19651317912E+04  0.15970538551E+04 0.  0.
        5    1    3    3  502    0 -0.45446409868E+03  0.27292599083E+03  0.16225620188E+03  0.55441444651E+03  0.46999998093E+01 0. -1.
       -5    1    3    3    0  502  0.45446409868E+03 -0.27292599083E+03 -0.13073159997E+04  0.14107173446E+04  0.46999998093E+01 0.  1.
</event>
<event>
 5   0  0.4373026E-05  0.1600311E+04  0.7818609E-02  0.8820357E-01
       -1   -1    0    0    0  501  0.00000000000E+00  0.00000000000E+00  0.35198476109E+03  0.35198476113E+03  0.50400001928E-02 0.  1.
        1   -1    0    0  501    0  0.00000000000E+00  0.00000000000E+00 -0.18189677835E+04  0.18189677835E+04  0.50400001928E-02 0. -1.
    10030    2    1    2    0    0  0.00000000000E+00  0.00000000000E+00 -0.14669830224E+04  0.21709525446E+04  0.16003111457E+04 0.  0.
        4    1    3    3  502    0 -0.10024050186E+03  0.81383845497E+02 -0.18047407842E+04  0.18093541388E+04  0.12699999809E+01 0. -1.
       -4    1    3    3    0  502  0.10024050186E+03 -0.81383845497E+02  0.33775776182E+03  0.36159840582E+03  0.12699999809E+01 0.  1.
</event>
<event>
 5   0  0.4314657E-05  0.1602916E+04  0.7818609E-02  0.8818759E-01
        1   -1    0    0  501    0  0.00000000000E+00  0.00000000000E+00  0.74385944767E+03  0.74385944769E+03  0.50400001928E-02 0.  1.
       -1   -1    0    0    0  501  0.00000000000E+00  0.00000000000E+00 -0.86351650846E+03  0.86351650847E+03  0.50400001928E-02 0. -1.
    10030    2    1    2    0    0  0.00000000000E+00  0.00000000000E+00 -0.11965706079E+03  0.16073759562E+04  0.16029159842E+04 0.  0.
        5    1    3    3  502    0 -0.35525899206E+03 -0.61653642294E+03 -0.42961834313E+03  0.83121605073E+03  0.46999998093E+01 0. -1.
       -5    1    3    3    0  502  0.35525899206E+03  0.61653642294E+03  0.30996128234E+03  0.77615990543E+03  0.46999998093E+01 0.  1.
</event>
<event>
 5   0  0.7901257E-05  0.1598847E+04  0.7818609E-02  0.8821257E-01
        2   -1    0    0  501    0  0.00000000000E+00  0.00000000000E+00  0.78057020674E+03  0.78057020674E+03  0.25500000920E-02 0.  1.
       -2   -1    0    0    0  501  0.00000000000E+00  0.00000000000E+00 -0.81873240961E+03  0.81873240962E+03  0.25500000920E-02 0. -1.
    10030    2    1    2    0    0  0.00000000000E+00  0.00000000000E+00 -0.38162202876E+02  0.15993026164E+04  0.15988472425E+04 0.  0.
        2    1    3    3  502    0  0.30974848343E+03 -0.29821600421E+03  0.65505536881E+03  0.78356521385E+03  0.25500000920E-02 0.  1.
       -2    1    3    3    0  502 -0.30974848343E+03  0.29821600421E+03 -0.69321757168E+03  0.81573740251E+03  0.25500000920E-02 0. -1.
</event>
<event>
 5   0  0.4211419E-05  0.1610615E+04  0.7818609E-02  0.8814053E-01
       -1   -1    0    0    0  501  0.00000000000E+00  0.00000000000E+00  0.34281126595E+03  0.34281126598E+03  0.50400001928E-02 0. -1.
        1   -1    0    0  501    0  0.00000000000E+00  0.00000000000E+00 -0.18917694635E+04  0.18917694635E+04  0.50400001928E-02 0.  1.
    10030    2    1    2    0    0  0.00000000000E+00  0.00000000000E+00 -0.15489581975E+04  0.22345807295E+04  0.16106146463E+04 0.  0.
        2    1    3    3  502    0  0.42112036111E+03  0.16122827287E+03  0.15122817550E+03  0.47561210622E+03  0.25500000920E-02 0. -1.
       -2    1    3    3    0  502 -0.42112036111E+03 -0.16122827287E+03 -0.17001863730E+04  0.17589686233E+04  0.25500000920E-02 0.  1.
</event>
<event>
 5   0  0.8037548E-05  0.1601165E+04  0.7818609E-02  0.8819833E-01
       -2   -1    0    0    0  501  0.00000000000E+00  0.00000000000E+00  0.96604972655E+03  0.96604972656E+03  0.25500000920E-02 0.  1.
        2   -1    0    0  501    0  0.00000000000E+00  0.00000000000E+00 -0.66345666945E+03  0.66345666945E+03  0.25500000920E-02 0. -1.
    10030    2    1    2    0    0  0.00000000000E+00  0.00000000000E+00  0.30259305711E+03  0.16295063960E+04  0.16011647437E+04 0.  0.
        5    1    3    3  502    0  0.14346055550E+03  0.73651828194E+02  0.94933512092E+03  0.96294588872E+03  0.46999998093E+01 0.  1.
       -5    1    3    3    0  502 -0.14346055550E+03 -0.73651828194E+02 -0.64674206381E+03  0.66656050729E+03  0.46999998093E+01 0. -1.
</event>
<event>
 5   0  0.4504463E-05  0.1600236E+04  0.7818609E-02  0.8820403E-01
        1   -1    0    0  501    0  0.00000000000E+00  0.00000000000E+00  0.12809797393E+04  0.12809797393E+04  0.50400001928E-02 0. -1.
       -1   -1    0    0    0  501  0.00000000000E+00  0.00000000000E+00 -0.49976482365E+03  0.49976482367E+03  0.50400001928E-02 0.  1.
    10030    2    1    2    0    0  0.00000000000E+00  0.00000000000E+00  0.78121491566E+03  0.17807445630E+04  0.16002357496E+04 0.  0.
        1    1    3    3  502    0  0.17580260189E+03 -0.54872825514E+03 -0.22715204331E+03  0.61936039882E+03  0.50400001928E-02 0.  1.
       -1    1    3    3    0  502 -0.17580260189E+03  0.54872825514E+03  0.10083669590E+04  0.11613841642E+04  0.50400001928E-02 0. -1.
</event>
<event>
 5   0  0.7849690E-05  0.1601150E+04  0.7818609E-02  0.8819842E-01
        2   -1    0    0  501    0  0.00000000000E+00  0.00000000000E+00  0.78866806875E+03  0.78866806876E+03  0.25500000920E-02 0. -1.
       -2   -1    0    0    0  501  0.00000000000E+00  0.00000000000E+00 -0.81266212847E+03  0.81266212847E+03  0.25500000920E-02 0.  1.
    10030    2    1    2    0    0  0.00000000000E+00  0.00000000000E+00 -0.23994059713E+02  0.16013301972E+04  0.16011504257E+04 0.  0.
        3    1    3    3  502    0 -0.40259048423E+03 -0.18563706261E+03  0.65469648051E+03  0.79067547628E+03  0.10100000352E+00 0. -1.
       -3    1    3    3    0  502  0.40259048423E+03  0.18563706261E+03 -0.67869054022E+03  0.81065472095E+03  0.10100000352E+00 0.  1.
</event>
<event>
 5   0  0.8037548E-05  0.1580143E+04  0.7818609E-02  0.8832841E-01
       -2   -1    0    0    0  501  0.00000000000E+00  0.00000000000E+00  0.51386731042E+03  0.51386731043E+03  0.25500000920E-02 0. -1.
        2   -1    0    0  501    0  0.00000000000E+00  0.00000000000E+00 -0.12147353623E+04  0.12147353623E+04  0.25500000920E-02 0.  1.
    10030    2    1    2    0    0  0.00000000000E+00  0.00000000000E+00 -0.70086805192E+03  0.17286026728E+04  0.15801427702E+04 0.  0.
        5    1    3    3  502    0 -0.53179381830E+03  0.50526997387E+03 -0.29459255388E+02  0.73416098331E+03  0.46999998093E+01 0. -1.
       -5    1    3    3    0  502  0.53179381830E+03 -0.50526997387E+03 -0.67140879653E+03  0.99444168946E+03  0.46999998093E+01 0.  1.
</event>
<event>
 5   0  0.4504463E-05  0.1602086E+04  0.7818609E-02  0.8819267E-01
       -1   -1    0    0    0  501  0.00000000000E+00  0.00000000000E+00  0.59562970320E+03  0.59562970322E+03  0.50400001928E-02 0. -1.
        1   -1    0    0  501    0  0.00000000000E+00  0.00000000000E+00 -0.10772968462E+04  0.10772968463E+04  0.50400001928E-02 0.  1.
    10030    2    1    2    0    0  0.00000000000E+00  0.00000000000E+00 -0.48166714305E+03  0.16729265495E+04  0.16020861410E+04 0.  0.
        1    1    3    3  502    0 -0.33533889986E+03 -0.23851527082E+03  0.47681692307E+03  0.62983814613E+03  0.50400001928E-02 0. -1.
       -1    1    3    3    0  502  0.33533889986E+03  0.23851527082E+03 -0.95848406612E+03  0.10430884033E+04  0.50400001928E-02 0.  1.
</event>
<event>
 5   0  0.7901257E-05  0.1598307E+04  0.7818609E-02  0.8821589E-01
        2   -1    0    0  501    0  0.00000000000E+00  0.00000000000E+00  0.13841596938E+04  0.13841596938E+04  0.25500000920E-02 0. -1.
       -2   -1    0    0    0  501  0.00000000000E+00  0.00000000000E+00 -0.46139650504E+03  0.46139650505E+03  0.25500000920E-02 0.  1.
    10030    2    1    2    0    0  0.00000000000E+00  0.00000000000E+00  0.92276318878E+03  0.18455561989E+04  0.15983071609E+04 0.  0.
        2    1    3    3  502    0  0.16556176804E+03 -0.16055606624E+03  0.13448981961E+04  0.13645292622E+04  0.25500000920E-02 0. -1.
       -2    1    3    3    0  502 -0.16556176804E+03  0.16055606624E+03 -0.42213500731E+03  0.48102693671E+03  0.25500000920E-02 0.  1.
</event>
<event>
 5   0  0.8037548E-05  0.1600003E+04  0.7818609E-02  0.8820546E-01
       -2   -1    0    0    0  501  0.00000000000E+00  0.00000000000E+00  0.13207755403E+04  0.13207755403E+04  0.25500000920E-02 0. -1.
        2   -1    0    0  501    0  0.00000000000E+00  0.00000000000E+00 -0.48456532943E+03  0.48456532944E+03  0.25500000920E-02 0.  1.
    10030    2    1    2    0    0  0.00000000000E+00  0.00000000000E+00  0.83621021088E+03  0.18053408698E+04  0.16000025435E+04 0.  0.
        5    1    3    3  502    0  0.20395505786E+02  0.68855479615E+03  0.87707071360E+03  0.11152572845E+04  0.46999998093E+01 0. -1.
       -5    1    3    3    0  502 -0.20395505786E+02 -0.68855479615E+03 -0.40860502721E+02  0.69008358526E+03  0.46999998093E+01 0.  1.
</event>
<event>
 5   0  0.4211419E-05  0.1600304E+04  0.7818609E-02  0.8820361E-01
        1   -1    0    0  501    0  0.00000000000E+00  0.00000000000E+00  0.10205637762E+04  0.10205637762E+04  0.50400001928E-02 0. -1.
       -1   -1    0    0    0  501  0.00000000000E+00  0.00000000000E+00 -0.62734280694E+03  0.62734280696E+03  0.50400001928E-02 0.  1.
    10030    2    1    2    0    0  0.00000000000E+00  0.00000000000E+00  0.39322096924E+03  0.16479065831E+04  0.16003041511E+04 0.  0.
        2    1    3    3  502    0  0.39481893028E+03 -0.38672090105E+03 -0.39922747179E+03  0.68177534221E+03  0.25500000920E-02 0.  1.
       -2    1    3    3    0  502 -0.39481893028E+03  0.38672090105E+03  0.79244844102E+03  0.96613124093E+03  0.25500000920E-02 0. -1.
</event>
<event>
 5   0  0.8037548E-05  0.1599990E+04  0.7818609E-02  0.8820554E-01
       -2   -1    0    0    0  501  0.00000000000E+00  0.00000000000E+00  0.46669446697E+03  0.46669446698E+03  0.25500000920E-02 0. -1.
        2   -1    0    0  501    0  0.00000000000E+00  0.00000000000E+00 -0.13713299372E+04  0.13713299372E+04  0.25500000920E-02 0.  1.
    10030    2    1    2    0    0  0.00000000000E+00  0.00000000000E+00 -0.90463547019E+03  0.18380244042E+04  0.15999901176E+04 0.  0.
        5    1    3    3  502    0  0.44574356475E+03  0.66330214500E+03 -0.41069247982E+03  0.89852516050E+03  0.46999998093E+01 0. -1.
       -5    1    3    3    0  502 -0.44574356475E+03 -0.66330214500E+03 -0.49394299038E+03  0.93949924365E+03  0.46999998093E+01 0.  1.
</event>
<event>
 5   0  0.4373026E-05  0.1600992E+04  0.7818609E-02  0.8819939E-01
        1   -1    0    0  501    0  0.00000000000E+00  0.00000000000E+00  0.74417000395E+03  0.74417000396E+03  0.50400001928E-02 0.  1.
       -1   -1    0    0    0  501  0.00000000000E+00  0.00000000000E+00 -0.86108568686E+03  0.86108568688E+03  0.50400001928E-02 0. -1.
    10030    2    1    2    0    0  0.00000000000E+00  0.00000000000E+00 -0.11691568292E+03  0.16052556908E+04  0.16009923660E+04 0.  0.
        4    1    3    3  502    0  0.13098663981E+03 -0.48025908915E+03  0.57009765104E+03  0.75684822596E+03  0.12699999809E+01 0.  1.
       -4    1    3    3    0  502 -0.13098663981E+03  0.48025908915E+03 -0.68701333395E+03  0.84840746487E+03  0.12699999809E+01 0. -1.
</event>
<event>
 5   0  0.4314657E-05  0.1599484E+04  0.7818609E-02  0.8820865E-01
        1   -1    0    0  501    0  0.00000000000E+00  0.00000000000E+00  0.44360912796E+03  0.44360912798E+03  0.50400001928E-02 0.  1.
       -1   -1    0    0    0  501  0.00000000000E+00  0.00000000000E+00 -0.14417805442E+04  0.14417805442E+04  0.50400001928E-02 0. -1.
    10030    2    1    2    0    0  0.00000000000E+00  0.00000000000E+00 -0.99817141621E+03  0.18853896722E+04  0.15994836791E+04 0.  0.
        5    1    3    3  502    0  0.87512017372E+02 -0.67886195743E+03 -0.11572181069E+02  0.68459324844E+03  0.46999998093E+01 0.  1.
       -5    1    3    3    0  502 -0.87512017372E+02  0.67886195743E+03 -0.98659923514E+03  0.12007964237E+04  0.46999998093E+01 0. -1.
</event>
<event>
 5   0  0.4314657E-05  0.1597919E+04  0.7818609E-02  0.8821828E-01
       -1   -1    0    0    0  501  0.00000000000E+00  0.00000000000E+00  0.31849365840E+03  0.31849365844E+03  0.50400001928E-02 0. -1.
        1   -1    0    0  501    0  0.00000000000E+00  0.00000000000E+00 -0.20042344203E+04  0.20042344203E+04  0.50400001928E-02 0.  1.
    10030    2    1    2    0    0  0.00000000000E+00  0.00000000000E+00 -0.16857407619E+04  0.23227280787E+04  0.15979185872E+04 0.  0.
        5    1    3    3  502    0  0.65187115467E+03  0.30768142029E+03 -0.13436969745E+04  0.15248434372E+04  0.46999998093E+01 0.  1.
       -5    1    3    3    0  502 -0.65187115467E+03 -0.30768142029E+03 -0.34204378733E+03  0.79788464150E+03  0.46999998093E+01 0. -1.
</event>
<event>
 5   0  0.3042125E-05  0.1603573E+04  0.7818609E-02  0.8818356E-01
       -3   -1    0    0    0  501  0.00000000000E+00  0.00000000000E+00  0.82582321844E+03  0.82582322462E+03  0.10100000352E+00 0.  1.
        3   -1    0    0  501    0  0.00000000000E+00  0.00000000000E+00 -0.77844933100E+03  0.77844933756E+03  0.10100000352E+00 0. -1.
    10030    2    1    2    0    0  0.00000000000E+00  0.00000000000E+00  0.47373887441E+02  0.16042725622E+04  0.16035729383E+04 0.  0.
        2    1    3    3  502    0 -0.81640746232E+02 -0.64370415044E+03 -0.44751886500E+03  0.78822165619E+03  0.25500000920E-02 0. -1.
       -2    1    3    3    0  502  0.81640746232E+02  0.64370415044E+03  0.49489275244E+03  0.81605090599E+03  0.25500000920E-02 0.  1.
</event>
<event>
 5   0  0.7849690E-05  0.1607594E+04  0.7818609E-02  0.8815896E-01
       -2   -1    0    0    0  501  0.00000000000E+00  0.00000000000E+00  0.82667196253E+03  0.82667196253E+03  0.25500000920E-02 0.  1.
        2   -1    0    0  501    0  0.00000000000E+00  0.00000000000E+00 -0.78155481327E+03  0.78155481327E+03  0.25500000920E-02 0. -1.
    10030    2    1    2    0    0  0.00000000000E+00  0.00000000000E+00  0.45117149260E+02  0.16082267758E+04  0.16075937936E+04 0.  0.
        3    1    3    3  502    0  0.10618283560E+03 -0.11806007873E+03  0.81082597516E+03  0.82622741964E+03  0.10100000352E+00 0.  1.
       -3    1    3    3    0  502 -0.10618283560E+03  0.11806007873E+03 -0.76570882590E+03  0.78199935616E+03  0.10100000352E+00 0. -1.
</event>
<event>
 5   0  0.4314657E-05  0.1599343E+04  0.7818609E-02  0.8820952E-01
        1   -1    0    0  501    0  0.00000000000E+00  0.00000000000E+00  0.12905579996E+04  0.12905579996E+04  0.50400001928E-02 0. -1.
       -1   -1    0    0    0  501  0.00000000000E+00  0.00000000000E+00 -0.49550211158E+03  0.49550211160E+03  0.50400001928E-02 0.  1.
    10030    2    1    2    0    0  0.00000000000E+00  0.00000000000E+00  0.79505588802E+03  0.17860601112E+04  0.15993426324E+04 0.  0.
        5    1    3    3  502    0  0.11374044335E+02  0.26222588400E+03 -0.44601140806E+03  0.51753265524E+03  0.46999998093E+01 0.  1.
       -5    1    3    3    0  502 -0.11374044335E+02 -0.26222588400E+03  0.12410672961E+04  0.12685274560E+04  0.46999998093E+01 0. -1.
</event>
<event>
 5   0  0.4314657E-05  0.1598256E+04  0.7818609E-02  0.8821620E-01
        1   -1    0    0  501    0  0.00000000000E+00  0.00000000000E+00  0.19185923848E+04  0.19185923848E+04  0.50400001928E-02 0.  1.
       -1   -1    0    0    0  501  0.00000000000E+00  0.00000000000E+00 -0.33285110910E+03  0.33285110914E+03  0.50400001928E-02 0. -1.
    10030    2    1    2    0    0  0.00000000000E+00  0.00000000000E+00  0.15857412757E+04  0.22514434939E+04  0.15982560536E+04 0.  0.
        5    1    3    3  502    0  0.18166607162E+03 -0.72231083919E+03  0.12007775418E+04  0.14130195699E+04  0.46999998093E+01 0.  1.
       -5    1    3    3    0  502 -0.18166607162E+03  0.72231083919E+03  0.38496373386E+03  0.83842392403E+03  0.46999998093E+01 0. -1.
</event>
<event>
 5   0  0.7849690E-05  0.1598083E+04  0.7818609E-02  0.8821726E-01
        2   -1    0    0  501    0  0.00000000000E+00  0.00000000000E+00  0.61097383478E+03  0.61097383479E+03  0.25500000920E-02 0.  1.
       -2   -1    0    0    0  501  0.00000000000E+00  0.00000000000E+00 -0.10449999263E+04  0.10449999263E+04  0.25500000920E-02 0. -1.
    10030    2    1    2    0    0  0.00000000000E+00  0.00000000000E+00 -0.43402609148E+03  0.16559737610E+04  0.15980833674E+04 0.  0.
        3    1    3    3  502    0  0.51641619893E+03  0.36288386197E+03 -0.72476029614E+03  0.96106601483E+03  0.10100000352E+00 0. -1.
       -3    1    3    3    0  502 -0.51641619893E+03 -0.36288386197E+03  0.29073420466E+03  0.69490774622E+03  0.10100000352E+00 0.  1.
</event>
<event>
 5   0  0.8694033E-05  0.1603102E+04  0.7818609E-02  0.8818645E-01
        2   -1    0    0  501    0  0.00000000000E+00  0.00000000000E+00  0.18217561937E+04  0.18217561937E+04  0.25500000920E-02 0.  1.
       -2   -1    0    0    0  501  0.00000000000E+00  0.00000000000E+00 -0.35267272026E+03  0.35267272027E+03  0.25500000920E-02 0. -1.
    10030    2    1    2    0    0  0.00000000000E+00  0.00000000000E+00  0.14690834734E+04  0.21744289140E+04  0.16031016343E+04 0.  0.
        1    1    3    3  502    0  0.29702663341E+02 -0.76903751734E+03  0.10383932715E+04  0.12925020455E+04  0.50400001928E-02 0.  1.
       -1    1    3    3    0  502 -0.29702663341E+02  0.76903751734E+03  0.43069020196E+03  0.88192686850E+03  0.50400001928E-02 0. -1.
</event>
<event>
 5   0  0.8620155E-05  0.1600508E+04  0.7818609E-02  0.8820236E-01
       -2   -1    0    0    0  501  0.00000000000E+00  0.00000000000E+00  0.61707736002E+03  0.61707736002E+03  0.25500000920E-02 0.  1.
        2   -1    0    0  501    0  0.00000000000E+00  0.00000000000E+00 -0.10378056621E+04  0.10378056621E+04  0.25500000920E-02 0. -1.
    10030    2    1    2    0    0  0.00000000000E+00  0.00000000000E+00 -0.42072830208E+03  0.16548830221E+04  0.16005078921E+04 0.  0.
        4    1    3    3  502    0 -0.49928848074E+03 -0.58149076249E+03 -0.44836744288E+03  0.88795015096E+03  0.12699999809E+01 0. -1.
       -4    1    3    3    0  502  0.49928848074E+03  0.58149076249E+03  0.27639140797E+02  0.76693287116E+03  0.12699999809E+01 0.  1.
</event>
<event>
 5   0  0.4211419E-05  0.1595454E+04  0.7818609E-02  0.8823345E-01
        1   -1    0    0  501    0  0.00000000000E+00  0.00000000000E+00  0.10002035772E+04  0.10002035772E+04  0.50400001928E-02 0. -1.
       -1   -1    0    0    0  501  0.00000000000E+00  0.00000000000E+00 -0.63623922837E+03  0.63623922839E+03  0.50400001928E-02 0.  1.
    10030    2    1    2    0    0  0.00000000000E+00  0.00000000000E+00  0.36396434886E+03  0.16364428056E+04  0.15954544835E+04 0.  0.
        2    1    3    3  502    0  0.10839557544E+03 -0.62777362631E+03  0.67444128536E+03  0.92775016791E+03  0.25500000920E-02 0. -1.
       -2    1    3    3    0  502 -0.10839557544E+03  0.62777362631E+03 -0.31047693649E+03  0.70869263772E+03  0.25500000920E-02 0.  1.
</event>
<event>
 5   0  0.8037548E-05  0.1638097E+04  0.7818609E-02  0.8797479E-01
       -2   -1    0    0    0  501  0.00000000000E+00  0.00000000000E+00  0.59653658588E+03  0.59653658588E+03  0.25500000920E-02 0.  1.
        2   -1    0    0  501    0  0.00000000000E+00  0.00000000000E+00 -0.11245590654E+04  0.11245590654E+04  0.25500000920E-02 0. -1.
    10030    2    1    2    0    0  0.00000000000E+00  0.00000000000E+00 -0.52802247953E+03  0.17210956513E+04  0.16380972199E+04 0.  0.
        5    1    3    3  502    0  0.57531313792E+03  0.36274904624E+03  0.21545070872E+03  0.71345159268E+03  0.46999998093E+01 0.  1.
       -5    1    3    3    0  502 -0.57531313792E+03 -0.36274904624E+03 -0.74347318825E+03  0.10076440586E+04  0.46999998093E+01 0. -1.
</event>
<event>
 5   0  0.4373026E-05  0.1600158E+04  0.7818609E-02  0.8820451E-01
        1   -1    0    0  501    0  0.00000000000E+00  0.00000000000E+00  0.99606999230E+03  0.99606999231E+03  0.50400001928E-02 0.  1.
       -1   -1    0    0    0  501  0.00000000000E+00  0.00000000000E+00 -0.64265216862E+03  0.64265216864E+03  0.50400001928E-02 0. -1.
    10030    2    1    2    0    0  0.00000000000E+00  0.00000000000E+00  0.35341782368E+03  0.16387221610E+04  0.16001581680E+04 0.  0.
        4    1    3    3  502    0 -0.52182576849E+03 -0.57722510017E+02 -0.44157189258E+03  0.68601849103E+03  0.12699999809E+01 0. -1.
       -4    1    3    3    0  502  0.52182576849E+03  0.57722510017E+02  0.79498971626E+03  0.95270366992E+03  0.12699999809E+01 0.  1.
</event>
<event>
 5   0  0.8694033E-05  0.1597245E+04  0.7818609E-02  0.8822242E-01
       -2   -1    0    0    0  501  0.00000000000E+00  0.00000000000E+00  0.12318903783E+04  0.12318903783E+04  0.25500000920E-02 0. -1.
        2   -1    0    0  501    0  0.00000000000E+00  0.00000000000E+00 -0.51773904657E+03  0.51773904658E+03  0.25500000920E-02 0.  1.
    10030    2    1    2    0    0  0.00000000000E+00  0.00000000000E+00  0.71415133173E+03  0.17496294249E+04  0.15972448152E+04 0.  0.
        1    1    3    3  502    0  0.21463907602E+03  0.74980708872E+03  0.54527226606E+03  0.95163146618E+03  0.50400001928E-02 0. -1.
       -1    1    3    3    0  502 -0.21463907602E+03 -0.74980708872E+03  0.16887906567E+03  0.79799795871E+03  0.50400001928E-02 0.  1.
</event>
<event>
 5   0  0.8037548E-05  0.1617466E+04  0.7818609E-02  0.8809889E-01
       -2   -1    0    0    0  501  0.00000000000E+00  0.00000000000E+00  0.14456933800E+04  0.14456933800E+04  0.25500000920E-02 0.  1.
        2   -1    0    0  501    0  0.00000000000E+00  0.00000000000E+00 -0.45241202671E+03  0.45241202672E+03  0.25500000920E-02 0. -1.
    10030    2    1    2    0    0  0.00000000000E+00  0.00000000000E+00  0.99328135329E+03  0.18981054067E+04  0.16174660084E+04 0.  0.
        5    1    3    3  502    0 -0.11991494954E+03 -0.39624239491E+03 -0.31862006193E+03  0.52242555882E+03  0.46999998093E+01 0. -1.
       -5    1    3    3    0  502  0.11991494954E+03  0.39624239491E+03  0.13119014152E+04  0.13756798479E+04  0.46999998093E+01 0.  1.
</event>
<event>
 5   0  0.7901257E-05  0.1597690E+04  0.7818609E-02  0.8821968E-01
       -2   -1    0    0    0  501  0.00000000000E+00  0.00000000000E+00  0.60153739697E+03  0.60153739698E+03  0.25500000920E-02 0.  1.
        2   -1    0    0  501    0  0.00000000000E+00  0.00000000000E+00 -0.10608705800E+04  0.10608705800E+04  0.25500000920E-02 0. -1.
    10030    2    1    2    0    0  0.00000000000E+00  0.00000000000E+00 -0.45933318301E+03  0.16624079770E+04  0.15976899915E+04 0.  0.
        2    1    3    3  502    0 -0.49677597632E+01 -0.65441296010E+03 -0.70634193442E+03  0.96291221267E+03  0.25500000920E-02 0. -1.
       -2    1    3    3    0  502  0.49677597632E+01  0.65441296010E+03  0.24700875141E+03  0.69949576429E+03  0.25500000920E-02 0.  1.
</event>
<event>
 5   0  0.4504463E-05  0.1599955E+04  0.7818609E-02  0.8820576E-01
        1   -1    0    0  501    0  0.00000000000E+00  0.00000000000E+00  0.69538353362E+03  0.69538353364E+03  0.50400001928E-02 0. -1.
       -1   -1    0    0    0  501  0.00000000000E+00  0.00000000000E+00 -0.92030340819E+03  0.92030340821E+03  0.50400001928E-02 0.  1.
    10030    2    1    2    0    0  0.00000000000E+00  0.00000000000E+00 -0.22491987457E+03  0.16156869418E+04  0.15999547944E+04 0.  0.
        1    1    3    3  502    0 -0.22514194659E+03  0.61761866901E+03 -0.57281761201E+03  0.87192989000E+03  0.50400001928E-02 0.  1.
       -1    1    3    3    0  502  0.22514194659E+03 -0.61761866901E+03  0.34789773744E+03  0.74375705184E+03  0.50400001928E-02 0. -1.
</event>
<event>
 5   0  0.4373026E-05  0.1596334E+04  0.7818609E-02  0.8822803E-01
       -1   -1    0    0    0  501  0.00000000000E+00  0.00000000000E+00  0.90075925947E+03  0.90075925949E+03  0.50400001928E-02 0. -1.
        1   -1    0    0  501    0  0.00000000000E+00  0.00000000000E+00 -0.70725979238E+03  0.70725979239E+03  0.50400001928E-02 0.  1.
    10030    2    1    2    0    0  0.00000000000E+00  0.00000000000E+00  0.19349946710E+03  0.16080190519E+04  0.15963343094E+04 0.  0.
        4    1    3    3  502    0 -0.71187773048E+03 -0.15110504754E+03 -0.23347074810E+03  0.76427275345E+03  0.12699999809E+01 0. -1.
       -4    1    3    3    0  502  0.71187773048E+03  0.15110504754E+03  0.42697021520E+03  0.84374629843E+03  0.12699999809E+01 0.  1.
</event>
<event>
 5   0  0.7901257E-05  0.1598670E+04  0.7818609E-02  0.8821366E-01
        2   -1    0    0  501    0  0.00000000000E+00  0.00000000000E+00  0.17517146969E+04  0.17517146969E+04  0.25500000920E-02 0.  1.
       -2   -1    0    0    0  501  0.00000000000E+00  0.00000000000E+00 -0.36474895330E+03  0.36474895331E+03  0.25500000920E-02 0. -1.
    10030    2    1    2    0    0  0.00000000000E+00  0.00000000000E+00  0.13869657436E+04  0.21164636502E+04  0.15986695746E+04 0.  0.
        2    1    3    3  502    0  0.39274300424E+02 -0.77170011616E+03  0.96438777946E+03  0.12357618416E+04  0.25500000920E-02 0.  1.
       -2    1    3    3    0  502 -0.39274300424E+02  0.77170011616E+03  0.42257796417E+03  0.88070180865E+03  0.25500000920E-02 0. -1.
</event>
<event>
 5   0  0.8037548E-05  0.1616210E+04  0.7818609E-02  0.8810651E-01
       -2   -1    0    0    0  501  0.00000000000E+00  0.00000000000E+00  0.57710469630E+03  0.57710469630E+03  0.25500000920E-02 0.  1.
        2   -1    0    0  501    0  0.00000000000E+00  0.00000000000E+00 -0.11315687926E+04  0.11315687926E+04  0.25500000920E-02 0. -1.
    10030    2    1    2    0    0  0.00000000000E+00  0.00000000000E+00 -0.55446409628E+03  0.17086734889E+04  0.16162099670E+04 0.  0.
        5    1    3    3  502    0  0.48678843304E+03  0.49208786201E+03  0.16363613628E+03  0.71127513493E+03  0.46999998093E+01 0.  1.
       -5    1    3    3    0  502 -0.48678843304E+03 -0.49208786201E+03 -0.71810023255E+03  0.99739835395E+03  0.46999998093E+01 0. -1.
</event>
<event>
 5   0  0.4373026E-05  0.1596385E+04  0.7818609E-02  0.8822772E-01
        1   -1    0    0  501    0  0.00000000000E+00  0.00000000000E+00  0.54519026150E+03  0.54519026152E+03  0.50400001928E-02 0.  1.
       -1   -1    0    0    0  501  0.00000000000E+00  0.00000000000E+00 -0.11686028144E+04  0.11686028144E+04  0.50400001928E-02 0. -1.
    10030    2    1    2    0    0  0.00000000000E+00  0.00000000000E+00 -0.62341255291E+03  0.17137930759E+04  0.15963845076E+04 0.  0.
        4    1    3    3  502    0  0.30454360458E+03  0.64278883765E+03  0.77126539009E+02  0.71545399071E+03  0.12699999809E+01 0.  1.
       -4    1    3    3    0  502 -0.30454360458E+03 -0.64278883765E+03 -0.70053909192E+03  0.99833908524E+03  0.12699999809E+01 0. -1.
</event>
<event>
 5   0  0.4211419E-05  0.1613500E+04  0.7818609E-02  0.8812297E-01
       -1   -1    0    0    0  501  0.00000000000E+00  0.00000000000E+00  0.42043134730E+03  0.42043134733E+03  0.50400001928E-02 0. -1.
        1   -1    0    0  501    0  0.00000000000E+00  0.00000000000E+00 -0.15480422363E+04  0.15480422363E+04  0.50400001928E-02 0.  1.
    10030    2    1    2    0    0  0.00000000000E+00  0.00000000000E+00 -0.11276108890E+04  0.19684735837E+04  0.16134999016E+04 0.  0.
        2    1    3    3  502    0 -0.61639648702E+03 -0.49290691824E+03 -0.76774525495E+03  0.11010606867E+04  0.25500000920E-02 0.  1.
       -2    1    3    3    0  502  0.61639648702E+03  0.49290691824E+03 -0.35986563408E+03  0.86741289699E+03  0.25500000920E-02 0. -1.
</event>
<event>
 5   0  0.8620155E-05  0.1571598E+04  0.7818609E-02  0.8838189E-01
       -2   -1    0    0    0  501  0.00000000000E+00  0.00000000000E+00  0.39729141996E+03  0.39729141997E+03  0.25500000920E-02 0. -1.
        2   -1    0    0  501    0  0.00000000000E+00  0.00000000000E+00 -0.15542244829E+04  0.15542244829E+04  0.25500000920E-02 0.  1.
    10030    2    1    2    0    0  0.00000000000E+00  0.00000000000E+00 -0.11569330630E+04  0.19515159029E+04  0.15715979788E+04 0.  0.
        4    1    3    3  502    0  0.76571340374E+03 -0.16311241726E+03 -0.66227948103E+03  0.10254454648E+04  0.12699999809E+01 0.  1.
       -4    1    3    3    0  502 -0.76571340374E+03  0.16311241726E+03 -0.49465358192E+03  0.92607043811E+03  0.12699999809E+01 0. -1.
</event>
<event>
 5   0  0.4314657E-05  0.1601137E+04  0.7818609E-02  0.8819850E-01
       -1   -1    0    0    0  501  0.00000000000E+00  0.00000000000E+00  0.48214785816E+03  0.48214785819E+03  0.50400001928E-02 0. -1.
        1   -1    0    0  501    0  0.00000000000E+00  0.00000000000E+00 -0.13292811400E+04  0.13292811400E+04  0.50400001928E-02 0.  1.
    10030    2    1    2    0    0  0.00000000000E+00  0.00000000000E+00 -0.84713328183E+03  0.18114289982E+04  0.16011371641E+04 0.  0.
        5    1    3    3  502    0 -0.35166779568E+03  0.93012979032E+02  0.38323462691E+03  0.52840564157E+03  0.46999998093E+01 0. -1.
       -5    1    3    3    0  502  0.35166779568E+03 -0.93012979032E+02 -0.12303679087E+04  0.12830233566E+04  0.46999998093E+01 0.  1.
</event>
<event>
 5   0  0.8620155E-05  0.1599235E+04  0.7818609E-02  0.8821018E-01
       -2   -1    0    0    0  501  0.00000000000E+00  0.00000000000E+00  0.14823084659E+04  0.14823084659E+04  0.25500000920E-02 0. -1.
        2   -1    0    0  501    0  0.00000000000E+00  0.00000000000E+00 -0.43134599452E+03  0.43134599453E+03  0.25500000920E-02 0.  1.
    10030    2    1    2    0    0  0.00000000000E+00  0.00000000000E+00  0.10509624714E+04  0.19136544604E+04  0.15992345912E+04 0.  0.
        4    1    3    3  502    0  0.17110925411E+03 -0.76831187608E+03  0.69387863478E+03  0.10493096247E+04  0.12699999809E+01 0. -1.
       -4    1    3    3    0  502 -0.17110925411E+03  0.76831187608E+03  0.35708383658E+03  0.86434483571E+03  0.12699999809E+01 0.  1.
</event>
<event>
 5   0  0.8620155E-05  0.1598181E+04  0.7818609E-02  0.8821666E-01
       -2   -1    0    0    0  501  0.00000000000E+00  0.00000000000E+00  0.61197660417E+03  0.61197660417E+03  0.25500000920E-02 0.  1.
        2   -1    0    0  501    0  0.00000000000E+00  0.00000000000E+00 -0.10434153761E+04  0.10434153761E+04  0.25500000920E-02 0. -1.
    10030    2    1    2    0    0  0.00000000000E+00  0.00000000000E+00 -0.43143877189E+03  0.16553919802E+04  0.15981812145E+04 0.  0.
        4    1    3    3  502    0 -0.16398000820E+03 -0.16435089529E+03  0.57627189003E+03  0.62128219354E+03  0.12699999809E+01 0.  1.
       -4    1    3    3    0  502  0.16398000820E+03  0.16435089529E+03 -0.10077106619E+04  0.10341097867E+04  0.12699999809E+01 0. -1.
</event>
<event>
 5   0  0.7849690E-05  0.1600882E+04  0.7818609E-02  0.8820006E-01
       -2   -1    0    0    0  501  0.00000000000E+00  0.00000000000E+00  0.42288068366E+03  0.42288068367E+03  0.25500000920E-02 0.  1.
        2   -1    0    0  501    0  0.00000000000E+00  0.00000000000E+00 -0.15150990470E+04  0.15150990470E+04  0.25500000920E-02 0. -1.
    10030    2    1    2    0    0  0.00000000000E+00  0.00000000000E+00 -0.10922183633E+04  0.19379797307E+04  0.16008824077E+04 0.  0.
        3    1    3    3  502    0  0.63994770151E+02 -0.14030712077E+03  0.40472738401E+03  0.43311163032E+03  0.10100000352E+00 0.  1.
       -3    1    3    3    0  502 -0.63994770151E+02  0.14030712077E+03 -0.14969457474E+04  0.15048681004E+04  0.10100000352E+00 0. -1.
</event>
<event>
 5   0  0.4211419E-05  0.1598834E+04  0.7818609E-02  0.8821265E-01
       -1   -1    0    0    0  501  0.00000000000E+00  0.00000000000E+00  0.49441796989E+03  0.49441796991E+03  0.50400001928E-02 0. -1.
        1   -1    0    0  501    0  0.00000000000E+00  0.00000000000E+00 -0.12925648571E+04  0.12925648571E+04  0.50400001928E-02 0.  1.
    10030    2    1    2    0    0  0.00000000000E+00  0.00000000000E+00 -0.79814688720E+03  0.17869828270E+04  0.15988336907E+04 0.  0.
        2    1    3    3  502    0 -0.45139539177E+03 -0.53469421145E+03 -0.83109879891E+03  0.10864533644E+04  0.25500000920E-02 0.  1.
       -2    1    3    3    0  502  0.45139539177E+03  0.53469421145E+03  0.32951911717E+02  0.70052946260E+03  0.25500000920E-02 0. -1.
</event>
<event>
 5   0  0.4373026E-05  0.1598655E+04  0.7818609E-02  0.8821375E-01
       -1   -1    0    0    0  501  0.00000000000E+00  0.00000000000E+00  0.39388948198E+03  0.39388948202E+03  0.50400001928E-02 0.  1.
        1   -1    0    0  501    0  0.00000000000E+00  0.00000000000E+00 -0.16220911286E+04  0.16220911286E+04  0.50400001928E-02 0. -1.
    10030    2    1    2    0    0  0.00000000000E+00  0.00000000000E+00 -0.12282016467E+04  0.20159806107E+04  0.15986552279E+04 0.  0.
        4    1    3    3  502    0  0.24751791592E+03 -0.71713970748E+03 -0.93154575589E+03  0.12013881916E+04  0.12699999809E+01 0. -1.
       -4    1    3    3    0  502 -0.24751791592E+03  0.71713970748E+03 -0.29665589077E+03  0.81459241904E+03  0.12699999809E+01 0.  1.
</event>
<event>
 5   0  0.4314657E-05  0.1601301E+04  0.7818609E-02  0.8819749E-01
        1   -1    0    0  501    0  0.00000000000E+00  0.00000000000E+00  0.17607260876E+04  0.17607260876E+04  0.50400001928E-02 0. -1.
       -1   -1    0    0    0  501  0.00000000000E+00  0.00000000000E+00 -0.36407785231E+03  0.36407785235E+03  0.50400001928E-02 0.  1.
    10030    2    1    2    0    0  0.00000000000E+00  0.00000000000E+00  0.13966482353E+04  0.21248039400E+04  0.16013011866E+04 0.  0.
        5    1    3    3  502    0 -0.35911231276E+03 -0.20003923614E+03 -0.21334265777E+03  0.46315713185E+03  0.46999998093E+01 0.  1.
       -5    1    3    3    0  502  0.35911231276E+03  0.20003923614E+03  0.16099908931E+04  0.16616468081E+04  0.46999998093E+01 0. -1.
</event>
<event>
 5   0  0.8694033E-05  0.1596773E+04  0.7818609E-02  0.8822533E-01
        2   -1    0    0  501    0  0.00000000000E+00  0.00000000000E+00  0.13173563283E+04  0.13173563283E+04  0.25500000920E-02 0.  1.
       -2   -1    0    0    0  501  0.00000000000E+00  0.00000000000E+00 -0.48386403616E+03  0.48386403617E+03  0.25500000920E-02 0. -1.
    10030    2    1    2    0    0  0.00000000000E+00  0.00000000000E+00  0.83349229216E+03  0.18012203645E+04  0.15967734343E+04 0.  0.
        1    1    3    3  502    0  0.41555691432E+03 -0.32412845788E+03  0.10932626573E+04  0.12136597728E+04  0.50400001928E-02 0.  1.
       -1    1    3    3    0  502 -0.41555691432E+03  0.32412845788E+03 -0.25977036516E+03  0.58756059167E+03  0.50400001928E-02 0. -1.
</event>
<event>
 5   0  0.8037548E-05  0.1614387E+04  0.7818609E-02  0.8811758E-01
        2   -1    0    0  501    0  0.00000000000E+00  0.00000000000E+00  0.15255438915E+04  0.15255438915E+04  0.25500000920E-02 0.  1.
       -2   -1    0    0    0  501  0.00000000000E+00  0.00000000000E+00 -0.42710121150E+03  0.42710121151E+03  0.25500000920E-02 0. -1.
    10030    2    1    2    0    0  0.00000000000E+00  0.00000000000E+00  0.10984426800E+04  0.19526451030E+04  0.16143873689E+04 0.  0.
        5    1    3    3  502    0 -0.68848612551E+03 -0.34903498211E+03  0.83468249893E+03  0.11369061209E+04  0.46999998093E+01 0.  1.
       -5    1    3    3    0  502  0.68848612551E+03  0.34903498211E+03  0.26376018103E+03  0.81573898206E+03  0.46999998093E+01 0. -1.
</event>
<event>
 5   0  0.8620155E-05  0.1599878E+04  0.7818609E-02  0.8820623E-01
        2   -1    0    0  501    0  0.00000000000E+00  0.00000000000E+00  0.48782622658E+03  0.48782622659E+03  0.25500000920E-02 0. -1.
       -2   -1    0    0    0  501  0.00000000000E+00  0.00000000000E+00 -0.13117425639E+04  0.13117425639E+04  0.25500000920E-02 0.  1.
    10030    2    1    2    0    0  0.00000000000E+00  0.00000000000E+00 -0.82391633733E+03  0.17995687905E+04  0.15998780269E+04 0.  0.
        4    1    3    3  502    0 -0.73024774891E+03  0.21715471278E+02 -0.77846099233E+03  0.10675844069E+04  0.12699999809E+01 0.  1.
       -4    1    3    3    0  502  0.73024774891E+03 -0.21715471278E+02 -0.45455344995E+02  0.73198438356E+03  0.12699999809E+01 0. -1.
</event>
<event>
 5   0  0.4314657E-05  0.1606756E+04  0.7818609E-02  0.8816408E-01
        1   -1    0    0  501    0  0.00000000000E+00  0.00000000000E+00  0.76688525215E+03  0.76688525216E+03  0.50400001928E-02 0. -1.
       -1   -1    0    0    0  501  0.00000000000E+00  0.00000000000E+00 -0.84160749177E+03  0.84160749179E+03  0.50400001928E-02 0.  1.
    10030    2    1    2    0    0  0.00000000000E+00  0.00000000000E+00 -0.74722239627E+02  0.16084927440E+04  0.16067562025E+04 0.  0.
        5    1    3    3  502    0 -0.20837352736E+03  0.11533136078E+03  0.73071867305E+03  0.76856536406E+03  0.46999998093E+01 0. -1.
       -5    1    3    3    0  502  0.20837352736E+03 -0.11533136078E+03 -0.80544091268E+03  0.83992737989E+03  0.46999998093E+01 0.  1.
</event>
<event>
 5   0  0.4504463E-05  0.1601714E+04  0.7818609E-02  0.8819496E-01
       -1   -1    0    0    0  501  0.00000000000E+00  0.00000000000E+00  0.78129488068E+03  0.78129488070E+03  0.50400001928E-02 0. -1.
        1   -1    0    0  501    0  0.00000000000E+00  0.00000000000E+00 -0.82090857641E+03  0.82090857643E+03  0.50400001928E-02 0.  1.
    10030    2    1    2    0    0  0.00000000000E+00  0.00000000000E+00 -0.39613695729E+02  0.16022034571E+04  0.16017136677E+04 0.  0.
        1    1    3    3  502    0  0.16150795240E+03 -0.74622766193E+03 -0.26160607661E+03  0.80708009606E+03  0.50400001928E-02 0.  1.
       -1    1    3    3    0  502 -0.16150795240E+03  0.74622766193E+03  0.22199238088E+03  0.79512336107E+03  0.50400001928E-02 0. -1.
</event>
<event>
 5   0  0.4211419E-05  0.1606809E+04  0.7818609E-02  0.8816376E-01
        1   -1    0    0  501    0  0.00000000000E+00  0.00000000000E+00  0.12540711779E+04  0.12540711779E+04  0.50400001928E-02 0. -1.
       -1   -1    0    0    0  501  0.00000000000E+00  0.00000000000E+00 -0.51469064774E+03  0.51469064776E+03  0.50400001928E-02 0.  1.
    10030    2    1    2    0    0  0.00000000000E+00  0.00000000000E+00  0.73938053016E+03  0.17687618257E+04  0.16068088958E+04 0.  0.
        2    1    3    3  502    0  0.80133436106E+03  0.55862256929E+02  0.38531053063E+03  0.89091052018E+03  0.25500000920E-02 0. -1.
       -2    1    3    3    0  502 -0.80133436106E+03 -0.55862256929E+02  0.35406999953E+03  0.87785130548E+03  0.25500000920E-02 0.  1.
</event>
<event>
 5   0  0.4211419E-05  0.1594272E+04  0.7818609E-02  0.8824075E-01
        1   -1    0    0  501    0  0.00000000000E+00  0.00000000000E+00  0.12057618715E+04  0.12057618715E+04  0.50400001928E-02 0.  1.
       -1   -1    0    0    0  501  0.00000000000E+00  0.00000000000E+00 -0.52699113331E+03  0.52699113333E+03  0.50400001928E-02 0. -1.
    10030    2    1    2    0    0  0.00000000000E+00  0.00000000000E+00  0.67877073817E+03  0.17327530048E+04  0.15942720159E+04 0.  0.
        2    1    3    3  502    0 -0.12067724839E+03 -0.22529329138E+03 -0.48125324474E+03  0.54490802068E+03  0.25500000920E-02 0. -1.
       -2    1    3    3    0  502  0.12067724839E+03  0.22529329138E+03  0.11600239829E+04  0.11878449841E+04  0.25500000920E-02 0.  1.
</event>
<event>
 5   0  0.4314657E-05  0.1599224E+04  0.7818609E-02  0.8821025E-01
       -1   -1    0    0    0  501  0.00000000000E+00  0.00000000000E+00  0.11963920649E+04  0.11963920650E+04  0.50400001928E-02 0.  1.
        1   -1    0    0  501    0  0.00000000000E+00  0.00000000000E+00 -0.53442277003E+03  0.53442277006E+03  0.50400001928E-02 0. -1.
    10030    2    1    2    0    0  0.00000000000E+00  0.00000000000E+00  0.66196929491E+03  0.17308148350E+04  0.15992237635E+04 0.  0.
        5    1    3    3  502    0 -0.75998913377E+03  0.23433049044E+03  0.24132596810E+03  0.83111646301E+03  0.46999998093E+01 0. -1.
       -5    1    3    3    0  502  0.75998913377E+03 -0.23433049044E+03  0.42064332681E+03  0.89969837201E+03  0.46999998093E+01 0.  1.
</event>
<event>
 5   0  0.8694033E-05  0.1600049E+04  0.7818609E-02  0.8820518E-01
       -2   -1    0    0    0  501  0.00000000000E+00  0.00000000000E+00  0.77131280092E+03  0.77131280092E+03  0.25500000920E-02 0. -1.
        2   -1    0    0  501    0  0.00000000000E+00  0.00000000000E+00 -0.82980452346E+03  0.82980452346E+03  0.25500000920E-02 0.  1.
    10030    2    1    2    0    0  0.00000000000E+00  0.00000000000E+00 -0.58491722539E+02  0.16011173244E+04  0.16000485633E+04 0.  0.
        1    1    3    3  502    0  0.17479910727E+03  0.25423588578E+03  0.70938554168E+03  0.77357511613E+03  0.50400001928E-02 0. -1.
       -1    1    3    3    0  502 -0.17479910727E+03 -0.25423588578E+03 -0.76787726422E+03  0.82754220826E+03  0.50400001928E-02 0.  1.
</event>
<event>
 5   0  0.4211419E-05  0.1597237E+04  0.7818609E-02  0.8822247E-01
       -1   -1    0    0    0  501  0.00000000000E+00  0.00000000000E+00  0.55378967651E+03  0.55378967653E+03  0.50400001928E-02 0. -1.
        1   -1    0    0  501    0  0.00000000000E+00  0.00000000000E+00 -0.11516861078E+04  0.11516861079E+04  0.50400001928E-02 0.  1.
    10030    2    1    2    0    0  0.00000000000E+00  0.00000000000E+00 -0.59789643133E+03  0.17054757844E+04  0.15972374615E+04 0.  0.
        2    1    3    3  502    0  0.15735047544E+03 -0.75738173945E+03 -0.51090878322E+03  0.92704587597E+03  0.25500000920E-02 0. -1.
       -2    1    3    3    0  502 -0.15735047544E+03  0.75738173945E+03 -0.86987648114E+02  0.77842990841E+03  0.25500000920E-02 0.  1.
</event>
<event>
 5   0  0.4504463E-05  0.1603743E+04  0.7818609E-02  0.8818252E-01
        1   -1    0    0  501    0  0.00000000000E+00  0.00000000000E+00  0.51289460323E+03  0.51289460326E+03  0.50400001928E-02 0. -1.
       -1   -1    0    0    0  501  0.00000000000E+00  0.00000000000E+00 -0.12536646877E+04  0.12536646877E+04  0.50400001928E-02 0.  1.
    10030    2    1    2    0    0  0.00000000000E+00  0.00000000000E+00 -0.74077008448E+03  0.17665592910E+04  0.16037429378E+04 0.  0.
        1    1    3    3  502    0  0.77878468728E+02  0.79732475549E+03 -0.40863867577E+03  0.89932051515E+03  0.50400001928E-02 0. -1.
       -1    1    3    3    0  502 -0.77878468728E+02 -0.79732475549E+03 -0.33213140871E+03  0.86723877583E+03  0.50400001928E-02 0.  1.
</event>
<event>
 5   0  0.8620155E-05  0.1593412E+04  0.7818609E-02  0.8824605E-01
       -2   -1    0    0    0  501  0.00000000000E+00  0.00000000000E+00  0.74727955168E+03  0.74727955168E+03  0.25500000920E-02 0. -1.
        2   -1    0    0  501    0  0.00000000000E+00  0.00000000000E+00 -0.84940195614E+03  0.84940195615E+03  0.25500000920E-02 0.  1.
    10030    2    1    2    0    0  0.00000000000E+00  0.00000000000E+00 -0.10212240447E+03  0.15966815078E+04  0.15934123295E+04 0.  0.
        4    1    3    3  502    0  0.72564038326E+03  0.65529972626E+02 -0.37404370496E+03  0.81899844276E+03  0.12699999809E+01 0.  1.
       -4    1    3    3    0  502 -0.72564038326E+03 -0.65529972626E+02  0.27192130050E+03  0.77768306506E+03  0.12699999809E+01 0. -1.
</event>
<event>
 5   0  0.4314657E-05  0.1598426E+04  0.7818609E-02  0.8821515E-01
       -1   -1    0    0    0  501  0.00000000000E+00  0.00000000000E+00  0.89858912424E+03  0.89858912425E+03  0.50400001928E-02 0. -1.
        1   -1    0    0  501    0  0.00000000000E+00  0.00000000000E+00 -0.71082715658E+03  0.71082715660E+03  0.50400001928E-02 0.  1.
    10030    2    1    2    0    0  0.00000000000E+00  0.00000000000E+00  0.18776196766E+03  0.16094162809E+04  0.15984261661E+04 0.  0.
        5    1    3    3  502    0  0.79273324786E+03 -0.10089521880E+03  0.83148676830E+02  0.80345605972E+03  0.46999998093E+01 0.  1.
       -5    1    3    3    0  502 -0.79273324786E+03  0.10089521880E+03  0.10461329083E+03  0.80596022114E+03  0.46999998093E+01 0. -1.
</event>
<event>
 5   0  0.4314657E-05  0.1601225E+04  0.7818609E-02  0.8819796E-01
        1   -1    0    0  501    0  0.00000000000E+00  0.00000000000E+00  0.13136432802E+04  0.13136432803E+04  0.50400001928E-02 0.  1.
       -1   -1    0    0    0  501  0.00000000000E+00  0.00000000000E+00 -0.48794109869E+03  0.48794109871E+03  0.50400001928E-02 0. -1.
    10030    2    1    2    0    0  0.00000000000E+00  0.00000000000E+00  0.82570218156E+03  0.18015843790E+04  0.16012252127E+04 0.  0.
        5    1    3    3  502    0  0.71325500539E+03  0.29529462347E+03  0.17410409625E+03  0.79136966311E+03  0.46999998093E+01 0.  1.
       -5    1    3    3    0  502 -0.71325500539E+03 -0.29529462347E+03  0.65159808530E+03  0.10102147159E+04  0.46999998093E+01 0. -1.
</event>
<event>
 5   0  0.4211419E-05  0.1599843E+04  0.7818609E-02  0.8820645E-01
       -1   -1    0    0    0  501  0.00000000000E+00  0.00000000000E+00  0.71310521853E+03  0.71310521855E+03  0.50400001928E-02 0. -1.
        1   -1    0    0  501    0  0.00000000000E+00  0.00000000000E+00 -0.89730661065E+03  0.89730661067E+03  0.50400001928E-02 0.  1.
    10030    2    1    2    0    0  0.00000000000E+00  0.00000000000E+00 -0.18420139212E+03  0.16104118292E+04  0.15998425256E+04 0.  0.
        2    1    3    3  502    0  0.68115135806E+03 -0.79151315246E+02  0.32249645099E+03  0.75778365263E+03  0.25500000920E-02 0. -1.
       -2    1    3    3    0  502 -0.68115135806E+03  0.79151315246E+02 -0.50669784311E+03  0.85262817659E+03  0.25500000920E-02 0.  1.
</event>
<event>
 5   0  0.8694033E-05  0.1597296E+04  0.7818609E-02  0.8822211E-01
        2   -1    0    0  501    0  0.00000000000E+00  0.00000000000E+00  0.66729916561E+03  0.66729916561E+03  0.25500000920E-02 0.  1.
       -2   -1    0    0    0  501  0.00000000000E+00  0.00000000000E+00 -0.95585099037E+03  0.95585099037E+03  0.25500000920E-02 0. -1.
    10030    2    1    2    0    0  0.00000000000E+00  0.00000000000E+00 -0.28855182476E+03  0.16231501560E+04  0.15972959254E+04 0.  0.
        1    1    3    3  502    0  0.77144680449E+03  0.91495380288E+02 -0.33257769641E+03  0.84504999908E+03  0.50400001928E-02 0. -1.
       -1    1    3    3    0  502 -0.77144680449E+03 -0.91495380288E+02  0.44025871657E+02  0.77810015690E+03  0.50400001928E-02 0.  1.
</event>
<event>
 5   0  0.4211419E-05  0.1595539E+04  0.7818609E-02  0.8823293E-01
       -1   -1    0    0    0  501  0.00000000000E+00  0.00000000000E+00  0.82152530805E+03  0.82152530807E+03  0.50400001928E-02 0.  1.
        1   -1    0    0  501    0  0.00000000000E+00  0.00000000000E+00 -0.77470029900E+03  0.77470029902E+03  0.50400001928E-02 0. -1.
    10030    2    1    2    0    0  0.00000000000E+00  0.00000000000E+00  0.46825009054E+02  0.15962256071E+04  0.15955386574E+04 0.  0.
        2    1    3    3  502    0 -0.77842852363E+03 -0.88140027683E+02 -0.12737156571E+03  0.79368957827E+03  0.25500000920E-02 0.  1.
       -2    1    3    3    0  502  0.77842852363E+03  0.88140027683E+02  0.17419657477E+03  0.80253602882E+03  0.25500000920E-02 0. -1.
</event>
<event>
 5   0  0.8694033E-05  0.1598036E+04  0.7818609E-02  0.8821756E-01
       -2   -1    0    0    0  501  0.00000000000E+00  0.00000000000E+00  0.34232465782E+03  0.34232465783E+03  0.25500000920E-02 0.  1.
        2   -1    0    0  501    0  0.00000000000E+00  0.00000000000E+00 -0.18649824042E+04  0.18649824042E+04  0.25500000920E-02 0. -1.
    10030    2    1    2    0    0  0.00000000000E+00  0.00000000000E+00 -0.15226577464E+04  0.22073070621E+04  0.15980356234E+04 0.  0.
        1    1    3    3  502    0 -0.38731110804E+03 -0.82563666409E+02  0.19723443809E+03  0.44241166013E+03  0.50400001928E-02 0.  1.
       -1    1    3    3    0  502  0.38731110804E+03  0.82563666409E+02 -0.17198921845E+04  0.17648954019E+04  0.50400001928E-02 0. -1.
</event>
<event>
 5   0  0.7849690E-05  0.1601871E+04  0.7818609E-02  0.8819399E-01
        2   -1    0    0  501    0  0.00000000000E+00  0.00000000000E+00  0.13682224180E+04  0.13682224180E+04  0.25500000920E-02 0.  1.
       -2   -1    0    0    0  501  0.00000000000E+00  0.00000000000E+00 -0.46885497659E+03  0.46885497660E+03  0.25500000920E-02 0. -1.
    10030    2    1    2    0    0  0.00000000000E+00  0.00000000000E+00  0.89936744143E+03  0.18370773946E+04  0.16018712680E+04 0.  0.
        3    1    3    3  502    0  0.24093141866E+02  0.71887459578E+03  0.45619899287E+02  0.72072349022E+03  0.10100000352E+00 0. -1.
       -3    1    3    3    0  502 -0.24093141866E+02 -0.71887459578E+03  0.85374754214E+03  0.11163539044E+04  0.10100000352E+00 0.  1.
</event>
<event>
 5   0  0.7849690E-05  0.1593961E+04  0.7818609E-02  0.8824267E-01
        2   -1    0    0  501    0  0.00000000000E+00  0.00000000000E+00  0.18658555195E+04  0.18658555195E+04  0.25500000920E-02 0. -1.
       -2   -1    0    0    0  501  0.00000000000E+00  0.00000000000E+00 -0.34042161001E+03  0.34042161002E+03  0.25500000920E-02 0.  1.
    10030    2    1    2    0    0  0.00000000000E+00  0.00000000000E+00  0.15254339094E+04  0.22062771295E+04  0.15939605265E+04 0.  0.
        3    1    3    3  502    0  0.40136101996E+03 -0.62612217804E+03  0.11592164567E+04  0.13772808189E+04  0.10100000352E+00 0.  1.
       -3    1    3    3    0  502 -0.40136101996E+03  0.62612217804E+03  0.36621745269E+03  0.82899631062E+03  0.10100000352E+00 0. -1.
</event>
<event>
 5   0  0.4504463E-05  0.1603547E+04  0.7818609E-02  0.8818372E-01
        1   -1    0    0  501    0  0.00000000000E+00  0.00000000000E+00  0.57790418926E+03  0.57790418928E+03  0.50400001928E-02 0.  1.
       -1   -1    0    0    0  501  0.00000000000E+00  0.00000000000E+00 -0.11123662137E+04  0.11123662137E+04  0.50400001928E-02 0. -1.
    10030    2    1    2    0    0  0.00000000000E+00  0.00000000000E+00 -0.53446202442E+03  0.16902704030E+04  0.16035474360E+04 0.  0.
        1    1    3    3  502    0 -0.75415304022E+03 -0.19520658582E+03 -0.46719754105E+03  0.90836444317E+03  0.50400001928E-02 0. -1.
       -1    1    3    3    0  502  0.75415304022E+03  0.19520658582E+03 -0.67264483370E+02  0.78190595980E+03  0.50400001928E-02 0.  1.
</event>
<event>
 5   0  0.4314657E-05  0.1600951E+04  0.7818609E-02  0.8819964E-01
       -1   -1    0    0    0  501  0.00000000000E+00  0.00000000000E+00  0.90834881149E+03  0.90834881150E+03  0.50400001928E-02 0. -1.
        1   -1    0    0  501    0  0.00000000000E+00  0.00000000000E+00 -0.70541267587E+03  0.70541267589E+03  0.50400001928E-02 0.  1.
    10030    2    1    2    0    0  0.00000000000E+00  0.00000000000E+00  0.20293613561E+03  0.16137614874E+04  0.16009506748E+04 0.  0.
        5    1    3    3  502    0 -0.21238481805E+03  0.76611734091E+03  0.74717605654E+01  0.79506038021E+03  0.46999998093E+01 0.  1.
       -5    1    3    3    0  502  0.21238481805E+03 -0.76611734091E+03  0.19546437505E+03  0.81870110718E+03  0.46999998093E+01 0. -1.
</event>
<event>
 5   0  0.7849690E-05  0.1611902E+04  0.7818609E-02  0.8813269E-01
        2   -1    0    0  501    0  0.00000000000E+00  0.00000000000E+00  0.16184404067E+04  0.16184404067E+04  0.25500000920E-02 0. -1.
       -2   -1    0    0    0  501  0.00000000000E+00  0.00000000000E+00 -0.40134758374E+03  0.40134758375E+03  0.25500000920E-02 0.  1.
    10030    2    1    2    0    0  0.00000000000E+00  0.00000000000E+00  0.12170928230E+04  0.20197879905E+04  0.16119021641E+04 0.  0.
        3    1    3    3  502    0  0.74465765567E+03  0.30150855498E+03  0.52797345505E+03  0.96134198510E+03  0.10100000352E+00 0.  1.
       -3    1    3    3    0  502 -0.74465765567E+03 -0.30150855498E+03  0.68911936795E+03  0.10584460054E+04  0.10100000352E+00 0. -1.
</event>
<event>
 5   0  0.4314657E-05  0.1597039E+04  0.7818609E-02  0.8822369E-01
       -1   -1    0    0    0  501  0.00000000000E+00  0.00000000000E+00  0.64311788438E+03  0.64311788440E+03  0.50400001928E-02 0. -1.
        1   -1    0    0  501    0  0.00000000000E+00  0.00000000000E+00 -0.99147158367E+03  0.99147158368E+03  0.50400001928E-02 0.  1.
    10030    2    1    2    0    0  0.00000000000E+00  0.00000000000E+00 -0.34835369929E+03  0.16345894681E+04  0.15970386437E+04 0.  0.
        5    1    3    3  502    0 -0.97221246107E+02 -0.97312790997E+02  0.63088558542E+03  0.64572475706E+03  0.46999998093E+01 0. -1.
       -5    1    3    3    0  502  0.97221246107E+02  0.97312790997E+02 -0.97923928471E+03  0.98886471102E+03  0.46999998093E+01 0.  1.
</event>
<event>
 5   0  0.7901257E-05  0.1592770E+04  0.7818609E-02  0.8825002E-01
       -2   -1    0    0    0  501  0.00000000000E+00  0.00000000000E+00  0.10866960498E+04  0.10866960498E+04  0.25500000920E-02 0. -1.
        2   -1    0    0  501    0  0.00000000000E+00  0.00000000000E+00 -0.58363084731E+03  0.58363084732E+03  0.25500000920E-02 0.  1.
    10030    2    1    2    0    0  0.00000000000E+00  0.00000000000E+00  0.50306520253E+03  0.16703268972E+04  0.15927703367E+04 0.  0.
        2    1    3    3  502    0 -0.50314833478E+03  0.35017312820E+03  0.78466671731E+03  0.99573155206E+03  0.25500000920E-02 0. -1.
       -2    1    3    3    0  502  0.50314833478E+03 -0.35017312820E+03 -0.28160151477E+03  0.67459534511E+03  0.25500000920E-02 0.  1.
</event>
<event>
 5   0  0.4256406E-05  0.1596772E+04  0.7818609E-02  0.8822533E-01
        1   -1    0    0  501    0  0.00000000000E+00  0.00000000000E+00  0.84437689283E+03  0.84437689284E+03  0.50400001928E-02 0.  1.
       -1   -1    0    0    0  501  0.00000000000E+00  0.00000000000E+00 -0.75490029810E+03  0.75490029812E+03  0.50400001928E-02 0. -1.
    10030    2    1    2    0    0  0.00000000000E+00  0.00000000000E+00  0.89476594727E+02  0.15992771910E+04  0.15967722043E+04 0.  0.
        3    1    3    3  502    0 -0.50054628929E+03 -0.62064126700E+03  0.37083394778E+01  0.79734304538E+03  0.10100000352E+00 0. -1.
       -3    1    3    3    0  502  0.50054628929E+03  0.62064126700E+03  0.85768255249E+02  0.80193414558E+03  0.10100000352E+00 0.  1.
</event>
<event>
 5   0  0.4504463E-05  0.1600669E+04  0.7818609E-02  0.8820137E-01
        1   -1    0    0  501    0  0.00000000000E+00  0.00000000000E+00  0.10628784264E+04  0.10628784264E+04  0.50400001928E-02 0.  1.
       -1   -1    0    0    0  501  0.00000000000E+00  0.00000000000E+00 -0.60264192990E+03  0.60264192992E+03  0.50400001928E-02 0. -1.
    10030    2    1    2    0    0  0.00000000000E+00  0.00000000000E+00  0.46023649651E+03  0.16655203564E+04  0.16006687430E+04 0.  0.
        1    1    3    3  502    0  0.28196785159E+03 -0.37191385354E+03  0.90662072924E+03  0.10196994315E+04  0.50400001928E-02 0.  1.
       -1    1    3    3    0  502 -0.28196785159E+03  0.37191385354E+03 -0.44638423273E+03  0.64582092490E+03  0.50400001928E-02 0. -1.
</event>
<event>
 5   0  0.4373026E-05  0.1601436E+04  0.7818609E-02  0.8819666E-01
        1   -1    0    0  501    0  0.00000000000E+00  0.00000000000E+00  0.15285247362E+04  0.15285247362E+04  0.50400001928E-02 0. -1.
       -1   -1    0    0    0  501  0.00000000000E+00  0.00000000000E+00 -0.41945622099E+03  0.41945622102E+03  0.50400001928E-02 0.  1.
    10030    2    1    2    0    0  0.00000000000E+00  0.00000000000E+00  0.11090685152E+04  0.19479809573E+04  0.16014358677E+04 0.  0.
        4    1    3    3  502    0  0.73165336517E+03  0.31940046527E+03  0.47940965892E+03  0.93121884535E+03  0.12699999809E+01 0.  1.
       -4    1    3    3    0  502 -0.73165336517E+03 -0.31940046527E+03  0.62965885630E+03  0.10167621119E+04  0.12699999809E+01 0. -1.
</event>
<event>
 5   0  0.8620155E-05  0.1603037E+04  0.7818609E-02  0.8818684E-01
       -2   -1    0    0    0  501  0.00000000000E+00  0.00000000000E+00  0.16258499545E+04  0.16258499545E+04  0.25500000920E-02 0. -1.
        2   -1    0    0  501    0  0.00000000000E+00  0.00000000000E+00 -0.39513607242E+03  0.39513607243E+03  0.25500000920E-02 0.  1.
    10030    2    1    2    0    0  0.00000000000E+00  0.00000000000E+00  0.12307138821E+04  0.20209860269E+04  0.16030370743E+04 0.  0.
        4    1    3    3  502    0 -0.15221251693E+03  0.34869149924E+03  0.15047486306E+04  0.15521032396E+04  0.12699999809E+01 0. -1.
       -4    1    3    3    0  502  0.15221251693E+03 -0.34869149924E+03 -0.27403474857E+03  0.46888278735E+03  0.12699999809E+01 0.  1.
</event>
<event>
 5   0  0.4256406E-05  0.1599011E+04  0.7818609E-02  0.8821156E-01
       -1   -1    0    0    0  501  0.00000000000E+00  0.00000000000E+00  0.28048534098E+04  0.28048534098E+04  0.50400001928E-02 0.  1.
        1   -1    0    0  501    0  0.00000000000E+00  0.00000000000E+00 -0.22789378284E+03  0.22789378289E+03  0.50400001928E-02 0. -1.
    10030    2    1    2    0    0  0.00000000000E+00  0.00000000000E+00  0.25769596269E+04  0.30327471927E+04  0.15990105115E+04 0.  0.
        3    1    3    3  502    0  0.49138085245E+03  0.62524552892E+03  0.14451281518E+04  0.16494794630E+04  0.10100000352E+00 0.  1.
       -3    1    3    3    0  502 -0.49138085245E+03 -0.62524552892E+03  0.11318314751E+04  0.13832677296E+04  0.10100000352E+00 0. -1.
</event>
<event>
 5   0  0.4314657E-05  0.1602993E+04  0.7818609E-02  0.8818711E-01
       -1   -1    0    0    0  501  0.00000000000E+00  0.00000000000E+00  0.50987250768E+03  0.50987250770E+03  0.50400001928E-02 0. -1.
        1   -1    0    0  501    0  0.00000000000E+00  0.00000000000E+00 -0.12599161674E+04  0.12599161675E+04  0.50400001928E-02 0.  1.
    10030    2    1    2    0    0  0.00000000000E+00  0.00000000000E+00 -0.75004365977E+03  0.17697886752E+04  0.16029929704E+04 0.  0.
        5    1    3    3  502    0 -0.18165433186E+03  0.78053042539E+03 -0.38847517914E+03  0.89059592187E+03  0.46999998093E+01 0. -1.
       -5    1    3    3    0  502  0.18165433186E+03 -0.78053042539E+03 -0.36156848063E+03  0.87919275329E+03  0.46999998093E+01 0.  1.
</event>
<event>
 5   0  0.4373026E-05  0.1601260E+04  0.7818609E-02  0.8819774E-01
       -1   -1    0    0    0  501  0.00000000000E+00  0.00000000000E+00  0.30323926016E+04  0.30323926016E+04  0.50400001928E-02 0. -1.
        1   -1    0    0  501    0  0.00000000000E+00  0.00000000000E+00 -0.21138697992E+03  0.21138697998E+03  0.50400001928E-02 0.  1.
    10030    2    1    2    0    0  0.00000000000E+00  0.00000000000E+00  0.28210056216E+04  0.32437795815E+04  0.16012598966E+04 0.  0.
        4    1    3    3  502    0 -0.53213974778E+03  0.48535035090E+02  0.20269987534E+03  0.57150434221E+03  0.12699999809E+01 0.  1.
       -4    1    3    3    0  502  0.53213974778E+03 -0.48535035090E+02  0.26183057463E+04  0.26722752393E+04  0.12699999809E+01 0. -1.
</event>
<event>
 5   0  0.7901257E-05  0.1600375E+04  0.7818609E-02  0.8820318E-01
       -2   -1    0    0    0  501  0.00000000000E+00  0.00000000000E+00  0.53251150317E+03  0.53251150318E+03  0.25500000920E-02 0. -1.
        2   -1    0    0  501    0  0.00000000000E+00  0.00000000000E+00 -0.12024153612E+04  0.12024153612E+04  0.25500000920E-02 0.  1.
    10030    2    1    2    0    0  0.00000000000E+00  0.00000000000E+00 -0.66990385802E+03  0.17349268644E+04  0.16003749704E+04 0.  0.
        2    1    3    3  502    0 -0.85198345412E+02 -0.43532646424E+03 -0.10569265992E+04  0.11462380750E+04  0.25500000920E-02 0.  1.
       -2    1    3    3    0  502  0.85198345412E+02  0.43532646424E+03  0.38702274117E+03  0.58868878936E+03  0.25500000920E-02 0. -1.
</event>
<event>
 5   0  0.8620155E-05  0.1602518E+04  0.7818609E-02  0.8819002E-01
        2   -1    0    0  501    0  0.00000000000E+00  0.00000000000E+00  0.15274335008E+04  0.15274335008E+04  0.25500000920E-02 0.  1.
       -2   -1    0    0    0  501  0.00000000000E+00  0.00000000000E+00 -0.42032347399E+03  0.42032347400E+03  0.25500000920E-02 0. -1.
    10030    2    1    2    0    0  0.00000000000E+00  0.00000000000E+00  0.11071100268E+04  0.19477569748E+04  0.16025182125E+04 0.  0.
        4    1    3    3  502    0 -0.64957711026E+03  0.12556800079E+03  0.41880065051E+01  0.66161688105E+03  0.12699999809E+01 0. -1.
       -4    1    3    3    0  502  0.64957711026E+03 -0.12556800079E+03  0.11029220203E+04  0.12861400938E+04  0.12699999809E+01 0.  1.
</event>
<event>
 5   0  0.8620155E-05  0.1601396E+04  0.7818609E-02  0.8819691E-01
       -2   -1    0    0    0  501  0.00000000000E+00  0.00000000000E+00  0.32346225636E+03  0.32346225637E+03  0.25500000920E-02 0.  1.
        2   -1    0    0  501    0  0.00000000000E+00  0.00000000000E+00 -0.19820459831E+04  0.19820459831E+04  0.25500000920E-02 0. -1.
    10030    2    1    2    0    0  0.00000000000E+00  0.00000000000E+00 -0.16585837268E+04  0.23055082395E+04  0.16013957236E+04 0.  0.
        4    1    3    3  502    0 -0.75827520068E+03  0.12307873111E+03 -0.50421008349E+03  0.91889013229E+03  0.12699999809E+01 0. -1.
       -4    1    3    3    0  502  0.75827520068E+03 -0.12307873111E+03 -0.11543736433E+04  0.13866181072E+04  0.12699999809E+01 0.  1.
</event>
<event>
 5   0  0.4373026E-05  0.1598694E+04  0.7818609E-02  0.8821351E-01
        1   -1    0    0  501    0  0.00000000000E+00  0.00000000000E+00  0.65256023190E+03  0.65256023192E+03  0.50400001928E-02 0. -1.
       -1   -1    0    0    0  501  0.00000000000E+00  0.00000000000E+00 -0.97915192745E+03  0.97915192747E+03  0.50400001928E-02 0.  1.
    10030    2    1    2    0    0  0.00000000000E+00  0.00000000000E+00 -0.32659169555E+03  0.16317121594E+04  0.15986939781E+04 0.  0.
        4    1    3    3  502    0 -0.15769031731E+03  0.63971407267E+03  0.29865958607E+03  0.72339442367E+03  0.12699999809E+01 0. -1.
       -4    1    3    3    0  502  0.15769031731E+03 -0.63971407267E+03 -0.62525128163E+03  0.90831773572E+03  0.12699999809E+01 0.  1.
</event>
<event>
 5   0  0.7901257E-05  0.1601700E+04  0.7818609E-02  0.8819505E-01
        2   -1    0    0  501    0  0.00000000000E+00  0.00000000000E+00  0.77897724844E+03  0.77897724844E+03  0.25500000920E-02 0. -1.
       -2   -1    0    0    0  501  0.00000000000E+00  0.00000000000E+00 -0.82333643863E+03  0.82333643863E+03  0.25500000920E-02 0.  1.
    10030    2    1    2    0    0  0.00000000000E+00  0.00000000000E+00 -0.44359190194E+02  0.16023136871E+04  0.16016995392E+04 0.  0.
        2    1    3    3  502    0 -0.60167275334E+02  0.30355943227E+03  0.71674557159E+03  0.78070009885E+03  0.25500000920E-02 0. -1.
       -2    1    3    3    0  502  0.60167275334E+02 -0.30355943227E+03 -0.76110476178E+03  0.82161358823E+03  0.25500000920E-02 0.  1.
</event>
<event>
 5   0  0.8620155E-05  0.1596988E+04  0.7818609E-02  0.8822400E-01
       -2   -1    0    0    0  501  0.00000000000E+00  0.00000000000E+00  0.87488826063E+03  0.87488826063E+03  0.25500000920E-02 0. -1.
        2   -1    0    0  501    0  0.00000000000E+00  0.00000000000E+00 -0.72877061183E+03  0.72877061183E+03  0.25500000920E-02 0.  1.
    10030    2    1    2    0    0  0.00000000000E+00  0.00000000000E+00  0.14611764880E+03  0.16036588725E+04  0.15969882316E+04 0.  0.
        4    1    3    3  502    0 -0.60678306314E+03 -0.41891785179E+03 -0.23467414635E+03  0.77379029467E+03  0.12699999809E+01 0.  1.
       -4    1    3    3    0  502  0.60678306314E+03  0.41891785179E+03  0.38079179515E+03  0.82986857780E+03  0.12699999809E+01 0. -1.
</event>
<event>
 5   0  0.8037548E-05  0.1600133E+04  0.7818609E-02  0.8820467E-01
        2   -1    0    0  501    0  0.00000000000E+00  0.00000000000E+00  0.14846107251E+04  0.14846107251E+04  0.25500000920E-02 0.  1.
       -2   -1    0    0    0  501  0.00000000000E+00  0.00000000000E+00 -0.43116092161E+03  0.43116092162E+03  0.25500000920E-02 0. -1.
    10030    2    1    2    0    0  0.00000000000E+00  0.00000000000E+00  0.10534498035E+04  0.19157716467E+04  0.16001326551E+04 0.  0.
        5    1    3    3  502    0 -0.38324636256E+03  0.67930965307E+03  0.74004073330E+03  0.10751845219E+04  0.46999998093E+01 0. -1.
       -5    1    3    3    0  502  0.38324636256E+03 -0.67930965307E+03  0.31340907019E+03  0.84058712484E+03  0.46999998093E+01 0.  1.
</event>
<event>
 5   0  0.3042125E-05  0.1590120E+04  0.7818609E-02  0.8826641E-01
        4   -1    0    0  501    0  0.00000000000E+00  0.00000000000E+00  0.11743870509E+04  0.11743877376E+04  0.12699999809E+01 0. -1.
       -4   -1    0    0    0  501  0.00000000000E+00  0.00000000000E+00 -0.53825408563E+03  0.53825558390E+03  0.12699999809E+01 0.  1.
    10030    2    1    2    0    0  0.00000000000E+00  0.00000000000E+00  0.63613296527E+03  0.17126433215E+04  0.15901201204E+04 0.  0.
        1    1    3    3  502    0  0.44319000955E+03 -0.66006496022E+03  0.31357851976E+03  0.85465468136E+03  0.50400001928E-02 0. -1.
       -1    1    3    3    0  502 -0.44319000955E+03  0.66006496022E+03  0.32255444551E+03  0.85798864015E+03  0.50400001928E-02 0.  1.
</event>
<event>
 5   0  0.8037548E-05  0.1599576E+04  0.7818609E-02  0.8820808E-01
        2   -1    0    0  501    0  0.00000000000E+00  0.00000000000E+00  0.98298313004E+03  0.98298313004E+03  0.25500000920E-02 0.  1.
       -2   -1    0    0    0  501  0.00000000000E+00  0.00000000000E+00 -0.65073467661E+03  0.65073467662E+03  0.25500000920E-02 0. -1.
    10030    2    1    2    0    0  0.00000000000E+00  0.00000000000E+00  0.33224845343E+03  0.16337178067E+04  0.15995764555E+04 0.  0.
        5    1    3    3  502    0 -0.22718190493E+03  0.74244094971E+03 -0.29827313071E+02  0.77700832707E+03  0.46999998093E+01 0. -1.
       -5    1    3    3    0  502  0.22718190493E+03 -0.74244094971E+03  0.36207576650E+03  0.85670947959E+03  0.46999998093E+01 0.  1.
</event>
<event>
 5   0  0.4314657E-05  0.1597864E+04  0.7818609E-02  0.8821861E-01
       -1   -1    0    0    0  501  0.00000000000E+00  0.00000000000E+00  0.44624044017E+03  0.44624044020E+03  0.50400001928E-02 0. -1.
        1   -1    0    0  501    0  0.00000000000E+00  0.00000000000E+00 -0.14303780751E+04  0.14303780751E+04  0.50400001928E-02 0.  1.
    10030    2    1    2    0    0  0.00000000000E+00  0.00000000000E+00 -0.98413763490E+03  0.18766185153E+04  0.15978642519E+04 0.  0.
        5    1    3    3  502    0 -0.36970431412E+03 -0.36425905938E+03 -0.12054031030E+04  0.13123965380E+04  0.46999998093E+01 0.  1.
       -5    1    3    3    0  502  0.36970431412E+03  0.36425905938E+03  0.22126546815E+03  0.56422197725E+03  0.46999998093E+01 0. -1.
</event>
<event>
 5   0  0.4211419E-05  0.1577226E+04  0.7818609E-02  0.8834662E-01
        1   -1    0    0  501    0  0.00000000000E+00  0.00000000000E+00  0.20381039509E+04  0.20381039509E+04  0.50400001928E-02 0. -1.
       -1   -1    0    0    0  501  0.00000000000E+00  0.00000000000E+00 -0.30514168370E+03  0.30514168374E+03  0.50400001928E-02 0.  1.
    10030    2    1    2    0    0  0.00000000000E+00  0.00000000000E+00  0.17329622672E+04  0.23432456347E+04  0.15772260094E+04 0.  0.
        2    1    3    3  502    0 -0.72367443374E+03 -0.31233863372E+03  0.90436914464E+03  0.11996431377E+04  0.25500000920E-02 0.  1.
       -2    1    3    3    0  502  0.72367443374E+03  0.31233863372E+03  0.82859312261E+03  0.11436024969E+04  0.25500000920E-02 0. -1.
</event>
<event>
 5   0  0.8694033E-05  0.1598445E+04  0.7818609E-02  0.8821504E-01
       -2   -1    0    0    0  501  0.00000000000E+00  0.00000000000E+00  0.51599026855E+03  0.51599026855E+03  0.25500000920E-02 0. -1.
        2   -1    0    0  501    0  0.00000000000E+00  0.00000000000E+00 -0.12379239290E+04  0.12379239290E+04  0.25500000920E-02 0.  1.
    10030    2    1    2    0    0  0.00000000000E+00  0.00000000000E+00 -0.72193366049E+03  0.17539141976E+04  0.15984451202E+04 0.  0.
        1    1    3    3  502    0  0.32629015223E+03  0.72058422161E+03 -0.48631350554E+03  0.92855140384E+03  0.50400001928E-02 0. -1.
       -1    1    3    3    0  502 -0.32629015223E+03 -0.72058422161E+03 -0.23562015495E+03  0.82536279375E+03  0.50400001928E-02 0.  1.
</event>
<event>
 5   0  0.4373026E-05  0.1599009E+04  0.7818609E-02  0.8821157E-01
        1   -1    0    0  501    0  0.00000000000E+00  0.00000000000E+00  0.20636853537E+04  0.20636853537E+04  0.50400001928E-02 0.  1.
       -1   -1    0    0    0  501  0.00000000000E+00  0.00000000000E+00 -0.30974084520E+03  0.30974084524E+03  0.50400001928E-02 0. -1.
    10030    2    1    2    0    0  0.00000000000E+00  0.00000000000E+00  0.17539445085E+04  0.23734261989E+04  0.15990092504E+04 0.  0.
        4    1    3    3  502    0 -0.42967408313E+03 -0.49149692207E+03  0.15620374095E+04  0.16929712117E+04  0.12699999809E+01 0.  1.
       -4    1    3    3    0  502  0.42967408313E+03  0.49149692207E+03  0.19190709901E+03  0.68045498725E+03  0.12699999809E+01 0. -1.
</event>
<event>
 5   0  0.7849690E-05  0.1601976E+04  0.7818609E-02  0.8819335E-01
       -2   -1    0    0    0  501  0.00000000000E+00  0.00000000000E+00  0.86394742135E+03  0.86394742136E+03  0.25500000920E-02 0. -1.
        2   -1    0    0  501    0  0.00000000000E+00  0.00000000000E+00 -0.74261644968E+03  0.74261644968E+03  0.25500000920E-02 0.  1.
    10030    2    1    2    0    0  0.00000000000E+00  0.00000000000E+00  0.12133097168E+03  0.16065638710E+04  0.16019757386E+04 0.  0.
        3    1    3    3  502    0 -0.16789000947E+03  0.69142273883E+03 -0.30825914758E+03  0.77541999672E+03  0.10100000352E+00 0. -1.
       -3    1    3    3    0  502  0.16789000947E+03 -0.69142273883E+03  0.42959011926E+03  0.83114387432E+03  0.10100000352E+00 0.  1.
</event>
<event>
 5   0  0.4314657E-05  0.1597523E+04  0.7818609E-02  0.8822071E-01
        1   -1    0    0  501    0  0.00000000000E+00  0.00000000000E+00  0.79156208897E+03  0.79156208899E+03  0.50400001928E-02 0.  1.
       -1   -1    0    0    0  501  0.00000000000E+00  0.00000000000E+00 -0.80602635103E+03  0.80602635104E+03  0.50400001928E-02 0. -1.
    10030    2    1    2    0    0  0.00000000000E+00  0.00000000000E+00 -0.14464262058E+02  0.15975884400E+04  0.15975229603E+04 0.  0.
        5    1    3    3  502    0  0.70594266656E+03  0.29932049168E+03 -0.23095988974E+03  0.80081980861E+03  0.46999998093E+01 0. -1.
       -5    1    3    3    0  502 -0.70594266656E+03 -0.29932049168E+03  0.21649562768E+03  0.79676863141E+03  0.46999998093E+01 0.  1.
</event>
<event>
 5   0  0.4256406E-05  0.1600456E+04  0.7818609E-02  0.8820268E-01
        1   -1    0    0  501    0  0.00000000000E+00  0.00000000000E+00  0.96234213876E+03  0.96234213878E+03  0.50400001928E-02 0.  1.
       -1   -1    0    0    0  501  0.00000000000E+00  0.00000000000E+00 -0.66542351087E+03  0.66542351089E+03  0.50400001928E-02 0. -1.
    10030    2    1    2    0    0  0.00000000000E+00  0.00000000000E+00  0.29691862789E+03  0.16277656497E+04  0.16004562908E+04 0.  0.
        3    1    3    3  502    0  0.52373067253E+03  0.99192186183E+02 -0.45857693860E+03  0.70315412674E+03  0.10100000352E+00 0. -1.
       -3    1    3    3    0  502 -0.52373067253E+03 -0.99192186183E+02  0.75549556648E+03  0.92461152292E+03  0.10100000352E+00 0.  1.
</event>
<event>
 5   0  0.3042125E-05  0.1597536E+04  0.7818609E-02  0.8822063E-01
       -3   -1    0    0    0  501  0.00000000000E+00  0.00000000000E+00  0.11846811255E+04  0.11846811298E+04  0.10100000352E+00 0. -1.
        3   -1    0    0  501    0  0.00000000000E+00  0.00000000000E+00 -0.53856727867E+03  0.53856728814E+03  0.10100000352E+00 0.  1.
    10030    2    1    2    0    0  0.00000000000E+00  0.00000000000E+00  0.64611384680E+03  0.17232484179E+04  0.15975362302E+04 0.  0.
        4    1    3    3  502    0  0.34910107255E+03 -0.43235814759E+03  0.94198866945E+03  0.10936861492E+04  0.12699999809E+01 0. -1.
       -4    1    3    3    0  502 -0.34910107255E+03  0.43235814759E+03 -0.29587482265E+03  0.62956226874E+03  0.12699999809E+01 0.  1.
</event>
<event>
 5   0  0.7901257E-05  0.1601935E+04  0.7818609E-02  0.8819360E-01
       -2   -1    0    0    0  501  0.00000000000E+00  0.00000000000E+00  0.53636300581E+03  0.53636300582E+03  0.25500000920E-02 0. -1.
        2   -1    0    0  501    0  0.00000000000E+00  0.00000000000E+00 -0.11961103297E+04  0.11961103297E+04  0.25500000920E-02 0.  1.
    10030    2    1    2    0    0  0.00000000000E+00  0.00000000000E+00 -0.65974732391E+03  0.17324733355E+04  0.16019354940E+04 0.  0.
        2    1    3    3  502    0 -0.12120210377E+03 -0.24626712065E+03 -0.11436611838E+04  0.11761370447E+04  0.25500000920E-02 0.  1.
       -2    1    3    3    0  502  0.12120210377E+03  0.24626712065E+03  0.48391385988E+03  0.55633629081E+03  0.25500000920E-02 0. -1.
</event>
<event>
 5   0  0.8037548E-05  0.1601641E+04  0.7818609E-02  0.8819540E-01
        2   -1    0    0  501    0  0.00000000000E+00  0.00000000000E+00  0.19626947962E+04  0.19626947962E+04  0.25500000920E-02 0. -1.
       -2   -1    0    0    0  501  0.00000000000E+00  0.00000000000E+00 -0.32675169320E+03  0.32675169321E+03  0.25500000920E-02 0.  1.
    10030    2    1    2    0    0  0.00000000000E+00  0.00000000000E+00  0.16359431030E+04  0.22894464895E+04  0.16016414679E+04 0.  0.
        5    1    3    3  502    0 -0.75406070212E+03  0.20903565416E+03  0.10613469339E+04  0.13186291561E+04  0.46999998093E+01 0.  1.
       -5    1    3    3    0  502  0.75406070212E+03 -0.20903565416E+03  0.57459616916E+03  0.97081733338E+03  0.46999998093E+01 0. -1.
</event>
<event>
 5   0  0.4373026E-05  0.1596916E+04  0.7818609E-02  0.8822445E-01
        1   -1    0    0  501    0  0.00000000000E+00  0.00000000000E+00  0.13826428252E+04  0.13826428252E+04  0.50400001928E-02 0. -1.
       -1   -1    0    0    0  501  0.00000000000E+00  0.00000000000E+00 -0.46109913962E+03  0.46109913964E+03  0.50400001928E-02 0.  1.
    10030    2    1    2    0    0  0.00000000000E+00  0.00000000000E+00  0.92154368555E+03  0.18437419648E+04  0.15969162998E+04 0.  0.
        4    1    3    3  502    0 -0.31192456823E+03  0.20943074737E+03 -0.35266382677E+03  0.51529754688E+03  0.12699999809E+01 0.  1.
       -4    1    3    3    0  502  0.31192456823E+03 -0.20943074737E+03  0.12742075123E+04  0.13284444179E+04  0.12699999809E+01 0. -1.
</event>
<event>
 5   0  0.8620155E-05  0.1597849E+04  0.7818609E-02  0.8821870E-01
       -2   -1    0    0    0  501  0.00000000000E+00  0.00000000000E+00  0.41509283721E+03  0.41509283722E+03  0.25500000920E-02 0. -1.
        2   -1    0    0  501    0  0.00000000000E+00  0.00000000000E+00 -0.15376813912E+04  0.15376813912E+04  0.25500000920E-02 0.  1.
    10030    2    1    2    0    0  0.00000000000E+00  0.00000000000E+00 -0.11225885540E+04  0.19527742284E+04  0.15978492187E+04 0.  0.
        4    1    3    3  502    0 -0.33148776975E+03  0.59899247854E+03 -0.57987551954E+02  0.68705189027E+03  0.12699999809E+01 0.  1.
       -4    1    3    3    0  502  0.33148776975E+03 -0.59899247854E+03 -0.10646010020E+04  0.12657223381E+04  0.12699999809E+01 0. -1.
</event>
<event>
 5   0  0.4314657E-05  0.1607147E+04  0.7818609E-02  0.8816170E-01
        1   -1    0    0  501    0  0.00000000000E+00  0.00000000000E+00  0.15101734210E+04  0.15101734210E+04  0.50400001928E-02 0.  1.
       -1   -1    0    0    0  501  0.00000000000E+00  0.00000000000E+00 -0.42758673546E+03  0.42758673549E+03  0.50400001928E-02 0. -1.
    10030    2    1    2    0    0  0.00000000000E+00  0.00000000000E+00  0.10825866856E+04  0.19377601565E+04  0.16071466929E+04 0.  0.
        5    1    3    3  502    0 -0.30027694063E+02 -0.35461303717E+03  0.14099568876E+04  0.14541845081E+04  0.46999998093E+01 0.  1.
       -5    1    3    3    0  502  0.30027694063E+02  0.35461303717E+03 -0.32737020208E+03  0.48357564842E+03  0.46999998093E+01 0. -1.
</event>
<event>
 5   0  0.7901257E-05  0.1598188E+04  0.7818609E-02  0.8821662E-01
       -2   -1    0    0    0  501  0.00000000000E+00  0.00000000000E+00  0.32970806140E+03  0.32970806141E+03  0.25500000920E-02 0.  1.
        2   -1    0    0  501    0  0.00000000000E+00  0.00000000000E+00 -0.19367178322E+04  0.19367178322E+04  0.25500000920E-02 0. -1.
    10030    2    1    2    0    0  0.00000000000E+00  0.00000000000E+00 -0.16070097708E+04  0.22664258936E+04  0.15981883267E+04 0.  0.
        2    1    3    3  502    0  0.51759831384E+02  0.30172536935E+02  0.32651853206E+03  0.33196959788E+03  0.25500000920E-02 0.  1.
       -2    1    3    3    0  502 -0.51759831384E+02 -0.30172536935E+02 -0.19335283028E+04  0.19344562957E+04  0.25500000920E-02 0. -1.
</event>
<event>
 5   0  0.7849690E-05  0.1598501E+04  0.7818609E-02  0.8821470E-01
        2   -1    0    0  501    0  0.00000000000E+00  0.00000000000E+00  0.57070621682E+03  0.57070621683E+03  0.25500000920E-02 0.  1.
       -2   -1    0    0    0  501  0.00000000000E+00  0.00000000000E+00 -0.11193169238E+04  0.11193169238E+04  0.25500000920E-02 0. -1.
    10030    2    1    2    0    0  0.00000000000E+00  0.00000000000E+00 -0.54861070700E+03  0.16900231407E+04  0.15985007063E+04 0.  0.
        3    1    3    3  502    0 -0.19187341473E+03 -0.23093066500E+03 -0.10574287103E+04  0.10992269406E+04  0.10100000352E+00 0. -1.
       -3    1    3    3    0  502  0.19187341473E+03  0.23093066500E+03  0.50881800331E+03  0.59079620007E+03  0.10100000352E+00 0.  1.
</event>
<event>
 5   0  0.4211419E-05  0.1600825E+04  0.7818609E-02  0.8820041E-01
       -1   -1    0    0    0  501  0.00000000000E+00  0.00000000000E+00  0.57378048170E+03  0.57378048172E+03  0.50400001928E-02 0. -1.
        1   -1    0    0  501    0  0.00000000000E+00  0.00000000000E+00 -0.11165599702E+04  0.11165599702E+04  0.50400001928E-02 0.  1.
    10030    2    1    2    0    0  0.00000000000E+00  0.00000000000E+00 -0.54277948853E+03  0.16903404520E+04  0.16008251842E+04 0.  0.
        2    1    3    3  502    0  0.34855852996E+03  0.16369149629E+03 -0.10123196267E+04  0.10830877071E+04  0.25500000920E-02 0.  1.
       -2    1    3    3    0  502 -0.34855852996E+03 -0.16369149629E+03  0.46954013814E+03  0.60725274483E+03  0.25500000920E-02 0. -1.
</event>
<event>
 5   0  0.4314657E-05  0.1599863E+04  0.7818609E-02  0.8820632E-01
       -1   -1    0    0    0  501  0.00000000000E+00  0.00000000000E+00  0.83602338606E+03  0.83602338607E+03  0.50400001928E-02 0. -1.
        1   -1    0    0  501    0  0.00000000000E+00  0.00000000000E+00 -0.76539767859E+03  0.76539767861E+03  0.50400001928E-02 0.  1.
    10030    2    1    2    0    0  0.00000000000E+00  0.00000000000E+00  0.70625707461E+02  0.16014210647E+04  0.15998629428E+04 0.  0.
        5    1    3    3  502    0  0.14667430034E+03 -0.56722995341E+03 -0.50983218474E+03  0.77666860180E+03  0.46999998093E+01 0.  1.
       -5    1    3    3    0  502 -0.14667430034E+03  0.56722995341E+03  0.58045789220E+03  0.82475246289E+03  0.46999998093E+01 0. -1.
</event>
<event>
 5   0  0.7849690E-05  0.1593983E+04  0.7818609E-02  0.8824253E-01
        2   -1    0    0  501    0  0.00000000000E+00  0.00000000000E+00  0.24770427266E+04  0.24770427266E+04  0.25500000920E-02 0.  1.
       -2   -1    0    0    0  501  0.00000000000E+00  0.00000000000E+00 -0.25643294287E+03  0.25643294289E+03  0.25500000920E-02 0. -1.
    10030    2    1    2    0    0  0.00000000000E+00  0.00000000000E+00  0.22206097838E+04  0.27334756695E+04  0.15939828808E+04 0.  0.
        3    1    3    3  502    0  0.51726158544E+03 -0.37335434764E+03  0.29102998161E+03  0.70117863421E+03  0.10100000352E+00 0. -1.
       -3    1    3    3    0  502 -0.51726158544E+03  0.37335434764E+03  0.19295798022E+04  0.20322970353E+04  0.10100000352E+00 0.  1.
</event>
<event>
 5   0  0.7849690E-05  0.1599248E+04  0.7818609E-02  0.8821010E-01
       -2   -1    0    0    0  501  0.00000000000E+00  0.00000000000E+00  0.57823993881E+03  0.57823993882E+03  0.25500000920E-02 0.  1.
        2   -1    0    0  501    0  0.00000000000E+00  0.00000000000E+00 -0.11057663951E+04  0.11057663951E+04  0.25500000920E-02 0. -1.
    10030    2    1    2    0    0  0.00000000000E+00  0.00000000000E+00 -0.52752645628E+03  0.16840063339E+04  0.15992476889E+04 0.  0.
        3    1    3    3  502    0  0.35407464258E+03 -0.55900779079E+03  0.20896149266E+03  0.69391892776E+03  0.10100000352E+00 0.  1.
       -3    1    3    3    0  502 -0.35407464258E+03  0.55900779079E+03 -0.73648794894E+03  0.99008740615E+03  0.10100000352E+00 0. -1.
</event>
<event>
 5   0  0.7901257E-05  0.1602461E+04  0.7818609E-02  0.8819038E-01
        2   -1    0    0  501    0  0.00000000000E+00  0.00000000000E+00  0.11327231317E+04  0.11327231317E+04  0.25500000920E-02 0.  1.
       -2   -1    0    0    0  501  0.00000000000E+00  0.00000000000E+00 -0.56674957122E+03  0.56674957123E+03  0.25500000920E-02 0. -1.
    10030    2    1    2    0    0  0.00000000000E+00  0.00000000000E+00  0.56597356048E+03  0.16994727029E+04  0.16024610438E+04 0.  0.
        2    1    3    3  502    0 -0.17451724179E+02  0.13539218246E+03 -0.55432534422E+03  0.57088719814E+03  0.25500000920E-02 0. -1.
       -2    1    3    3    0  502  0.17451724179E+02 -0.13539218246E+03  0.11202989047E+04  0.11285855048E+04  0.25500000920E-02 0.  1.
</event>
<event>
 5   0  0.4504463E-05  0.1599943E+04  0.7818609E-02  0.8820583E-01
        1   -1    0    0  501    0  0.00000000000E+00  0.00000000000E+00  0.65667050355E+03  0.65667050357E+03  0.50400001928E-02 0.  1.
       -1   -1    0    0    0  501  0.00000000000E+00  0.00000000000E+00 -0.97454416171E+03  0.97454416173E+03  0.50400001928E-02 0. -1.
    10030    2    1    2    0    0  0.00000000000E+00  0.00000000000E+00 -0.31787365816E+03  0.16312146653E+04  0.15999430058E+04 0.  0.
        1    1    3    3  502    0  0.54039490362E+03 -0.58804628202E+03 -0.20598334358E+03  0.82477525394E+03  0.50400001928E-02 0.  1.
       -1    1    3    3    0  502 -0.54039490362E+03  0.58804628202E+03 -0.11189031459E+03  0.80643941135E+03  0.50400001928E-02 0. -1.
</event>
<event>
 5   0  0.8620155E-05  0.1600171E+04  0.7818609E-02  0.8820443E-01
        2   -1    0    0  501    0  0.00000000000E+00  0.00000000000E+00  0.69791291262E+03  0.69791291262E+03  0.25500000920E-02 0.  1.
       -2   -1    0    0    0  501  0.00000000000E+00  0.00000000000E+00 -0.91721644310E+03  0.91721644310E+03  0.25500000920E-02 0. -1.
    10030    2    1    2    0    0  0.00000000000E+00  0.00000000000E+00 -0.21930353048E+03  0.16151293557E+04  0.16001714899E+04 0.  0.
        4    1    3    3  502    0  0.20026803746E+03 -0.72483337227E+03 -0.38541781645E+03  0.84500840855E+03  0.12699999809E+01 0. -1.
       -4    1    3    3    0  502 -0.20026803746E+03  0.72483337227E+03  0.16611428597E+03  0.77012094718E+03  0.12699999809E+01 0.  1.
</event>
<event>
 5   0  0.7849690E-05  0.1611986E+04  0.7818609E-02  0.8813218E-01
       -2   -1    0    0    0  501  0.00000000000E+00  0.00000000000E+00  0.42339592991E+03  0.42339592992E+03  0.25500000920E-02 0. -1.
        2   -1    0    0  501    0  0.00000000000E+00  0.00000000000E+00 -0.15343201781E+04  0.15343201781E+04  0.25500000920E-02 0.  1.
    10030    2    1    2    0    0  0.00000000000E+00  0.00000000000E+00 -0.11109242481E+04  0.19577161080E+04  0.16119862513E+04 0.  0.
        3    1    3    3  502    0  0.33974382724E+03  0.15374322752E+03 -0.14232481463E+04  0.14712913186E+04  0.10100000352E+00 0.  1.
       -3    1    3    3    0  502 -0.33974382724E+03 -0.15374322752E+03  0.31232389814E+03  0.48642478936E+03  0.10100000352E+00 0. -1.
</event>
<event>
 5   0  0.4211419E-05  0.1600635E+04  0.7818609E-02  0.8820158E-01
       -1   -1    0    0    0  501  0.00000000000E+00  0.00000000000E+00  0.10058771584E+04  0.10058771584E+04  0.50400001928E-02 0.  1.
        1   -1    0    0  501    0  0.00000000000E+00  0.00000000000E+00 -0.63676533734E+03  0.63676533736E+03  0.50400001928E-02 0. -1.
    10030    2    1    2    0    0  0.00000000000E+00  0.00000000000E+00  0.36911182102E+03  0.16426424957E+04  0.16006345093E+04 0.  0.
        2    1    3    3  502    0 -0.47334315247E+03  0.63693274000E+03  0.29106137517E+03  0.84525367754E+03  0.25500000920E-02 0.  1.
       -2    1    3    3    0  502  0.47334315247E+03 -0.63693274000E+03  0.78050445845E+02  0.79738881819E+03  0.25500000920E-02 0. -1.
</event>
<event>
 5   0  0.4504463E-05  0.1597963E+04  0.7818609E-02  0.8821800E-01
        1   -1    0    0  501    0  0.00000000000E+00  0.00000000000E+00  0.80004325039E+03  0.80004325041E+03  0.50400001928E-02 0.  1.
       -1   -1    0    0    0  501  0.00000000000E+00  0.00000000000E+00 -0.79792107978E+03  0.79792107979E+03  0.50400001928E-02 0. -1.
    10030    2    1    2    0    0  0.00000000000E+00  0.00000000000E+00  0.21221706168E+01  0.15979643302E+04  0.15979629210E+04 0.  0.
        1    1    3    3  502    0  0.73349795493E+03 -0.94449136042E+02 -0.30131557764E+03  0.79858059489E+03  0.50400001928E-02 0. -1.
       -1    1    3    3    0  502 -0.73349795493E+03  0.94449136042E+02  0.30343774825E+03  0.79938373531E+03  0.50400001928E-02 0.  1.
</event>
<event>
 5   0  0.8694033E-05  0.1599611E+04  0.7818609E-02  0.8820787E-01
        2   -1    0    0  501    0  0.00000000000E+00  0.00000000000E+00  0.17092847207E+04  0.17092847207E+04  0.25500000920E-02 0.  1.
       -2   -1    0    0    0  501  0.00000000000E+00  0.00000000000E+00 -0.37424346251E+03  0.37424346252E+03  0.25500000920E-02 0. -1.
    10030    2    1    2    0    0  0.00000000000E+00  0.00000000000E+00  0.13350412582E+04  0.20835281832E+04  0.15996107430E+04 0.  0.
        1    1    3    3  502    0 -0.31652973508E+03  0.45658084304E+03  0.14169310424E+04  0.15219562143E+04  0.50400001928E-02 0.  1.
       -1    1    3    3    0  502  0.31652973508E+03 -0.45658084304E+03 -0.81889784236E+02  0.56157196886E+03  0.50400001928E-02 0. -1.
</event>
<event>
 5   0  0.4314657E-05  0.1600990E+04  0.7818609E-02  0.8819940E-01
        1   -1    0    0  501    0  0.00000000000E+00  0.00000000000E+00  0.13556934114E+04  0.13556934114E+04  0.50400001928E-02 0.  1.
       -1   -1    0    0    0  501  0.00000000000E+00  0.00000000000E+00 -0.47266764816E+03  0.47266764819E+03  0.50400001928E-02 0. -1.
    10030    2    1    2    0    0  0.00000000000E+00  0.00000000000E+00  0.88302576325E+03  0.18283610596E+04  0.16009902141E+04 0.  0.
        5    1    3    3  502    0  0.53295254463E+03  0.35922394833E+03  0.98644866609E+03  0.11773628671E+04  0.46999998093E+01 0.  1.
       -5    1    3    3    0  502 -0.53295254463E+03 -0.35922394833E+03 -0.10342290284E+03  0.65099819256E+03  0.46999998093E+01 0. -1.
</event>
<event>
 5   0  0.4373026E-05  0.1599859E+04  0.7818609E-02  0.8820635E-01
        1   -1    0    0  501    0  0.00000000000E+00  0.00000000000E+00  0.10536524155E+04  0.10536524155E+04  0.50400001928E-02 0.  1.
       -1   -1    0    0    0  501  0.00000000000E+00  0.00000000000E+00 -0.60730383657E+03  0.60730383659E+03  0.50400001928E-02 0. -1.
    10030    2    1    2    0    0  0.00000000000E+00  0.00000000000E+00  0.44634857893E+03  0.16609562521E+04  0.15998589368E+04 0.  0.
        4    1    3    3  502    0  0.40579855880E+03  0.23841040055E+03 -0.44834518702E+03  0.65002077585E+03  0.12699999809E+01 0. -1.
       -4    1    3    3    0  502 -0.40579855880E+03 -0.23841040055E+03  0.89469376596E+03  0.10109354763E+04  0.12699999809E+01 0.  1.
</event>
<event>
 5   0  0.7849690E-05  0.1595369E+04  0.7818609E-02  0.8823398E-01
        2   -1    0    0  501    0  0.00000000000E+00  0.00000000000E+00  0.34531182519E+03  0.34531182520E+03  0.25500000920E-02 0.  1.
       -2   -1    0    0    0  501  0.00000000000E+00  0.00000000000E+00 -0.18426846867E+04  0.18426846867E+04  0.25500000920E-02 0. -1.
    10030    2    1    2    0    0  0.00000000000E+00  0.00000000000E+00 -0.14973728615E+04  0.21879965119E+04  0.15953693145E+04 0.  0.
        3    1    3    3  502    0  0.52167285895E+03 -0.59072596196E+03 -0.57959467007E+03  0.97827896107E+03  0.10100000352E+00 0. -1.
       -3    1    3    3    0  502 -0.52167285895E+03  0.59072596196E+03 -0.91777819147E+03  0.12097175509E+04  0.10100000352E+00 0.  1.
</event>
<event>
 5   0  0.4373026E-05  0.1598337E+04  0.7818609E-02  0.8821571E-01
        1   -1    0    0  501    0  0.00000000000E+00  0.00000000000E+00  0.15346980842E+04  0.15346980842E+04  0.50400001928E-02 0. -1.
       -1   -1    0    0    0  501  0.00000000000E+00  0.00000000000E+00 -0.41615349425E+03  0.41615349428E+03  0.50400001928E-02 0.  1.
    10030    2    1    2    0    0  0.00000000000E+00  0.00000000000E+00  0.11185445900E+04  0.19508515785E+04  0.15983365983E+04 0.  0.
        4    1    3    3  502    0 -0.85111558125E+02 -0.65167978058E+03  0.11142377835E+04  0.12936220332E+04  0.12699999809E+01 0. -1.
       -4    1    3    3    0  502  0.85111558125E+02  0.65167978058E+03  0.43068064967E+01  0.65722954531E+03  0.12699999809E+01 0.  1.
</event>
<event>
 5   0  0.4504463E-05  0.1599400E+04  0.7818609E-02  0.8820917E-01
       -1   -1    0    0    0  501  0.00000000000E+00  0.00000000000E+00  0.78435656103E+03  0.78435656105E+03  0.50400001928E-02 0.  1.
        1   -1    0    0  501    0  0.00000000000E+00  0.00000000000E+00 -0.81534346523E+03  0.81534346524E+03  0.50400001928E-02 0. -1.
    10030    2    1    2    0    0  0.00000000000E+00  0.00000000000E+00 -0.30986904196E+02  0.15997000263E+04  0.15993998830E+04 0.  0.
        1    1    3    3  502    0 -0.46868162450E+03 -0.53353067911E+03  0.35227453823E+03  0.79272618287E+03  0.50400001928E-02 0.  1.
       -1    1    3    3    0  502  0.46868162450E+03  0.53353067911E+03 -0.38326144242E+03  0.80697384342E+03  0.50400001928E-02 0. -1.
</event>
<event>
 5   0  0.4211419E-05  0.1597900E+04  0.7818609E-02  0.8821839E-01
       -1   -1    0    0    0  501  0.00000000000E+00  0.00000000000E+00  0.51764154375E+03  0.51764154377E+03  0.50400001928E-02 0. -1.
        1   -1    0    0  501    0  0.00000000000E+00  0.00000000000E+00 -0.12331327782E+04  0.12331327782E+04  0.50400001928E-02 0.  1.
    10030    2    1    2    0    0  0.00000000000E+00  0.00000000000E+00 -0.71549123446E+03  0.17507743220E+04  0.15978995650E+04 0.  0.
        2    1    3    3  502    0 -0.64173335196E+03 -0.18288670247E+03 -0.83915804311E+03  0.10721266074E+04  0.25500000920E-02 0.  1.
       -2    1    3    3    0  502  0.64173335196E+03  0.18288670247E+03  0.12366680865E+03  0.67864771459E+03  0.25500000920E-02 0. -1.
</event>
<event>
 5   0  0.8694033E-05  0.1604628E+04  0.7818609E-02  0.8817710E-01
       -2   -1    0    0    0  501  0.00000000000E+00  0.00000000000E+00  0.72339229679E+03  0.72339229679E+03  0.25500000920E-02 0.  1.
        2   -1    0    0  501    0  0.00000000000E+00  0.00000000000E+00 -0.88984650845E+03  0.88984650846E+03  0.25500000920E-02 0. -1.
    10030    2    1    2    0    0  0.00000000000E+00  0.00000000000E+00 -0.16645421167E+03  0.16132388052E+04  0.16046284424E+04 0.  0.
        1    1    3    3  502    0 -0.38761403777E+03  0.23918858249E+03  0.58081104829E+03  0.73810385049E+03  0.50400001928E-02 0.  1.
       -1    1    3    3    0  502  0.38761403777E+03 -0.23918858249E+03 -0.74726525996E+03  0.87513495475E+03  0.50400001928E-02 0. -1.
</event>
<event>
 5   0  0.3042125E-05  0.1599779E+04  0.7818609E-02  0.8820683E-01
       -3   -1    0    0    0  501  0.00000000000E+00  0.00000000000E+00  0.10050685475E+04  0.10050685526E+04  0.10100000352E+00 0. -1.
        3   -1    0    0  501    0  0.00000000000E+00  0.00000000000E+00 -0.63659696773E+03  0.63659697575E+03  0.10100000352E+00 0.  1.
    10030    2    1    2    0    0  0.00000000000E+00  0.00000000000E+00  0.36847157977E+03  0.16416655283E+04  0.15997794854E+04 0.  0.
        4    1    3    3  502    0 -0.17034653092E+03 -0.32195473561E+03  0.91502550385E+03  0.98485840503E+03  0.12699999809E+01 0. -1.
       -4    1    3    3    0  502  0.17034653092E+03  0.32195473561E+03 -0.54655392408E+03  0.65680712329E+03  0.12699999809E+01 0.  1.
</event>
<event>
 5   0  0.7849690E-05  0.1598240E+04  0.7818609E-02  0.8821630E-01
        2   -1    0    0  501    0  0.00000000000E+00  0.00000000000E+00  0.14276699562E+04  0.14276699562E+04  0.25500000920E-02 0.  1.
       -2   -1    0    0    0  501  0.00000000000E+00  0.00000000000E+00 -0.44729697352E+03  0.44729697352E+03  0.25500000920E-02 0. -1.
    10030    2    1    2    0    0  0.00000000000E+00  0.00000000000E+00  0.98037298272E+03  0.18749669298E+04  0.15982395948E+04 0.  0.
        3    1    3    3  502    0  0.27373758497E+03  0.42742462471E+03 -0.23390956733E+03  0.55887187362E+03  0.10100000352E+00 0. -1.
       -3    1    3    3    0  502 -0.27373758497E+03 -0.42742462471E+03  0.12142825501E+04  0.13160950561E+04  0.10100000352E+00 0.  1.
</event>
<event>
 5   0  0.7901257E-05  0.1600030E+04  0.7818609E-02  0.8820530E-01
       -2   -1    0    0    0  501  0.00000000000E+00  0.00000000000E+00  0.39235188904E+03  0.39235188905E+03  0.25500000920E-02 0. -1.
        2   -1    0    0  501    0  0.00000000000E+00  0.00000000000E+00 -0.16312495558E+04  0.16312495558E+04  0.25500000920E-02 0.  1.
    10030    2    1    2    0    0  0.00000000000E+00  0.00000000000E+00 -0.12388976668E+04  0.20236014448E+04  0.16000298056E+04 0.  0.
        2    1    3    3  502    0  0.79787105131E+03 -0.15965632874E+02 -0.69066464918E+03  0.10554007644E+04  0.25500000920E-02 0.  1.
       -2    1    3    3    0  502 -0.79787105131E+03  0.15965632874E+02 -0.54823301757E+03  0.96820068040E+03  0.25500000920E-02 0. -1.
</event>
<event>
 5   0  0.8620155E-05  0.1595370E+04  0.7818609E-02  0.8823397E-01
       -2   -1    0    0    0  501  0.00000000000E+00  0.00000000000E+00  0.58742937220E+03  0.58742937220E+03  0.25500000920E-02 0.  1.
        2   -1    0    0  501    0  0.00000000000E+00  0.00000000000E+00 -0.10831965601E+04  0.10831965601E+04  0.25500000920E-02 0. -1.
    10030    2    1    2    0    0  0.00000000000E+00  0.00000000000E+00 -0.49576718786E+03  0.16706259323E+04  0.15953701455E+04 0.  0.
        4    1    3    3  502    0  0.68733927081E+03 -0.35878789930E+03 -0.44417120144E+03  0.89356236434E+03  0.12699999809E+01 0. -1.
       -4    1    3    3    0  502 -0.68733927081E+03  0.35878789930E+03 -0.51595986420E+02  0.77706356792E+03  0.12699999809E+01 0.  1.
</event>
<event>
 5   0  0.7849690E-05  0.1594954E+04  0.7818609E-02  0.8823654E-01
       -2   -1    0    0    0  501  0.00000000000E+00  0.00000000000E+00  0.93032463937E+03  0.93032463938E+03  0.25500000920E-02 0.  1.
        2   -1    0    0  501    0  0.00000000000E+00  0.00000000000E+00 -0.68359993432E+03  0.68359993433E+03  0.25500000920E-02 0. -1.
    10030    2    1    2    0    0  0.00000000000E+00  0.00000000000E+00  0.24672470505E+03  0.16139245737E+04  0.15949543722E+04 0.  0.
        3    1    3    3  502    0 -0.33299331709E+02 -0.74165068156E+03 -0.17133212916E+03  0.76191160093E+03  0.10100000352E+00 0. -1.
       -3    1    3    3    0  502  0.33299331709E+02  0.74165068156E+03  0.41805683421E+03  0.85201297278E+03  0.10100000352E+00 0.  1.
</event>
<event>
 5   0  0.4504463E-05  0.1600699E+04  0.7818609E-02  0.8820119E-01
        1   -1    0    0  501    0  0.00000000000E+00  0.00000000000E+00  0.86727256647E+03  0.86727256648E+03  0.50400001928E-02 0.  1.
       -1   -1    0    0    0  501  0.00000000000E+00  0.00000000000E+00 -0.73859015084E+03  0.73859015086E+03  0.50400001928E-02 0. -1.
    10030    2    1    2    0    0  0.00000000000E+00  0.00000000000E+00  0.12868241563E+03  0.16058627173E+04  0.16006985671E+04 0.  0.
        1    1    3    3  502    0  0.38250665166E+03 -0.50513469903E+03 -0.42620108049E+03  0.76362278893E+03  0.50400001928E-02 0. -1.
       -1    1    3    3    0  502 -0.38250665166E+03  0.50513469903E+03  0.55488349611E+03  0.84223992841E+03  0.50400001928E-02 0.  1.
</event>
<event>
 5   0  0.3042125E-05  0.1598791E+04  0.7818609E-02  0.8821291E-01
       -3   -1    0    0    0  501  0.00000000000E+00  0.00000000000E+00  0.49153524040E+03  0.49153525077E+03  0.10100000352E+00 0. -1.
        3   -1    0    0  501    0  0.00000000000E+00  0.00000000000E+00 -0.13000767117E+04  0.13000767156E+04  0.10100000352E+00 0.  1.
    10030    2    1    2    0    0  0.00000000000E+00  0.00000000000E+00 -0.80854147129E+03  0.17916119664E+04  0.15987914584E+04 0.  0.
        2    1    3    3  502    0 -0.47956038593E+03  0.17410619486E+03 -0.10939133652E+04  0.12070366943E+04  0.25500000920E-02 0.  1.
       -2    1    3    3    0  502  0.47956038593E+03 -0.17410619486E+03  0.28537189393E+03  0.58457527205E+03  0.25500000920E-02 0. -1.
</event>
<event>
 5   0  0.3042125E-05  0.1599873E+04  0.7818609E-02  0.8820626E-01
       -3   -1    0    0    0  501  0.00000000000E+00  0.00000000000E+00  0.45204790273E+03  0.45204791401E+03  0.10100000352E+00 0. -1.
        3   -1    0    0  501    0  0.00000000000E+00  0.00000000000E+00 -0.14155551449E+04  0.14155551486E+04  0.10100000352E+00 0.  1.
    10030    2    1    2    0    0  0.00000000000E+00  0.00000000000E+00 -0.96350724222E+03  0.18676030626E+04  0.15998734305E+04 0.  0.
        3    1    3    3  502    0 -0.44100135118E+03 -0.34569844173E+03  0.18466514390E+03  0.58999222870E+03  0.10100000352E+00 0. -1.
       -3    1    3    3    0  502  0.44100135118E+03  0.34569844173E+03 -0.11481723861E+04  0.12776108339E+04  0.10100000352E+00 0.  1.
</event>
<event>
 5   0  0.8620155E-05  0.1597575E+04  0.7818609E-02  0.8822039E-01
       -2   -1    0    0    0  501  0.00000000000E+00  0.00000000000E+00  0.20676213398E+03  0.20676213400E+03  0.25500000920E-02 0. -1.
        2   -1    0    0  501    0  0.00000000000E+00  0.00000000000E+00 -0.30859705162E+04  0.30859705163E+04  0.25500000920E-02 0.  1.
    10030    2    1    2    0    0  0.00000000000E+00  0.00000000000E+00 -0.28792083823E+04  0.32927326502E+04  0.15975754747E+04 0.  0.
        4    1    3    3  502    0  0.49064201651E+03  0.34383027460E+03 -0.25284938299E+04  0.25985056296E+04  0.12699999809E+01 0.  1.
       -4    1    3    3    0  502 -0.49064201651E+03 -0.34383027460E+03 -0.35071455235E+03  0.69422702067E+03  0.12699999809E+01 0. -1.
</event>
<event>
 5   0  0.7901257E-05  0.1601034E+04  0.7818609E-02  0.8819913E-01
       -2   -1    0    0    0  501  0.00000000000E+00  0.00000000000E+00  0.61157333653E+03  0.61157333653E+03  0.25500000920E-02 0.  1.
        2   -1    0    0  501    0  0.00000000000E+00  0.00000000000E+00 -0.10478344874E+04  0.10478344874E+04  0.25500000920E-02 0. -1.
    10030    2    1    2    0    0  0.00000000000E+00  0.00000000000E+00 -0.43626115086E+03  0.16594078239E+04  0.16010342077E+04 0.  0.
        2    1    3    3  502    0  0.43676210232E+03 -0.21006492406E+03  0.44223288183E+03  0.65609323127E+03  0.25500000920E-02 0.  1.
       -2    1    3    3    0  502 -0.43676210232E+03  0.21006492406E+03 -0.87849403269E+03  0.10033145926E+04  0.25500000920E-02 0. -1.
</event>
<event>
 5   0  0.4211419E-05  0.1583320E+04  0.7818609E-02  0.8830861E-01
        1   -1    0    0  501    0  0.00000000000E+00  0.00000000000E+00  0.10201610110E+04  0.10201610110E+04  0.50400001928E-02 0.  1.
       -1   -1    0    0    0  501  0.00000000000E+00  0.00000000000E+00 -0.61434008577E+03  0.61434008579E+03  0.50400001928E-02 0. -1.
    10030    2    1    2    0    0  0.00000000000E+00  0.00000000000E+00  0.40582092525E+03  0.16345010968E+04  0.15833203126E+04 0.  0.
        2    1    3    3  502    0 -0.38103380672E+03  0.49364933592E+02  0.91745695283E+03  0.99466120806E+03  0.25500000920E-02 0.  1.
       -2    1    3    3    0  502  0.38103380672E+03 -0.49364933592E+02 -0.51163602757E+03  0.63983988876E+03  0.25500000920E-02 0. -1.
</event>
<event>
 5   0  0.3042125E-05  0.1597963E+04  0.7818609E-02  0.8821800E-01
        4   -1    0    0  501    0  0.00000000000E+00  0.00000000000E+00  0.63174345157E+03  0.63174472811E+03  0.12699999809E+01 0.  1.
       -4   -1    0    0    0  501  0.00000000000E+00  0.00000000000E+00 -0.10104886683E+04  0.10104894663E+04  0.12699999809E+01 0. -1.
    10030    2    1    2    0    0  0.00000000000E+00  0.00000000000E+00 -0.37874521670E+03  0.16422341945E+04  0.15979628313E+04 0.  0.
        3    1    3    3  502    0  0.55430347793E+03  0.56051153952E+03 -0.32315499918E+03  0.85197106481E+03  0.10100000352E+00 0.  1.
       -3    1    3    3    0  502 -0.55430347793E+03 -0.56051153952E+03 -0.55590217525E+02  0.79026312964E+03  0.10100000352E+00 0. -1.
</event>
<event>
 5   0  0.8694033E-05  0.1607684E+04  0.7818609E-02  0.8815841E-01
        2   -1    0    0  501    0  0.00000000000E+00  0.00000000000E+00  0.16117738155E+04  0.16117738155E+04  0.25500000920E-02 0.  1.
       -2   -1    0    0    0  501  0.00000000000E+00  0.00000000000E+00 -0.40090107586E+03  0.40090107586E+03  0.25500000920E-02 0. -1.
    10030    2    1    2    0    0  0.00000000000E+00  0.00000000000E+00  0.12108727396E+04  0.20126748914E+04  0.16076838703E+04 0.  0.
        1    1    3    3  502    0 -0.45829564887E+03 -0.29166665249E+03 -0.13632141604E+03  0.56007844669E+03  0.50400001928E-02 0. -1.
       -1    1    3    3    0  502  0.45829564887E+03  0.29166665249E+03  0.13471941557E+04  0.14525964447E+04  0.50400001928E-02 0.  1.
</event>
<event>
 5   0  0.4373026E-05  0.1600348E+04  0.7818609E-02  0.8820335E-01
        1   -1    0    0  501    0  0.00000000000E+00  0.00000000000E+00  0.16077894012E+04  0.16077894012E+04  0.50400001928E-02 0.  1.
       -1   -1    0    0    0  501  0.00000000000E+00  0.00000000000E+00 -0.39823504133E+03  0.39823504136E+03  0.50400001928E-02 0. -1.
    10030    2    1    2    0    0  0.00000000000E+00  0.00000000000E+00  0.12095543598E+04  0.20060244426E+04  0.16003475606E+04 0.  0.
        4    1    3    3  502    0 -0.81688587749E+02  0.26484159730E+03 -0.33614643096E+03  0.43567204750E+03  0.12699999809E+01 0. -1.
       -4    1    3    3    0  502  0.81688587749E+02 -0.26484159730E+03  0.15457007908E+04  0.15703523950E+04  0.12699999809E+01 0.  1.
</event>
<event>
 5   0  0.4314657E-05  0.1594403E+04  0.7818609E-02  0.8823994E-01
       -1   -1    0    0    0  501  0.00000000000E+00  0.00000000000E+00  0.72420106637E+03  0.72420106638E+03  0.50400001928E-02 0. -1.
        1   -1    0    0  501    0  0.00000000000E+00  0.00000000000E+00 -0.87756021138E+03  0.87756021139E+03  0.50400001928E-02 0.  1.
    10030    2    1    2    0    0  0.00000000000E+00  0.00000000000E+00 -0.15335914501E+03  0.16017612778E+04  0.15944027608E+04 0.  0.
        5    1    3    3  502    0 -0.11389204709E+03  0.46178692458E+03  0.56603033610E+03  0.73934497596E+03  0.46999998093E+01 0. -1.
       -5    1    3    3    0  502  0.11389204709E+03 -0.46178692458E+03 -0.71938948111E+03  0.86241630181E+03  0.46999998093E+01 0.  1.
</event>
<event>
 5   0  0.4504463E-05  0.1592019E+04  0.7818609E-02  0.8825466E-01
        1   -1    0    0  501    0  0.00000000000E+00  0.00000000000E+00  0.15332367647E+04  0.15332367647E+04  0.50400001928E-02 0.  1.
       -1   -1    0    0    0  501  0.00000000000E+00  0.00000000000E+00 -0.41326390261E+03  0.41326390264E+03  0.50400001928E-02 0. -1.
    10030    2    1    2    0    0  0.00000000000E+00  0.00000000000E+00  0.11199728621E+04  0.19465006673E+04  0.15920193580E+04 0.  0.
        1    1    3    3  502    0  0.15757554556E+03 -0.59497227623E+03  0.11771693387E+04  0.13283635474E+04  0.50400001928E-02 0.  1.
       -1    1    3    3    0  502 -0.15757554556E+03  0.59497227623E+03 -0.57196476657E+02  0.61813711991E+03  0.50400001928E-02 0. -1.
</event>
<event>
 5   0  0.4256406E-05  0.1603960E+04  0.7818609E-02  0.8818119E-01
       -1   -1    0    0    0  501  0.00000000000E+00  0.00000000000E+00  0.61148611942E+03  0.61148611944E+03  0.50400001928E-02 0.  1.
        1   -1    0    0  501    0  0.00000000000E+00  0.00000000000E+00 -0.10518173915E+04  0.10518173915E+04  0.50400001928E-02 0. -1.
    10030    2    1    2    0    0  0.00000000000E+00  0.00000000000E+00 -0.44033127205E+03  0.16633035109E+04  0.16039597689E+04 0.  0.
        3    1    3    3  502    0 -0.63740971971E+03 -0.47681939047E+03 -0.32136648273E+03  0.85844295578E+03  0.10100000352E+00 0. -1.
       -3    1    3    3    0  502  0.63740971971E+03  0.47681939047E+03 -0.11896478931E+03  0.80486055513E+03  0.10100000352E+00 0.  1.
</event>
<event>
 5   0  0.7849690E-05  0.1590392E+04  0.7818609E-02  0.8826473E-01
        2   -1    0    0  501    0  0.00000000000E+00  0.00000000000E+00  0.44940077195E+03  0.44940077196E+03  0.25500000920E-02 0. -1.
       -2   -1    0    0    0  501  0.00000000000E+00  0.00000000000E+00 -0.14070656016E+04  0.14070656016E+04  0.25500000920E-02 0.  1.
    10030    2    1    2    0    0  0.00000000000E+00  0.00000000000E+00 -0.95766482964E+03  0.18564663736E+04  0.15903916091E+04 0.  0.
        3    1    3    3  502    0 -0.20965771441E+03  0.37439348641E+03 -0.12603226370E+04  0.13313677176E+04  0.10100000352E+00 0.  1.
       -3    1    3    3    0  502  0.20965771441E+03 -0.37439348641E+03  0.30265780741E+03  0.52509865593E+03  0.10100000352E+00 0. -1.
</event>
<event>
 5   0  0.8694033E-05  0.1600013E+04  0.7818609E-02  0.8820540E-01
       -2   -1    0    0    0  501  0.00000000000E+00  0.00000000000E+00  0.83542368145E+03  0.83542368145E+03  0.25500000920E-02 0. -1.
        2   -1    0    0  501    0  0.00000000000E+00  0.00000000000E+00 -0.76609080116E+03  0.76609080116E+03  0.25500000920E-02 0.  1.
    10030    2    1    2    0    0  0.00000000000E+00  0.00000000000E+00  0.69332880293E+02  0.16015144826E+04  0.16000129967E+04 0.  0.
        1    1    3    3  502    0  0.14341420364E+03  0.40005286737E+03  0.71309336591E+03  0.83012774862E+03  0.50400001928E-02 0. -1.
       -1    1    3    3    0  502 -0.14341420364E+03 -0.40005286737E+03 -0.64376048562E+03  0.77138673399E+03  0.50400001928E-02 0.  1.
</event>
<event>
 5   0  0.3042125E-05  0.1599139E+04  0.7818609E-02  0.8821077E-01
        3   -1    0    0  501    0  0.00000000000E+00  0.00000000000E+00  0.11070913949E+04  0.11070913995E+04  0.10100000352E+00 0.  1.
       -3   -1    0    0    0  501  0.00000000000E+00  0.00000000000E+00 -0.57746923684E+03  0.57746924567E+03  0.10100000352E+00 0. -1.
    10030    2    1    2    0    0  0.00000000000E+00  0.00000000000E+00  0.52962215806E+03  0.16845606452E+04  0.15991388110E+04 0.  0.
        4    1    3    3  502    0 -0.28881795936E+03  0.74542167389E+03  0.24848019481E+03  0.83714592854E+03  0.12699999809E+01 0. -1.
       -4    1    3    3    0  502  0.28881795936E+03 -0.74542167389E+03  0.28114196324E+03  0.84741471663E+03  0.12699999809E+01 0.  1.
</event>
<event>
 5   0  0.8620155E-05  0.1593075E+04  0.7818609E-02  0.8824814E-01
       -2   -1    0    0    0  501  0.00000000000E+00  0.00000000000E+00  0.35809424169E+03  0.35809424170E+03  0.25500000920E-02 0.  1.
        2   -1    0    0  501    0  0.00000000000E+00  0.00000000000E+00 -0.17718011420E+04  0.17718011420E+04  0.25500000920E-02 0. -1.
    10030    2    1    2    0    0  0.00000000000E+00  0.00000000000E+00 -0.14137069004E+04  0.21298953837E+04  0.15930747458E+04 0.  0.
        4    1    3    3  502    0  0.59452914978E+03  0.25896580857E+03 -0.88452542847E+02  0.65448733004E+03  0.12699999809E+01 0.  1.
       -4    1    3    3    0  502 -0.59452914978E+03 -0.25896580857E+03 -0.13252543575E+04  0.14754080537E+04  0.12699999809E+01 0. -1.
</event>
<event>
 5   0  0.4211419E-05  0.1603109E+04  0.7818609E-02  0.8818640E-01
        1   -1    0    0  501    0  0.00000000000E+00  0.00000000000E+00  0.14567931222E+04  0.14567931222E+04  0.50400001928E-02 0. -1.
       -1   -1    0    0    0  501  0.00000000000E+00  0.00000000000E+00 -0.44103011722E+03  0.44103011725E+03  0.50400001928E-02 0.  1.
    10030    2    1    2    0    0  0.00000000000E+00  0.00000000000E+00  0.10157630049E+04  0.18978232394E+04  0.16031090312E+04 0.  0.
        2    1    3    3  502    0 -0.14724485040E+03  0.18188151532E+03  0.14154528639E+04  0.14346667702E+04  0.25500000920E-02 0. -1.
       -2    1    3    3    0  502  0.14724485040E+03 -0.18188151532E+03 -0.39968985898E+03  0.46315646920E+03  0.25500000920E-02 0.  1.
</event>
<event>
 5   0  0.8037548E-05  0.1600003E+04  0.7818609E-02  0.8820546E-01
        2   -1    0    0  501    0  0.00000000000E+00  0.00000000000E+00  0.77594118139E+03  0.77594118140E+03  0.25500000920E-02 0. -1.
       -2   -1    0    0    0  501  0.00000000000E+00  0.00000000000E+00 -0.82480776187E+03  0.82480776188E+03  0.25500000920E-02 0.  1.
    10030    2    1    2    0    0  0.00000000000E+00  0.00000000000E+00 -0.48866580481E+02  0.16007489433E+04  0.16000028865E+04 0.  0.
        5    1    3    3  502    0  0.67221998472E+03 -0.20835127903E+03 -0.40499238026E+03  0.81199192200E+03  0.46999998093E+01 0.  1.
       -5    1    3    3    0  502 -0.67221998472E+03  0.20835127903E+03  0.35612579978E+03  0.78875702127E+03  0.46999998093E+01 0. -1.
</event>
<event>
 5   0  0.8037548E-05  0.1600444E+04  0.7818609E-02  0.8820275E-01
        2   -1    0    0  501    0  0.00000000000E+00  0.00000000000E+00  0.14182827464E+04  0.14182827464E+04  0.25500000920E-02 0. -1.
       -2   -1    0    0    0  501  0.00000000000E+00  0.00000000000E+00 -0.45150040852E+03  0.45150040852E+03  0.25500000920E-02 0.  1.
    10030    2    1    2    0    0  0.00000000000E+00  0.00000000000E+00  0.96678233784E+03  0.18697831549E+04  0.16004439876E+04 0.  0.
        5    1    3    3  502    0 -0.10887443208E+03  0.51248519323E+03  0.11900266308E+04  0.13002615841E+04  0.46999998093E+01 0. -1.
       -5    1    3    3    0  502  0.10887443208E+03 -0.51248519323E+03 -0.22324429292E+03  0.56952157076E+03  0.46999998093E+01 0.  1.
</event>
<event>
 5   0  0.7849690E-05  0.1602080E+04  0.7818609E-02  0.8819271E-01
        2   -1    0    0  501    0  0.00000000000E+00  0.00000000000E+00  0.13354929451E+04  0.13354929451E+04  0.25500000920E-02 0.  1.
       -2   -1    0    0    0  501  0.00000000000E+00  0.00000000000E+00 -0.48047040924E+03  0.48047040925E+03  0.25500000920E-02 0. -1.
    10030    2    1    2    0    0  0.00000000000E+00  0.00000000000E+00  0.85502253586E+03  0.18159633543E+04  0.16020797007E+04 0.  0.
        3    1    3    3  502    0 -0.49327630132E+03  0.61180448591E+03  0.25176848990E+03  0.82523549435E+03  0.10100000352E+00 0.  1.
       -3    1    3    3    0  502  0.49327630132E+03 -0.61180448591E+03  0.60325404596E+03  0.99072786000E+03  0.10100000352E+00 0. -1.
</event>
<event>
 5   0  0.8037548E-05  0.1600356E+04  0.7818609E-02  0.8820329E-01
       -2   -1    0    0    0  501  0.00000000000E+00  0.00000000000E+00  0.50373045445E+03  0.50373045445E+03  0.25500000920E-02 0.  1.
        2   -1    0    0  501    0  0.00000000000E+00  0.00000000000E+00 -0.12710862100E+04  0.12710862100E+04  0.25500000920E-02 0. -1.
    10030    2    1    2    0    0  0.00000000000E+00  0.00000000000E+00 -0.76735575556E+03  0.17748166645E+04  0.16003560032E+04 0.  0.
        5    1    3    3  502    0 -0.12416582699E+02  0.27071166618E+03  0.45127298984E+03  0.52641084629E+03  0.46999998093E+01 0.  1.
       -5    1    3    3    0  502  0.12416582699E+02 -0.27071166618E+03 -0.12186287454E+04  0.12484058182E+04  0.46999998093E+01 0. -1.
</event>
<event>
 5   0  0.7901257E-05  0.1584466E+04  0.7818609E-02  0.8830149E-01
        2   -1    0    0  501    0  0.00000000000E+00  0.00000000000E+00  0.17013490041E+04  0.17013490041E+04  0.25500000920E-02 0. -1.
       -2   -1    0    0    0  501  0.00000000000E+00  0.00000000000E+00 -0.36890302371E+03  0.36890302371E+03  0.25500000920E-02 0.  1.
    10030    2    1    2    0    0  0.00000000000E+00  0.00000000000E+00  0.13324459804E+04  0.20702520279E+04  0.15844655781E+04 0.  0.
        2    1    3    3  502    0 -0.44341809230E+03 -0.30294287483E+03  0.14272379086E+04  0.15249268958E+04  0.25500000920E-02 0. -1.
       -2    1    3    3    0  502  0.44341809230E+03  0.30294287483E+03 -0.94791928116E+02  0.54532513204E+03  0.25500000920E-02 0.  1.
</event>
<event>
 5   0  0.8037548E-05  0.1599035E+04  0.7818609E-02  0.8821141E-01
        2   -1    0    0  501    0  0.00000000000E+00  0.00000000000E+00  0.11940941961E+04  0.11940941961E+04  0.25500000920E-02 0.  1.
       -2   -1    0    0    0  501  0.00000000000E+00  0.00000000000E+00 -0.53532477988E+03  0.53532477989E+03  0.25500000920E-02 0. -1.
    10030    2    1    2    0    0  0.00000000000E+00  0.00000000000E+00  0.65876941623E+03  0.17294189760E+04  0.15990349749E+04 0.  0.
        5    1    3    3  502    0 -0.45142751551E+03 -0.47952058837E+02  0.10411656191E+04  0.11358407186E+04  0.46999998093E+01 0.  1.
       -5    1    3    3    0  502  0.45142751551E+03  0.47952058837E+02 -0.38239620285E+03  0.59357825740E+03  0.46999998093E+01 0. -1.
</event>
<event>
 5   0  0.7901257E-05  0.1603375E+04  0.7818609E-02  0.8818477E-01
       -2   -1    0    0    0  501  0.00000000000E+00  0.00000000000E+00  0.49907342775E+03  0.49907342775E+03  0.25500000920E-02 0. -1.
        2   -1    0    0  501    0  0.00000000000E+00  0.00000000000E+00 -0.12877919796E+04  0.12877919796E+04  0.25500000920E-02 0.  1.
    10030    2    1    2    0    0  0.00000000000E+00  0.00000000000E+00 -0.78871855182E+03  0.17868654073E+04  0.16033748875E+04 0.  0.
        2    1    3    3  502    0 -0.17890179597E+03  0.31380988556E+03 -0.11919592668E+04  0.12454916260E+04  0.25500000920E-02 0.  1.
       -2    1    3    3    0  502  0.17890179597E+03 -0.31380988556E+03  0.40324071495E+03  0.54137378129E+03  0.25500000920E-02 0. -1.
</event>
<event>
 5   0  0.8620155E-05  0.1602270E+04  0.7818609E-02  0.8819155E-01
        2   -1    0    0  501    0  0.00000000000E+00  0.00000000000E+00  0.11733220132E+04  0.11733220132E+04  0.25500000920E-02 0. -1.
       -2   -1    0    0    0  501  0.00000000000E+00  0.00000000000E+00 -0.54700856985E+03  0.54700856986E+03  0.25500000920E-02 0.  1.
    10030    2    1    2    0    0  0.00000000000E+00  0.00000000000E+00  0.62631344334E+03  0.17203305830E+04  0.16022698854E+04 0.  0.
        4    1    3    3  502    0 -0.17009818763E+02  0.53131469970E+03 -0.33036484596E+03  0.62588112960E+03  0.12699999809E+01 0.  1.
       -4    1    3    3    0  502  0.17009818763E+02 -0.53131469970E+03  0.95667828929E+03  0.10944494534E+04  0.12699999809E+01 0. -1.
</event>
<event>
 5   0  0.8694033E-05  0.1599948E+04  0.7818609E-02  0.8820580E-01
        2   -1    0    0  501    0  0.00000000000E+00  0.00000000000E+00  0.25037070782E+04  0.25037070782E+04  0.25500000920E-02 0.  1.
       -2   -1    0    0    0  501  0.00000000000E+00  0.00000000000E+00 -0.25560435014E+03  0.25560435015E+03  0.25500000920E-02 0. -1.
    10030    2    1    2    0    0  0.00000000000E+00  0.00000000000E+00  0.22481027281E+04  0.27593114284E+04  0.15999480250E+04 0.  0.
        1    1    3    3  502    0 -0.15392132609E+03 -0.34292330840E+02  0.24766359037E+04  0.24816512927E+04  0.50400001928E-02 0.  1.
       -1    1    3    3    0  502  0.15392132609E+03  0.34292330840E+02 -0.22853317565E+03  0.27766013574E+03  0.50400001928E-02 0. -1.
</event>
<event>
 5   0  0.4504463E-05  0.1596431E+04  0.7818609E-02  0.8822744E-01
       -1   -1    0    0    0  501  0.00000000000E+00  0.00000000000E+00  0.11850760127E+04  0.11850760127E+04  0.50400001928E-02 0.  1.
        1   -1    0    0  501    0  0.00000000000E+00  0.00000000000E+00 -0.53764301141E+03  0.53764301143E+03  0.50400001928E-02 0. -1.
    10030    2    1    2    0    0  0.00000000000E+00  0.00000000000E+00  0.64743300131E+03  0.17227190242E+04  0.15964308144E+04 0.  0.
        1    1    3    3  502    0  0.55772193311E+03  0.53915294053E+03  0.12066032583E+03  0.78504685351E+03  0.50400001928E-02 0.  1.
       -1    1    3    3    0  502 -0.55772193311E+03 -0.53915294053E+03  0.52677267548E+03  0.93767217065E+03  0.50400001928E-02 0. -1.
</event>
<event>
 5   0  0.4314657E-05  0.1595098E+04  0.7818609E-02  0.8823565E-01
        1   -1    0    0  501    0  0.00000000000E+00  0.00000000000E+00  0.99095705308E+03  0.99095705309E+03  0.50400001928E-02 0. -1.
       -1   -1    0    0    0  501  0.00000000000E+00  0.00000000000E+00 -0.64188913030E+03  0.64188913032E+03  0.50400001928E-02 0.  1.
    10030    2    1    2    0    0  0.00000000000E+00  0.00000000000E+00  0.34906792278E+03  0.16328461834E+04  0.15950981926E+04 0.  0.
        5    1    3    3  502    0 -0.63578164157E+03  0.35267222755E+03  0.51011263625E+03  0.88816270328E+03  0.46999998093E+01 0. -1.
       -5    1    3    3    0  502  0.63578164157E+03 -0.35267222755E+03 -0.16104471347E+03  0.74468348013E+03  0.46999998093E+01 0.  1.
</event>
<event>
 5   0  0.4211419E-05  0.1601039E+04  0.7818609E-02  0.8819910E-01
       -1   -1    0    0    0  501  0.00000000000E+00  0.00000000000E+00  0.85607547335E+03  0.85607547337E+03  0.50400001928E-02 0. -1.
        1   -1    0    0  501    0  0.00000000000E+00  0.00000000000E+00 -0.74856887171E+03  0.74856887172E+03  0.50400001928E-02 0.  1.
    10030    2    1    2    0    0  0.00000000000E+00  0.00000000000E+00  0.10750660164E+03  0.16046443451E+04  0.16010389767E+04 0.  0.
        2    1    3    3  502    0  0.22677812724E+03 -0.95636358361E+02 -0.70970797139E+03  0.75117244138E+03  0.25500000920E-02 0.  1.
       -2    1    3    3    0  502 -0.22677812724E+03  0.95636358361E+02  0.81721457303E+03  0.85347190371E+03  0.25500000920E-02 0. -1.
</event>
<event>
 5   0  0.4314657E-05  0.1603402E+04  0.7818609E-02  0.8818461E-01
       -1   -1    0    0    0  501  0.00000000000E+00  0.00000000000E+00  0.12211819283E+04  0.12211819283E+04  0.50400001928E-02 0. -1.
        1   -1    0    0  501    0  0.00000000000E+00  0.00000000000E+00 -0.52631372915E+03  0.52631372917E+03  0.50400001928E-02 0.  1.
    10030    2    1    2    0    0  0.00000000000E+00  0.00000000000E+00  0.69486819911E+03  0.17474956574E+04  0.16034024007E+04 0.  0.
        5    1    3    3  502    0 -0.41453725654E+03  0.57722729373E+03 -0.56949569899E+02  0.71295008885E+03  0.46999998093E+01 0.  1.
       -5    1    3    3    0  502  0.41453725654E+03 -0.57722729373E+03  0.75181776901E+03  0.10345455686E+04  0.46999998093E+01 0. -1.
</event>
<event>
 5   0  0.7849690E-05  0.1596542E+04  0.7818609E-02  0.8822675E-01
        2   -1    0    0  501    0  0.00000000000E+00  0.00000000000E+00  0.66205845524E+03  0.66205845525E+03  0.25500000920E-02 0. -1.
       -2   -1    0    0    0  501  0.00000000000E+00  0.00000000000E+00 -0.96250777161E+03  0.96250777162E+03  0.25500000920E-02 0.  1.
    10030    2    1    2    0    0  0.00000000000E+00  0.00000000000E+00 -0.30044931637E+03  0.16245662269E+04  0.15965417733E+04 0.  0.
        3    1    3    3  502    0 -0.29051243767E+03 -0.64997470751E+03  0.21718364542E+03  0.74433416077E+03  0.10100000352E+00 0. -1.
       -3    1    3    3    0  502  0.29051243767E+03  0.64997470751E+03 -0.51763296179E+03  0.88023206609E+03  0.10100000352E+00 0.  1.
</event>
<event>
 5   0  0.8620155E-05  0.1601131E+04  0.7818609E-02  0.8819854E-01
        2   -1    0    0  501    0  0.00000000000E+00  0.00000000000E+00  0.10669952756E+04  0.10669952756E+04  0.25500000920E-02 0.  1.
       -2   -1    0    0    0  501  0.00000000000E+00  0.00000000000E+00 -0.60066344982E+03  0.60066344982E+03  0.25500000920E-02 0. -1.
    10030    2    1    2    0    0  0.00000000000E+00  0.00000000000E+00  0.46633182575E+03  0.16676587254E+04  0.16011309293E+04 0.  0.
        4    1    3    3  502    0 -0.53619596910E+03  0.88454891550E+02 -0.37911437217E+03  0.66261580512E+03  0.12699999809E+01 0. -1.
       -4    1    3    3    0  502  0.53619596910E+03 -0.88454891550E+02  0.84544619792E+03  0.10050429203E+04  0.12699999809E+01 0.  1.
</event>
<event>
 5   0  0.4373026E-05  0.1601590E+04  0.7818609E-02  0.8819572E-01
        1   -1    0    0  501    0  0.00000000000E+00  0.00000000000E+00  0.16662569592E+04  0.16662569592E+04  0.50400001928E-02 0.  1.
       -1   -1    0    0    0  501  0.00000000000E+00  0.00000000000E+00 -0.38485841164E+03  0.38485841167E+03  0.50400001928E-02 0. -1.
    10030    2    1    2    0    0  0.00000000000E+00  0.00000000000E+00  0.12813985476E+04  0.20511153709E+04  0.16015904680E+04 0.  0.
        4    1    3    3  502    0 -0.58564482947E+03 -0.37048736344E+03  0.11546161445E+04  0.13466182855E+04  0.12699999809E+01 0.  1.
       -4    1    3    3    0  502  0.58564482947E+03  0.37048736344E+03  0.12678240310E+03  0.70449708544E+03  0.12699999809E+01 0. -1.
</event>
<event>
 5   0  0.4211419E-05  0.1599428E+04  0.7818609E-02  0.8820900E-01
        1   -1    0    0  501    0  0.00000000000E+00  0.00000000000E+00  0.90852348848E+03  0.90852348849E+03  0.50400001928E-02 0. -1.
       -1   -1    0    0    0  501  0.00000000000E+00  0.00000000000E+00 -0.70393573414E+03  0.70393573415E+03  0.50400001928E-02 0.  1.
    10030    2    1    2    0    0  0.00000000000E+00  0.00000000000E+00  0.20458775434E+03  0.16124592226E+04  0.15994275837E+04 0.  0.
        2    1    3    3  502    0  0.24854852486E+03 -0.17704985307E+03 -0.64293059215E+03  0.71167602602E+03  0.25500000920E-02 0.  1.
       -2    1    3    3    0  502 -0.24854852486E+03  0.17704985307E+03  0.84751834649E+03  0.90078319663E+03  0.25500000920E-02 0. -1.
</event>
<event>
 5   0  0.4211419E-05  0.1598171E+04  0.7818609E-02  0.8821673E-01
        1   -1    0    0  501    0  0.00000000000E+00  0.00000000000E+00  0.11371331052E+04  0.11371331052E+04  0.50400001928E-02 0.  1.
       -1   -1    0    0    0  501  0.00000000000E+00  0.00000000000E+00 -0.56153276358E+03  0.56153276360E+03  0.50400001928E-02 0. -1.
    10030    2    1    2    0    0  0.00000000000E+00  0.00000000000E+00  0.57560034157E+03  0.16986658688E+04  0.15981708233E+04 0.  0.
        2    1    3    3  502    0  0.60998908442E+03 -0.49379011248E+03  0.12793583955E+03  0.79516220819E+03  0.25500000920E-02 0. -1.
       -2    1    3    3    0  502 -0.60998908442E+03  0.49379011248E+03  0.44766450202E+03  0.90350366057E+03  0.25500000920E-02 0.  1.
</event>
<event>
 5   0  0.7901257E-05  0.1600187E+04  0.7818609E-02  0.8820433E-01
       -2   -1    0    0    0  501  0.00000000000E+00  0.00000000000E+00  0.37955009467E+03  0.37955009468E+03  0.25500000920E-02 0. -1.
        2   -1    0    0  501    0  0.00000000000E+00  0.00000000000E+00 -0.16866006947E+04  0.16866006947E+04  0.25500000920E-02 0.  1.
    10030    2    1    2    0    0  0.00000000000E+00  0.00000000000E+00 -0.13070506001E+04  0.20661507894E+04  0.16001868058E+04 0.  0.
        2    1    3    3  502    0 -0.36404604846E+03  0.68170745178E+03 -0.92094540048E+03  0.12022458176E+04  0.25500000920E-02 0.  1.
       -2    1    3    3    0  502  0.36404604846E+03 -0.68170745178E+03 -0.38610519960E+03  0.86390497185E+03  0.25500000920E-02 0. -1.
</event>
<event>
 5   0  0.4504463E-05  0.1598934E+04  0.7818609E-02  0.8821203E-01
        1   -1    0    0  501    0  0.00000000000E+00  0.00000000000E+00  0.12595620885E+04  0.12595620885E+04  0.50400001928E-02 0. -1.
       -1   -1    0    0    0  501  0.00000000000E+00  0.00000000000E+00 -0.50743637633E+03  0.50743637635E+03  0.50400001928E-02 0.  1.
    10030    2    1    2    0    0  0.00000000000E+00  0.00000000000E+00  0.75212571219E+03  0.17669984649E+04  0.15989341725E+04 0.  0.
        1    1    3    3  502    0  0.55485174847E+03 -0.32635794243E+03 -0.14787786509E+03  0.66048302959E+03  0.50400001928E-02 0.  1.
       -1    1    3    3    0  502 -0.55485174847E+03  0.32635794243E+03  0.90000357729E+03  0.11065154353E+04  0.50400001928E-02 0. -1.
</event>
<event>
 5   0  0.4211419E-05  0.1598769E+04  0.7818609E-02  0.8821305E-01
       -1   -1    0    0    0  501  0.00000000000E+00  0.00000000000E+00  0.99597938682E+03  0.99597938683E+03  0.50400001928E-02 0.  1.
        1   -1    0    0  501    0  0.00000000000E+00  0.00000000000E+00 -0.64159522133E+03  0.64159522135E+03  0.50400001928E-02 0. -1.
    10030    2    1    2    0    0  0.00000000000E+00  0.00000000000E+00  0.35438416549E+03  0.16375746082E+04  0.15987690454E+04 0.  0.
        2    1    3    3  502    0 -0.21428962896E+03  0.76154304073E+03  0.59745234342E+02  0.79337087228E+03  0.25500000920E-02 0. -1.
       -2    1    3    3    0  502  0.21428962896E+03 -0.76154304073E+03  0.29463893114E+03  0.84420373590E+03  0.25500000920E-02 0.  1.
</event>
<event>
 5   0  0.4256406E-05  0.1600698E+04  0.7818609E-02  0.8820119E-01
       -1   -1    0    0    0  501  0.00000000000E+00  0.00000000000E+00  0.53546581691E+03  0.53546581694E+03  0.50400001928E-02 0.  1.
        1   -1    0    0  501    0  0.00000000000E+00  0.00000000000E+00 -0.11962639492E+04  0.11962639492E+04  0.50400001928E-02 0. -1.
    10030    2    1    2    0    0  0.00000000000E+00  0.00000000000E+00 -0.66079813232E+03  0.17317297662E+04  0.16006979138E+04 0.  0.
        3    1    3    3  502    0  0.33807620904E+03  0.40855778852E+03 -0.97892240713E+03  0.11133301752E+04  0.10100000352E+00 0. -1.
       -3    1    3    3    0  502 -0.33807620904E+03 -0.40855778852E+03  0.31812427481E+03  0.61839959096E+03  0.10100000352E+00 0.  1.
</event>
<event>
 5   0  0.4373026E-05  0.1607042E+04  0.7818609E-02  0.8816234E-01
       -1   -1    0    0    0  501  0.00000000000E+00  0.00000000000E+00  0.10782590186E+04  0.10782590186E+04  0.50400001928E-02 0.  1.
        1   -1    0    0  501    0  0.00000000000E+00  0.00000000000E+00 -0.59878550814E+03  0.59878550816E+03  0.50400001928E-02 0. -1.
    10030    2    1    2    0    0  0.00000000000E+00  0.00000000000E+00  0.47947351045E+03  0.16770445268E+04  0.16070418469E+04 0.  0.
        4    1    3    3  502    0  0.40861560311E+03  0.13154418427E+03 -0.46909605965E+03  0.63586422262E+03  0.12699999809E+01 0. -1.
       -4    1    3    3    0  502 -0.40861560311E+03 -0.13154418427E+03  0.94856957011E+03  0.10411803042E+04  0.12699999809E+01 0.  1.
</event>
<event>
 5   0  0.8620155E-05  0.1600536E+04  0.7818609E-02  0.8820219E-01
       -2   -1    0    0    0  501  0.00000000000E+00  0.00000000000E+00  0.46582590741E+03  0.46582590741E+03  0.25500000920E-02 0.  1.
        2   -1    0    0  501    0  0.00000000000E+00  0.00000000000E+00 -0.13748250359E+04  0.13748250359E+04  0.25500000920E-02 0. -1.
    10030    2    1    2    0    0  0.00000000000E+00  0.00000000000E+00 -0.90899912850E+03  0.18406509433E+04  0.16005363100E+04 0.  0.
        4    1    3    3  502    0  0.45101008864E+03 -0.50674445764E+03 -0.94272048973E+03  0.11614316941E+04  0.12699999809E+01 0. -1.
       -4    1    3    3    0  502 -0.45101008864E+03  0.50674445764E+03  0.33721361234E+02  0.67921924922E+03  0.12699999809E+01 0.  1.
</event>
<event>
 5   0  0.7901257E-05  0.1598330E+04  0.7818609E-02  0.8821575E-01
        2   -1    0    0  501    0  0.00000000000E+00  0.00000000000E+00  0.17088465668E+04  0.17088465668E+04  0.25500000920E-02 0.  1.
       -2   -1    0    0    0  501  0.00000000000E+00  0.00000000000E+00 -0.37374008370E+03  0.37374008371E+03  0.25500000920E-02 0. -1.
    10030    2    1    2    0    0  0.00000000000E+00  0.00000000000E+00  0.13351064831E+04  0.20825866505E+04  0.15983297018E+04 0.  0.
        2    1    3    3  502    0 -0.51872387116E+02 -0.31462411095E+03 -0.28725892066E+03  0.42918150384E+03  0.25500000920E-02 0. -1.
       -2    1    3    3    0  502  0.51872387116E+02  0.31462411095E+03  0.16223654038E+04  0.16534051467E+04  0.25500000920E-02 0.  1.
</event>
<event>
 5   0  0.8037548E-05  0.1604622E+04  0.7818609E-02  0.8817714E-01
       -2   -1    0    0    0  501  0.00000000000E+00  0.00000000000E+00  0.32364534714E+03  0.32364534715E+03  0.25500000920E-02 0. -1.
        2   -1    0    0  501    0  0.00000000000E+00  0.00000000000E+00 -0.19889145595E+04  0.19889145595E+04  0.25500000920E-02 0.  1.
    10030    2    1    2    0    0  0.00000000000E+00  0.00000000000E+00 -0.16652692123E+04  0.23125599066E+04  0.16046220029E+04 0.  0.
        5    1    3    3  502    0 -0.75210795089E+03 -0.21712083972E+03 -0.10858615045E+04  0.13386280760E+04  0.46999998093E+01 0. -1.
       -5    1    3    3    0  502  0.75210795089E+03  0.21712083972E+03 -0.57940770779E+03  0.97393183061E+03  0.46999998093E+01 0.  1.
</event>
<event>
 5   0  0.7849690E-05  0.1598684E+04  0.7818609E-02  0.8821357E-01
        2   -1    0    0  501    0  0.00000000000E+00  0.00000000000E+00  0.62365324753E+03  0.62365324754E+03  0.25500000920E-02 0.  1.
       -2   -1    0    0    0  501  0.00000000000E+00  0.00000000000E+00 -0.10245234144E+04  0.10245234144E+04  0.25500000920E-02 0. -1.
    10030    2    1    2    0    0  0.00000000000E+00  0.00000000000E+00 -0.40087016684E+03  0.16481766619E+04  0.15986836517E+04 0.  0.
        3    1    3    3  502    0 -0.68648200103E+03 -0.40359205564E+03 -0.12898393068E+03  0.80670995388E+03  0.10100000352E+00 0.  1.
       -3    1    3    3    0  502  0.68648200103E+03  0.40359205564E+03 -0.27188623616E+03  0.84146670803E+03  0.10100000352E+00 0. -1.
</event>
<event>
 5   0  0.8694033E-05  0.1597575E+04  0.7818609E-02  0.8822039E-01
        2   -1    0    0  501    0  0.00000000000E+00  0.00000000000E+00  0.79909406339E+03  0.79909406340E+03  0.25500000920E-02 0. -1.
       -2   -1    0    0    0  501  0.00000000000E+00  0.00000000000E+00 -0.79848146934E+03  0.79848146934E+03  0.25500000920E-02 0.  1.
    10030    2    1    2    0    0  0.00000000000E+00  0.00000000000E+00  0.61259405685E+00  0.15975755327E+04  0.15975754153E+04 0.  0.
        1    1    3    3  502    0 -0.69970444867E+03  0.16453382673E+03 -0.34812464891E+03  0.79865415971E+03  0.50400001928E-02 0.  1.
       -1    1    3    3    0  502  0.69970444867E+03 -0.16453382673E+03  0.34873724297E+03  0.79892137303E+03  0.50400001928E-02 0. -1.
</event>
<event>
 5   0  0.4256406E-05  0.1598593E+04  0.7818609E-02  0.8821413E-01
        1   -1    0    0  501    0  0.00000000000E+00  0.00000000000E+00  0.60238056252E+03  0.60238056254E+03  0.50400001928E-02 0.  1.
       -1   -1    0    0    0  501  0.00000000000E+00  0.00000000000E+00 -0.10605830884E+04  0.10605830884E+04  0.50400001928E-02 0. -1.
    10030    2    1    2    0    0  0.00000000000E+00  0.00000000000E+00 -0.45820252585E+03  0.16629636509E+04  0.15985926778E+04 0.  0.
        3    1    3    3  502    0 -0.63338096318E+03  0.72280054131E+01  0.27802336732E+03  0.69175190030E+03  0.10100000352E+00 0.  1.
       -3    1    3    3    0  502  0.63338096318E+03 -0.72280054131E+01 -0.73622589317E+03  0.97121175063E+03  0.10100000352E+00 0. -1.
</event>
<event>
 5   0  0.4256406E-05  0.1600718E+04  0.7818609E-02  0.8820107E-01
       -1   -1    0    0    0  501  0.00000000000E+00  0.00000000000E+00  0.44067295319E+03  0.44067295321E+03  0.50400001928E-02 0.  1.
        1   -1    0    0  501    0  0.00000000000E+00  0.00000000000E+00 -0.14536275880E+04  0.14536275880E+04  0.50400001928E-02 0. -1.
    10030    2    1    2    0    0  0.00000000000E+00  0.00000000000E+00 -0.10129546348E+04  0.18943005412E+04  0.16007177916E+04 0.  0.
        3    1    3    3  502    0 -0.52779055857E+02 -0.46382764360E+03 -0.12758307652E+04  0.13585528563E+04  0.10100000352E+00 0. -1.
       -3    1    3    3    0  502  0.52779055857E+02  0.46382764360E+03  0.26287613044E+03  0.53574768488E+03  0.10100000352E+00 0.  1.
</event>
<event>
 5   0  0.8037548E-05  0.1602580E+04  0.7818609E-02  0.8818965E-01
        2   -1    0    0  501    0  0.00000000000E+00  0.00000000000E+00  0.15362892436E+04  0.15362892436E+04  0.25500000920E-02 0. -1.
       -2   -1    0    0    0  501  0.00000000000E+00  0.00000000000E+00 -0.41793279555E+03  0.41793279556E+03  0.25500000920E-02 0.  1.
    10030    2    1    2    0    0  0.00000000000E+00  0.00000000000E+00  0.11183564481E+04  0.19542220392E+04  0.16025799928E+04 0.  0.
        5    1    3    3  502    0 -0.14974645364E+03  0.21799396759E+02 -0.40033319776E+03  0.42800464168E+03  0.46999998093E+01 0.  1.
       -5    1    3    3    0  502  0.14974645364E+03 -0.21799396759E+02  0.15186896458E+04  0.15262173975E+04  0.46999998093E+01 0. -1.
</event>
<event>
 5   0  0.4373026E-05  0.1597588E+04  0.7818609E-02  0.8822031E-01
       -1   -1    0    0    0  501  0.00000000000E+00  0.00000000000E+00  0.13266368623E+04  0.13266368623E+04  0.50400001928E-02 0. -1.
        1   -1    0    0  501    0  0.00000000000E+00  0.00000000000E+00 -0.48096923309E+03  0.48096923312E+03  0.50400001928E-02 0.  1.
    10030    2    1    2    0    0  0.00000000000E+00  0.00000000000E+00  0.84566762919E+03  0.18076060954E+04  0.15975875742E+04 0.  0.
        4    1    3    3  502    0 -0.46713532340E+03  0.43499958564E+03 -0.12053771923E+03  0.64959295296E+03  0.12699999809E+01 0.  1.
       -4    1    3    3    0  502  0.46713532340E+03 -0.43499958564E+03  0.96620534841E+03  0.11580131425E+04  0.12699999809E+01 0. -1.
</event>
<event>
 5   0  0.8694033E-05  0.1599287E+04  0.7818609E-02  0.8820986E-01
        2   -1    0    0  501    0  0.00000000000E+00  0.00000000000E+00  0.10650830774E+04  0.10650830774E+04  0.25500000920E-02 0.  1.
       -2   -1    0    0    0  501  0.00000000000E+00  0.00000000000E+00 -0.60035647691E+03  0.60035647692E+03  0.25500000920E-02 0. -1.
    10030    2    1    2    0    0  0.00000000000E+00  0.00000000000E+00  0.46472660044E+03  0.16654395543E+04  0.15992867460E+04 0.  0.
        1    1    3    3  502    0  0.75666420541E+03 -0.14086388929E+03  0.45823648139E+03  0.89574774795E+03  0.50400001928E-02 0.  1.
       -1    1    3    3    0  502 -0.75666420541E+03  0.14086388929E+03  0.64901190466E+01  0.76969180633E+03  0.50400001928E-02 0. -1.
</event>
<event>
 5   0  0.7849690E-05  0.1600949E+04  0.7818609E-02  0.8819965E-01
        2   -1    0    0  501    0  0.00000000000E+00  0.00000000000E+00  0.16584596701E+04  0.16584596701E+04  0.25500000920E-02 0.  1.
       -2   -1    0    0    0  501  0.00000000000E+00  0.00000000000E+00 -0.38635832871E+03  0.38635832872E+03  0.25500000920E-02 0. -1.
    10030    2    1    2    0    0  0.00000000000E+00  0.00000000000E+00  0.12721013414E+04  0.20448179988E+04  0.16009493513E+04 0.  0.
        3    1    3    3  502    0 -0.40461771147E+03  0.31319512208E+02  0.15173215396E+04  0.15706562542E+04  0.10100000352E+00 0.  1.
       -3    1    3    3    0  502  0.40461771147E+03 -0.31319512208E+02 -0.24522019816E+03  0.47416174462E+03  0.10100000352E+00 0. -1.
</event>
<event>
 5   0  0.4504463E-05  0.1600154E+04  0.7818609E-02  0.8820453E-01
        1   -1    0    0  501    0  0.00000000000E+00  0.00000000000E+00  0.69985632836E+03  0.69985632838E+03  0.50400001928E-02 0.  1.
       -1   -1    0    0    0  501  0.00000000000E+00  0.00000000000E+00 -0.91464983003E+03  0.91464983005E+03  0.50400001928E-02 0. -1.
    10030    2    1    2    0    0  0.00000000000E+00  0.00000000000E+00 -0.21479350167E+03  0.16145061584E+04  0.16001543323E+04 0.  0.
        1    1    3    3  502    0 -0.78293151194E+03  0.16460701110E+03 -0.10053492382E+03  0.80634018344E+03  0.50400001928E-02 0.  1.
       -1    1    3    3    0  502  0.78293151194E+03 -0.16460701110E+03 -0.11425857785E+03  0.80816597499E+03  0.50400001928E-02 0. -1.
</event>
<event>
 5   0  0.7849690E-05  0.1601084E+04  0.7818609E-02  0.8819883E-01
        2   -1    0    0  501    0  0.00000000000E+00  0.00000000000E+00  0.15117856392E+04  0.15117856392E+04  0.25500000920E-02 0.  1.
       -2   -1    0    0    0  501  0.00000000000E+00  0.00000000000E+00 -0.42391402679E+03  0.42391402680E+03  0.25500000920E-02 0. -1.
    10030    2    1    2    0    0  0.00000000000E+00  0.00000000000E+00  0.10878716124E+04  0.19356996660E+04  0.16010835556E+04 0.  0.
        3    1    3    3  502    0  0.56261281974E+02  0.62949107294E+03  0.11379968776E+04  0.13017147331E+04  0.10100000352E+00 0.  1.
       -3    1    3    3    0  502 -0.56261281974E+02 -0.62949107294E+03 -0.50125265168E+02  0.63398493292E+03  0.10100000352E+00 0. -1.
</event>
<event>
 5   0  0.8694033E-05  0.1597991E+04  0.7818609E-02  0.8821783E-01
        2   -1    0    0  501    0  0.00000000000E+00  0.00000000000E+00  0.78171171197E+03  0.78171171198E+03  0.25500000920E-02 0. -1.
       -2   -1    0    0    0  501  0.00000000000E+00  0.00000000000E+00 -0.81666108883E+03  0.81666108883E+03  0.25500000920E-02 0.  1.
    10030    2    1    2    0    0  0.00000000000E+00  0.00000000000E+00 -0.34949376853E+02  0.15983728008E+04  0.15979906606E+04 0.  0.
        1    1    3    3  502    0 -0.37230844665E+03 -0.56123013295E+03  0.41251262829E+03  0.78978447066E+03  0.50400001928E-02 0. -1.
       -1    1    3    3    0  502  0.37230844665E+03  0.56123013295E+03 -0.44746200514E+03  0.80858833014E+03  0.50400001928E-02 0.  1.
</event>
<event>
 5   0  0.4211419E-05  0.1599129E+04  0.7818609E-02  0.8821083E-01
        1   -1    0    0  501    0  0.00000000000E+00  0.00000000000E+00  0.18678569726E+04  0.18678569726E+04  0.50400001928E-02 0.  1.
       -1   -1    0    0    0  501  0.00000000000E+00  0.00000000000E+00 -0.34226561595E+03  0.34226561599E+03  0.50400001928E-02 0. -1.
    10030    2    1    2    0    0  0.00000000000E+00  0.00000000000E+00  0.15255913566E+04  0.22101225886E+04  0.15991287844E+04 0.  0.
        2    1    3    3  502    0 -0.70016460363E+03  0.37314099653E+03  0.62570804140E+03  0.10104331886E+04  0.25500000920E-02 0. -1.
       -2    1    3    3    0  502  0.70016460363E+03 -0.37314099653E+03  0.89988331525E+03  0.11996894000E+04  0.25500000920E-02 0.  1.
</event>
<event>
 5   0  0.8620155E-05  0.1608698E+04  0.7818609E-02  0.8815222E-01
       -2   -1    0    0    0  501  0.00000000000E+00  0.00000000000E+00  0.17112843886E+04  0.17112843886E+04  0.25500000920E-02 0. -1.
        2   -1    0    0  501    0  0.00000000000E+00  0.00000000000E+00 -0.37806533239E+03  0.37806533240E+03  0.25500000920E-02 0.  1.
    10030    2    1    2    0    0  0.00000000000E+00  0.00000000000E+00  0.13332190562E+04  0.20893497210E+04  0.16086979843E+04 0.  0.
        4    1    3    3  502    0  0.12249939283E+02 -0.74762033649E+03  0.10516487928E+04  0.12903693366E+04  0.12699999809E+01 0.  1.
       -4    1    3    3    0  502 -0.12249939283E+02  0.74762033649E+03  0.28157026346E+03  0.79898038444E+03  0.12699999809E+01 0. -1.
</event>
<event>
 5   0  0.7901257E-05  0.1598682E+04  0.7818609E-02  0.8821358E-01
        2   -1    0    0  501    0  0.00000000000E+00  0.00000000000E+00  0.83521176065E+03  0.83521176066E+03  0.25500000920E-02 0. -1.
       -2   -1    0    0    0  501  0.00000000000E+00  0.00000000000E+00 -0.76501122649E+03  0.76501122649E+03  0.25500000920E-02 0.  1.
    10030    2    1    2    0    0  0.00000000000E+00  0.00000000000E+00  0.70200534162E+02  0.16002229872E+04  0.15986824243E+04 0.  0.
        2    1    3    3  502    0 -0.16330006681E+03  0.36364590521E+03  0.72861792494E+03  0.83053557223E+03  0.25500000920E-02 0. -1.
       -2    1    3    3    0  502  0.16330006681E+03 -0.36364590521E+03 -0.65841739078E+03  0.76968741492E+03  0.25500000920E-02 0.  1.
</event>
<event>
 5   0  0.4256406E-05  0.1598275E+04  0.7818609E-02  0.8821609E-01
        1   -1    0    0  501    0  0.00000000000E+00  0.00000000000E+00  0.11122554559E+04  0.11122554559E+04  0.50400001928E-02 0. -1.
       -1   -1    0    0    0  501  0.00000000000E+00  0.00000000000E+00 -0.57416724302E+03  0.57416724304E+03  0.50400001928E-02 0.  1.
    10030    2    1    2    0    0  0.00000000000E+00  0.00000000000E+00  0.53808821289E+03  0.16864226990E+04  0.15982748808E+04 0.  0.
        3    1    3    3  502    0  0.50268516692E+03 -0.48291264442E+03  0.68139609889E+03  0.97478082304E+03  0.10100000352E+00 0.  1.
       -3    1    3    3    0  502 -0.50268516692E+03  0.48291264442E+03 -0.14330788599E+03  0.71164187592E+03  0.10100000352E+00 0. -1.
</event>
<event>
 5   0  0.4373026E-05  0.1611060E+04  0.7818609E-02  0.8813782E-01
        1   -1    0    0  501    0  0.00000000000E+00  0.00000000000E+00  0.66747403343E+03  0.66747403345E+03  0.50400001928E-02 0.  1.
       -1   -1    0    0    0  501  0.00000000000E+00  0.00000000000E+00 -0.97214003236E+03  0.97214003237E+03  0.50400001928E-02 0. -1.
    10030    2    1    2    0    0  0.00000000000E+00  0.00000000000E+00 -0.30466599893E+03  0.16396140658E+04  0.16110595625E+04 0.  0.
        4    1    3    3  502    0  0.57845940321E+03 -0.21751800285E+03  0.37349386001E+03  0.72210015863E+03  0.12699999809E+01 0.  1.
       -4    1    3    3    0  502 -0.57845940321E+03  0.21751800285E+03 -0.67815985894E+03  0.91751390720E+03  0.12699999809E+01 0. -1.
</event>
<event>
 5   0  0.4314657E-05  0.1597943E+04  0.7818609E-02  0.8821813E-01
       -1   -1    0    0    0  501  0.00000000000E+00  0.00000000000E+00  0.85018038771E+03  0.85018038773E+03  0.50400001928E-02 0.  1.
        1   -1    0    0  501    0  0.00000000000E+00  0.00000000000E+00 -0.75084696511E+03  0.75084696512E+03  0.50400001928E-02 0. -1.
    10030    2    1    2    0    0  0.00000000000E+00  0.00000000000E+00  0.99333422604E+02  0.16010273529E+04  0.15979428825E+04 0.  0.
        5    1    3    3  502    0 -0.68388326040E+03 -0.38539368237E+03  0.19864356755E+03  0.80975672964E+03  0.46999998093E+01 0. -1.
       -5    1    3    3    0  502  0.68388326040E+03  0.38539368237E+03 -0.99310144949E+02  0.79127062321E+03  0.46999998093E+01 0.  1.
</event>
<event>
 5   0  0.4373026E-05  0.1598727E+04  0.7818609E-02  0.8821330E-01
       -1   -1    0    0    0  501  0.00000000000E+00  0.00000000000E+00  0.32519455390E+03  0.32519455394E+03  0.50400001928E-02 0.  1.
        1   -1    0    0  501    0  0.00000000000E+00  0.00000000000E+00 -0.19649231288E+04  0.19649231288E+04  0.50400001928E-02 0. -1.
    10030    2    1    2    0    0  0.00000000000E+00  0.00000000000E+00 -0.16397285749E+04  0.22901176827E+04  0.15987273693E+04 0.  0.
        4    1    3    3  502    0 -0.60204418451E+03 -0.52418719579E+03 -0.87981027001E+03  0.11879802778E+04  0.12699999809E+01 0.  1.
       -4    1    3    3    0  502  0.60204418451E+03  0.52418719579E+03 -0.75991830484E+03  0.11021374049E+04  0.12699999809E+01 0. -1.
</event>
<event>
 5   0  0.4504463E-05  0.1602101E+04  0.7818609E-02  0.8819258E-01
        1   -1    0    0  501    0  0.00000000000E+00  0.00000000000E+00  0.82873106002E+03  0.82873106004E+03  0.50400001928E-02 0.  1.
       -1   -1    0    0    0  501  0.00000000000E+00  0.00000000000E+00 -0.77429474416E+03  0.77429474418E+03  0.50400001928E-02 0. -1.
    10030    2    1    2    0    0  0.00000000000E+00  0.00000000000E+00  0.54436315861E+02  0.16030258042E+04  0.16021012504E+04 0.  0.
        1    1    3    3  502    0 -0.39775117066E+01 -0.46322096122E+03 -0.62668222217E+03  0.77930744070E+03  0.50400001928E-02 0. -1.
       -1    1    3    3    0  502  0.39775117066E+01  0.46322096122E+03  0.68111853803E+03  0.82371836352E+03  0.50400001928E-02 0.  1.
</event>
<event>
 5   0  0.8037548E-05  0.1602878E+04  0.7818609E-02  0.8818782E-01
        2   -1    0    0  501    0  0.00000000000E+00  0.00000000000E+00  0.16670879465E+04  0.16670879465E+04  0.25500000920E-02 0.  1.
       -2   -1    0    0    0  501  0.00000000000E+00  0.00000000000E+00 -0.38528542727E+03  0.38528542728E+03  0.25500000920E-02 0. -1.
    10030    2    1    2    0    0  0.00000000000E+00  0.00000000000E+00  0.12818025192E+04  0.20523733738E+04  0.16028782758E+04 0.  0.
        5    1    3    3  502    0 -0.72248461128E+03  0.24952793511E+03  0.33244146135E+03  0.83353921273E+03  0.46999998093E+01 0. -1.
       -5    1    3    3    0  502  0.72248461128E+03 -0.24952793511E+03  0.94936105789E+03  0.12188341611E+04  0.46999998093E+01 0.  1.
</event>
<event>
 5   0  0.4373026E-05  0.1607543E+04  0.7818609E-02  0.8815928E-01
       -1   -1    0    0    0  501  0.00000000000E+00  0.00000000000E+00  0.75606269401E+03  0.75606269402E+03  0.50400001928E-02 0.  1.
        1   -1    0    0  501    0  0.00000000000E+00  0.00000000000E+00 -0.85449037127E+03  0.85449037129E+03  0.50400001928E-02 0. -1.
    10030    2    1    2    0    0  0.00000000000E+00  0.00000000000E+00 -0.98427677267E+02  0.16105530653E+04  0.16075425869E+04 0.  0.
        4    1    3    3  502    0 -0.57255686960E+03  0.53009715136E+03 -0.24250601383E+03  0.81708943113E+03  0.12699999809E+01 0. -1.
       -4    1    3    3    0  502  0.57255686960E+03 -0.53009715136E+03  0.14407833656E+03  0.79346363419E+03  0.12699999809E+01 0.  1.
</event>
<event>
 5   0  0.3042125E-05  0.1596020E+04  0.7818609E-02  0.8822997E-01
        4   -1    0    0  501    0  0.00000000000E+00  0.00000000000E+00  0.57993443311E+03  0.57993582370E+03  0.12699999809E+01 0.  1.
       -4   -1    0    0    0  501  0.00000000000E+00  0.00000000000E+00 -0.10980871145E+04  0.10980878489E+04  0.12699999809E+01 0. -1.
    10030    2    1    2    0    0  0.00000000000E+00  0.00000000000E+00 -0.51815268138E+03  0.16780236726E+04  0.15960204399E+04 0.  0.
        4    1    3    3  502    0 -0.41109166471E+03 -0.13176290062E+03  0.44657175613E+03  0.62111654707E+03  0.12699999809E+01 0.  1.
       -4    1    3    3    0  502  0.41109166471E+03  0.13176290062E+03 -0.96472443751E+03  0.10569071255E+04  0.12699999809E+01 0. -1.
</event>
<event>
 5   0  0.7849690E-05  0.1592724E+04  0.7818609E-02  0.8825030E-01
       -2   -1    0    0    0  501  0.00000000000E+00  0.00000000000E+00  0.57756784700E+03  0.57756784700E+03  0.25500000920E-02 0.  1.
        2   -1    0    0  501    0  0.00000000000E+00  0.00000000000E+00 -0.10980402780E+04  0.10980402780E+04  0.25500000920E-02 0. -1.
    10030    2    1    2    0    0  0.00000000000E+00  0.00000000000E+00 -0.52047243103E+03  0.16756081250E+04  0.15927244072E+04 0.  0.
        3    1    3    3  502    0  0.47818387354E+03  0.24926436763E+03  0.35626239020E+03  0.64630909227E+03  0.10100000352E+00 0.  1.
       -3    1    3    3    0  502 -0.47818387354E+03 -0.24926436763E+03 -0.87673482123E+03  0.10292990328E+04  0.10100000352E+00 0. -1.
</event>
<event>
 5   0  0.7849690E-05  0.1599922E+04  0.7818609E-02  0.8820596E-01
        2   -1    0    0  501    0  0.00000000000E+00  0.00000000000E+00  0.82609954213E+03  0.82609954214E+03  0.25500000920E-02 0. -1.
       -2   -1    0    0    0  501  0.00000000000E+00  0.00000000000E+00 -0.77464965686E+03  0.77464965686E+03  0.25500000920E-02 0.  1.
    10030    2    1    2    0    0  0.00000000000E+00  0.00000000000E+00  0.51449885275E+02  0.16007491990E+04  0.15999221567E+04 0.  0.
        3    1    3    3  502    0  0.37613827786E+02 -0.79072818263E+03  0.14098804382E+03  0.80407928561E+03  0.10100000352E+00 0. -1.
       -3    1    3    3    0  502 -0.37613827786E+02  0.79072818263E+03 -0.89538158543E+02  0.79666991338E+03  0.10100000352E+00 0.  1.
</event>
<event>
 5   0  0.4314657E-05  0.1603258E+04  0.7818609E-02  0.8818549E-01
       -1   -1    0    0    0  501  0.00000000000E+00  0.00000000000E+00  0.34951415471E+03  0.34951415474E+03  0.50400001928E-02 0. -1.
        1   -1    0    0  501    0  0.00000000000E+00  0.00000000000E+00 -0.18385785683E+04  0.18385785683E+04  0.50400001928E-02 0.  1.
    10030    2    1    2    0    0  0.00000000000E+00  0.00000000000E+00 -0.14890644136E+04  0.21880927230E+04  0.16032582252E+04 0.  0.
        5    1    3    3  502    0  0.74056392958E+03  0.29763973084E+03 -0.64274129409E+03  0.10247745139E+04  0.46999998093E+01 0.  1.
       -5    1    3    3    0  502 -0.74056392958E+03 -0.29763973084E+03 -0.84632311950E+03  0.11633182092E+04  0.46999998093E+01 0. -1.
</event>
<event>
 5   0  0.8037548E-05  0.1616100E+04  0.7818609E-02  0.8810718E-01
        2   -1    0    0  501    0  0.00000000000E+00  0.00000000000E+00  0.14515141584E+04  0.14515141584E+04  0.25500000920E-02 0. -1.
       -2   -1    0    0    0  501  0.00000000000E+00  0.00000000000E+00 -0.44983676705E+03  0.44983676706E+03  0.25500000920E-02 0.  1.
    10030    2    1    2    0    0  0.00000000000E+00  0.00000000000E+00  0.10016773913E+04  0.19013509254E+04  0.16160995469E+04 0.  0.
        5    1    3    3  502    0 -0.16819420866E+03  0.54744358152E+03  0.11714869690E+04  0.13039891009E+04  0.46999998093E+01 0. -1.
       -5    1    3    3    0  502  0.16819420866E+03 -0.54744358152E+03 -0.16980957765E+03  0.59736182455E+03  0.46999998093E+01 0.  1.
</event>
<event>
 5   0  0.7849690E-05  0.1600527E+04  0.7818609E-02  0.8820224E-01
       -2   -1    0    0    0  501  0.00000000000E+00  0.00000000000E+00  0.80570139054E+03  0.80570139054E+03  0.25500000920E-02 0. -1.
        2   -1    0    0  501    0  0.00000000000E+00  0.00000000000E+00 -0.79486219409E+03  0.79486219410E+03  0.25500000920E-02 0.  1.
    10030    2    1    2    0    0  0.00000000000E+00  0.00000000000E+00  0.10839196444E+02  0.16005635846E+04  0.16005268821E+04 0.  0.
        3    1    3    3  502    0 -0.67413497765E+03  0.21048968800E+03  0.38180262780E+03  0.80283070049E+03  0.10100000352E+00 0. -1.
       -3    1    3    3    0  502  0.67413497765E+03 -0.21048968800E+03 -0.37096343136E+03  0.79773288415E+03  0.10100000352E+00 0.  1.
</event>
<event>
 5   0  0.4256406E-05  0.1601154E+04  0.7818609E-02  0.8819839E-01
       -1   -1    0    0    0  501  0.00000000000E+00  0.00000000000E+00  0.30766686221E+03  0.30766686225E+03  0.50400001928E-02 0.  1.
        1   -1    0    0  501    0  0.00000000000E+00  0.00000000000E+00 -0.20831750525E+04  0.20831750525E+04  0.50400001928E-02 0. -1.
    10030    2    1    2    0    0  0.00000000000E+00  0.00000000000E+00 -0.17755081903E+04  0.23908419147E+04  0.16011544983E+04 0.  0.
        3    1    3    3  502    0  0.63091303148E+03 -0.46956481686E+03 -0.11111435726E+04  0.13613164289E+04  0.10100000352E+00 0.  1.
       -3    1    3    3    0  502 -0.63091303148E+03  0.46956481686E+03 -0.66436461768E+03  0.10295254858E+04  0.10100000352E+00 0. -1.
</event>
<event>
 5   0  0.4256406E-05  0.1600471E+04  0.7818609E-02  0.8820259E-01
        1   -1    0    0  501    0  0.00000000000E+00  0.00000000000E+00  0.15899324859E+04  0.15899324859E+04  0.50400001928E-02 0.  1.
       -1   -1    0    0    0  501  0.00000000000E+00  0.00000000000E+00 -0.40276989929E+03  0.40276989933E+03  0.50400001928E-02 0. -1.
    10030    2    1    2    0    0  0.00000000000E+00  0.00000000000E+00  0.11871625866E+04  0.19927023852E+04  0.16004711147E+04 0.  0.
        3    1    3    3  502    0  0.48034941905E+03 -0.61507828206E+03  0.37323485803E+03  0.86507868248E+03  0.10100000352E+00 0. -1.
       -3    1    3    3    0  502 -0.48034941905E+03  0.61507828206E+03  0.81392772856E+03  0.11276237027E+04  0.10100000352E+00 0.  1.
</event>
<event>
 5   0  0.4373026E-05  0.1601954E+04  0.7818609E-02  0.8819348E-01
        1   -1    0    0  501    0  0.00000000000E+00  0.00000000000E+00  0.82474508439E+03  0.82474508440E+03  0.50400001928E-02 0. -1.
       -1   -1    0    0    0  501  0.00000000000E+00  0.00000000000E+00 -0.77789413921E+03  0.77789413923E+03  0.50400001928E-02 0.  1.
    10030    2    1    2    0    0  0.00000000000E+00  0.00000000000E+00  0.46850945175E+02  0.16026392236E+04  0.16019542659E+04 0.  0.
        4    1    3    3  502    0  0.69194699535E+03 -0.32758310370E+03 -0.21217770764E+03  0.79443207810E+03  0.12699999809E+01 0.  1.
       -4    1    3    3    0  502 -0.69194699535E+03  0.32758310370E+03  0.25902865282E+03  0.80820714553E+03  0.12699999809E+01 0. -1.
</event>
<event>
 5   0  0.8694033E-05  0.1598056E+04  0.7818609E-02  0.8821743E-01
        2   -1    0    0  501    0  0.00000000000E+00  0.00000000000E+00  0.90195104253E+03  0.90195104253E+03  0.25500000920E-02 0. -1.
       -2   -1    0    0    0  501  0.00000000000E+00  0.00000000000E+00 -0.70784967174E+03  0.70784967174E+03  0.25500000920E-02 0.  1.
    10030    2    1    2    0    0  0.00000000000E+00  0.00000000000E+00  0.19410137079E+03  0.16098007143E+04  0.15980560058E+04 0.  0.
        1    1    3    3  502    0 -0.11469346350E+03 -0.62162090056E+03  0.58939480605E+03  0.86426464234E+03  0.50400001928E-02 0. -1.
       -1    1    3    3    0  502  0.11469346350E+03  0.62162090056E+03 -0.39529343526E+03  0.74553607194E+03  0.50400001928E-02 0.  1.
</event>
<event>
 5   0  0.3042125E-05  0.1599732E+04  0.7818609E-02  0.8820713E-01
       -4   -1    0    0    0  501  0.00000000000E+00  0.00000000000E+00  0.64209804725E+03  0.64209930321E+03  0.12699999809E+01 0. -1.
        4   -1    0    0  501    0  0.00000000000E+00  0.00000000000E+00 -0.99639596716E+03  0.99639677653E+03  0.12699999809E+01 0.  1.
    10030    2    1    2    0    0  0.00000000000E+00  0.00000000000E+00 -0.35429791991E+03  0.16384960797E+04  0.15997319736E+04 0.  0.
        2    1    3    3  502    0 -0.11143871863E+03 -0.12448829999E+03 -0.97832443266E+03  0.99248910341E+03  0.25500000920E-02 0.  1.
       -2    1    3    3    0  502  0.11143871863E+03  0.12448829999E+03  0.62402651275E+03  0.64600697633E+03  0.25500000920E-02 0. -1.
</event>
<event>
 5   0  0.7901257E-05  0.1603021E+04  0.7818609E-02  0.8818694E-01
       -2   -1    0    0    0  501  0.00000000000E+00  0.00000000000E+00  0.58492129682E+03  0.58492129683E+03  0.25500000920E-02 0.  1.
        2   -1    0    0  501    0  0.00000000000E+00  0.00000000000E+00 -0.10983005301E+04  0.10983005301E+04  0.25500000920E-02 0. -1.
    10030    2    1    2    0    0  0.00000000000E+00  0.00000000000E+00 -0.51337923323E+03  0.16832218269E+04  0.16030213602E+04 0.  0.
        2    1    3    3  502    0  0.63476411500E+03  0.42819985443E+03 -0.50547995119E+03  0.91749145941E+03  0.25500000920E-02 0. -1.
       -2    1    3    3    0  502 -0.63476411500E+03 -0.42819985443E+03 -0.78992820408E+01  0.76573036748E+03  0.25500000920E-02 0.  1.
</event>
<event>
 5   0  0.7849690E-05  0.1599710E+04  0.7818609E-02  0.8820726E-01
       -2   -1    0    0    0  501  0.00000000000E+00  0.00000000000E+00  0.12634396334E+04  0.12634396335E+04  0.25500000920E-02 0. -1.
        2   -1    0    0  501    0  0.00000000000E+00  0.00000000000E+00 -0.50637029987E+03  0.50637029988E+03  0.25500000920E-02 0.  1.
    10030    2    1    2    0    0  0.00000000000E+00  0.00000000000E+00  0.75706933358E+03  0.17698099333E+04  0.15997103564E+04 0.  0.
        3    1    3    3  502    0  0.87201457705E+02 -0.24407614692E+03 -0.45862355027E+03  0.52679486594E+03  0.10100000352E+00 0.  1.
       -3    1    3    3    0  502 -0.87201457705E+02  0.24407614692E+03  0.12156928838E+04  0.12430150674E+04  0.10100000352E+00 0. -1.
</event>
<event>
 5   0  0.4211419E-05  0.1604135E+04  0.7818609E-02  0.8818012E-01
       -1   -1    0    0    0  501  0.00000000000E+00  0.00000000000E+00  0.65284719446E+03  0.65284719448E+03  0.50400001928E-02 0.  1.
        1   -1    0    0  501    0  0.00000000000E+00  0.00000000000E+00 -0.98539512473E+03  0.98539512475E+03  0.50400001928E-02 0. -1.
    10030    2    1    2    0    0  0.00000000000E+00  0.00000000000E+00 -0.33254793027E+03  0.16382423192E+04  0.16041352096E+04 0.  0.
        2    1    3    3  502    0 -0.48976735570E+03  0.62732936235E+03 -0.26787927432E+03  0.83974609091E+03  0.25500000920E-02 0. -1.
       -2    1    3    3    0  502  0.48976735570E+03 -0.62732936235E+03 -0.64668655950E+02  0.79849622832E+03  0.25500000920E-02 0.  1.
</event>
<event>
 5   0  0.4504463E-05  0.1602786E+04  0.7818609E-02  0.8818838E-01
       -1   -1    0    0    0  501  0.00000000000E+00  0.00000000000E+00  0.80908769059E+03  0.80908769060E+03  0.50400001928E-02 0.  1.
        1   -1    0    0  501    0  0.00000000000E+00  0.00000000000E+00 -0.79377116198E+03  0.79377116199E+03  0.50400001928E-02 0. -1.
    10030    2    1    2    0    0  0.00000000000E+00  0.00000000000E+00  0.15316528613E+02  0.16028588526E+04  0.16027856704E+04 0.  0.
        1    1    3    3  502    0  0.64091674981E+03  0.68305759356E+02  0.48390529059E+03  0.80598032683E+03  0.50400001928E-02 0.  1.
       -1    1    3    3    0  502 -0.64091674981E+03 -0.68305759356E+02 -0.46858876198E+03  0.79687852577E+03  0.50400001928E-02 0. -1.
</event>
<event>
 5   0  0.7849690E-05  0.1599495E+04  0.7818609E-02  0.8820858E-01
        2   -1    0    0  501    0  0.00000000000E+00  0.00000000000E+00  0.59076571456E+03  0.59076571456E+03  0.25500000920E-02 0. -1.
       -2   -1    0    0    0  501  0.00000000000E+00  0.00000000000E+00 -0.10826562381E+04  0.10826562381E+04  0.25500000920E-02 0.  1.
    10030    2    1    2    0    0  0.00000000000E+00  0.00000000000E+00 -0.49189052357E+03  0.16734219527E+04  0.15994951530E+04 0.  0.
        3    1    3    3  502    0 -0.33998415273E+03  0.67976975054E+03  0.14393083998E+02  0.76018636460E+03  0.10100000352E+00 0. -1.
       -3    1    3    3    0  502  0.33998415273E+03 -0.67976975054E+03 -0.50628360757E+03  0.91323558809E+03  0.10100000352E+00 0.  1.
</event>
<event>
 5   0  0.8037548E-05  0.1600473E+04  0.7818609E-02  0.8820257E-01
       -2   -1    0    0    0  501  0.00000000000E+00  0.00000000000E+00  0.44314997065E+03  0.44314997066E+03  0.25500000920E-02 0. -1.
        2   -1    0    0  501    0  0.00000000000E+00  0.00000000000E+00 -0.14450607907E+04  0.14450607907E+04  0.25500000920E-02 0.  1.
    10030    2    1    2    0    0  0.00000000000E+00  0.00000000000E+00 -0.10019108201E+04  0.18882107614E+04  0.16004732388E+04 0.  0.
        5    1    3    3  502    0 -0.47038073973E+03 -0.17957454087E+03  0.23283865493E+03  0.55474407186E+03  0.46999998093E+01 0. -1.
       -5    1    3    3    0  502  0.47038073973E+03  0.17957454087E+03 -0.12347494750E+04  0.13334666895E+04  0.46999998093E+01 0.  1.
</event>
<event>
 5   0  0.4256406E-05  0.1599344E+04  0.7818609E-02  0.8820951E-01
        1   -1    0    0  501    0  0.00000000000E+00  0.00000000000E+00  0.22288372248E+04  0.22288372248E+04  0.50400001928E-02 0. -1.
       -1   -1    0    0    0  501  0.00000000000E+00  0.00000000000E+00 -0.28690965187E+03  0.28690965191E+03  0.50400001928E-02 0.  1.
    10030    2    1    2    0    0  0.00000000000E+00  0.00000000000E+00  0.19419275729E+04  0.25157468767E+04  0.15993435057E+04 0.  0.
        3    1    3    3  502    0  0.44051140674E+03  0.63622443867E+03  0.12880799828E+04  0.15026582739E+04  0.10100000352E+00 0.  1.
       -3    1    3    3    0  502 -0.44051140674E+03 -0.63622443867E+03  0.65384759012E+03  0.10130886028E+04  0.10100000352E+00 0. -1.
</event>
<event>
 5   0  0.4211419E-05  0.1602472E+04  0.7818609E-02  0.8819031E-01
       -1   -1    0    0    0  501  0.00000000000E+00  0.00000000000E+00  0.45907091008E+03  0.45907091010E+03  0.50400001928E-02 0.  1.
        1   -1    0    0  501    0  0.00000000000E+00  0.00000000000E+00 -0.13984305877E+04  0.13984305877E+04  0.50400001928E-02 0. -1.
    10030    2    1    2    0    0  0.00000000000E+00  0.00000000000E+00 -0.93935967764E+03  0.18575014978E+04  0.16024715943E+04 0.  0.
        2    1    3    3  502    0  0.36816803135E+03  0.69084334479E+03 -0.27171796368E+03  0.82863917246E+03  0.25500000920E-02 0.  1.
       -2    1    3    3    0  502 -0.36816803135E+03 -0.69084334479E+03 -0.66764171396E+03  0.10288623254E+04  0.25500000920E-02 0. -1.
</event>
<event>
 5   0  0.4211419E-05  0.1600658E+04  0.7818609E-02  0.8820144E-01
        1   -1    0    0  501    0  0.00000000000E+00  0.00000000000E+00  0.11352270548E+04  0.11352270548E+04  0.50400001928E-02 0. -1.
       -1   -1    0    0    0  501  0.00000000000E+00  0.00000000000E+00 -0.56422799310E+03  0.56422799312E+03  0.50400001928E-02 0.  1.
    10030    2    1    2    0    0  0.00000000000E+00  0.00000000000E+00  0.57099906169E+03  0.16994550479E+04  0.16006584681E+04 0.  0.
        2    1    3    3  502    0 -0.54255828106E+03 -0.42075408309E+03  0.72212880552E+03  0.99643037818E+03  0.25500000920E-02 0. -1.
       -2    1    3    3    0  502  0.54255828106E+03  0.42075408309E+03 -0.15112974384E+03  0.70302466974E+03  0.25500000920E-02 0.  1.
</event>
<event>
 5   0  0.8620155E-05  0.1647344E+04  0.7818609E-02  0.8791979E-01
        2   -1    0    0  501    0  0.00000000000E+00  0.00000000000E+00  0.12058154665E+04  0.12058154665E+04  0.25500000920E-02 0.  1.
       -2   -1    0    0    0  501  0.00000000000E+00  0.00000000000E+00 -0.56263653552E+03  0.56263653553E+03  0.25500000920E-02 0. -1.
    10030    2    1    2    0    0  0.00000000000E+00  0.00000000000E+00  0.64317893101E+03  0.17684520021E+04  0.16473443314E+04 0.  0.
        4    1    3    3  502    0 -0.19720234791E+02 -0.52830472438E+03 -0.35646157352E+03  0.63762154587E+03  0.12699999809E+01 0. -1.
       -4    1    3    3    0  502  0.19720234791E+02  0.52830472438E+03  0.99964050453E+03  0.11308304562E+04  0.12699999809E+01 0.  1.
</event>
<event>
 5   0  0.4314657E-05  0.1598489E+04  0.7818609E-02  0.8821477E-01
        1   -1    0    0  501    0  0.00000000000E+00  0.00000000000E+00  0.13411560395E+04  0.13411560395E+04  0.50400001928E-02 0. -1.
       -1   -1    0    0    0  501  0.00000000000E+00  0.00000000000E+00 -0.47629938904E+03  0.47629938907E+03  0.50400001928E-02 0.  1.
    10030    2    1    2    0    0  0.00000000000E+00  0.00000000000E+00  0.86485665042E+03  0.18174554285E+04  0.15984890394E+04 0.  0.
        5    1    3    3  502    0  0.50691645701E+03 -0.45363211428E+03  0.90945120912E+03  0.11357244302E+04  0.46999998093E+01 0. -1.
       -5    1    3    3    0  502 -0.50691645701E+03  0.45363211428E+03 -0.44594558699E+02  0.68173099838E+03  0.46999998093E+01 0.  1.
</event>
<event>
 5   0  0.8037548E-05  0.1607050E+04  0.7818609E-02  0.8816229E-01
        2   -1    0    0  501    0  0.00000000000E+00  0.00000000000E+00  0.10960724210E+04  0.10960724210E+04  0.25500000920E-02 0. -1.
       -2   -1    0    0    0  501  0.00000000000E+00  0.00000000000E+00 -0.58905987881E+03  0.58905987881E+03  0.25500000920E-02 0.  1.
    10030    2    1    2    0    0  0.00000000000E+00  0.00000000000E+00  0.50701254218E+03  0.16851322998E+04  0.16070498281E+04 0.  0.
        5    1    3    3  502    0 -0.68815996832E+03  0.41123929390E+03  0.31044272245E+03  0.85969684934E+03  0.46999998093E+01 0. -1.
       -5    1    3    3    0  502  0.68815996832E+03 -0.41123929390E+03  0.19656981973E+03  0.82543545046E+03  0.46999998093E+01 0.  1.
</event>
<event>
 5   0  0.4211419E-05  0.1600666E+04  0.7818609E-02  0.8820139E-01
       -1   -1    0    0    0  501  0.00000000000E+00  0.00000000000E+00  0.69247966557E+03  0.69247966559E+03  0.50400001928E-02 0.  1.
        1   -1    0    0  501    0  0.00000000000E+00  0.00000000000E+00 -0.92498394165E+03  0.92498394167E+03  0.50400001928E-02 0. -1.
    10030    2    1    2    0    0  0.00000000000E+00  0.00000000000E+00 -0.23250427608E+03  0.16174636073E+04  0.16006655748E+04 0.  0.
        2    1    3    3  502    0  0.27552886379E+03  0.73685041921E+03 -0.26499703638E+03  0.83011332019E+03  0.25500000920E-02 0.  1.
       -2    1    3    3    0  502 -0.27552886379E+03 -0.73685041921E+03  0.32492760298E+02  0.78735028707E+03  0.25500000920E-02 0. -1.
</event>
<event>
 5   0  0.8694033E-05  0.1598599E+04  0.7818609E-02  0.8821409E-01
        2   -1    0    0  501    0  0.00000000000E+00  0.00000000000E+00  0.17570986219E+04  0.17570986219E+04  0.25500000920E-02 0.  1.
       -2   -1    0    0    0  501  0.00000000000E+00  0.00000000000E+00 -0.36359931440E+03  0.36359931441E+03  0.25500000920E-02 0. -1.
    10030    2    1    2    0    0  0.00000000000E+00  0.00000000000E+00  0.13934993075E+04  0.21206979364E+04  0.15985992047E+04 0.  0.
        1    1    3    3  502    0 -0.40890762279E+03 -0.62949116657E+03  0.10610578142E+04  0.12997339181E+04  0.50400001928E-02 0.  1.
       -1    1    3    3    0  502  0.40890762279E+03  0.62949116657E+03  0.33244149335E+03  0.82096401827E+03  0.50400001928E-02 0. -1.
</event>
<event>
 5   0  0.4314657E-05  0.1600442E+04  0.7818609E-02  0.8820276E-01
        1   -1    0    0  501    0  0.00000000000E+00  0.00000000000E+00  0.12479966338E+04  0.12479966338E+04  0.50400001928E-02 0.  1.
       -1   -1    0    0    0  501  0.00000000000E+00  0.00000000000E+00 -0.51310551265E+03  0.51310551267E+03  0.50400001928E-02 0. -1.
    10030    2    1    2    0    0  0.00000000000E+00  0.00000000000E+00  0.73489112118E+03  0.17611021465E+04  0.16004423796E+04 0.  0.
        5    1    3    3  502    0  0.11877464606E+02 -0.47611323951E+01 -0.51297773418E+03  0.51315883341E+03  0.46999998093E+01 0. -1.
       -5    1    3    3    0  502 -0.11877464606E+02  0.47611323951E+01  0.12478688554E+04  0.12479433131E+04  0.46999998093E+01 0.  1.
</event>
<event>
 5   0  0.4211419E-05  0.1601584E+04  0.7818609E-02  0.8819575E-01
       -1   -1    0    0    0  501  0.00000000000E+00  0.00000000000E+00  0.37667399594E+03  0.37667399597E+03  0.50400001928E-02 0.  1.
        1   -1    0    0  501    0  0.00000000000E+00  0.00000000000E+00 -0.17024485530E+04  0.17024485530E+04  0.50400001928E-02 0. -1.
    10030    2    1    2    0    0  0.00000000000E+00  0.00000000000E+00 -0.13257745571E+04  0.20791225490E+04  0.16015843398E+04 0.  0.
        2    1    3    3  502    0  0.44487687350E+03  0.66200076777E+03 -0.75566439109E+03  0.10987215849E+04  0.25500000920E-02 0. -1.
       -2    1    3    3    0  502 -0.44487687350E+03 -0.66200076777E+03 -0.57011016600E+03  0.98040096414E+03  0.25500000920E-02 0.  1.
</event>
<event>
 5   0  0.7901257E-05  0.1599906E+04  0.7818609E-02  0.8820606E-01
       -2   -1    0    0    0  501  0.00000000000E+00  0.00000000000E+00  0.64544891368E+03  0.64544891368E+03  0.25500000920E-02 0.  1.
        2   -1    0    0  501    0  0.00000000000E+00  0.00000000000E+00 -0.99144148152E+03  0.99144148153E+03  0.25500000920E-02 0. -1.
    10030    2    1    2    0    0  0.00000000000E+00  0.00000000000E+00 -0.34599256785E+03  0.16368903952E+04  0.15999060313E+04 0.  0.
        2    1    3    3  502    0 -0.19004400932E+03  0.33797603047E+03  0.54287854755E+03  0.66712940278E+03  0.25500000920E-02 0.  1.
       -2    1    3    3    0  502  0.19004400932E+03 -0.33797603047E+03 -0.88887111540E+03  0.96976099243E+03  0.25500000920E-02 0. -1.
</event>
<event>
 5   0  0.7901257E-05  0.1599262E+04  0.7818609E-02  0.8821001E-01
       -2   -1    0    0    0  501  0.00000000000E+00  0.00000000000E+00  0.64706787502E+03  0.64706787503E+03  0.25500000920E-02 0.  1.
        2   -1    0    0  501    0  0.00000000000E+00  0.00000000000E+00 -0.98816509182E+03  0.98816509182E+03  0.25500000920E-02 0. -1.
    10030    2    1    2    0    0  0.00000000000E+00  0.00000000000E+00 -0.34109721679E+03  0.16352329668E+04  0.15992621876E+04 0.  0.
        2    1    3    3  502    0  0.56443521336E+03  0.38802771561E+03 -0.59245178483E+03  0.90562229186E+03  0.25500000920E-02 0. -1.
       -2    1    3    3    0  502 -0.56443521336E+03 -0.38802771561E+03  0.25135456804E+03  0.72961067498E+03  0.25500000920E-02 0.  1.
</event>
<event>
 5   0  0.8620155E-05  0.1600796E+04  0.7818609E-02  0.8820059E-01
        2   -1    0    0  501    0  0.00000000000E+00  0.00000000000E+00  0.82373366499E+03  0.82373366500E+03  0.25500000920E-02 0. -1.
       -2   -1    0    0    0  501  0.00000000000E+00  0.00000000000E+00 -0.77772332604E+03  0.77772332605E+03  0.25500000920E-02 0.  1.
    10030    2    1    2    0    0  0.00000000000E+00  0.00000000000E+00  0.46010338948E+02  0.16014569910E+04  0.16007959092E+04 0.  0.
        4    1    3    3  502    0  0.91125582219E+02  0.40949071300E+03 -0.65892782501E+03  0.78113635637E+03  0.12699999809E+01 0.  1.
       -4    1    3    3    0  502 -0.91125582219E+02 -0.40949071300E+03  0.70493816396E+03  0.82032063467E+03  0.12699999809E+01 0. -1.
</event>
<event>
 5   0  0.7901257E-05  0.1600469E+04  0.7818609E-02  0.8820260E-01
        2   -1    0    0  501    0  0.00000000000E+00  0.00000000000E+00  0.13631859021E+04  0.13631859021E+04  0.25500000920E-02 0.  1.
       -2   -1    0    0    0  501  0.00000000000E+00  0.00000000000E+00 -0.46976382068E+03  0.46976382069E+03  0.25500000920E-02 0. -1.
    10030    2    1    2    0    0  0.00000000000E+00  0.00000000000E+00  0.89342208141E+03  0.18329497228E+04  0.16004692033E+04 0.  0.
        2    1    3    3  502    0  0.43455553244E+03 -0.34331070761E+03 -0.21484227025E+03  0.59401847937E+03  0.25500000920E-02 0. -1.
       -2    1    3    3    0  502 -0.43455553244E+03  0.34331070761E+03  0.11082643517E+04  0.12389312434E+04  0.25500000920E-02 0.  1.
</event>
<event>
 5   0  0.7901257E-05  0.1607794E+04  0.7818609E-02  0.8815774E-01
       -2   -1    0    0    0  501  0.00000000000E+00  0.00000000000E+00  0.57711375949E+03  0.57711375950E+03  0.25500000920E-02 0.  1.
        2   -1    0    0  501    0  0.00000000000E+00  0.00000000000E+00 -0.11197978006E+04  0.11197978006E+04  0.25500000920E-02 0. -1.
    10030    2    1    2    0    0  0.00000000000E+00  0.00000000000E+00 -0.54268404107E+03  0.16969115601E+04  0.16077944129E+04 0.  0.
        2    1    3    3  502    0 -0.58736854981E+03  0.54499457163E+03 -0.33998399168E+03  0.87040795666E+03  0.25500000920E-02 0.  1.
       -2    1    3    3    0  502  0.58736854981E+03 -0.54499457163E+03 -0.20270004939E+03  0.82650360341E+03  0.25500000920E-02 0. -1.
</event>
<event>
 5   0  0.7849690E-05  0.1600165E+04  0.7818609E-02  0.8820447E-01
       -2   -1    0    0    0  501  0.00000000000E+00  0.00000000000E+00  0.12225549478E+04  0.12225549479E+04  0.25500000920E-02 0. -1.
        2   -1    0    0  501    0  0.00000000000E+00  0.00000000000E+00 -0.52360191879E+03  0.52360191880E+03  0.25500000920E-02 0.  1.
    10030    2    1    2    0    0  0.00000000000E+00  0.00000000000E+00  0.69895302906E+03  0.17461568666E+04  0.16001651371E+04 0.  0.
        3    1    3    3  502    0 -0.19639849550E+03  0.33725434885E+03  0.11116396085E+04  0.11781576695E+04  0.10100000352E+00 0. -1.
       -3    1    3    3    0  502  0.19639849550E+03 -0.33725434885E+03 -0.41268657947E+03  0.56799919711E+03  0.10100000352E+00 0.  1.
</event>
<event>
 5   0  0.4373026E-05  0.1596306E+04  0.7818609E-02  0.8822821E-01
        1   -1    0    0  501    0  0.00000000000E+00  0.00000000000E+00  0.12662238349E+04  0.12662238349E+04  0.50400001928E-02 0.  1.
       -1   -1    0    0    0  501  0.00000000000E+00  0.00000000000E+00 -0.50310866248E+03  0.50310866250E+03  0.50400001928E-02 0. -1.
    10030    2    1    2    0    0  0.00000000000E+00  0.00000000000E+00  0.76311517237E+03  0.17693324974E+04  0.15963059606E+04 0.  0.
        4    1    3    3  502    0  0.33401042252E+03  0.15049056058E+03  0.11675287000E+04  0.12236565080E+04  0.12699999809E+01 0.  1.
       -4    1    3    3    0  502 -0.33401042252E+03 -0.15049056058E+03 -0.40441352765E+03  0.54567598941E+03  0.12699999809E+01 0. -1.
</event>
<event>
 5   0  0.4504463E-05  0.1587844E+04  0.7818609E-02  0.8828051E-01
       -1   -1    0    0    0  501  0.00000000000E+00  0.00000000000E+00  0.96652818132E+03  0.96652818134E+03  0.50400001928E-02 0.  1.
        1   -1    0    0  501    0  0.00000000000E+00  0.00000000000E+00 -0.65214066096E+03  0.65214066098E+03  0.50400001928E-02 0. -1.
    10030    2    1    2    0    0  0.00000000000E+00  0.00000000000E+00  0.31438752036E+03  0.16186688423E+04  0.15878442330E+04 0.  0.
        1    1    3    3  502    0 -0.93053182065E+02  0.39300658097E+03 -0.53959507620E+03  0.67399993596E+03  0.50400001928E-02 0. -1.
       -1    1    3    3    0  502  0.93053182065E+02 -0.39300658097E+03  0.85398259656E+03  0.94466890636E+03  0.50400001928E-02 0.  1.
</event>
<event>
 5   0  0.4256406E-05  0.1602231E+04  0.7818609E-02  0.8819178E-01
        1   -1    0    0  501    0  0.00000000000E+00  0.00000000000E+00  0.18347451733E+04  0.18347451733E+04  0.50400001928E-02 0. -1.
       -1   -1    0    0    0  501  0.00000000000E+00  0.00000000000E+00 -0.34979591081E+03  0.34979591085E+03  0.50400001928E-02 0.  1.
    10030    2    1    2    0    0  0.00000000000E+00  0.00000000000E+00  0.14849492625E+04  0.21845410842E+04  0.16022313929E+04 0.  0.
        3    1    3    3  502    0 -0.26494321044E+03  0.11374343616E+03 -0.27660093239E+03  0.39955044741E+03  0.10100000352E+00 0.  1.
       -3    1    3    3    0  502  0.26494321044E+03 -0.11374343616E+03  0.17615501949E+04  0.17849906368E+04  0.10100000352E+00 0. -1.
</event>
<event>
 5   0  0.4211419E-05  0.1599461E+04  0.7818609E-02  0.8820879E-01
        1   -1    0    0  501    0  0.00000000000E+00  0.00000000000E+00  0.11277421091E+04  0.11277421091E+04  0.50400001928E-02 0.  1.
       -1   -1    0    0    0  501  0.00000000000E+00  0.00000000000E+00 -0.56712360828E+03  0.56712360830E+03  0.50400001928E-02 0. -1.
    10030    2    1    2    0    0  0.00000000000E+00  0.00000000000E+00  0.56061850084E+03  0.16948657174E+04  0.15994613770E+04 0.  0.
        2    1    3    3  502    0  0.30092774407E+03  0.68119125873E+03 -0.28610588636E+02  0.74525002779E+03  0.25500000920E-02 0. -1.
       -2    1    3    3    0  502 -0.30092774407E+03 -0.68119125873E+03  0.58922908947E+03  0.94961568964E+03  0.25500000920E-02 0.  1.
</event>
<event>
 5   0  0.4504463E-05  0.1581801E+04  0.7818609E-02  0.8831807E-01
       -1   -1    0    0    0  501  0.00000000000E+00  0.00000000000E+00  0.18011350657E+04  0.18011350658E+04  0.50400001928E-02 0. -1.
        1   -1    0    0  501    0  0.00000000000E+00  0.00000000000E+00 -0.34729420035E+03  0.34729420039E+03  0.50400001928E-02 0.  1.
    10030    2    1    2    0    0  0.00000000000E+00  0.00000000000E+00  0.14538408654E+04  0.21484292661E+04  0.15818012042E+04 0.  0.
        1    1    3    3  502    0 -0.22914031274E+03  0.75333195358E+03  0.62610589333E+03  0.10059934915E+04  0.50400001928E-02 0.  1.
       -1    1    3    3    0  502  0.22914031274E+03 -0.75333195358E+03  0.82773497207E+03  0.11424357747E+04  0.50400001928E-02 0. -1.
</event>
<event>
 5   0  0.8620155E-05  0.1600084E+04  0.7818609E-02  0.8820497E-01
        2   -1    0    0  501    0  0.00000000000E+00  0.00000000000E+00  0.11328709873E+04  0.11328709873E+04  0.25500000920E-02 0.  1.
       -2   -1    0    0    0  501  0.00000000000E+00  0.00000000000E+00 -0.56499540654E+03  0.56499540654E+03  0.25500000920E-02 0. -1.
    10030    2    1    2    0    0  0.00000000000E+00  0.00000000000E+00  0.56787558073E+03  0.16978663938E+04  0.16000836278E+04 0.  0.
        4    1    3    3  502    0 -0.77125715717E+03  0.80841707294E+02  0.75213427856E+02  0.77912236314E+03  0.12699999809E+01 0. -1.
       -4    1    3    3    0  502  0.77125715717E+03 -0.80841707294E+02  0.49266215288E+03  0.91874403067E+03  0.12699999809E+01 0.  1.
</event>
<event>
 5   0  0.8620155E-05  0.1601867E+04  0.7818609E-02  0.8819402E-01
        2   -1    0    0  501    0  0.00000000000E+00  0.00000000000E+00  0.11291394962E+04  0.11291394962E+04  0.25500000920E-02 0.  1.
       -2   -1    0    0    0  501  0.00000000000E+00  0.00000000000E+00 -0.56812673492E+03  0.56812673492E+03  0.25500000920E-02 0. -1.
    10030    2    1    2    0    0  0.00000000000E+00  0.00000000000E+00  0.56101276124E+03  0.16972662311E+04  0.16018668299E+04 0.  0.
        4    1    3    3  502    0 -0.66480777701E+03 -0.30135692998E+03  0.62985015001E+03  0.96410487188E+03  0.12699999809E+01 0.  1.
       -4    1    3    3    0  502  0.66480777701E+03  0.30135692998E+03 -0.68837388772E+02  0.73316135920E+03  0.12699999809E+01 0. -1.
</event>
<event>
 5   0  0.7901257E-05  0.1600427E+04  0.7818609E-02  0.8820286E-01
       -2   -1    0    0    0  501  0.00000000000E+00  0.00000000000E+00  0.53388489327E+03  0.53388489328E+03  0.25500000920E-02 0.  1.
        2   -1    0    0  501    0  0.00000000000E+00  0.00000000000E+00 -0.11994000716E+04  0.11994000717E+04  0.25500000920E-02 0. -1.
    10030    2    1    2    0    0  0.00000000000E+00  0.00000000000E+00 -0.66551517838E+03  0.17332849649E+04  0.16004269171E+04 0.  0.
        2    1    3    3  502    0 -0.18705593474E+03  0.71813065561E+03 -0.65701140109E+03  0.99114355288E+03  0.25500000920E-02 0. -1.
       -2    1    3    3    0  502  0.18705593474E+03 -0.71813065561E+03 -0.85037772837E+01  0.74214141205E+03  0.25500000920E-02 0.  1.
</event>
<event>
 5   0  0.3042125E-05  0.1599167E+04  0.7818609E-02  0.8821060E-01
        3   -1    0    0  501    0  0.00000000000E+00  0.00000000000E+00  0.78402734254E+03  0.78402734905E+03  0.10100000352E+00 0.  1.
       -3   -1    0    0    0  501  0.00000000000E+00  0.00000000000E+00 -0.81544798196E+03  0.81544798821E+03  0.10100000352E+00 0. -1.
    10030    2    1    2    0    0  0.00000000000E+00  0.00000000000E+00 -0.31420639414E+02  0.15994753373E+04  0.15991666886E+04 0.  0.
        2    1    3    3  502    0  0.18799866276E+03 -0.70509320353E+03  0.31120686343E+03  0.79331559591E+03  0.25500000920E-02 0.  1.
       -2    1    3    3    0  502 -0.18799866276E+03  0.70509320353E+03 -0.34262750284E+03  0.80615974135E+03  0.25500000920E-02 0. -1.
</event>
<event>
 5   0  0.4373026E-05  0.1601298E+04  0.7818609E-02  0.8819751E-01
       -1   -1    0    0    0  501  0.00000000000E+00  0.00000000000E+00  0.67468277159E+03  0.67468277161E+03  0.50400001928E-02 0.  1.
        1   -1    0    0  501    0  0.00000000000E+00  0.00000000000E+00 -0.95013325130E+03  0.95013325131E+03  0.50400001928E-02 0. -1.
    10030    2    1    2    0    0  0.00000000000E+00  0.00000000000E+00 -0.27545047970E+03  0.16248160229E+04  0.16012976430E+04 0.  0.
        4    1    3    3  502    0  0.41398201960E+03  0.99619471596E+02  0.55026834326E+03  0.69577439890E+03  0.12699999809E+01 0.  1.
       -4    1    3    3    0  502 -0.41398201960E+03 -0.99619471596E+02 -0.82571882296E+03  0.92904162402E+03  0.12699999809E+01 0. -1.
</event>
<event>
 5   0  0.4256406E-05  0.1598199E+04  0.7818609E-02  0.8821655E-01
       -1   -1    0    0    0  501  0.00000000000E+00  0.00000000000E+00  0.46640926573E+03  0.46640926576E+03  0.50400001928E-02 0.  1.
        1   -1    0    0  501    0  0.00000000000E+00  0.00000000000E+00 -0.13690980993E+04  0.13690980993E+04  0.50400001928E-02 0. -1.
    10030    2    1    2    0    0  0.00000000000E+00  0.00000000000E+00 -0.90268883353E+03  0.18355073650E+04  0.15981990355E+04 0.  0.
        3    1    3    3  502    0 -0.11667748702E+03 -0.68435581215E+03 -0.90583618394E+03  0.11412693442E+04  0.10100000352E+00 0. -1.
       -3    1    3    3    0  502  0.11667748702E+03  0.68435581215E+03  0.31473504093E+01  0.69423802087E+03  0.10100000352E+00 0.  1.
</event>
<event>
 5   0  0.4373026E-05  0.1599590E+04  0.7818609E-02  0.8820800E-01
        1   -1    0    0  501    0  0.00000000000E+00  0.00000000000E+00  0.11257335911E+04  0.11257335911E+04  0.50400001928E-02 0. -1.
       -1   -1    0    0    0  501  0.00000000000E+00  0.00000000000E+00 -0.56822663490E+03  0.56822663492E+03  0.50400001928E-02 0.  1.
    10030    2    1    2    0    0  0.00000000000E+00  0.00000000000E+00  0.55750695621E+03  0.16939602260E+04  0.15995897103E+04 0.  0.
        4    1    3    3  502    0 -0.27314523018E+03  0.23847079127E+02  0.10744069524E+04  0.11088412476E+04  0.12699999809E+01 0. -1.
       -4    1    3    3    0  502  0.27314523018E+03 -0.23847079127E+02 -0.51689999624E+03  0.58511897847E+03  0.12699999809E+01 0.  1.
</event>
<event>
 5   0  0.4373026E-05  0.1597035E+04  0.7818609E-02  0.8822371E-01
        1   -1    0    0  501    0  0.00000000000E+00  0.00000000000E+00  0.16382971774E+04  0.16382971774E+04  0.50400001928E-02 0.  1.
       -1   -1    0    0    0  501  0.00000000000E+00  0.00000000000E+00 -0.38920313878E+03  0.38920313881E+03  0.50400001928E-02 0. -1.
    10030    2    1    2    0    0  0.00000000000E+00  0.00000000000E+00  0.12490940387E+04  0.20275003163E+04  0.15970352579E+04 0.  0.
        4    1    3    3  502    0  0.46978649655E+03 -0.15917771523E+03  0.14189909889E+04  0.15031879247E+04  0.12699999809E+01 0.  1.
       -4    1    3    3    0  502 -0.46978649655E+03  0.15917771523E+03 -0.16989695025E+03  0.52431239158E+03  0.12699999809E+01 0. -1.
</event>
<event>
 5   0  0.8694033E-05  0.1598009E+04  0.7818609E-02  0.8821772E-01
       -2   -1    0    0    0  501  0.00000000000E+00  0.00000000000E+00  0.15481192928E+04  0.15481192928E+04  0.25500000920E-02 0.  1.
        2   -1    0    0  501    0  0.00000000000E+00  0.00000000000E+00 -0.41237671025E+03  0.41237671026E+03  0.25500000920E-02 0. -1.
    10030    2    1    2    0    0  0.00000000000E+00  0.00000000000E+00  0.11357425826E+04  0.19604960031E+04  0.15980091878E+04 0.  0.
        1    1    3    3  502    0 -0.35521780906E+03 -0.70881709835E+03  0.44637749063E+03  0.90986495424E+03  0.50400001928E-02 0. -1.
       -1    1    3    3    0  502  0.35521780906E+03  0.70881709835E+03  0.68936509194E+03  0.10506310488E+04  0.50400001928E-02 0.  1.
</event>
<event>
 5   0  0.7901257E-05  0.1601511E+04  0.7818609E-02  0.8819620E-01
        2   -1    0    0  501    0  0.00000000000E+00  0.00000000000E+00  0.62155074643E+03  0.62155074643E+03  0.25500000920E-02 0.  1.
       -2   -1    0    0    0  501  0.00000000000E+00  0.00000000000E+00 -0.10316281689E+04  0.10316281689E+04  0.25500000920E-02 0. -1.
    10030    2    1    2    0    0  0.00000000000E+00  0.00000000000E+00 -0.41007742250E+03  0.16531789154E+04  0.16015108597E+04 0.  0.
        2    1    3    3  502    0 -0.77021927080E+02 -0.77281543208E+03 -0.37259335707E+01  0.77665304474E+03  0.25500000920E-02 0.  1.
       -2    1    3    3    0  502  0.77021927080E+02  0.77281543208E+03 -0.40635148892E+03  0.87652587062E+03  0.25500000920E-02 0. -1.
</event>
<event>
 5   0  0.7849690E-05  0.1556021E+04  0.7818609E-02  0.8848031E-01
       -2   -1    0    0    0  501  0.00000000000E+00  0.00000000000E+00  0.13383322247E+04  0.13383322247E+04  0.25500000920E-02 0.  1.
        2   -1    0    0  501    0  0.00000000000E+00  0.00000000000E+00 -0.45227961091E+03  0.45227961091E+03  0.25500000920E-02 0. -1.
    10030    2    1    2    0    0  0.00000000000E+00  0.00000000000E+00  0.88605261376E+03  0.17906118356E+04  0.15560210511E+04 0.  0.
        3    1    3    3  502    0 -0.44697914025E+03 -0.10200635788E+03 -0.28031304196E+03  0.53737422766E+03  0.10100000352E+00 0. -1.
       -3    1    3    3    0  502  0.44697914025E+03  0.10200635788E+03  0.11663656557E+04  0.12532376079E+04  0.10100000352E+00 0.  1.
</event>
<event>
 5   0  0.8037548E-05  0.1599978E+04  0.7818609E-02  0.8820561E-01
       -2   -1    0    0    0  501  0.00000000000E+00  0.00000000000E+00  0.81391215109E+03  0.81391215109E+03  0.25500000920E-02 0.  1.
        2   -1    0    0  501    0  0.00000000000E+00  0.00000000000E+00 -0.78630433487E+03  0.78630433487E+03  0.25500000920E-02 0. -1.
    10030    2    1    2    0    0  0.00000000000E+00  0.00000000000E+00  0.27607816223E+02  0.16002164860E+04  0.15999783156E+04 0.  0.
        5    1    3    3  502    0  0.36079758971E+03 -0.55870203846E+03  0.45843469716E+03  0.80777925826E+03  0.46999998093E+01 0.  1.
       -5    1    3    3    0  502 -0.36079758971E+03  0.55870203846E+03 -0.43082688094E+03  0.79243722770E+03  0.46999998093E+01 0. -1.
</event>
<event>
 5   0  0.4314657E-05  0.1608393E+04  0.7818609E-02  0.8815408E-01
        1   -1    0    0  501    0  0.00000000000E+00  0.00000000000E+00  0.15364351853E+04  0.15364351853E+04  0.50400001928E-02 0.  1.
       -1   -1    0    0    0  501  0.00000000000E+00  0.00000000000E+00 -0.42093047944E+03  0.42093047947E+03  0.50400001928E-02 0. -1.
    10030    2    1    2    0    0  0.00000000000E+00  0.00000000000E+00  0.11155047058E+04  0.19573656647E+04  0.16083934832E+04 0.  0.
        5    1    3    3  502    0 -0.22779661509E+01  0.42805194249E+03 -0.27074970754E+03  0.50651865586E+03  0.46999998093E+01 0. -1.
       -5    1    3    3    0  502  0.22779661509E+01 -0.42805194249E+03  0.13862544134E+04  0.14508470089E+04  0.46999998093E+01 0.  1.
</event>
<event>
 5   0  0.4211419E-05  0.1601561E+04  0.7818609E-02  0.8819590E-01
        1   -1    0    0  501    0  0.00000000000E+00  0.00000000000E+00  0.62499243471E+03  0.62499243473E+03  0.50400001928E-02 0. -1.
       -1   -1    0    0    0  501  0.00000000000E+00  0.00000000000E+00 -0.10260113366E+04  0.10260113366E+04  0.50400001928E-02 0.  1.
    10030    2    1    2    0    0  0.00000000000E+00  0.00000000000E+00 -0.40101890185E+03  0.16510037713E+04  0.16015608928E+04 0.  0.
        2    1    3    3  502    0 -0.51795058592E+03  0.60103115738E+03 -0.88822405170E+02  0.79837377291E+03  0.25500000920E-02 0. -1.
       -2    1    3    3    0  502  0.51795058592E+03 -0.60103115738E+03 -0.31219649668E+03  0.85262999839E+03  0.25500000920E-02 0.  1.
</event>
<event>
 5   0  0.4314657E-05  0.1601434E+04  0.7818609E-02  0.8819668E-01
        1   -1    0    0  501    0  0.00000000000E+00  0.00000000000E+00  0.98418535099E+03  0.98418535101E+03  0.50400001928E-02 0.  1.
       -1   -1    0    0    0  501  0.00000000000E+00  0.00000000000E+00 -0.65145000624E+03  0.65145000626E+03  0.50400001928E-02 0. -1.
    10030    2    1    2    0    0  0.00000000000E+00  0.00000000000E+00  0.33273534475E+03  0.16356353573E+04  0.16014337989E+04 0.  0.
        5    1    3    3  502    0  0.56816673433E+03 -0.34314026972E+03  0.62377909034E+03  0.91086833640E+03  0.46999998093E+01 0.  1.
       -5    1    3    3    0  502 -0.56816673433E+03  0.34314026972E+03 -0.29104374559E+03  0.72476702088E+03  0.46999998093E+01 0. -1.
</event>
<event>
 5   0  0.7901257E-05  0.1600701E+04  0.7818609E-02  0.8820118E-01
       -2   -1    0    0    0  501  0.00000000000E+00  0.00000000000E+00  0.69637431240E+03  0.69637431241E+03  0.25500000920E-02 0. -1.
        2   -1    0    0  501    0  0.00000000000E+00  0.00000000000E+00 -0.91985118938E+03  0.91985118938E+03  0.25500000920E-02 0.  1.
    10030    2    1    2    0    0  0.00000000000E+00  0.00000000000E+00 -0.22347687698E+03  0.16162255018E+04  0.16007007709E+04 0.  0.
        2    1    3    3  502    0  0.32533127053E+03 -0.39417980415E+03 -0.73361988653E+03  0.89410082849E+03  0.25500000920E-02 0.  1.
       -2    1    3    3    0  502 -0.32533127053E+03  0.39417980415E+03  0.51014300955E+03  0.72212467330E+03  0.25500000920E-02 0. -1.
</event>
<event>
 5   0  0.8694033E-05  0.1601331E+04  0.7818609E-02  0.8819730E-01
        2   -1    0    0  501    0  0.00000000000E+00  0.00000000000E+00  0.18771686736E+04  0.18771686736E+04  0.25500000920E-02 0.  1.
       -2   -1    0    0    0  501  0.00000000000E+00  0.00000000000E+00 -0.34150668056E+03  0.34150668057E+03  0.25500000920E-02 0. -1.
    10030    2    1    2    0    0  0.00000000000E+00  0.00000000000E+00  0.15356619931E+04  0.22186753542E+04  0.16013314992E+04 0.  0.
        1    1    3    3  502    0  0.14138798606E+02 -0.26147875800E+03  0.18161614652E+04  0.18349423736E+04  0.50400001928E-02 0.  1.
       -1    1    3    3    0  502 -0.14138798606E+02  0.26147875800E+03 -0.28049947217E+03  0.38373298063E+03  0.50400001928E-02 0. -1.
</event>
<event>
 5   0  0.8694033E-05  0.1606067E+04  0.7818609E-02  0.8816830E-01
        2   -1    0    0  501    0  0.00000000000E+00  0.00000000000E+00  0.10482312186E+04  0.10482312186E+04  0.25500000920E-02 0.  1.
       -2   -1    0    0    0  501  0.00000000000E+00  0.00000000000E+00 -0.61519123893E+03  0.61519123893E+03  0.25500000920E-02 0. -1.
    10030    2    1    2    0    0  0.00000000000E+00  0.00000000000E+00  0.43303997969E+03  0.16634224576E+04  0.16060668256E+04 0.  0.
        1    1    3    3  502    0 -0.29568067233E+03  0.32640506604E+03  0.91198745822E+03  0.10127627813E+04  0.50400001928E-02 0.  1.
       -1    1    3    3    0  502  0.29568067233E+03 -0.32640506604E+03 -0.47894747853E+03  0.65065967629E+03  0.50400001928E-02 0. -1.
</event>
<event>
 5   0  0.7849690E-05  0.1601230E+04  0.7818609E-02  0.8819793E-01
        2   -1    0    0  501    0  0.00000000000E+00  0.00000000000E+00  0.10919597471E+04  0.10919597471E+04  0.25500000920E-02 0. -1.
       -2   -1    0    0    0  501  0.00000000000E+00  0.00000000000E+00 -0.58700338983E+03  0.58700338984E+03  0.25500000920E-02 0.  1.
    10030    2    1    2    0    0  0.00000000000E+00  0.00000000000E+00  0.50495635723E+03  0.16789631369E+04  0.16012296189E+04 0.  0.
        3    1    3    3  502    0  0.72400384526E+03  0.16707838301E+03  0.56509145989E+03  0.93350153843E+03  0.10100000352E+00 0. -1.
       -3    1    3    3    0  502 -0.72400384526E+03 -0.16707838301E+03 -0.60135102664E+02  0.74546159847E+03  0.10100000352E+00 0.  1.
</event>
<event>
 5   0  0.4373026E-05  0.1598787E+04  0.7818609E-02  0.8821293E-01
        1   -1    0    0  501    0  0.00000000000E+00  0.00000000000E+00  0.49746697658E+03  0.49746697661E+03  0.50400001928E-02 0. -1.
       -1   -1    0    0    0  501  0.00000000000E+00  0.00000000000E+00 -0.12845680137E+04  0.12845680138E+04  0.50400001928E-02 0.  1.
    10030    2    1    2    0    0  0.00000000000E+00  0.00000000000E+00 -0.78710103716E+03  0.17820349904E+04  0.15987872479E+04 0.  0.
        4    1    3    3  502    0 -0.30809461195E+03  0.51718823444E+03  0.19268128535E+03  0.63208674276E+03  0.12699999809E+01 0. -1.
       -4    1    3    3    0  502  0.30809461195E+03 -0.51718823444E+03 -0.97978232251E+03  0.11499482476E+04  0.12699999809E+01 0.  1.
</event>
<event>
 5   0  0.7849690E-05  0.1598640E+04  0.7818609E-02  0.8821384E-01
       -2   -1    0    0    0  501  0.00000000000E+00  0.00000000000E+00  0.55236128113E+03  0.55236128114E+03  0.25500000920E-02 0.  1.
        2   -1    0    0  501    0  0.00000000000E+00  0.00000000000E+00 -0.11566931555E+04  0.11566931555E+04  0.25500000920E-02 0. -1.
    10030    2    1    2    0    0  0.00000000000E+00  0.00000000000E+00 -0.60433187436E+03  0.17090544366E+04  0.15986400636E+04 0.  0.
        3    1    3    3  502    0  0.80564048118E+02 -0.10789586382E+03 -0.11444803045E+04  0.11523746183E+04  0.10100000352E+00 0. -1.
       -3    1    3    3    0  502 -0.80564048118E+02  0.10789586382E+03  0.54014843019E+03  0.55667981831E+03  0.10100000352E+00 0.  1.
</event>
<event>
 5   0  0.4211419E-05  0.1599965E+04  0.7818609E-02  0.8820569E-01
       -1   -1    0    0    0  501  0.00000000000E+00  0.00000000000E+00  0.42375744356E+03  0.42375744359E+03  0.50400001928E-02 0.  1.
        1   -1    0    0  501    0  0.00000000000E+00  0.00000000000E+00 -0.15102327282E+04  0.15102327282E+04  0.50400001928E-02 0. -1.
    10030    2    1    2    0    0  0.00000000000E+00  0.00000000000E+00 -0.10864752846E+04  0.19339901718E+04  0.15999654498E+04 0.  0.
        2    1    3    3  502    0 -0.45794841468E+03  0.43516420314E+03 -0.11365057385E+04  0.13002807111E+04  0.25500000920E-02 0. -1.
       -2    1    3    3    0  502  0.45794841468E+03 -0.43516420314E+03  0.50030453830E+02  0.63370946065E+03  0.25500000920E-02 0.  1.
</event>
<event>
 5   0  0.8037548E-05  0.1598514E+04  0.7818609E-02  0.8821461E-01
       -2   -1    0    0    0  501  0.00000000000E+00  0.00000000000E+00  0.34651423106E+03  0.34651423107E+03  0.25500000920E-02 0.  1.
        2   -1    0    0  501    0  0.00000000000E+00  0.00000000000E+00 -0.18435378556E+04  0.18435378556E+04  0.25500000920E-02 0. -1.
    10030    2    1    2    0    0  0.00000000000E+00  0.00000000000E+00 -0.14970236245E+04  0.21900520866E+04  0.15985144384E+04 0.  0.
        5    1    3    3  502    0  0.56743796424E+03 -0.34385258207E+03 -0.13799977759E+03  0.67770677293E+03  0.46999998093E+01 0.  1.
       -5    1    3    3    0  502 -0.56743796424E+03  0.34385258207E+03 -0.13590238469E+04  0.15123453137E+04  0.46999998093E+01 0. -1.
</event>
<event>
 5   0  0.7849690E-05  0.1600297E+04  0.7818609E-02  0.8820366E-01
       -2   -1    0    0    0  501  0.00000000000E+00  0.00000000000E+00  0.53561357484E+03  0.53561357485E+03  0.25500000920E-02 0.  1.
        2   -1    0    0  501    0  0.00000000000E+00  0.00000000000E+00 -0.11953343062E+04  0.11953343062E+04  0.25500000920E-02 0. -1.
    10030    2    1    2    0    0  0.00000000000E+00  0.00000000000E+00 -0.65972073133E+03  0.17309478810E+04  0.16002965736E+04 0.  0.
        3    1    3    3  502    0 -0.15625386156E+03 -0.35519627754E+03  0.42702440778E+03  0.57700045050E+03  0.10100000352E+00 0.  1.
       -3    1    3    3    0  502  0.15625386156E+03  0.35519627754E+03 -0.10867451391E+04  0.11539474305E+04  0.10100000352E+00 0. -1.
</event>
<event>
 5   0  0.4211419E-05  0.1599219E+04  0.7818609E-02  0.8821028E-01
       -1   -1    0    0    0  501  0.00000000000E+00  0.00000000000E+00  0.12020319308E+04  0.12020319308E+04  0.50400001928E-02 0.  1.
        1   -1    0    0  501    0  0.00000000000E+00  0.00000000000E+00 -0.53191187860E+03  0.53191187862E+03  0.50400001928E-02 0. -1.
    10030    2    1    2    0    0  0.00000000000E+00  0.00000000000E+00  0.67012005218E+03  0.17339438094E+04  0.15992186373E+04 0.  0.
        2    1    3    3  502    0 -0.59877232050E+03 -0.30606298770E+03  0.80414105681E+03  0.10482584049E+04  0.25500000920E-02 0.  1.
       -2    1    3    3    0  502  0.59877232050E+03  0.30606298770E+03 -0.13402100462E+03  0.68568540449E+03  0.25500000920E-02 0. -1.
</event>
<event>
 5   0  0.4211419E-05  0.1599907E+04  0.7818609E-02  0.8820605E-01
       -1   -1    0    0    0  501  0.00000000000E+00  0.00000000000E+00  0.67772505593E+03  0.67772505595E+03  0.50400001928E-02 0. -1.
        1   -1    0    0  501    0  0.00000000000E+00  0.00000000000E+00 -0.94422553013E+03  0.94422553014E+03  0.50400001928E-02 0.  1.
    10030    2    1    2    0    0  0.00000000000E+00  0.00000000000E+00 -0.26650047420E+03  0.16219505861E+04  0.15999066226E+04 0.  0.
        2    1    3    3  502    0  0.58826188844E+03 -0.26332108897E+03 -0.61363060802E+03  0.88990593233E+03  0.25500000920E-02 0.  1.
       -2    1    3    3    0  502 -0.58826188844E+03  0.26332108897E+03  0.34713013382E+03  0.73204465376E+03  0.25500000920E-02 0. -1.
</event>
<event>
 5   0  0.4314657E-05  0.1600033E+04  0.7818609E-02  0.8820528E-01
       -1   -1    0    0    0  501  0.00000000000E+00  0.00000000000E+00  0.53278464210E+03  0.53278464212E+03  0.50400001928E-02 0. -1.
        1   -1    0    0  501    0  0.00000000000E+00  0.00000000000E+00 -0.12012856645E+04  0.12012856645E+04  0.50400001928E-02 0.  1.
    10030    2    1    2    0    0  0.00000000000E+00  0.00000000000E+00 -0.66850102239E+03  0.17340703066E+04  0.16000331907E+04 0.  0.
        5    1    3    3  502    0 -0.36342975191E+02 -0.35491203258E+03  0.44177912168E+03  0.56786815818E+03  0.46999998093E+01 0. -1.
       -5    1    3    3    0  502  0.36342975191E+02  0.35491203258E+03 -0.11102801441E+04  0.11662021484E+04  0.46999998093E+01 0.  1.
</event>
<event>
 5   0  0.7901257E-05  0.1598307E+04  0.7818609E-02  0.8821589E-01
        2   -1    0    0  501    0  0.00000000000E+00  0.00000000000E+00  0.19278780236E+04  0.19278780236E+04  0.25500000920E-02 0.  1.
       -2   -1    0    0    0  501  0.00000000000E+00  0.00000000000E+00 -0.33126903773E+03  0.33126903774E+03  0.25500000920E-02 0. -1.
    10030    2    1    2    0    0  0.00000000000E+00  0.00000000000E+00  0.15966089858E+04  0.22591470613E+04  0.15983069765E+04 0.  0.
        2    1    3    3  502    0 -0.58793433987E+03  0.44245205644E+03  0.12390140651E+04  0.14410365935E+04  0.25500000920E-02 0.  1.
       -2    1    3    3    0  502  0.58793433987E+03 -0.44245205644E+03  0.35759492077E+03  0.81811046785E+03  0.25500000920E-02 0. -1.
</event>
<event>
 5   0  0.7901257E-05  0.1600146E+04  0.7818609E-02  0.8820458E-01
       -2   -1    0    0    0  501  0.00000000000E+00  0.00000000000E+00  0.28199716423E+03  0.28199716424E+03  0.25500000920E-02 0.  1.
        2   -1    0    0  501    0  0.00000000000E+00  0.00000000000E+00 -0.22699414391E+04  0.22699414391E+04  0.25500000920E-02 0. -1.
    10030    2    1    2    0    0  0.00000000000E+00  0.00000000000E+00 -0.19879442748E+04  0.25519386033E+04  0.16001463043E+04 0.  0.
        2    1    3    3  502    0  0.31066809702E+03  0.43426567613E+03 -0.19442143330E+04  0.20162020526E+04  0.25500000920E-02 0. -1.
       -2    1    3    3    0  502 -0.31066809702E+03 -0.43426567613E+03 -0.43729941790E+02  0.53573655073E+03  0.25500000920E-02 0.  1.
</event>
<event>
 5   0  0.4256406E-05  0.1601011E+04  0.7818609E-02  0.8819927E-01
       -1   -1    0    0    0  501  0.00000000000E+00  0.00000000000E+00  0.48424028787E+03  0.48424028790E+03  0.50400001928E-02 0.  1.
        1   -1    0    0  501    0  0.00000000000E+00  0.00000000000E+00 -0.13233283062E+04  0.13233283063E+04  0.50400001928E-02 0. -1.
    10030    2    1    2    0    0  0.00000000000E+00  0.00000000000E+00 -0.83908801837E+03  0.18075685941E+04  0.16010107807E+04 0.  0.
        3    1    3    3  502    0  0.26893163654E+03  0.20126260137E+03  0.40082349307E+03  0.52296304137E+03  0.10100000352E+00 0.  1.
       -3    1    3    3    0  502 -0.26893163654E+03 -0.20126260137E+03 -0.12399115114E+04  0.12846055528E+04  0.10100000352E+00 0. -1.
</event>
<event>
 5   0  0.8620155E-05  0.1593797E+04  0.7818609E-02  0.8824368E-01
        2   -1    0    0  501    0  0.00000000000E+00  0.00000000000E+00  0.12243081038E+04  0.12243081038E+04  0.25500000920E-02 0.  1.
       -2   -1    0    0    0  501  0.00000000000E+00  0.00000000000E+00 -0.51869863694E+03  0.51869863695E+03  0.25500000920E-02 0. -1.
    10030    2    1    2    0    0  0.00000000000E+00  0.00000000000E+00  0.70560946691E+03  0.17430067408E+04  0.15937966554E+04 0.  0.
        4    1    3    3  502    0  0.10142664564E+01 -0.78857376939E+03  0.47843161825E+03  0.92236004073E+03  0.12699999809E+01 0.  1.
       -4    1    3    3    0  502 -0.10142664564E+01  0.78857376939E+03  0.22717784865E+03  0.82064670006E+03  0.12699999809E+01 0. -1.
</event>
<event>
 5   0  0.4504463E-05  0.1598049E+04  0.7818609E-02  0.8821748E-01
       -1   -1    0    0    0  501  0.00000000000E+00  0.00000000000E+00  0.84458575559E+03  0.84458575561E+03  0.50400001928E-02 0. -1.
        1   -1    0    0  501    0  0.00000000000E+00  0.00000000000E+00 -0.75592092701E+03  0.75592092703E+03  0.50400001928E-02 0.  1.
    10030    2    1    2    0    0  0.00000000000E+00  0.00000000000E+00  0.88664828580E+02  0.16005066826E+04  0.15980488695E+04 0.  0.
        1    1    3    3  502    0  0.74329554720E+03 -0.29166318231E+03  0.74116425285E+02  0.80190331520E+03  0.50400001928E-02 0. -1.
       -1    1    3    3    0  502 -0.74329554720E+03  0.29166318231E+03  0.14548403295E+02  0.79860336743E+03  0.50400001928E-02 0.  1.
</event>
<event>
 5   0  0.7901257E-05  0.1600708E+04  0.7818609E-02  0.8820113E-01
        2   -1    0    0  501    0  0.00000000000E+00  0.00000000000E+00  0.10070846274E+04  0.10070846274E+04  0.25500000920E-02 0.  1.
       -2   -1    0    0    0  501  0.00000000000E+00  0.00000000000E+00 -0.63606030285E+03  0.63606030286E+03  0.25500000920E-02 0. -1.
    10030    2    1    2    0    0  0.00000000000E+00  0.00000000000E+00  0.37102432454E+03  0.16431449303E+04  0.16007080347E+04 0.  0.
        2    1    3    3  502    0 -0.49395872372E+03  0.19385965102E+03 -0.42952984856E+03  0.68269515587E+03  0.25500000920E-02 0. -1.
       -2    1    3    3    0  502  0.49395872372E+03 -0.19385965102E+03  0.80055417310E+03  0.96044977438E+03  0.25500000920E-02 0.  1.
</event>
<event>
 5   0  0.4256406E-05  0.1600554E+04  0.7818609E-02  0.8820208E-01
       -1   -1    0    0    0  501  0.00000000000E+00  0.00000000000E+00  0.72632403774E+03  0.72632403776E+03  0.50400001928E-02 0.  1.
        1   -1    0    0  501    0  0.00000000000E+00  0.00000000000E+00 -0.88175971253E+03  0.88175971255E+03  0.50400001928E-02 0. -1.
    10030    2    1    2    0    0  0.00000000000E+00  0.00000000000E+00 -0.15543567479E+03  0.16080837503E+04  0.16005539975E+04 0.  0.
        3    1    3    3  502    0 -0.47442684029E+03  0.60176256572E+03  0.15411486580E+03  0.78163317122E+03  0.10100000352E+00 0.  1.
       -3    1    3    3    0  502  0.47442684029E+03 -0.60176256572E+03 -0.30955054059E+03  0.82645057909E+03  0.10100000352E+00 0. -1.
</event>
<event>
 5   0  0.8694033E-05  0.1599853E+04  0.7818609E-02  0.8820639E-01
       -2   -1    0    0    0  501  0.00000000000E+00  0.00000000000E+00  0.27868665612E+03  0.27868665613E+03  0.25500000920E-02 0. -1.
        2   -1    0    0  501    0  0.00000000000E+00  0.00000000000E+00 -0.22960626023E+04  0.22960626023E+04  0.25500000920E-02 0.  1.
    10030    2    1    2    0    0  0.00000000000E+00  0.00000000000E+00 -0.20173759461E+04  0.25747492584E+04  0.15998525043E+04 0.  0.
        1    1    3    3  502    0 -0.34327776748E+03  0.71997696967E+03 -0.11062578930E+04  0.13638229314E+04  0.50400001928E-02 0. -1.
       -1    1    3    3    0  502  0.34327776748E+03 -0.71997696967E+03 -0.91111805319E+03  0.12109263270E+04  0.50400001928E-02 0.  1.
</event>
<event>
 5   0  0.8037548E-05  0.1599893E+04  0.7818609E-02  0.8820614E-01
       -2   -1    0    0    0  501  0.00000000000E+00  0.00000000000E+00  0.47661147538E+03  0.47661147539E+03  0.25500000920E-02 0.  1.
        2   -1    0    0  501    0  0.00000000000E+00  0.00000000000E+00 -0.13426327140E+04  0.13426327140E+04  0.25500000920E-02 0. -1.
    10030    2    1    2    0    0  0.00000000000E+00  0.00000000000E+00 -0.86602123867E+03  0.18192441894E+04  0.15998926948E+04 0.  0.
        5    1    3    3  502    0 -0.69302147007E+03  0.93049509030E+02  0.87876758378E+01  0.69931129145E+03  0.46999998093E+01 0.  1.
       -5    1    3    3    0  502  0.69302147007E+03 -0.93049509030E+02 -0.87480891450E+03  0.11199328980E+04  0.46999998093E+01 0. -1.
</event>
<event>
 5   0  0.4504463E-05  0.1599459E+04  0.7818609E-02  0.8820880E-01
        1   -1    0    0  501    0  0.00000000000E+00  0.00000000000E+00  0.10177519233E+04  0.10177519233E+04  0.50400001928E-02 0.  1.
       -1   -1    0    0    0  501  0.00000000000E+00  0.00000000000E+00 -0.62841212440E+03  0.62841212442E+03  0.50400001928E-02 0. -1.
    10030    2    1    2    0    0  0.00000000000E+00  0.00000000000E+00  0.38933979888E+03  0.16461640477E+04  0.15994594690E+04 0.  0.
        1    1    3    3  502    0  0.27459792556E+03 -0.60543867251E+03  0.65218111010E+03  0.93128953998E+03  0.50400001928E-02 0.  1.
       -1    1    3    3    0  502 -0.27459792556E+03  0.60543867251E+03 -0.26284131122E+03  0.71487450773E+03  0.50400001928E-02 0. -1.
</event>
<event>
 5   0  0.4373026E-05  0.1599447E+04  0.7818609E-02  0.8820888E-01
       -1   -1    0    0    0  501  0.00000000000E+00  0.00000000000E+00  0.59341307257E+03  0.59341307259E+03  0.50400001928E-02 0. -1.
        1   -1    0    0  501    0  0.00000000000E+00  0.00000000000E+00 -0.10777618356E+04  0.10777618356E+04  0.50400001928E-02 0.  1.
    10030    2    1    2    0    0  0.00000000000E+00  0.00000000000E+00 -0.48434876300E+03  0.16711749082E+04  0.15994473575E+04 0.  0.
        4    1    3    3  502    0  0.19398163557E+03 -0.16993939811E+03 -0.10331215665E+04  0.10648239564E+04  0.12699999809E+01 0.  1.
       -4    1    3    3    0  502 -0.19398163557E+03  0.16993939811E+03  0.54877280352E+03  0.60635095180E+03  0.12699999809E+01 0. -1.
</event>
<event>
 5   0  0.4373026E-05  0.1598961E+04  0.7818609E-02  0.8821187E-01
        1   -1    0    0  501    0  0.00000000000E+00  0.00000000000E+00  0.15057972599E+04  0.15057972599E+04  0.50400001928E-02 0. -1.
       -1   -1    0    0    0  501  0.00000000000E+00  0.00000000000E+00 -0.42447204150E+03  0.42447204153E+03  0.50400001928E-02 0.  1.
    10030    2    1    2    0    0  0.00000000000E+00  0.00000000000E+00  0.10813252184E+04  0.19302693014E+04  0.15989607087E+04 0.  0.
        4    1    3    3  502    0  0.78111174658E+03 -0.14260124949E+03  0.42808460665E+03  0.90206913280E+03  0.12699999809E+01 0. -1.
       -4    1    3    3    0  502 -0.78111174658E+03  0.14260124949E+03  0.65324061171E+03  0.10282001686E+04  0.12699999809E+01 0.  1.
</event>
<event>
 5   0  0.7901257E-05  0.1600559E+04  0.7818609E-02  0.8820205E-01
        2   -1    0    0  501    0  0.00000000000E+00  0.00000000000E+00  0.56500120132E+03  0.56500120133E+03  0.25500000920E-02 0. -1.
       -2   -1    0    0    0  501  0.00000000000E+00  0.00000000000E+00 -0.11335327509E+04  0.11335327509E+04  0.25500000920E-02 0.  1.
    10030    2    1    2    0    0  0.00000000000E+00  0.00000000000E+00 -0.56853154960E+03  0.16985339523E+04  0.16005591098E+04 0.  0.
        2    1    3    3  502    0 -0.14776664763E+03  0.74360079367E+03 -0.12317174281E+02  0.75824061833E+03  0.25500000920E-02 0. -1.
       -2    1    3    3    0  502  0.14776664763E+03 -0.74360079367E+03 -0.55621437532E+03  0.94029333392E+03  0.25500000920E-02 0.  1.
</event>
<event>
 5   0  0.7901257E-05  0.1604051E+04  0.7818609E-02  0.8818063E-01
        2   -1    0    0  501    0  0.00000000000E+00  0.00000000000E+00  0.74328027971E+03  0.74328027971E+03  0.25500000920E-02 0.  1.
       -2   -1    0    0    0  501  0.00000000000E+00  0.00000000000E+00 -0.86541333877E+03  0.86541333878E+03  0.25500000920E-02 0. -1.
    10030    2    1    2    0    0  0.00000000000E+00  0.00000000000E+00 -0.12213305907E+03  0.16086936185E+04  0.16040507081E+04 0.  0.
        2    1    3    3  502    0 -0.11383765895E+03  0.34115132146E+03  0.65787762927E+03  0.74976410412E+03  0.25500000920E-02 0.  1.
       -2    1    3    3    0  502  0.11383765895E+03 -0.34115132146E+03 -0.78001068834E+03  0.85892951437E+03  0.25500000920E-02 0. -1.
</event>
<event>
 5   0  0.8620155E-05  0.1600438E+04  0.7818609E-02  0.8820279E-01
       -2   -1    0    0    0  501  0.00000000000E+00  0.00000000000E+00  0.69194138923E+03  0.69194138924E+03  0.25500000920E-02 0.  1.
        2   -1    0    0  501    0  0.00000000000E+00  0.00000000000E+00 -0.92544043333E+03  0.92544043333E+03  0.25500000920E-02 0. -1.
    10030    2    1    2    0    0  0.00000000000E+00  0.00000000000E+00 -0.23349904409E+03  0.16173818226E+04  0.16004381139E+04 0.  0.
        4    1    3    3  502    0 -0.34580762827E+03  0.22933469017E+03  0.57472504304E+03  0.70886374141E+03  0.12699999809E+01 0.  1.
       -4    1    3    3    0  502  0.34580762827E+03 -0.22933469017E+03 -0.80822408713E+03  0.90851808116E+03  0.12699999809E+01 0. -1.
</event>
<event>
 5   0  0.8037548E-05  0.1599119E+04  0.7818609E-02  0.8821089E-01
        2   -1    0    0  501    0  0.00000000000E+00  0.00000000000E+00  0.84007014920E+03  0.84007014921E+03  0.25500000920E-02 0. -1.
       -2   -1    0    0    0  501  0.00000000000E+00  0.00000000000E+00 -0.76100278768E+03  0.76100278768E+03  0.25500000920E-02 0.  1.
    10030    2    1    2    0    0  0.00000000000E+00  0.00000000000E+00  0.79067361527E+02  0.16010729369E+04  0.15991194144E+04 0.  0.
        5    1    3    3  502    0 -0.24014316967E+03  0.54235852302E+03  0.57633426917E+03  0.82704582053E+03  0.46999998093E+01 0. -1.
       -5    1    3    3    0  502  0.24014316967E+03 -0.54235852302E+03 -0.49726690764E+03  0.77402711636E+03  0.46999998093E+01 0.  1.
</event>
<event>
 5   0  0.7901257E-05  0.1595797E+04  0.7818609E-02  0.8823134E-01
       -2   -1    0    0    0  501  0.00000000000E+00  0.00000000000E+00  0.76724071337E+03  0.76724071337E+03  0.25500000920E-02 0.  1.
        2   -1    0    0  501    0  0.00000000000E+00  0.00000000000E+00 -0.82978137451E+03  0.82978137451E+03  0.25500000920E-02 0. -1.
    10030    2    1    2    0    0  0.00000000000E+00  0.00000000000E+00 -0.62540661135E+02  0.15970220879E+04  0.15957970469E+04 0.  0.
        2    1    3    3  502    0 -0.49945183719E+03 -0.59053863848E+03 -0.22751786548E+03  0.80619625423E+03  0.25500000920E-02 0. -1.
       -2    1    3    3    0  502  0.49945183719E+03  0.59053863848E+03  0.16497720434E+03  0.79082583365E+03  0.25500000920E-02 0.  1.
</event>
<event>
 5   0  0.8694033E-05  0.1600947E+04  0.7818609E-02  0.8819966E-01
        2   -1    0    0  501    0  0.00000000000E+00  0.00000000000E+00  0.20793042348E+04  0.20793042348E+04  0.25500000920E-02 0. -1.
       -2   -1    0    0    0  501  0.00000000000E+00  0.00000000000E+00 -0.30815973744E+03  0.30815973745E+03  0.25500000920E-02 0.  1.
    10030    2    1    2    0    0  0.00000000000E+00  0.00000000000E+00  0.17711444973E+04  0.23874639722E+04  0.16009470285E+04 0.  0.
        1    1    3    3  502    0 -0.47928982095E+03  0.60058029244E+03  0.12201730203E+04  0.14419561782E+04  0.50400001928E-02 0. -1.
       -1    1    3    3    0  502  0.47928982095E+03 -0.60058029244E+03  0.55097147698E+03  0.94550779405E+03  0.50400001928E-02 0.  1.
</event>
<event>
 5   0  0.8620155E-05  0.1562424E+04  0.7818609E-02  0.8843971E-01
        2   -1    0    0  501    0  0.00000000000E+00  0.00000000000E+00  0.19624517770E+04  0.19624517770E+04  0.25500000920E-02 0.  1.
       -2   -1    0    0    0  501  0.00000000000E+00  0.00000000000E+00 -0.31098471451E+03  0.31098471452E+03  0.25500000920E-02 0. -1.
    10030    2    1    2    0    0  0.00000000000E+00  0.00000000000E+00  0.16514670625E+04  0.22734364915E+04  0.15624244054E+04 0.  0.
        4    1    3    3  502    0  0.69521292833E+03  0.15990177747E+02  0.30777327080E+03  0.76046216252E+03  0.12699999809E+01 0.  1.
       -4    1    3    3    0  502 -0.69521292833E+03 -0.15990177747E+02  0.13436937917E+04  0.15129743290E+04  0.12699999809E+01 0. -1.
</event>
<event>
 5   0  0.8620155E-05  0.1600627E+04  0.7818609E-02  0.8820163E-01
       -2   -1    0    0    0  501  0.00000000000E+00  0.00000000000E+00  0.56538361279E+03  0.56538361279E+03  0.25500000920E-02 0.  1.
        2   -1    0    0  501    0  0.00000000000E+00  0.00000000000E+00 -0.11328625741E+04  0.11328625741E+04  0.25500000920E-02 0. -1.
    10030    2    1    2    0    0  0.00000000000E+00  0.00000000000E+00 -0.56747896132E+03  0.16982461869E+04  0.16006272957E+04 0.  0.
        4    1    3    3  502    0  0.10867289439E+03 -0.34775695051E+03 -0.10397673448E+04  0.11017542552E+04  0.12699999809E+01 0. -1.
       -4    1    3    3    0  502 -0.10867289439E+03  0.34775695051E+03  0.47228838345E+03  0.59649193175E+03  0.12699999809E+01 0.  1.
</event>
<event>
 5   0  0.8037548E-05  0.1597046E+04  0.7818609E-02  0.8822365E-01
       -2   -1    0    0    0  501  0.00000000000E+00  0.00000000000E+00  0.35899641938E+03  0.35899641939E+03  0.25500000920E-02 0. -1.
        2   -1    0    0  501    0  0.00000000000E+00  0.00000000000E+00 -0.17761718247E+04  0.17761718247E+04  0.25500000920E-02 0.  1.
    10030    2    1    2    0    0  0.00000000000E+00  0.00000000000E+00 -0.14171754053E+04  0.21351682441E+04  0.15970464305E+04 0.  0.
        5    1    3    3  502    0  0.11018119617E+03 -0.14852149725E+03 -0.17471294121E+04  0.17568955017E+04  0.46999998093E+01 0.  1.
       -5    1    3    3    0  502 -0.11018119617E+03  0.14852149725E+03  0.32995400674E+03  0.37827274247E+03  0.46999998093E+01 0. -1.
</event>
<event>
 5   0  0.4373026E-05  0.1600933E+04  0.7818609E-02  0.8819975E-01
        1   -1    0    0  501    0  0.00000000000E+00  0.00000000000E+00  0.13487561456E+04  0.13487561456E+04  0.50400001928E-02 0. -1.
       -1   -1    0    0    0  501  0.00000000000E+00  0.00000000000E+00 -0.47506479847E+03  0.47506479850E+03  0.50400001928E-02 0.  1.
    10030    2    1    2    0    0  0.00000000000E+00  0.00000000000E+00  0.87369134710E+03  0.18238209441E+04  0.16009329362E+04 0.  0.
        4    1    3    3  502    0 -0.31949367446E+03 -0.58279293510E+03  0.94507376280E+03  0.11553743304E+04  0.12699999809E+01 0. -1.
       -4    1    3    3    0  502  0.31949367446E+03  0.58279293510E+03 -0.71382415693E+02  0.66844661372E+03  0.12699999809E+01 0.  1.
</event>
<event>
 5   0  0.8037548E-05  0.1602338E+04  0.7818609E-02  0.8819113E-01
       -2   -1    0    0    0  501  0.00000000000E+00  0.00000000000E+00  0.31869509827E+03  0.31869509828E+03  0.25500000920E-02 0. -1.
        2   -1    0    0  501    0  0.00000000000E+00  0.00000000000E+00 -0.20140626741E+04  0.20140626741E+04  0.25500000920E-02 0.  1.
    10030    2    1    2    0    0  0.00000000000E+00  0.00000000000E+00 -0.16953675758E+04  0.23327577723E+04  0.16023381689E+04 0.  0.
        5    1    3    3  502    0  0.58348572938E+03  0.45774600787E+03 -0.12889344039E+04  0.14870645553E+04  0.46999998093E+01 0.  1.
       -5    1    3    3    0  502 -0.58348572938E+03 -0.45774600787E+03 -0.40643317188E+03  0.84569321702E+03  0.46999998093E+01 0. -1.
</event>
<event>
 5   0  0.7849690E-05  0.1601264E+04  0.7818609E-02  0.8819772E-01
       -2   -1    0    0    0  501  0.00000000000E+00  0.00000000000E+00  0.16107453298E+04  0.16107453298E+04  0.25500000920E-02 0. -1.
        2   -1    0    0  501    0  0.00000000000E+00  0.00000000000E+00 -0.39795972615E+03  0.39795972616E+03  0.25500000920E-02 0.  1.
    10030    2    1    2    0    0  0.00000000000E+00  0.00000000000E+00  0.12127856037E+04  0.20087050560E+04  0.16012642135E+04 0.  0.
        3    1    3    3  502    0  0.96141626085E+02  0.78845075385E+03  0.73255048906E+03  0.10805221112E+04  0.10100000352E+00 0.  1.
       -3    1    3    3    0  502 -0.96141626085E+02 -0.78845075385E+03  0.48023511461E+03  0.92818294480E+03  0.10100000352E+00 0. -1.
</event>
<event>
 5   0  0.3042125E-05  0.1600145E+04  0.7818609E-02  0.8820459E-01
        4   -1    0    0  501    0  0.00000000000E+00  0.00000000000E+00  0.17719892924E+04  0.17719897475E+04  0.12699999809E+01 0.  1.
       -4   -1    0    0    0  501  0.00000000000E+00  0.00000000000E+00 -0.36123965045E+03  0.36124188290E+03  0.12699999809E+01 0. -1.
    10030    2    1    2    0    0  0.00000000000E+00  0.00000000000E+00  0.14107496419E+04  0.21332316304E+04  0.16001445674E+04 0.  0.
        4    1    3    3  502    0 -0.35134082905E+03  0.71842268247E+03  0.73642653915E+03  0.10871509506E+04  0.12699999809E+01 0.  1.
       -4    1    3    3    0  502  0.35134082905E+03 -0.71842268247E+03  0.67432310275E+03  0.10460806798E+04  0.12699999809E+01 0. -1.
</event>
<event>
 5   0  0.4504463E-05  0.1600551E+04  0.7818609E-02  0.8820210E-01
        1   -1    0    0  501    0  0.00000000000E+00  0.00000000000E+00  0.24183299154E+04  0.24183299154E+04  0.50400001928E-02 0.  1.
       -1   -1    0    0    0  501  0.00000000000E+00  0.00000000000E+00 -0.26482772336E+03  0.26482772341E+03  0.50400001928E-02 0. -1.
    10030    2    1    2    0    0  0.00000000000E+00  0.00000000000E+00  0.21535021920E+04  0.26831576388E+04  0.16005509125E+04 0.  0.
        1    1    3    3  502    0  0.23554536422E+02  0.47808097089E+03  0.21519010093E+04  0.22044940882E+04  0.50400001928E-02 0.  1.
       -1    1    3    3    0  502 -0.23554536422E+02 -0.47808097089E+03  0.16011827492E+01  0.47866355066E+03  0.50400001928E-02 0. -1.
</event>
<event>
 5   0  0.4314657E-05  0.1599099E+04  0.7818609E-02  0.8821102E-01
       -1   -1    0    0    0  501  0.00000000000E+00  0.00000000000E+00  0.50474297780E+03  0.50474297783E+03  0.50400001928E-02 0.  1.
        1   -1    0    0  501    0  0.00000000000E+00  0.00000000000E+00 -0.12665446296E+04  0.12665446296E+04  0.50400001928E-02 0. -1.
    10030    2    1    2    0    0  0.00000000000E+00  0.00000000000E+00 -0.76180165177E+03  0.17712876074E+04  0.15990991312E+04 0.  0.
        5    1    3    3  502    0 -0.41199142043E+03  0.30526839107E+03  0.29861424935E+03  0.59339555190E+03  0.46999998093E+01 0.  1.
       -5    1    3    3    0  502  0.41199142043E+03 -0.30526839107E+03 -0.10604159011E+04  0.11778920555E+04  0.46999998093E+01 0. -1.
</event>
<event>
 5   0  0.4314657E-05  0.1597286E+04  0.7818609E-02  0.8822217E-01
       -1   -1    0    0    0  501  0.00000000000E+00  0.00000000000E+00  0.12598471048E+04  0.12598471048E+04  0.50400001928E-02 0. -1.
        1   -1    0    0  501    0  0.00000000000E+00  0.00000000000E+00 -0.50627603560E+03  0.50627603563E+03  0.50400001928E-02 0.  1.
    10030    2    1    2    0    0  0.00000000000E+00  0.00000000000E+00  0.75357106919E+03  0.17661231404E+04  0.15972856948E+04 0.  0.
        5    1    3    3  502    0  0.37049876432E+03  0.32587955239E+03  0.10711294204E+04  0.11793248672E+04  0.46999998093E+01 0. -1.
       -5    1    3    3    0  502 -0.37049876432E+03 -0.32587955239E+03 -0.31755835125E+03  0.58679827324E+03  0.46999998093E+01 0.  1.
</event>
<event>
 5   0  0.8694033E-05  0.1600528E+04  0.7818609E-02  0.8820224E-01
       -2   -1    0    0    0  501  0.00000000000E+00  0.00000000000E+00  0.42003164259E+03  0.42003164259E+03  0.25500000920E-02 0.  1.
        2   -1    0    0  501    0  0.00000000000E+00  0.00000000000E+00 -0.15247002850E+04  0.15247002850E+04  0.25500000920E-02 0. -1.
    10030    2    1    2    0    0  0.00000000000E+00  0.00000000000E+00 -0.11046686424E+04  0.19447319276E+04  0.16005278694E+04 0.  0.
        1    1    3    3  502    0 -0.43992459018E+03  0.65178673797E+03 -0.73281325040E+03  0.10748836480E+04  0.50400001928E-02 0. -1.
       -1    1    3    3    0  502  0.43992459018E+03 -0.65178673797E+03 -0.37185539201E+03  0.86984827955E+03  0.50400001928E-02 0.  1.
</event>
<event>
 5   0  0.8694033E-05  0.1588036E+04  0.7818609E-02  0.8827932E-01
       -2   -1    0    0    0  501  0.00000000000E+00  0.00000000000E+00  0.44978655911E+03  0.44978655912E+03  0.25500000920E-02 0. -1.
        2   -1    0    0  501    0  0.00000000000E+00  0.00000000000E+00 -0.14016979020E+04  0.14016979020E+04  0.25500000920E-02 0.  1.
    10030    2    1    2    0    0  0.00000000000E+00  0.00000000000E+00 -0.95191134291E+03  0.18514844611E+04  0.15880363677E+04 0.  0.
        1    1    3    3  502    0  0.52502538851E+03 -0.27171226905E+03  0.14206315656E+03  0.60799766135E+03  0.50400001928E-02 0. -1.
       -1    1    3    3    0  502 -0.52502538851E+03  0.27171226905E+03 -0.10939744995E+04  0.12434867998E+04  0.50400001928E-02 0.  1.
</event>
<event>
 5   0  0.4373026E-05  0.1600829E+04  0.7818609E-02  0.8820039E-01
       -1   -1    0    0    0  501  0.00000000000E+00  0.00000000000E+00  0.15404962409E+04  0.15404962410E+04  0.50400001928E-02 0. -1.
        1   -1    0    0  501    0  0.00000000000E+00  0.00000000000E+00 -0.41588126416E+03  0.41588126420E+03  0.50400001928E-02 0.  1.
    10030    2    1    2    0    0  0.00000000000E+00  0.00000000000E+00  0.11246149768E+04  0.19563775052E+04  0.16008291903E+04 0.  0.
        4    1    3    3  502    0  0.72295960256E+03 -0.31990730101E+03  0.40941936163E+03  0.89030168749E+03  0.12699999809E+01 0.  1.
       -4    1    3    3    0  502 -0.72295960256E+03  0.31990730101E+03  0.71519561515E+03  0.10660758177E+04  0.12699999809E+01 0. -1.
</event>
<event>
 5   0  0.7901257E-05  0.1599956E+04  0.7818609E-02  0.8820575E-01
       -2   -1    0    0    0  501  0.00000000000E+00  0.00000000000E+00  0.45823370329E+03  0.45823370330E+03  0.25500000920E-02 0. -1.
        2   -1    0    0  501    0  0.00000000000E+00  0.00000000000E+00 -0.13965902574E+04  0.13965902574E+04  0.25500000920E-02 0.  1.
    10030    2    1    2    0    0  0.00000000000E+00  0.00000000000E+00 -0.93835655411E+03  0.18548239607E+04  0.15999559064E+04 0.  0.
        2    1    3    3  502    0 -0.46923061007E+03 -0.39947629394E+03 -0.10605402296E+04  0.12265823468E+04  0.25500000920E-02 0.  1.
       -2    1    3    3    0  502  0.46923061007E+03  0.39947629394E+03  0.12218367553E+03  0.62824161389E+03  0.25500000920E-02 0. -1.
</event>
<event>
 5   0  0.3042125E-05  0.1600349E+04  0.7818609E-02  0.8820334E-01
       -3   -1    0    0    0  501  0.00000000000E+00  0.00000000000E+00  0.12938724625E+04  0.12938724665E+04  0.10100000352E+00 0. -1.
        3   -1    0    0  501    0  0.00000000000E+00  0.00000000000E+00 -0.49485484910E+03  0.49485485940E+03  0.10100000352E+00 0.  1.
    10030    2    1    2    0    0  0.00000000000E+00  0.00000000000E+00  0.79901761345E+03  0.17887273259E+04  0.16003488057E+04 0.  0.
        1    1    3    3  502    0 -0.40852962670E+03  0.17962780874E+03  0.11418543883E+04  0.12259665777E+04  0.50400001928E-02 0. -1.
       -1    1    3    3    0  502  0.40852962670E+03 -0.17962780874E+03 -0.34283677480E+03  0.56276074822E+03  0.50400001928E-02 0.  1.
</event>
<event>
 5   0  0.8037548E-05  0.1600652E+04  0.7818609E-02  0.8820147E-01
       -2   -1    0    0    0  501  0.00000000000E+00  0.00000000000E+00  0.45211813398E+03  0.45211813398E+03  0.25500000920E-02 0.  1.
        2   -1    0    0  501    0  0.00000000000E+00  0.00000000000E+00 -0.14167133607E+04  0.14167133607E+04  0.25500000920E-02 0. -1.
    10030    2    1    2    0    0  0.00000000000E+00  0.00000000000E+00 -0.96459522675E+03  0.18688314947E+04  0.16006521184E+04 0.  0.
        5    1    3    3  502    0  0.22176801712E+03 -0.96487667342E+02 -0.13730109638E+04  0.13941564188E+04  0.46999998093E+01 0. -1.
       -5    1    3    3    0  502 -0.22176801712E+03  0.96487667342E+02  0.40841573708E+03  0.47467507588E+03  0.46999998093E+01 0.  1.
</event>
<event>
 5   0  0.8037548E-05  0.1600851E+04  0.7818609E-02  0.8820025E-01
        2   -1    0    0  501    0  0.00000000000E+00  0.00000000000E+00  0.75490533515E+03  0.75490533515E+03  0.25500000920E-02 0.  1.
       -2   -1    0    0    0  501  0.00000000000E+00  0.00000000000E+00 -0.84869050275E+03  0.84869050276E+03  0.25500000920E-02 0. -1.
    10030    2    1    2    0    0  0.00000000000E+00  0.00000000000E+00 -0.93785167606E+02  0.16035958379E+04  0.16008510092E+04 0.  0.
        5    1    3    3  502    0  0.51516336099E+03  0.29827203360E+03  0.48909438143E+03  0.77045110065E+03  0.46999998093E+01 0.  1.
       -5    1    3    3    0  502 -0.51516336099E+03 -0.29827203360E+03 -0.58287954904E+03  0.83314473726E+03  0.46999998093E+01 0. -1.
</event>
<event>
 5   0  0.4504463E-05  0.1600610E+04  0.7818609E-02  0.8820173E-01
        1   -1    0    0  501    0  0.00000000000E+00  0.00000000000E+00  0.13430228962E+04  0.13430228962E+04  0.50400001928E-02 0. -1.
       -1   -1    0    0    0  501  0.00000000000E+00  0.00000000000E+00 -0.47690048566E+03  0.47690048569E+03  0.50400001928E-02 0.  1.
    10030    2    1    2    0    0  0.00000000000E+00  0.00000000000E+00  0.86612241049E+03  0.18199233818E+04  0.16006102230E+04 0.  0.
        1    1    3    3  502    0  0.33434671884E+03 -0.38865914816E+02  0.12586258647E+04  0.13028573809E+04  0.50400001928E-02 0. -1.
       -1    1    3    3    0  502 -0.33434671884E+03  0.38865914816E+02 -0.39250345419E+03  0.51706600093E+03  0.50400001928E-02 0.  1.
</event>
<event>
 5   0  0.4373026E-05  0.1600494E+04  0.7818609E-02  0.8820245E-01
        1   -1    0    0  501    0  0.00000000000E+00  0.00000000000E+00  0.11123526037E+04  0.11123526037E+04  0.50400001928E-02 0.  1.
       -1   -1    0    0    0  501  0.00000000000E+00  0.00000000000E+00 -0.57571231044E+03  0.57571231046E+03  0.50400001928E-02 0. -1.
    10030    2    1    2    0    0  0.00000000000E+00  0.00000000000E+00  0.53664029322E+03  0.16880649141E+04  0.16004937832E+04 0.  0.
        4    1    3    3  502    0  0.65420260925E+03  0.34871140465E+03 -0.49519910226E+02  0.74299026380E+03  0.12699999809E+01 0. -1.
       -4    1    3    3    0  502 -0.65420260925E+03 -0.34871140465E+03  0.58616020344E+03  0.94507465033E+03  0.12699999809E+01 0.  1.
</event>
<event>
 5   0  0.7849690E-05  0.1558697E+04  0.7818609E-02  0.8846332E-01
       -2   -1    0    0    0  501  0.00000000000E+00  0.00000000000E+00  0.84584668922E+03  0.84584668922E+03  0.25500000920E-02 0.  1.
        2   -1    0    0  501    0  0.00000000000E+00  0.00000000000E+00 -0.71807813644E+03  0.71807813644E+03  0.25500000920E-02 0. -1.
    10030    2    1    2    0    0  0.00000000000E+00  0.00000000000E+00  0.12776855278E+03  0.15639248257E+04  0.15586969100E+04 0.  0.
        3    1    3    3  502    0  0.17560800321E+03 -0.74327130279E+03  0.21962603742E+03  0.79468610587E+03  0.10100000352E+00 0.  1.
       -3    1    3    3    0  502 -0.17560800321E+03  0.74327130279E+03 -0.91857484637E+02  0.76923871980E+03  0.10100000352E+00 0. -1.
</event>
<event>
 5   0  0.8694033E-05  0.1599882E+04  0.7818609E-02  0.8820620E-01
       -2   -1    0    0    0  501  0.00000000000E+00  0.00000000000E+00  0.42394270019E+03  0.42394270020E+03  0.25500000920E-02 0.  1.
        2   -1    0    0  501    0  0.00000000000E+00  0.00000000000E+00 -0.15094159930E+04  0.15094159930E+04  0.25500000920E-02 0. -1.
    10030    2    1    2    0    0  0.00000000000E+00  0.00000000000E+00 -0.10854732928E+04  0.19333586932E+04  0.15998823604E+04 0.  0.
        1    1    3    3  502    0  0.15510408191E+03 -0.13176241907E+03  0.39213469763E+03  0.44180112315E+03  0.50400001928E-02 0.  1.
       -1    1    3    3    0  502 -0.15510408191E+03  0.13176241907E+03 -0.14776079904E+04  0.14915575700E+04  0.50400001928E-02 0. -1.
</event>
<event>
 5   0  0.8037548E-05  0.1602431E+04  0.7818609E-02  0.8819056E-01
       -2   -1    0    0    0  501  0.00000000000E+00  0.00000000000E+00  0.83185398081E+03  0.83185398081E+03  0.25500000920E-02 0. -1.
        2   -1    0    0  501    0  0.00000000000E+00  0.00000000000E+00 -0.77170538370E+03  0.77170538370E+03  0.25500000920E-02 0.  1.
    10030    2    1    2    0    0  0.00000000000E+00  0.00000000000E+00  0.60148597114E+02  0.16035593645E+04  0.16024308977E+04 0.  0.
        5    1    3    3  502    0 -0.75194573361E+02  0.75580345265E+03  0.28526569209E+03  0.81135176587E+03  0.46999998093E+01 0. -1.
       -5    1    3    3    0  502  0.75194573361E+02 -0.75580345265E+03 -0.22511709498E+03  0.79220759864E+03  0.46999998093E+01 0.  1.
</event>
<event>
 5   0  0.3042125E-05  0.1600073E+04  0.7818609E-02  0.8820503E-01
       -4   -1    0    0    0  501  0.00000000000E+00  0.00000000000E+00  0.59410764016E+03  0.59410899758E+03  0.12699999809E+01 0.  1.
        4   -1    0    0  501    0  0.00000000000E+00  0.00000000000E+00 -0.10773418167E+04  0.10773425653E+04  0.12699999809E+01 0. -1.
    10030    2    1    2    0    0  0.00000000000E+00  0.00000000000E+00 -0.48323417656E+03  0.16714515629E+04  0.16000734538E+04 0.  0.
        1    1    3    3  502    0  0.41993733165E+03 -0.68096198397E+03 -0.24007536619E+03  0.83528005340E+03  0.50400001928E-02 0.  1.
       -1    1    3    3    0  502 -0.41993733165E+03  0.68096198397E+03 -0.24315881037E+03  0.83617150945E+03  0.50400001928E-02 0. -1.
</event>
<event>
 5   0  0.7849690E-05  0.1599833E+04  0.7818609E-02  0.8820651E-01
        2   -1    0    0  501    0  0.00000000000E+00  0.00000000000E+00  0.29648641431E+04  0.29648641431E+04  0.25500000920E-02 0. -1.
       -2   -1    0    0    0  501  0.00000000000E+00  0.00000000000E+00 -0.21581645093E+03  0.21581645094E+03  0.25500000920E-02 0.  1.
    10030    2    1    2    0    0  0.00000000000E+00  0.00000000000E+00  0.27490476922E+04  0.31806805940E+04  0.15998330624E+04 0.  0.
        3    1    3    3  502    0 -0.41873924515E+03  0.60815421512E+03  0.76279782925E+03  0.10616282981E+04  0.10100000352E+00 0.  1.
       -3    1    3    3    0  502  0.41873924515E+03 -0.60815421512E+03  0.19862498629E+04  0.21190522959E+04  0.10100000352E+00 0. -1.
</event>
<event>
 5   0  0.8620155E-05  0.1600367E+04  0.7818609E-02  0.8820322E-01
       -2   -1    0    0    0  501  0.00000000000E+00  0.00000000000E+00  0.72146612032E+03  0.72146612032E+03  0.25500000920E-02 0.  1.
        2   -1    0    0  501    0  0.00000000000E+00  0.00000000000E+00 -0.88749002219E+03  0.88749002219E+03  0.25500000920E-02 0. -1.
    10030    2    1    2    0    0  0.00000000000E+00  0.00000000000E+00 -0.16602390187E+03  0.16089561425E+04  0.16003674367E+04 0.  0.
        4    1    3    3  502    0  0.30046319924E+03 -0.74542844118E+02  0.65882170454E+03  0.72793023085E+03  0.12699999809E+01 0.  1.
       -4    1    3    3    0  502 -0.30046319924E+03  0.74542844118E+02 -0.82484560642E+03  0.88102591167E+03  0.12699999809E+01 0. -1.
</event>
<event>
 5   0  0.3042125E-05  0.1601176E+04  0.7818609E-02  0.8819826E-01
       -3   -1    0    0    0  501  0.00000000000E+00  0.00000000000E+00  0.95680506028E+03  0.95680506561E+03  0.10100000352E+00 0. -1.
        3   -1    0    0  501    0  0.00000000000E+00  0.00000000000E+00 -0.66987606860E+03  0.66987607621E+03  0.10100000352E+00 0.  1.
    10030    2    1    2    0    0  0.00000000000E+00  0.00000000000E+00  0.28692899168E+03  0.16266811418E+04  0.16011755965E+04 0.  0.
        2    1    3    3  502    0  0.49976236587E+03 -0.61146345963E+03  0.98752526994E+01  0.78977687066E+03  0.25500000920E-02 0.  1.
       -2    1    3    3    0  502 -0.49976236587E+03  0.61146345963E+03  0.27705373898E+03  0.83690427117E+03  0.25500000920E-02 0. -1.
</event>
<event>
 5   0  0.7849690E-05  0.1601765E+04  0.7818609E-02  0.8819464E-01
       -2   -1    0    0    0  501  0.00000000000E+00  0.00000000000E+00  0.73346017042E+03  0.73346017043E+03  0.25500000920E-02 0.  1.
        2   -1    0    0  501    0  0.00000000000E+00  0.00000000000E+00 -0.87450265298E+03  0.87450265298E+03  0.25500000920E-02 0. -1.
    10030    2    1    2    0    0  0.00000000000E+00  0.00000000000E+00 -0.14104248256E+03  0.16079628234E+04  0.16017651075E+04 0.  0.
        3    1    3    3  502    0  0.19983057275E+03  0.56166841156E+03  0.46634632831E+03  0.75689006499E+03  0.10100000352E+00 0.  1.
       -3    1    3    3    0  502 -0.19983057275E+03 -0.56166841156E+03 -0.60738881087E+03  0.85107275842E+03  0.10100000352E+00 0. -1.
</event>
<event>
 5   0  0.8620155E-05  0.1599152E+04  0.7818609E-02  0.8821069E-01
       -2   -1    0    0    0  501  0.00000000000E+00  0.00000000000E+00  0.28219861666E+03  0.28219861667E+03  0.25500000920E-02 0.  1.
        2   -1    0    0  501    0  0.00000000000E+00  0.00000000000E+00 -0.22655030039E+04  0.22655030039E+04  0.25500000920E-02 0. -1.
    10030    2    1    2    0    0  0.00000000000E+00  0.00000000000E+00 -0.19833043872E+04  0.25477016205E+04  0.15991520425E+04 0.  0.
        4    1    3    3  502    0  0.65695727490E+03  0.21419900009E+02 -0.26633915030E+03  0.70921775855E+03  0.12699999809E+01 0.  1.
       -4    1    3    3    0  502 -0.65695727490E+03 -0.21419900009E+02 -0.17169652369E+04  0.18384838620E+04  0.12699999809E+01 0. -1.
</event>
<event>
 5   0  0.8694033E-05  0.1598445E+04  0.7818609E-02  0.8821504E-01
        2   -1    0    0  501    0  0.00000000000E+00  0.00000000000E+00  0.14799225482E+04  0.14799225482E+04  0.25500000920E-02 0. -1.
       -2   -1    0    0    0  501  0.00000000000E+00  0.00000000000E+00 -0.43161504227E+03  0.43161504228E+03  0.25500000920E-02 0.  1.
    10030    2    1    2    0    0  0.00000000000E+00  0.00000000000E+00  0.10483075059E+04  0.19115375904E+04  0.15984452861E+04 0.  0.
        1    1    3    3  502    0  0.73979813179E+03 -0.70460681075E+02  0.17245554960E+03  0.76289376717E+03  0.50400001928E-02 0. -1.
       -1    1    3    3    0  502 -0.73979813179E+03  0.70460681075E+02  0.87585195629E+03  0.11486438233E+04  0.50400001928E-02 0.  1.
</event>
<event>
 5   0  0.4373026E-05  0.1605689E+04  0.7818609E-02  0.8817060E-01
       -1   -1    0    0    0  501  0.00000000000E+00  0.00000000000E+00  0.51287335767E+03  0.51287335769E+03  0.50400001928E-02 0.  1.
        1   -1    0    0  501    0  0.00000000000E+00  0.00000000000E+00 -0.12567618084E+04  0.12567618084E+04  0.50400001928E-02 0. -1.
    10030    2    1    2    0    0  0.00000000000E+00  0.00000000000E+00 -0.74388845074E+03  0.17696351661E+04  0.16056894451E+04 0.  0.
        4    1    3    3  502    0 -0.40147570726E+03  0.50533812981E+03  0.15431274947E+03  0.66359882950E+03  0.12699999809E+01 0.  1.
       -4    1    3    3    0  502  0.40147570726E+03 -0.50533812981E+03 -0.89820120020E+03  0.11060363366E+04  0.12699999809E+01 0. -1.
</event>
<event>
 5   0  0.7849690E-05  0.1599111E+04  0.7818609E-02  0.8821094E-01
        2   -1    0    0  501    0  0.00000000000E+00  0.00000000000E+00  0.18843262412E+04  0.18843262412E+04  0.25500000920E-02 0. -1.
       -2   -1    0    0    0  501  0.00000000000E+00  0.00000000000E+00 -0.33926651240E+03  0.33926651241E+03  0.25500000920E-02 0.  1.
    10030    2    1    2    0    0  0.00000000000E+00  0.00000000000E+00  0.15450597288E+04  0.22235927536E+04  0.15991107430E+04 0.  0.
        3    1    3    3  502    0 -0.10903573052E+02  0.79805938369E+03  0.70626303593E+03  0.10657509812E+04  0.10100000352E+00 0.  1.
       -3    1    3    3    0  502  0.10903573052E+02 -0.79805938369E+03  0.83879669288E+03  0.11578417724E+04  0.10100000352E+00 0. -1.
</event>
<event>
 5   0  0.8037548E-05  0.1597755E+04  0.7818609E-02  0.8821928E-01
       -2   -1    0    0    0  501  0.00000000000E+00  0.00000000000E+00  0.63329932171E+03  0.63329932172E+03  0.25500000920E-02 0.  1.
        2   -1    0    0  501    0  0.00000000000E+00  0.00000000000E+00 -0.10077465244E+04  0.10077465244E+04  0.25500000920E-02 0. -1.
    10030    2    1    2    0    0  0.00000000000E+00  0.00000000000E+00 -0.37444720271E+03  0.16410458461E+04  0.15977549128E+04 0.  0.
        5    1    3    3  502    0 -0.18451045936E+03 -0.62656011951E+03  0.28519694366E+03  0.71272791418E+03  0.46999998093E+01 0.  1.
       -5    1    3    3    0  502  0.18451045936E+03  0.62656011951E+03 -0.65964414637E+03  0.92831793197E+03  0.46999998093E+01 0. -1.
</event>
<event>
 5   0  0.4256406E-05  0.1600992E+04  0.7818609E-02  0.8819939E-01
       -1   -1    0    0    0  501  0.00000000000E+00  0.00000000000E+00  0.37947918387E+03  0.37947918390E+03  0.50400001928E-02 0.  1.
        1   -1    0    0  501    0  0.00000000000E+00  0.00000000000E+00 -0.16886130368E+04  0.16886130368E+04  0.50400001928E-02 0. -1.
    10030    2    1    2    0    0  0.00000000000E+00  0.00000000000E+00 -0.13091338529E+04  0.20680922207E+04  0.16009915641E+04 0.  0.
        3    1    3    3  502    0  0.62615101459E+03 -0.11956107329E+03 -0.12800142430E+04  0.14299637813E+04  0.10100000352E+00 0. -1.
       -3    1    3    3    0  502 -0.62615101459E+03  0.11956107329E+03 -0.29119609929E+02  0.63812843942E+03  0.10100000352E+00 0.  1.
</event>
<event>
 5   0  0.4373026E-05  0.1600400E+04  0.7818609E-02  0.8820302E-01
        1   -1    0    0  501    0  0.00000000000E+00  0.00000000000E+00  0.48388710582E+03  0.48388710584E+03  0.50400001928E-02 0. -1.
       -1   -1    0    0    0  501  0.00000000000E+00  0.00000000000E+00 -0.13232838435E+04  0.13232838435E+04  0.50400001928E-02 0.  1.
    10030    2    1    2    0    0  0.00000000000E+00  0.00000000000E+00 -0.83939673763E+03  0.18071709493E+04  0.16003999365E+04 0.  0.
        4    1    3    3  502    0  0.15899157590E+03  0.10775185541E+03  0.45747212277E+03  0.49615636604E+03  0.12699999809E+01 0. -1.
       -4    1    3    3    0  502 -0.15899157590E+03 -0.10775185541E+03 -0.12968688604E+04  0.13110145833E+04  0.12699999809E+01 0.  1.
</event>
<event>
 5   0  0.8620155E-05  0.1598267E+04  0.7818609E-02  0.8821614E-01
       -2   -1    0    0    0  501  0.00000000000E+00  0.00000000000E+00  0.40024131715E+03  0.40024131716E+03  0.25500000920E-02 0. -1.
        2   -1    0    0  501    0  0.00000000000E+00  0.00000000000E+00 -0.15955727839E+04  0.15955727839E+04  0.25500000920E-02 0.  1.
    10030    2    1    2    0    0  0.00000000000E+00  0.00000000000E+00 -0.11953314668E+04  0.19958141011E+04  0.15982667520E+04 0.  0.
        4    1    3    3  502    0  0.52087623229E+03  0.74525108635E+02 -0.13487228917E+04  0.14477296338E+04  0.12699999809E+01 0.  1.
       -4    1    3    3    0  502 -0.52087623229E+03 -0.74525108635E+02  0.15339142487E+03  0.54808446731E+03  0.12699999809E+01 0. -1.
</event>
<event>
 5   0  0.4256406E-05  0.1600119E+04  0.7818609E-02  0.8820475E-01
       -1   -1    0    0    0  501  0.00000000000E+00  0.00000000000E+00  0.31121705564E+03  0.31121705568E+03  0.50400001928E-02 0.  1.
        1   -1    0    0  501    0  0.00000000000E+00  0.00000000000E+00 -0.20567487599E+04  0.20567487599E+04  0.50400001928E-02 0. -1.
    10030    2    1    2    0    0  0.00000000000E+00  0.00000000000E+00 -0.17455317043E+04  0.23679658156E+04  0.16001191122E+04 0.  0.
        3    1    3    3  502    0  0.96636577690E+02 -0.66971093247E+03 -0.24100946353E+03  0.71828750019E+03  0.10100000352E+00 0.  1.
       -3    1    3    3    0  502 -0.96636577690E+02  0.66971093247E+03 -0.15045222407E+04  0.16496783154E+04  0.10100000352E+00 0. -1.
</event>
<event>
 5   0  0.8037548E-05  0.1598756E+04  0.7818609E-02  0.8821312E-01
       -2   -1    0    0    0  501  0.00000000000E+00  0.00000000000E+00  0.10143066179E+04  0.10143066180E+04  0.25500000920E-02 0. -1.
        2   -1    0    0  501    0  0.00000000000E+00  0.00000000000E+00 -0.62999251559E+03  0.62999251560E+03  0.25500000920E-02 0.  1.
    10030    2    1    2    0    0  0.00000000000E+00  0.00000000000E+00  0.38431410236E+03  0.16442991335E+04  0.15987564891E+04 0.  0.
        5    1    3    3  502    0 -0.67137654995E+03  0.28329321328E+03 -0.14580982190E+03  0.74315820030E+03  0.46999998093E+01 0. -1.
       -5    1    3    3    0  502  0.67137654995E+03 -0.28329321328E+03  0.53012392425E+03  0.90114093325E+03  0.46999998093E+01 0.  1.
</event>
<event>
 5   0  0.7901257E-05  0.1595755E+04  0.7818609E-02  0.8823160E-01
       -2   -1    0    0    0  501  0.00000000000E+00  0.00000000000E+00  0.85327251459E+03  0.85327251459E+03  0.25500000920E-02 0.  1.
        2   -1    0    0  501    0  0.00000000000E+00  0.00000000000E+00 -0.74607834599E+03  0.74607834600E+03  0.25500000920E-02 0. -1.
    10030    2    1    2    0    0  0.00000000000E+00  0.00000000000E+00  0.10719416860E+03  0.15993508606E+04  0.15957545505E+04 0.  0.
        2    1    3    3  502    0 -0.71919675073E+03  0.23886915505E+03  0.30377073757E+03  0.81644295606E+03  0.25500000920E-02 0.  1.
       -2    1    3    3    0  502  0.71919675073E+03 -0.23886915505E+03 -0.19657656898E+03  0.78290790453E+03  0.25500000920E-02 0. -1.
</event>
<event>
 5   0  0.8037548E-05  0.1584173E+04  0.7818609E-02  0.8830330E-01
        2   -1    0    0  501    0  0.00000000000E+00  0.00000000000E+00  0.57277830726E+03  0.57277830727E+03  0.25500000920E-02 0. -1.
       -2   -1    0    0    0  501  0.00000000000E+00  0.00000000000E+00 -0.10953649933E+04  0.10953649933E+04  0.25500000920E-02 0.  1.
    10030    2    1    2    0    0  0.00000000000E+00  0.00000000000E+00 -0.52258668605E+03  0.16681433006E+04  0.15841733576E+04 0.  0.
        5    1    3    3  502    0  0.49211485014E+03  0.57044913529E+02  0.38948457742E+03  0.63019955088E+03  0.46999998093E+01 0. -1.
       -5    1    3    3    0  502 -0.49211485014E+03 -0.57044913529E+02 -0.91207126347E+03  0.10379437497E+04  0.46999998093E+01 0.  1.
</event>
<event>
 5   0  0.4314657E-05  0.1599788E+04  0.7818609E-02  0.8820678E-01
        1   -1    0    0  501    0  0.00000000000E+00  0.00000000000E+00  0.76882977763E+03  0.76882977765E+03  0.50400001928E-02 0.  1.
       -1   -1    0    0    0  501  0.00000000000E+00  0.00000000000E+00 -0.83221317373E+03  0.83221317374E+03  0.50400001928E-02 0. -1.
    10030    2    1    2    0    0  0.00000000000E+00  0.00000000000E+00 -0.63383396095E+02  0.16010429514E+04  0.15997878226E+04 0.  0.
        5    1    3    3  502    0  0.38188731575E+02 -0.27832096272E+03  0.71781993358E+03  0.77084919702E+03  0.46999998093E+01 0.  1.
       -5    1    3    3    0  502 -0.38188731575E+02  0.27832096272E+03 -0.78120332967E+03  0.83019375437E+03  0.46999998093E+01 0. -1.
</event>
<event>
 5   0  0.4373026E-05  0.1602610E+04  0.7818609E-02  0.8818946E-01
        1   -1    0    0  501    0  0.00000000000E+00  0.00000000000E+00  0.60270198761E+03  0.60270198763E+03  0.50400001928E-02 0. -1.
       -1   -1    0    0    0  501  0.00000000000E+00  0.00000000000E+00 -0.10653522453E+04  0.10653522453E+04  0.50400001928E-02 0.  1.
    10030    2    1    2    0    0  0.00000000000E+00  0.00000000000E+00 -0.46265025764E+03  0.16680542329E+04  0.16026102655E+04 0.  0.
        4    1    3    3  502    0  0.74133526037E+02 -0.46085617494E+03 -0.90923144744E+03  0.10220506991E+04  0.12699999809E+01 0.  1.
       -4    1    3    3    0  502 -0.74133526037E+02  0.46085617494E+03  0.44658118979E+03  0.64600353377E+03  0.12699999809E+01 0. -1.
</event>
<event>
 5   0  0.7849690E-05  0.1596641E+04  0.7818609E-02  0.8822614E-01
       -2   -1    0    0    0  501  0.00000000000E+00  0.00000000000E+00  0.23088732924E+03  0.23088732926E+03  0.25500000920E-02 0. -1.
        2   -1    0    0  501    0  0.00000000000E+00  0.00000000000E+00 -0.27602881597E+04  0.27602881597E+04  0.25500000920E-02 0.  1.
    10030    2    1    2    0    0  0.00000000000E+00  0.00000000000E+00 -0.25294008305E+04  0.29911754890E+04  0.15966409254E+04 0.  0.
        3    1    3    3  502    0 -0.16877688130E+03  0.53045183640E+03 -0.19266868285E+03  0.58905519092E+03  0.10100000352E+00 0. -1.
       -3    1    3    3    0  502  0.16877688130E+03 -0.53045183640E+03 -0.23367321476E+04  0.24021202981E+04  0.10100000352E+00 0.  1.
</event>
<event>
 5   0  0.4211419E-05  0.1587887E+04  0.7818609E-02  0.8828024E-01
        1   -1    0    0  501    0  0.00000000000E+00  0.00000000000E+00  0.15842098613E+04  0.15842098613E+04  0.50400001928E-02 0. -1.
       -1   -1    0    0    0  501  0.00000000000E+00  0.00000000000E+00 -0.39789311437E+03  0.39789311441E+03  0.50400001928E-02 0.  1.
    10030    2    1    2    0    0  0.00000000000E+00  0.00000000000E+00  0.11863167469E+04  0.19821029757E+04  0.15878868922E+04 0.  0.
        2    1    3    3  502    0  0.27093507475E+03  0.74597087138E+03  0.62015784556E+03  0.10072110549E+04  0.25500000920E-02 0.  1.
       -2    1    3    3    0  502 -0.27093507475E+03 -0.74597087138E+03  0.56615890136E+03  0.97489192082E+03  0.25500000920E-02 0. -1.
</event>
<event>
 5   0  0.8620155E-05  0.1593306E+04  0.7818609E-02  0.8824671E-01
       -2   -1    0    0    0  501  0.00000000000E+00  0.00000000000E+00  0.37931053929E+03  0.37931053929E+03  0.25500000920E-02 0. -1.
        2   -1    0    0  501    0  0.00000000000E+00  0.00000000000E+00 -0.16731840965E+04  0.16731840965E+04  0.25500000920E-02 0.  1.
    10030    2    1    2    0    0  0.00000000000E+00  0.00000000000E+00 -0.12938735572E+04  0.20524946358E+04  0.15933064514E+04 0.  0.
        4    1    3    3  502    0  0.15180057478E+03 -0.44469607015E+03 -0.14756566111E+04  0.15486646041E+04  0.12699999809E+01 0.  1.
       -4    1    3    3    0  502 -0.15180057478E+03  0.44469607015E+03  0.18178305382E+03  0.50383003172E+03  0.12699999809E+01 0. -1.
</event>
<event>
 5   0  0.4373026E-05  0.1610028E+04  0.7818609E-02  0.8814411E-01
        1   -1    0    0  501    0  0.00000000000E+00  0.00000000000E+00  0.72631559351E+03  0.72631559353E+03  0.50400001928E-02 0.  1.
       -1   -1    0    0    0  501  0.00000000000E+00  0.00000000000E+00 -0.89223946353E+03  0.89223946355E+03  0.50400001928E-02 0. -1.
    10030    2    1    2    0    0  0.00000000000E+00  0.00000000000E+00 -0.16592387002E+03  0.16185550571E+04  0.16100278700E+04 0.  0.
        4    1    3    3  502    0  0.46867072917E+03  0.24264720291E+03  0.52813576826E+03  0.74663171650E+03  0.12699999809E+01 0.  1.
       -4    1    3    3    0  502 -0.46867072917E+03 -0.24264720291E+03 -0.69405963828E+03  0.87192334058E+03  0.12699999809E+01 0. -1.
</event>
<event>
 5   0  0.4504463E-05  0.1599039E+04  0.7818609E-02  0.8821139E-01
       -1   -1    0    0    0  501  0.00000000000E+00  0.00000000000E+00  0.34383519079E+03  0.34383519083E+03  0.50400001928E-02 0. -1.
        1   -1    0    0  501    0  0.00000000000E+00  0.00000000000E+00 -0.18591208184E+04  0.18591208184E+04  0.50400001928E-02 0.  1.
    10030    2    1    2    0    0  0.00000000000E+00  0.00000000000E+00 -0.15152856276E+04  0.22029560093E+04  0.15990386629E+04 0.  0.
        1    1    3    3  502    0  0.38767866028E+03  0.46353161849E+02 -0.17188493245E+04  0.17626361960E+04  0.50400001928E-02 0.  1.
       -1    1    3    3    0  502 -0.38767866028E+03 -0.46353161849E+02  0.20356369683E+03  0.44031981325E+03  0.50400001928E-02 0. -1.
</event>
<event>
 5   0  0.4314657E-05  0.1600494E+04  0.7818609E-02  0.8820245E-01
        1   -1    0    0  501    0  0.00000000000E+00  0.00000000000E+00  0.10026482451E+04  0.10026482451E+04  0.50400001928E-02 0. -1.
       -1   -1    0    0    0  501  0.00000000000E+00  0.00000000000E+00 -0.63870386713E+03  0.63870386715E+03  0.50400001928E-02 0.  1.
    10030    2    1    2    0    0  0.00000000000E+00  0.00000000000E+00  0.36394437794E+03  0.16413521122E+04  0.16004940631E+04 0.  0.
        5    1    3    3  502    0 -0.20315055568E+03 -0.38160736880E+03  0.87257163877E+03  0.97380577478E+03  0.46999998093E+01 0. -1.
       -5    1    3    3    0  502  0.20315055568E+03  0.38160736880E+03 -0.50862726083E+03  0.66754633746E+03  0.46999998093E+01 0.  1.
</event>
<event>
 5   0  0.4256406E-05  0.1597113E+04  0.7818609E-02  0.8822324E-01
        1   -1    0    0  501    0  0.00000000000E+00  0.00000000000E+00  0.92866293554E+03  0.92866293555E+03  0.50400001928E-02 0.  1.
       -1   -1    0    0    0  501  0.00000000000E+00  0.00000000000E+00 -0.68667777377E+03  0.68667777378E+03  0.50400001928E-02 0. -1.
    10030    2    1    2    0    0  0.00000000000E+00  0.00000000000E+00  0.24198516177E+03  0.16153407093E+04  0.15971126412E+04 0.  0.
        3    1    3    3  502    0  0.68075798539E+03 -0.30342737806E+03 -0.16897196097E+03  0.76423238758E+03  0.10100000352E+00 0. -1.
       -3    1    3    3    0  502 -0.68075798539E+03  0.30342737806E+03  0.41095712274E+03  0.85110832176E+03  0.10100000352E+00 0.  1.
</event>
<event>
 5   0  0.7901257E-05  0.1612881E+04  0.7818609E-02  0.8812673E-01
       -2   -1    0    0    0  501  0.00000000000E+00  0.00000000000E+00  0.47237017369E+03  0.47237017370E+03  0.25500000920E-02 0.  1.
        2   -1    0    0  501    0  0.00000000000E+00  0.00000000000E+00 -0.13767730956E+04  0.13767730956E+04  0.25500000920E-02 0. -1.
    10030    2    1    2    0    0  0.00000000000E+00  0.00000000000E+00 -0.90440292191E+03  0.18491432693E+04  0.16128813302E+04 0.  0.
        2    1    3    3  502    0 -0.19060161300E+02  0.30077726138E+03 -0.13097812082E+04  0.13440078363E+04  0.25500000920E-02 0. -1.
       -2    1    3    3    0  502  0.19060161300E+02 -0.30077726138E+03  0.40537828626E+03  0.50513543302E+03  0.25500000920E-02 0.  1.
</event>
<event>
 5   0  0.4373026E-05  0.1591206E+04  0.7818609E-02  0.8825969E-01
       -1   -1    0    0    0  501  0.00000000000E+00  0.00000000000E+00  0.34428983980E+03  0.34428983984E+03  0.50400001928E-02 0. -1.
        1   -1    0    0  501    0  0.00000000000E+00  0.00000000000E+00 -0.18385206864E+04  0.18385206864E+04  0.50400001928E-02 0.  1.
    10030    2    1    2    0    0  0.00000000000E+00  0.00000000000E+00 -0.14942308466E+04  0.21828105263E+04  0.15912058228E+04 0.  0.
        4    1    3    3  502    0 -0.61579464013E+02 -0.24855722820E+03  0.28621220240E+03  0.38404656460E+03  0.12699999809E+01 0. -1.
       -4    1    3    3    0  502  0.61579464013E+02  0.24855722820E+03 -0.17804430490E+04  0.17987639617E+04  0.12699999809E+01 0.  1.
</event>
<event>
 5   0  0.8037548E-05  0.1602029E+04  0.7818609E-02  0.8819303E-01
        2   -1    0    0  501    0  0.00000000000E+00  0.00000000000E+00  0.97778349246E+03  0.97778349247E+03  0.25500000920E-02 0.  1.
       -2   -1    0    0    0  501  0.00000000000E+00  0.00000000000E+00 -0.65620269809E+03  0.65620269810E+03  0.25500000920E-02 0. -1.
    10030    2    1    2    0    0  0.00000000000E+00  0.00000000000E+00  0.32158079437E+03  0.16339861906E+04  0.16020289210E+04 0.  0.
        5    1    3    3  502    0 -0.23782851145E+02 -0.11592641106E+03 -0.64722314378E+03  0.65796994205E+03  0.46999998093E+01 0. -1.
       -5    1    3    3    0  502  0.23782851145E+02  0.11592641106E+03  0.96880393815E+03  0.97601624852E+03  0.46999998093E+01 0.  1.
</event>
<event>
 5   0  0.8620155E-05  0.1601769E+04  0.7818609E-02  0.8819462E-01
       -2   -1    0    0    0  501  0.00000000000E+00  0.00000000000E+00  0.10235133229E+04  0.10235133229E+04  0.25500000920E-02 0. -1.
        2   -1    0    0  501    0  0.00000000000E+00  0.00000000000E+00 -0.62668026532E+03  0.62668026532E+03  0.25500000920E-02 0.  1.
    10030    2    1    2    0    0  0.00000000000E+00  0.00000000000E+00  0.39683305756E+03  0.16501935882E+04  0.16017685235E+04 0.  0.
        4    1    3    3  502    0 -0.34233657699E+02 -0.27592855282E+03 -0.57535954919E+03  0.63902170020E+03  0.12699999809E+01 0.  1.
       -4    1    3    3    0  502  0.34233657699E+02  0.27592855282E+03  0.97219260675E+03  0.10111718880E+04  0.12699999809E+01 0. -1.
</event>
<event>
 5   0  0.4504463E-05  0.1603646E+04  0.7818609E-02  0.8818311E-01
        1   -1    0    0  501    0  0.00000000000E+00  0.00000000000E+00  0.19516217974E+04  0.19516217974E+04  0.50400001928E-02 0. -1.
       -1   -1    0    0    0  501  0.00000000000E+00  0.00000000000E+00 -0.32942866854E+03  0.32942866857E+03  0.50400001928E-02 0.  1.
    10030    2    1    2    0    0  0.00000000000E+00  0.00000000000E+00  0.16221931289E+04  0.22810504660E+04  0.16036460585E+04 0.  0.
        1    1    3    3  502    0  0.71073562684E+03 -0.18749286359E+03  0.12667613613E+04  0.14645760655E+04  0.50400001928E-02 0. -1.
       -1    1    3    3    0  502 -0.71073562684E+03  0.18749286359E+03  0.35543176751E+03  0.81647440042E+03  0.50400001928E-02 0.  1.
</event>
<event>
 5   0  0.8037548E-05  0.1599722E+04  0.7818609E-02  0.8820719E-01
       -2   -1    0    0    0  501  0.00000000000E+00  0.00000000000E+00  0.33191850788E+03  0.33191850789E+03  0.25500000920E-02 0. -1.
        2   -1    0    0  501    0  0.00000000000E+00  0.00000000000E+00 -0.19275130198E+04  0.19275130198E+04  0.25500000920E-02 0.  1.
    10030    2    1    2    0    0  0.00000000000E+00  0.00000000000E+00 -0.15955945119E+04  0.22594315277E+04  0.15997215326E+04 0.  0.
        5    1    3    3  502    0 -0.73234911175E+03 -0.16663654206E+03 -0.40932002815E+03  0.85537590220E+03  0.46999998093E+01 0. -1.
       -5    1    3    3    0  502  0.73234911175E+03  0.16663654206E+03 -0.11862744838E+04  0.14040556255E+04  0.46999998093E+01 0.  1.
</event>
<event>
 5   0  0.3042125E-05  0.1599573E+04  0.7818609E-02  0.8820810E-01
        3   -1    0    0  501    0  0.00000000000E+00  0.00000000000E+00  0.15962659013E+04  0.15962659045E+04  0.10100000352E+00 0.  1.
       -3   -1    0    0    0  501  0.00000000000E+00  0.00000000000E+00 -0.40072166466E+03  0.40072167739E+03  0.10100000352E+00 0. -1.
    10030    2    1    2    0    0  0.00000000000E+00  0.00000000000E+00  0.11955442366E+04  0.19969875819E+04  0.15995728744E+04 0.  0.
        5    1    3    3  502    0 -0.22243013495E+03 -0.60609197181E+03  0.11870799230E+04  0.13512969610E+04  0.46999998093E+01 0.  1.
       -5    1    3    3    0  502  0.22243013495E+03  0.60609197181E+03  0.84643135912E+01  0.64569062084E+03  0.46999998093E+01 0. -1.
</event>
<event>
 5   0  0.8694033E-05  0.1604297E+04  0.7818609E-02  0.8817912E-01
        2   -1    0    0  501    0  0.00000000000E+00  0.00000000000E+00  0.16343491503E+04  0.16343491503E+04  0.25500000920E-02 0.  1.
       -2   -1    0    0    0  501  0.00000000000E+00  0.00000000000E+00 -0.39369955153E+03  0.39369955154E+03  0.25500000920E-02 0. -1.
    10030    2    1    2    0    0  0.00000000000E+00  0.00000000000E+00  0.12406495987E+04  0.20280487018E+04  0.16042973883E+04 0.  0.
        1    1    3    3  502    0 -0.68231514133E+03  0.42176255048E+03  0.61751898275E+03  0.10123079053E+04  0.50400001928E-02 0. -1.
       -1    1    3    3    0  502  0.68231514133E+03 -0.42176255048E+03  0.62313061600E+03  0.10157407965E+04  0.50400001928E-02 0.  1.
</event>
<event>
 5   0  0.7849690E-05  0.1607696E+04  0.7818609E-02  0.8815834E-01
        2   -1    0    0  501    0  0.00000000000E+00  0.00000000000E+00  0.12151123480E+04  0.12151123480E+04  0.25500000920E-02 0.  1.
       -2   -1    0    0    0  501  0.00000000000E+00  0.00000000000E+00 -0.53177934637E+03  0.53177934638E+03  0.25500000920E-02 0. -1.
    10030    2    1    2    0    0  0.00000000000E+00  0.00000000000E+00  0.68333300161E+03  0.17468916944E+04  0.16076960536E+04 0.  0.
        3    1    3    3  502    0 -0.10686137098E+03 -0.63938404433E+03 -0.17481992839E+03  0.67141144339E+03  0.10100000352E+00 0. -1.
       -3    1    3    3    0  502  0.10686137098E+03  0.63938404433E+03  0.85815293000E+03  0.10754802510E+04  0.10100000352E+00 0.  1.
</event>
<event>
 5   0  0.4504463E-05  0.1589015E+04  0.7818609E-02  0.8827325E-01
       -1   -1    0    0    0  501  0.00000000000E+00  0.00000000000E+00  0.54488392179E+03  0.54488392181E+03  0.50400001928E-02 0.  1.
        1   -1    0    0  501    0  0.00000000000E+00  0.00000000000E+00 -0.11584896609E+04  0.11584896609E+04  0.50400001928E-02 0. -1.
    10030    2    1    2    0    0  0.00000000000E+00  0.00000000000E+00 -0.61360573910E+03  0.17033735827E+04  0.15890152797E+04 0.  0.
        1    1    3    3  502    0  0.66770126829E+03  0.34556115527E+03 -0.58220665377E+03  0.95089541140E+03  0.50400001928E-02 0.  1.
       -1    1    3    3    0  502 -0.66770126829E+03 -0.34556115527E+03 -0.31399085332E+02  0.75247817131E+03  0.50400001928E-02 0. -1.
</event>
<event>
 5   0  0.4211419E-05  0.1596958E+04  0.7818609E-02  0.8822419E-01
        1   -1    0    0  501    0  0.00000000000E+00  0.00000000000E+00  0.14420065013E+04  0.14420065013E+04  0.50400001928E-02 0.  1.
       -1   -1    0    0    0  501  0.00000000000E+00  0.00000000000E+00 -0.44214022297E+03  0.44214022300E+03  0.50400001928E-02 0. -1.
    10030    2    1    2    0    0  0.00000000000E+00  0.00000000000E+00  0.99986627837E+03  0.18841467243E+04  0.15969584541E+04 0.  0.
        2    1    3    3  502    0 -0.55765635555E+03  0.38741625295E+03  0.99560002253E+03  0.12051105214E+04  0.25500000920E-02 0.  1.
       -2    1    3    3    0  502  0.55765635555E+03 -0.38741625295E+03  0.42662558325E+01  0.67903620293E+03  0.25500000920E-02 0. -1.
</event>
<event>
 5   0  0.8694033E-05  0.1601652E+04  0.7818609E-02  0.8819534E-01
       -2   -1    0    0    0  501  0.00000000000E+00  0.00000000000E+00  0.43385879144E+03  0.43385879145E+03  0.25500000920E-02 0.  1.
        2   -1    0    0  501    0  0.00000000000E+00  0.00000000000E+00 -0.14781824581E+04  0.14781824581E+04  0.25500000920E-02 0. -1.
    10030    2    1    2    0    0  0.00000000000E+00  0.00000000000E+00 -0.10443236666E+04  0.19120412495E+04  0.16016522154E+04 0.  0.
        1    1    3    3  502    0 -0.63932051376E+02  0.15851151349E+03 -0.14561545916E+04  0.14661512206E+04  0.50400001928E-02 0. -1.
       -1    1    3    3    0  502  0.63932051376E+02 -0.15851151349E+03  0.41183092495E+03  0.44589002890E+03  0.50400001928E-02 0.  1.
</event>
<event>
 5   0  0.7849690E-05  0.1596827E+04  0.7818609E-02  0.8822499E-01
        2   -1    0    0  501    0  0.00000000000E+00  0.00000000000E+00  0.17624475916E+04  0.17624475916E+04  0.25500000920E-02 0. -1.
       -2   -1    0    0    0  501  0.00000000000E+00  0.00000000000E+00 -0.36169271398E+03  0.36169271399E+03  0.25500000920E-02 0.  1.
    10030    2    1    2    0    0  0.00000000000E+00  0.00000000000E+00  0.14007548776E+04  0.21241403056E+04  0.15968274204E+04 0.  0.
        3    1    3    3  502    0  0.10825695903E+03  0.77111184737E+03  0.46567127826E+03  0.90729421905E+03  0.10100000352E+00 0.  1.
       -3    1    3    3    0  502 -0.10825695903E+03 -0.77111184737E+03  0.93508359934E+03  0.12168460865E+04  0.10100000352E+00 0. -1.
</event>
<event>
 5   0  0.4314657E-05  0.1599002E+04  0.7818609E-02  0.8821161E-01
        1   -1    0    0  501    0  0.00000000000E+00  0.00000000000E+00  0.11649924329E+04  0.11649924330E+04  0.50400001928E-02 0. -1.
       -1   -1    0    0    0  501  0.00000000000E+00  0.00000000000E+00 -0.54867487801E+03  0.54867487803E+03  0.50400001928E-02 0.  1.
    10030    2    1    2    0    0  0.00000000000E+00  0.00000000000E+00  0.61631755493E+03  0.17136673110E+04  0.15990022903E+04 0.  0.
        5    1    3    3  502    0  0.48539069457E+03  0.61928232643E+03  0.15634895408E+03  0.80223550884E+03  0.46999998093E+01 0. -1.
       -5    1    3    3    0  502 -0.48539069457E+03 -0.61928232643E+03  0.45996860085E+03  0.91143180215E+03  0.46999998093E+01 0.  1.
</event>
<event>
 5   0  0.7849690E-05  0.1601467E+04  0.7818609E-02  0.8819647E-01
        2   -1    0    0  501    0  0.00000000000E+00  0.00000000000E+00  0.13154222324E+04  0.13154222324E+04  0.25500000920E-02 0. -1.
       -2   -1    0    0    0  501  0.00000000000E+00  0.00000000000E+00 -0.48742854347E+03  0.48742854348E+03  0.25500000920E-02 0.  1.
    10030    2    1    2    0    0  0.00000000000E+00  0.00000000000E+00  0.82799368892E+03  0.18028507759E+04  0.16014672557E+04 0.  0.
        3    1    3    3  502    0  0.44256051726E+03 -0.12899767701E+03  0.11510611004E+04  0.12399362400E+04  0.10100000352E+00 0. -1.
       -3    1    3    3    0  502 -0.44256051726E+03  0.12899767701E+03 -0.32306741152E+03  0.56291453588E+03  0.10100000352E+00 0.  1.
</event>
<event>
 5   0  0.4211419E-05  0.1599574E+04  0.7818609E-02  0.8820810E-01
        1   -1    0    0  501    0  0.00000000000E+00  0.00000000000E+00  0.10425724389E+04  0.10425724389E+04  0.50400001928E-02 0. -1.
       -1   -1    0    0    0  501  0.00000000000E+00  0.00000000000E+00 -0.61353953009E+03  0.61353953011E+03  0.50400001928E-02 0.  1.
    10030    2    1    2    0    0  0.00000000000E+00  0.00000000000E+00  0.42903290882E+03  0.16561119690E+04  0.15995741987E+04 0.  0.
        2    1    3    3  502    0 -0.16056085719E+03  0.61206521063E+03 -0.29191017828E+03  0.69686093528E+03  0.25500000920E-02 0.  1.
       -2    1    3    3    0  502  0.16056085719E+03 -0.61206521063E+03  0.72094308710E+03  0.95925103376E+03  0.25500000920E-02 0. -1.
</event>
<event>
 5   0  0.4373026E-05  0.1601347E+04  0.7818609E-02  0.8819721E-01
       -1   -1    0    0    0  501  0.00000000000E+00  0.00000000000E+00  0.11183454945E+04  0.11183454945E+04  0.50400001928E-02 0.  1.
        1   -1    0    0  501    0  0.00000000000E+00  0.00000000000E+00 -0.57323821627E+03  0.57323821629E+03  0.50400001928E-02 0. -1.
    10030    2    1    2    0    0  0.00000000000E+00  0.00000000000E+00  0.54510727820E+03  0.16915837108E+04  0.16013474032E+04 0.  0.
        4    1    3    3  502    0 -0.68137704271E+03 -0.24753319232E+03 -0.86495763424E+02  0.73008936824E+03  0.12699999809E+01 0. -1.
       -4    1    3    3    0  502  0.68137704271E+03  0.24753319232E+03  0.63160304162E+03  0.96149434253E+03  0.12699999809E+01 0.  1.
</event>
<event>
 5   0  0.7849690E-05  0.1599479E+04  0.7818609E-02  0.8820868E-01
       -2   -1    0    0    0  501  0.00000000000E+00  0.00000000000E+00  0.14656697293E+04  0.14656697293E+04  0.25500000920E-02 0.  1.
        2   -1    0    0  501    0  0.00000000000E+00  0.00000000000E+00 -0.43637601380E+03  0.43637601381E+03  0.25500000920E-02 0. -1.
    10030    2    1    2    0    0  0.00000000000E+00  0.00000000000E+00  0.10292937155E+04  0.19020457431E+04  0.15994788077E+04 0.  0.
        3    1    3    3  502    0  0.71893932086E+03 -0.28725003003E+03  0.27622938327E+03  0.82200304696E+03  0.10100000352E+00 0. -1.
       -3    1    3    3    0  502 -0.71893932086E+03  0.28725003003E+03  0.75306433225E+03  0.10800426962E+04  0.10100000352E+00 0.  1.
</event>
<event>
 5   0  0.4256406E-05  0.1602236E+04  0.7818609E-02  0.8819176E-01
       -1   -1    0    0    0  501  0.00000000000E+00  0.00000000000E+00  0.76568816148E+03  0.76568816149E+03  0.50400001928E-02 0.  1.
        1   -1    0    0  501    0  0.00000000000E+00  0.00000000000E+00 -0.83818677679E+03  0.83818677680E+03  0.50400001928E-02 0. -1.
    10030    2    1    2    0    0  0.00000000000E+00  0.00000000000E+00 -0.72498615312E+02  0.16038749383E+04  0.16022355534E+04 0.  0.
        3    1    3    3  502    0 -0.40083101414E+02  0.53570671955E+03 -0.63116483830E+03  0.82882893753E+03  0.10100000352E+00 0. -1.
       -3    1    3    3    0  502  0.40083101414E+02 -0.53570671955E+03  0.55866622299E+03  0.77504600076E+03  0.10100000352E+00 0.  1.
</event>
<event>
 5   0  0.4504463E-05  0.1604182E+04  0.7818609E-02  0.8817983E-01
        1   -1    0    0  501    0  0.00000000000E+00  0.00000000000E+00  0.11446173662E+04  0.11446173662E+04  0.50400001928E-02 0. -1.
       -1   -1    0    0    0  501  0.00000000000E+00  0.00000000000E+00 -0.56206557609E+03  0.56206557611E+03  0.50400001928E-02 0.  1.
    10030    2    1    2    0    0  0.00000000000E+00  0.00000000000E+00  0.58255179014E+03  0.17066829423E+04  0.16041820587E+04 0.  0.
        1    1    3    3  502    0 -0.15265148283E+03 -0.72176410322E+03  0.62619895884E+03  0.96766266436E+03  0.50400001928E-02 0.  1.
       -1    1    3    3    0  502  0.15265148283E+03  0.72176410322E+03 -0.43647168705E+02  0.73902027799E+03  0.50400001928E-02 0. -1.
</event>
<event>
 5   0  0.4373026E-05  0.1595387E+04  0.7818609E-02  0.8823387E-01
       -1   -1    0    0    0  501  0.00000000000E+00  0.00000000000E+00  0.86318163336E+03  0.86318163337E+03  0.50400001928E-02 0. -1.
        1   -1    0    0  501    0  0.00000000000E+00  0.00000000000E+00 -0.73717409181E+03  0.73717409183E+03  0.50400001928E-02 0.  1.
    10030    2    1    2    0    0  0.00000000000E+00  0.00000000000E+00  0.12600754155E+03  0.16003557252E+04  0.15953872717E+04 0.  0.
        4    1    3    3  502    0  0.52040979179E+03 -0.58709053108E+03  0.20771627829E+03  0.81157212140E+03  0.12699999809E+01 0. -1.
       -4    1    3    3    0  502 -0.52040979179E+03  0.58709053108E+03 -0.81708736745E+02  0.78878360380E+03  0.12699999809E+01 0.  1.
</event>
<event>
 5   0  0.7901257E-05  0.1591303E+04  0.7818609E-02  0.8825909E-01
       -2   -1    0    0    0  501  0.00000000000E+00  0.00000000000E+00  0.33353547443E+03  0.33353547444E+03  0.25500000920E-02 0. -1.
        2   -1    0    0  501    0  0.00000000000E+00  0.00000000000E+00 -0.18980337499E+04  0.18980337499E+04  0.25500000920E-02 0.  1.
    10030    2    1    2    0    0  0.00000000000E+00  0.00000000000E+00 -0.15644982754E+04  0.22315692243E+04  0.15913033491E+04 0.  0.
        2    1    3    3  502    0  0.53676272337E+03  0.58410640174E+03 -0.86832069561E+03  0.11761272636E+04  0.25500000920E-02 0. -1.
       -2    1    3    3    0  502 -0.53676272337E+03 -0.58410640174E+03 -0.69617757984E+03  0.10554419607E+04  0.25500000920E-02 0.  1.
</event>
<event>
 5   0  0.7901257E-05  0.1574629E+04  0.7818609E-02  0.8836288E-01
       -2   -1    0    0    0  501  0.00000000000E+00  0.00000000000E+00  0.50385248644E+03  0.50385248645E+03  0.25500000920E-02 0. -1.
        2   -1    0    0  501    0  0.00000000000E+00  0.00000000000E+00 -0.12302488867E+04  0.12302488867E+04  0.25500000920E-02 0.  1.
    10030    2    1    2    0    0  0.00000000000E+00  0.00000000000E+00 -0.72639640024E+03  0.17341013731E+04  0.15746287950E+04 0.  0.
        2    1    3    3  502    0  0.33441443562E+03 -0.68034834392E+03 -0.59722155598E+03  0.96508055143E+03  0.25500000920E-02 0. -1.
       -2    1    3    3    0  502 -0.33441443562E+03  0.68034834392E+03 -0.12917484427E+03  0.76902082171E+03  0.25500000920E-02 0.  1.
</event>
<event>
 5   0  0.7901257E-05  0.1599877E+04  0.7818609E-02  0.8820623E-01
       -2   -1    0    0    0  501  0.00000000000E+00  0.00000000000E+00  0.11372687930E+04  0.11372687930E+04  0.25500000920E-02 0. -1.
        2   -1    0    0  501    0  0.00000000000E+00  0.00000000000E+00 -0.56266549448E+03  0.56266549448E+03  0.25500000920E-02 0.  1.
    10030    2    1    2    0    0  0.00000000000E+00  0.00000000000E+00  0.57460329854E+03  0.16999342875E+04  0.15998773800E+04 0.  0.
        2    1    3    3  502    0 -0.11404080337E+03  0.73695636990E+03  0.59487342871E+03  0.95393102065E+03  0.25500000920E-02 0. -1.
       -2    1    3    3    0  502  0.11404080337E+03 -0.73695636990E+03 -0.20270130166E+02  0.74600326685E+03  0.25500000920E-02 0.  1.
</event>
<event>
 5   0  0.4211419E-05  0.1599624E+04  0.7818609E-02  0.8820779E-01
        1   -1    0    0  501    0  0.00000000000E+00  0.00000000000E+00  0.14159200318E+04  0.14159200318E+04  0.50400001928E-02 0. -1.
       -1   -1    0    0    0  501  0.00000000000E+00  0.00000000000E+00 -0.45179057268E+03  0.45179057271E+03  0.50400001928E-02 0.  1.
    10030    2    1    2    0    0  0.00000000000E+00  0.00000000000E+00  0.96412945907E+03  0.18677106045E+04  0.15996241084E+04 0.  0.
        2    1    3    3  502    0 -0.51694949807E+03 -0.24325434642E+03  0.11355936545E+04  0.12712129675E+04  0.25500000920E-02 0. -1.
       -2    1    3    3    0  502  0.51694949807E+03  0.24325434642E+03 -0.17146419542E+03  0.59649763698E+03  0.25500000920E-02 0.  1.
</event>
<event>
 5   0  0.4373026E-05  0.1598506E+04  0.7818609E-02  0.8821466E-01
       -1   -1    0    0    0  501  0.00000000000E+00  0.00000000000E+00  0.21900057530E+04  0.21900057530E+04  0.50400001928E-02 0. -1.
        1   -1    0    0  501    0  0.00000000000E+00  0.00000000000E+00 -0.29169125596E+03  0.29169125600E+03  0.50400001928E-02 0.  1.
    10030    2    1    2    0    0  0.00000000000E+00  0.00000000000E+00  0.18983144970E+04  0.24816970090E+04  0.15985062136E+04 0.  0.
        4    1    3    3  502    0 -0.51853497738E+03 -0.13466305547E+03  0.18699819224E+04  0.19452112133E+04  0.12699999809E+01 0. -1.
       -4    1    3    3    0  502  0.51853497738E+03  0.13466305547E+03  0.28332574593E+02  0.53648579567E+03  0.12699999809E+01 0.  1.
</event>
<event>
 5   0  0.4256406E-05  0.1600329E+04  0.7818609E-02  0.8820346E-01
        1   -1    0    0  501    0  0.00000000000E+00  0.00000000000E+00  0.99470849149E+03  0.99470849150E+03  0.50400001928E-02 0.  1.
       -1   -1    0    0    0  501  0.00000000000E+00  0.00000000000E+00 -0.64366927985E+03  0.64366927986E+03  0.50400001928E-02 0. -1.
    10030    2    1    2    0    0  0.00000000000E+00  0.00000000000E+00  0.35103921165E+03  0.16383777714E+04  0.16003290892E+04 0.  0.
        3    1    3    3  502    0  0.74228122088E+03  0.14945307773E+03  0.44040983847E+03  0.87594433004E+03  0.10100000352E+00 0.  1.
       -3    1    3    3    0  502 -0.74228122088E+03 -0.14945307773E+03 -0.89370626826E+02  0.76243344133E+03  0.10100000352E+00 0. -1.
</event>
<event>
 5   0  0.8037548E-05  0.1600676E+04  0.7818609E-02  0.8820133E-01
       -2   -1    0    0    0  501  0.00000000000E+00  0.00000000000E+00  0.29951447540E+03  0.29951447542E+03  0.25500000920E-02 0.  1.
        2   -1    0    0  501    0  0.00000000000E+00  0.00000000000E+00 -0.21385963060E+04  0.21385963060E+04  0.25500000920E-02 0. -1.
    10030    2    1    2    0    0  0.00000000000E+00  0.00000000000E+00 -0.18390818306E+04  0.24381107814E+04  0.16006755458E+04 0.  0.
        5    1    3    3  502    0 -0.24953936564E+02  0.63620023243E+03 -0.18092608539E+03  0.66191372026E+03  0.46999998093E+01 0.  1.
       -5    1    3    3    0  502  0.24953936564E+02 -0.63620023243E+03 -0.16581557452E+04  0.17761970611E+04  0.46999998093E+01 0. -1.
</event>
<event>
 5   0  0.4373026E-05  0.1599569E+04  0.7818609E-02  0.8820813E-01
       -1   -1    0    0    0  501  0.00000000000E+00  0.00000000000E+00  0.94731043919E+03  0.94731043921E+03  0.50400001928E-02 0.  1.
        1   -1    0    0  501    0  0.00000000000E+00  0.00000000000E+00 -0.67523302328E+03  0.67523302329E+03  0.50400001928E-02 0. -1.
    10030    2    1    2    0    0  0.00000000000E+00  0.00000000000E+00  0.27207741592E+03  0.16225434625E+04  0.15995690568E+04 0.  0.
        4    1    3    3  502    0  0.18873759105E+03  0.25045161862E+03  0.88234083583E+03  0.93641596260E+03  0.12699999809E+01 0.  1.
       -4    1    3    3    0  502 -0.18873759105E+03 -0.25045161862E+03 -0.61026341991E+03  0.68612749990E+03  0.12699999809E+01 0. -1.
</event>
<event>
 5   0  0.8037548E-05  0.1603328E+04  0.7818609E-02  0.8818506E-01
       -2   -1    0    0    0  501  0.00000000000E+00  0.00000000000E+00  0.30758147376E+03  0.30758147377E+03  0.25500000920E-02 0. -1.
        2   -1    0    0  501    0  0.00000000000E+00  0.00000000000E+00 -0.20894145538E+04  0.20894145538E+04  0.25500000920E-02 0.  1.
    10030    2    1    2    0    0  0.00000000000E+00  0.00000000000E+00 -0.17818330800E+04  0.23969960276E+04  0.16033280485E+04 0.  0.
        5    1    3    3  502    0  0.54300494002E+03 -0.58784699453E+03 -0.82040225121E+03  0.11460804499E+04  0.46999998093E+01 0.  1.
       -5    1    3    3    0  502 -0.54300494002E+03  0.58784699453E+03 -0.96143082884E+03  0.12509155777E+04  0.46999998093E+01 0. -1.
</event>
<event>
 5   0  0.4373026E-05  0.1560814E+04  0.7818609E-02  0.8844990E-01
       -1   -1    0    0    0  501  0.00000000000E+00  0.00000000000E+00  0.43023860231E+03  0.43023860233E+03  0.50400001928E-02 0. -1.
        1   -1    0    0  501    0  0.00000000000E+00  0.00000000000E+00 -0.14155744482E+04  0.14155744482E+04  0.50400001928E-02 0.  1.
    10030    2    1    2    0    0  0.00000000000E+00  0.00000000000E+00 -0.98533584590E+03  0.18458130505E+04  0.15608135982E+04 0.  0.
        4    1    3    3  502    0 -0.75715554012E+03  0.18898192525E+03 -0.48572383600E+03  0.91919961802E+03  0.12699999809E+01 0. -1.
       -4    1    3    3    0  502  0.75715554012E+03 -0.18898192525E+03 -0.49961200990E+03  0.92661343253E+03  0.12699999809E+01 0.  1.
</event>
<event>
 5   0  0.4314657E-05  0.1600351E+04  0.7818609E-02  0.8820332E-01
        1   -1    0    0  501    0  0.00000000000E+00  0.00000000000E+00  0.96746945980E+03  0.96746945981E+03  0.50400001928E-02 0. -1.
       -1   -1    0    0    0  501  0.00000000000E+00  0.00000000000E+00 -0.66181022502E+03  0.66181022504E+03  0.50400001928E-02 0.  1.
    10030    2    1    2    0    0  0.00000000000E+00  0.00000000000E+00  0.30565923478E+03  0.16292796848E+04  0.16003514375E+04 0.  0.
        5    1    3    3  502    0  0.67247715307E+02 -0.32381287098E+03 -0.58895752792E+03  0.67547767566E+03  0.46999998093E+01 0.  1.
       -5    1    3    3    0  502 -0.67247715307E+02  0.32381287098E+03  0.89461676270E+03  0.95380200918E+03  0.46999998093E+01 0. -1.
</event>
<event>
 5   0  0.4256406E-05  0.1595736E+04  0.7818609E-02  0.8823172E-01
        1   -1    0    0  501    0  0.00000000000E+00  0.00000000000E+00  0.13758334661E+04  0.13758334661E+04  0.50400001928E-02 0.  1.
       -1   -1    0    0    0  501  0.00000000000E+00  0.00000000000E+00 -0.46269635772E+03  0.46269635775E+03  0.50400001928E-02 0. -1.
    10030    2    1    2    0    0  0.00000000000E+00  0.00000000000E+00  0.91313710842E+03  0.18385298239E+04  0.15957357346E+04 0.  0.
        3    1    3    3  502    0 -0.72967305700E+02 -0.15915279488E+03 -0.44029063678E+03  0.47382454016E+03  0.10100000352E+00 0. -1.
       -3    1    3    3    0  502  0.72967305700E+02  0.15915279488E+03  0.13534277452E+04  0.13647052837E+04  0.10100000352E+00 0.  1.
</event>
<event>
 5   0  0.4504463E-05  0.1591862E+04  0.7818609E-02  0.8825563E-01
       -1   -1    0    0    0  501  0.00000000000E+00  0.00000000000E+00  0.57511438779E+03  0.57511438781E+03  0.50400001928E-02 0. -1.
        1   -1    0    0  501    0  0.00000000000E+00  0.00000000000E+00 -0.11015300133E+04  0.11015300133E+04  0.50400001928E-02 0.  1.
    10030    2    1    2    0    0  0.00000000000E+00  0.00000000000E+00 -0.52641562553E+03  0.16766444011E+04  0.15918615006E+04 0.  0.
        1    1    3    3  502    0 -0.48110814694E+03 -0.63174554372E+03 -0.20611490808E+03  0.82039675549E+03  0.50400001928E-02 0. -1.
       -1    1    3    3    0  502  0.48110814694E+03  0.63174554372E+03 -0.32030071745E+03  0.85624764565E+03  0.50400001928E-02 0.  1.
</event>
<event>
 5   0  0.8620155E-05  0.1598443E+04  0.7818609E-02  0.8821505E-01
       -2   -1    0    0    0  501  0.00000000000E+00  0.00000000000E+00  0.87179909907E+03  0.87179909907E+03  0.25500000920E-02 0.  1.
        2   -1    0    0  501    0  0.00000000000E+00  0.00000000000E+00 -0.73268638979E+03  0.73268638980E+03  0.25500000920E-02 0. -1.
    10030    2    1    2    0    0  0.00000000000E+00  0.00000000000E+00  0.13911270927E+03  0.16044854889E+04  0.15984434110E+04 0.  0.
        4    1    3    3  502    0  0.60780239662E+03  0.39392819014E+03  0.40869519495E+03  0.83164688877E+03  0.12699999809E+01 0. -1.
       -4    1    3    3    0  502 -0.60780239662E+03 -0.39392819014E+03 -0.26958248567E+03  0.77283860010E+03  0.12699999809E+01 0.  1.
</event>
<event>
 5   0  0.7901257E-05  0.1599476E+04  0.7818609E-02  0.8820870E-01
        2   -1    0    0  501    0  0.00000000000E+00  0.00000000000E+00  0.21876217408E+04  0.21876217408E+04  0.25500000920E-02 0. -1.
       -2   -1    0    0    0  501  0.00000000000E+00  0.00000000000E+00 -0.29236371888E+03  0.29236371890E+03  0.25500000920E-02 0.  1.
    10030    2    1    2    0    0  0.00000000000E+00  0.00000000000E+00  0.18952580219E+04  0.24799854597E+04  0.15994764489E+04 0.  0.
        2    1    3    3  502    0  0.45186306274E+03 -0.19426023698E+03  0.19253825611E+04  0.19872129412E+04  0.25500000920E-02 0. -1.
       -2    1    3    3    0  502 -0.45186306274E+03  0.19426023698E+03 -0.30124539149E+02  0.49277251852E+03  0.25500000920E-02 0.  1.
</event>
<event>
 5   0  0.4256406E-05  0.1603149E+04  0.7818609E-02  0.8818616E-01
        1   -1    0    0  501    0  0.00000000000E+00  0.00000000000E+00  0.16869884755E+04  0.16869884755E+04  0.50400001928E-02 0. -1.
       -1   -1    0    0    0  501  0.00000000000E+00  0.00000000000E+00 -0.38086893268E+03  0.38086893271E+03  0.50400001928E-02 0.  1.
    10030    2    1    2    0    0  0.00000000000E+00  0.00000000000E+00  0.13061195429E+04  0.20678574083E+04  0.16031487768E+04 0.  0.
        3    1    3    3  502    0  0.39737323949E+03 -0.47294900859E+03  0.13119500847E+04  0.14501032002E+04  0.10100000352E+00 0. -1.
       -3    1    3    3    0  502 -0.39737323949E+03  0.47294900859E+03 -0.58305418460E+01  0.61775420809E+03  0.10100000352E+00 0.  1.
</event>
<event>
 5   0  0.7849690E-05  0.1593882E+04  0.7818609E-02  0.8824316E-01
        2   -1    0    0  501    0  0.00000000000E+00  0.00000000000E+00  0.22362239038E+04  0.22362239038E+04  0.25500000920E-02 0.  1.
       -2   -1    0    0    0  501  0.00000000000E+00  0.00000000000E+00 -0.28401206376E+03  0.28401206377E+03  0.25500000920E-02 0. -1.
    10030    2    1    2    0    0  0.00000000000E+00  0.00000000000E+00  0.19522118401E+04  0.25202359676E+04  0.15938815087E+04 0.  0.
        3    1    3    3  502    0  0.39648180942E+03  0.59056937335E+03  0.15443346756E+04  0.17002763336E+04  0.10100000352E+00 0.  1.
       -3    1    3    3    0  502 -0.39648180942E+03 -0.59056937335E+03  0.40787716442E+03  0.81995963401E+03  0.10100000352E+00 0. -1.
</event>
<event>
 5   0  0.4504463E-05  0.1604719E+04  0.7818609E-02  0.8817654E-01
        1   -1    0    0  501    0  0.00000000000E+00  0.00000000000E+00  0.58775239198E+03  0.58775239200E+03  0.50400001928E-02 0.  1.
       -1   -1    0    0    0  501  0.00000000000E+00  0.00000000000E+00 -0.10953259421E+04  0.10953259421E+04  0.50400001928E-02 0. -1.
    10030    2    1    2    0    0  0.00000000000E+00  0.00000000000E+00 -0.50757355013E+03  0.16830783341E+04  0.16047185953E+04 0.  0.
        1    1    3    3  502    0  0.63581780697E+03  0.10383014224E+03 -0.75540371335E+03  0.99281405725E+03  0.50400001928E-02 0. -1.
       -1    1    3    3    0  502 -0.63581780697E+03 -0.10383014224E+03  0.24783016321E+03  0.69026427687E+03  0.50400001928E-02 0.  1.
</event>
<event>
 5   0  0.4373026E-05  0.1602131E+04  0.7818609E-02  0.8819240E-01
        1   -1    0    0  501    0  0.00000000000E+00  0.00000000000E+00  0.11459741353E+04  0.11459741353E+04  0.50400001928E-02 0.  1.
       -1   -1    0    0    0  501  0.00000000000E+00  0.00000000000E+00 -0.55996530507E+03  0.55996530509E+03  0.50400001928E-02 0. -1.
    10030    2    1    2    0    0  0.00000000000E+00  0.00000000000E+00  0.58600883021E+03  0.17059394404E+04  0.16021307765E+04 0.  0.
        4    1    3    3  502    0  0.64717250776E+03  0.34930706405E+03  0.63116073994E+03  0.96913011115E+03  0.12699999809E+01 0. -1.
       -4    1    3    3    0  502 -0.64717250776E+03 -0.34930706405E+03 -0.45151909722E+02  0.73680932923E+03  0.12699999809E+01 0.  1.
</event>
<event>
 5   0  0.4314657E-05  0.1599768E+04  0.7818609E-02  0.8820690E-01
       -1   -1    0    0    0  501  0.00000000000E+00  0.00000000000E+00  0.53683460186E+03  0.53683460189E+03  0.50400001928E-02 0.  1.
        1   -1    0    0  501    0  0.00000000000E+00  0.00000000000E+00 -0.11918281059E+04  0.11918281059E+04  0.50400001928E-02 0. -1.
    10030    2    1    2    0    0  0.00000000000E+00  0.00000000000E+00 -0.65499350402E+03  0.17286627078E+04  0.15997681916E+04 0.  0.
        5    1    3    3  502    0 -0.67236057982E+03 -0.31324992040E+03 -0.40499332270E+01  0.74177675475E+03  0.46999998093E+01 0.  1.
       -5    1    3    3    0  502  0.67236057982E+03  0.31324992040E+03 -0.65094357079E+03  0.98688595303E+03  0.46999998093E+01 0. -1.
</event>
<event>
 5   0  0.7849690E-05  0.1624460E+04  0.7818609E-02  0.8805661E-01
       -2   -1    0    0    0  501  0.00000000000E+00  0.00000000000E+00  0.76563353959E+03  0.76563353959E+03  0.25500000920E-02 0.  1.
        2   -1    0    0  501    0  0.00000000000E+00  0.00000000000E+00 -0.86166222802E+03  0.86166222802E+03  0.25500000920E-02 0. -1.
    10030    2    1    2    0    0  0.00000000000E+00  0.00000000000E+00 -0.96028688434E+02  0.16272957676E+04  0.16244599122E+04 0.  0.
        3    1    3    3  502    0 -0.10242704666E+03 -0.38101726117E+03 -0.75921997114E+03  0.85561698673E+03  0.10100000352E+00 0. -1.
       -3    1    3    3    0  502  0.10242704666E+03  0.38101726117E+03  0.66319128271E+03  0.77167878088E+03  0.10100000352E+00 0.  1.
</event>
<event>
 5   0  0.4504463E-05  0.1598875E+04  0.7818609E-02  0.8821240E-01
        1   -1    0    0  501    0  0.00000000000E+00  0.00000000000E+00  0.80029846460E+03  0.80029846462E+03  0.50400001928E-02 0. -1.
       -1   -1    0    0    0  501  0.00000000000E+00  0.00000000000E+00 -0.79857700549E+03  0.79857700550E+03  0.50400001928E-02 0.  1.
    10030    2    1    2    0    0  0.00000000000E+00  0.00000000000E+00  0.17214591137E+01  0.15988754701E+04  0.15988745434E+04 0.  0.
        1    1    3    3  502    0  0.77285875264E+03  0.14565011694E+03 -0.14258043301E+03  0.79928329646E+03  0.50400001928E-02 0.  1.
       -1    1    3    3    0  502 -0.77285875264E+03 -0.14565011694E+03  0.14430189212E+03  0.79959217367E+03  0.50400001928E-02 0. -1.
</event>
<event>
 5   0  0.8694033E-05  0.1596959E+04  0.7818609E-02  0.8822419E-01
        2   -1    0    0  501    0  0.00000000000E+00  0.00000000000E+00  0.38861700876E+03  0.38861700876E+03  0.25500000920E-02 0.  1.
       -2   -1    0    0    0  501  0.00000000000E+00  0.00000000000E+00 -0.16406105909E+04  0.16406105909E+04  0.25500000920E-02 0. -1.
    10030    2    1    2    0    0  0.00000000000E+00  0.00000000000E+00 -0.12519935822E+04  0.20292275997E+04  0.15969585848E+04 0.  0.
        1    1    3    3  502    0  0.22960334622E+03 -0.82870156918E+02 -0.15920365996E+04  0.16106413921E+04  0.50400001928E-02 0. -1.
       -1    1    3    3    0  502 -0.22960334622E+03  0.82870156918E+02  0.34004301739E+03  0.41858620761E+03  0.50400001928E-02 0.  1.
</event>
<event>
 5   0  0.4373026E-05  0.1601466E+04  0.7818609E-02  0.8819648E-01
        1   -1    0    0  501    0  0.00000000000E+00  0.00000000000E+00  0.12887079166E+04  0.12887079166E+04  0.50400001928E-02 0.  1.
       -1   -1    0    0    0  501  0.00000000000E+00  0.00000000000E+00 -0.49753174010E+03  0.49753174012E+03  0.50400001928E-02 0. -1.
    10030    2    1    2    0    0  0.00000000000E+00  0.00000000000E+00  0.79117617646E+03  0.17862396567E+04  0.16014656940E+04 0.  0.
        4    1    3    3  502    0 -0.77034383421E+03  0.15882969234E+03  0.22822567837E+03  0.81899027298E+03  0.12699999809E+01 0. -1.
       -4    1    3    3    0  502  0.77034383421E+03 -0.15882969234E+03  0.56295049810E+03  0.96724938371E+03  0.12699999809E+01 0.  1.
</event>
<event>
 5   0  0.4314657E-05  0.1596235E+04  0.7818609E-02  0.8822864E-01
        1   -1    0    0  501    0  0.00000000000E+00  0.00000000000E+00  0.84727178875E+03  0.84727178876E+03  0.50400001928E-02 0. -1.
       -1   -1    0    0    0  501  0.00000000000E+00  0.00000000000E+00 -0.75181515856E+03  0.75181515858E+03  0.50400001928E-02 0.  1.
    10030    2    1    2    0    0  0.00000000000E+00  0.00000000000E+00  0.95456630189E+02  0.15990869473E+04  0.15962352887E+04 0.  0.
        5    1    3    3  502    0 -0.63971521683E+03 -0.41555459668E+03 -0.18731501211E+03  0.78551268941E+03  0.46999998093E+01 0. -1.
       -5    1    3    3    0  502  0.63971521683E+03  0.41555459668E+03  0.28277164230E+03  0.81357425792E+03  0.46999998093E+01 0.  1.
</event>
<event>
 5   0  0.4211419E-05  0.1599322E+04  0.7818609E-02  0.8820965E-01
        1   -1    0    0  501    0  0.00000000000E+00  0.00000000000E+00  0.31652132024E+04  0.31652132024E+04  0.50400001928E-02 0.  1.
       -1   -1    0    0    0  501  0.00000000000E+00  0.00000000000E+00 -0.20202670706E+03  0.20202670713E+03  0.50400001928E-02 0. -1.
    10030    2    1    2    0    0  0.00000000000E+00  0.00000000000E+00  0.29631864954E+04  0.33672399095E+04  0.15993218570E+04 0.  0.
        2    1    3    3  502    0  0.18888049077E+03  0.45983915730E+03  0.16283925857E+03  0.52311042287E+03  0.25500000920E-02 0. -1.
       -2    1    3    3    0  502 -0.18888049077E+03 -0.45983915730E+03  0.28003472368E+04  0.28441294867E+04  0.25500000920E-02 0.  1.
</event>
<event>
 5   0  0.4211419E-05  0.1607365E+04  0.7818609E-02  0.8816036E-01
        1   -1    0    0  501    0  0.00000000000E+00  0.00000000000E+00  0.86221786276E+03  0.86221786278E+03  0.50400001928E-02 0.  1.
       -1   -1    0    0    0  501  0.00000000000E+00  0.00000000000E+00 -0.74912130599E+03  0.74912130600E+03  0.50400001928E-02 0. -1.
    10030    2    1    2    0    0  0.00000000000E+00  0.00000000000E+00  0.11309655678E+03  0.16113391688E+04  0.16073652621E+04 0.  0.
        2    1    3    3  502    0 -0.31940183267E+03 -0.51099157965E+03  0.58962969270E+03  0.84308546406E+03  0.25500000920E-02 0.  1.
       -2    1    3    3    0  502  0.31940183267E+03  0.51099157965E+03 -0.47653313592E+03  0.76825370473E+03  0.25500000920E-02 0. -1.
</event>
<event>
 5   0  0.4314657E-05  0.1611390E+04  0.7818609E-02  0.8813581E-01
        1   -1    0    0  501    0  0.00000000000E+00  0.00000000000E+00  0.68076839576E+03  0.68076839578E+03  0.50400001928E-02 0. -1.
       -1   -1    0    0    0  501  0.00000000000E+00  0.00000000000E+00 -0.95354663066E+03  0.95354663067E+03  0.50400001928E-02 0.  1.
    10030    2    1    2    0    0  0.00000000000E+00  0.00000000000E+00 -0.27277823489E+03  0.16343150265E+04  0.16113899715E+04 0.  0.
        5    1    3    3  502    0 -0.51553373592E+03 -0.17876633324E+03  0.46482579664E+03  0.71681067654E+03  0.46999998093E+01 0. -1.
       -5    1    3    3    0  502  0.51553373592E+03  0.17876633324E+03 -0.73760403154E+03  0.91750434991E+03  0.46999998093E+01 0.  1.
</event>
<event>
 5   0  0.7901257E-05  0.1599230E+04  0.7818609E-02  0.8821021E-01
       -2   -1    0    0    0  501  0.00000000000E+00  0.00000000000E+00  0.50570164131E+03  0.50570164131E+03  0.25500000920E-02 0. -1.
        2   -1    0    0  501    0  0.00000000000E+00  0.00000000000E+00 -0.12643507684E+04  0.12643507684E+04  0.25500000920E-02 0.  1.
    10030    2    1    2    0    0  0.00000000000E+00  0.00000000000E+00 -0.75864912707E+03  0.17700524097E+04  0.15992301382E+04 0.  0.
        2    1    3    3  502    0 -0.37510451174E+03  0.21089590204E+03 -0.11252587874E+04  0.12047355788E+04  0.25500000920E-02 0.  1.
       -2    1    3    3    0  502  0.37510451174E+03 -0.21089590204E+03  0.36660966033E+03  0.56531683088E+03  0.25500000920E-02 0. -1.
</event>
<event>
 5   0  0.4373026E-05  0.1597718E+04  0.7818609E-02  0.8821951E-01
       -1   -1    0    0    0  501  0.00000000000E+00  0.00000000000E+00  0.66014664091E+03  0.66014664093E+03  0.50400001928E-02 0. -1.
        1   -1    0    0  501    0  0.00000000000E+00  0.00000000000E+00 -0.96671844542E+03  0.96671844543E+03  0.50400001928E-02 0.  1.
    10030    2    1    2    0    0  0.00000000000E+00  0.00000000000E+00 -0.30657180450E+03  0.16268650864E+04  0.15977182912E+04 0.  0.
        4    1    3    3  502    0  0.77832785360E+03  0.10814808440E+03 -0.29972912793E+03  0.84102878600E+03  0.12699999809E+01 0.  1.
       -4    1    3    3    0  502 -0.77832785360E+03 -0.10814808440E+03 -0.68426765715E+01  0.78583630037E+03  0.12699999809E+01 0. -1.
</event>
<event>
 5   0  0.4504463E-05  0.1580660E+04  0.7818609E-02  0.8832518E-01
       -1   -1    0    0    0  501  0.00000000000E+00  0.00000000000E+00  0.25615027335E+03  0.25615027340E+03  0.50400001928E-02 0. -1.
        1   -1    0    0  501    0  0.00000000000E+00  0.00000000000E+00 -0.24384976714E+04  0.24384976714E+04  0.50400001928E-02 0.  1.
    10030    2    1    2    0    0  0.00000000000E+00  0.00000000000E+00 -0.21823473980E+04  0.26946479448E+04  0.15806604255E+04 0.  0.
        1    1    3    3  502    0  0.73351279281E+03  0.23463738717E+03 -0.78848323049E+03  0.11021803507E+04  0.50400001928E-02 0. -1.
       -1    1    3    3    0  502 -0.73351279281E+03 -0.23463738717E+03 -0.13938641676E+04  0.15924675941E+04  0.50400001928E-02 0.  1.
</event>
<event>
 5   0  0.4504463E-05  0.1600044E+04  0.7818609E-02  0.8820521E-01
        1   -1    0    0  501    0  0.00000000000E+00  0.00000000000E+00  0.11198125565E+04  0.11198125565E+04  0.50400001928E-02 0.  1.
       -1   -1    0    0    0  501  0.00000000000E+00  0.00000000000E+00 -0.57155565280E+03  0.57155565283E+03  0.50400001928E-02 0. -1.
    10030    2    1    2    0    0  0.00000000000E+00  0.00000000000E+00  0.54825690369E+03  0.16913682093E+04  0.16000439954E+04 0.  0.
        1    1    3    3  502    0  0.47112833604E+03  0.10916724142E+03 -0.39954986518E+03  0.62731131858E+03  0.50400001928E-02 0. -1.
       -1    1    3    3    0  502 -0.47112833604E+03 -0.10916724142E+03  0.94780676887E+03  0.10640568908E+04  0.50400001928E-02 0.  1.
</event>
<event>
 5   0  0.8620155E-05  0.1597589E+04  0.7818609E-02  0.8822031E-01
       -2   -1    0    0    0  501  0.00000000000E+00  0.00000000000E+00  0.81387910590E+03  0.81387910590E+03  0.25500000920E-02 0.  1.
        2   -1    0    0  501    0  0.00000000000E+00  0.00000000000E+00 -0.78398953923E+03  0.78398953924E+03  0.25500000920E-02 0. -1.
    10030    2    1    2    0    0  0.00000000000E+00  0.00000000000E+00  0.29889566665E+02  0.15978686451E+04  0.15975890651E+04 0.  0.
        4    1    3    3  502    0  0.58994668777E+03  0.33385456370E+03 -0.40771067377E+03  0.79102817302E+03  0.12699999809E+01 0. -1.
       -4    1    3    3    0  502 -0.58994668777E+03 -0.33385456370E+03  0.43760024043E+03  0.80684047211E+03  0.12699999809E+01 0.  1.
</event>
<event>
 5   0  0.4256406E-05  0.1602429E+04  0.7818609E-02  0.8819057E-01
        1   -1    0    0  501    0  0.00000000000E+00  0.00000000000E+00  0.25555025924E+04  0.25555025924E+04  0.50400001928E-02 0.  1.
       -1   -1    0    0    0  501  0.00000000000E+00  0.00000000000E+00 -0.25120097202E+03  0.25120097207E+03  0.50400001928E-02 0. -1.
    10030    2    1    2    0    0  0.00000000000E+00  0.00000000000E+00  0.23043016204E+04  0.28067035645E+04  0.16024290752E+04 0.  0.
        3    1    3    3  502    0  0.74112933112E+03  0.29205948839E+03  0.10017505695E+04  0.12798732921E+04  0.10100000352E+00 0. -1.
       -3    1    3    3    0  502 -0.74112933112E+03 -0.29205948839E+03  0.13025510509E+04  0.15268302724E+04  0.10100000352E+00 0.  1.
</event>
<event>
 5   0  0.8620155E-05  0.1598006E+04  0.7818609E-02  0.8821774E-01
        2   -1    0    0  501    0  0.00000000000E+00  0.00000000000E+00  0.12293097972E+04  0.12293097972E+04  0.25500000920E-02 0. -1.
       -2   -1    0    0    0  501  0.00000000000E+00  0.00000000000E+00 -0.51932043192E+03  0.51932043192E+03  0.25500000920E-02 0.  1.
    10030    2    1    2    0    0  0.00000000000E+00  0.00000000000E+00  0.70998936523E+03  0.17486302291E+04  0.15980058759E+04 0.  0.
        4    1    3    3  502    0  0.91476403243E+02  0.75758763516E+03  0.95821590260E+02  0.76908409641E+03  0.12699999809E+01 0.  1.
       -4    1    3    3    0  502 -0.91476403243E+02 -0.75758763516E+03  0.61416777497E+03  0.97954613266E+03  0.12699999809E+01 0. -1.
</event>
<event>
 5   0  0.7849690E-05  0.1605499E+04  0.7818609E-02  0.8817177E-01
       -2   -1    0    0    0  501  0.00000000000E+00  0.00000000000E+00  0.53062117062E+03  0.53062117063E+03  0.25500000920E-02 0.  1.
        2   -1    0    0  501    0  0.00000000000E+00  0.00000000000E+00 -0.12144386016E+04  0.12144386016E+04  0.25500000920E-02 0. -1.
    10030    2    1    2    0    0  0.00000000000E+00  0.00000000000E+00 -0.68381743098E+03  0.17450597722E+04  0.16054990905E+04 0.  0.
        3    1    3    3  502    0 -0.11633078006E+03 -0.14197473609E+03 -0.11913244466E+04  0.12053811112E+04  0.10100000352E+00 0. -1.
       -3    1    3    3    0  502  0.11633078006E+03  0.14197473609E+03  0.50750701559E+03  0.53967866101E+03  0.10100000352E+00 0.  1.
</event>
<event>
 5   0  0.8694033E-05  0.1600473E+04  0.7818609E-02  0.8820258E-01
       -2   -1    0    0    0  501  0.00000000000E+00  0.00000000000E+00  0.10376084921E+04  0.10376084921E+04  0.25500000920E-02 0. -1.
        2   -1    0    0  501    0  0.00000000000E+00  0.00000000000E+00 -0.61716739100E+03  0.61716739101E+03  0.25500000920E-02 0.  1.
    10030    2    1    2    0    0  0.00000000000E+00  0.00000000000E+00  0.42044110108E+03  0.16547758831E+04  0.16004725876E+04 0.  0.
        1    1    3    3  502    0  0.37570072409E+02 -0.74196651450E+03 -0.97279736036E+02  0.74925907806E+03  0.50400001928E-02 0.  1.
       -1    1    3    3    0  502 -0.37570072409E+02  0.74196651450E+03  0.51772083712E+03  0.90551680503E+03  0.50400001928E-02 0. -1.
</event>
<event>
 5   0  0.8620155E-05  0.1599711E+04  0.7818609E-02  0.8820726E-01
        2   -1    0    0  501    0  0.00000000000E+00  0.00000000000E+00  0.12969984763E+04  0.12969984763E+04  0.25500000920E-02 0.  1.
       -2   -1    0    0    0  501  0.00000000000E+00  0.00000000000E+00 -0.49326879601E+03  0.49326879602E+03  0.25500000920E-02 0. -1.
    10030    2    1    2    0    0  0.00000000000E+00  0.00000000000E+00  0.80372968033E+03  0.17902672724E+04  0.15997110700E+04 0.  0.
        4    1    3    3  502    0 -0.60375026083E+03  0.18051947800E+03  0.95315524568E+03  0.11426321344E+04  0.12699999809E+01 0.  1.
       -4    1    3    3    0  502  0.60375026083E+03 -0.18051947800E+03 -0.14942556535E+03  0.64763513792E+03  0.12699999809E+01 0. -1.
</event>
<event>
 5   0  0.4256406E-05  0.1602182E+04  0.7818609E-02  0.8819209E-01
       -1   -1    0    0    0  501  0.00000000000E+00  0.00000000000E+00  0.44289708804E+03  0.44289708807E+03  0.50400001928E-02 0.  1.
        1   -1    0    0  501    0  0.00000000000E+00  0.00000000000E+00 -0.14489750769E+04  0.14489750769E+04  0.50400001928E-02 0. -1.
    10030    2    1    2    0    0  0.00000000000E+00  0.00000000000E+00 -0.10060779889E+04  0.18918721650E+04  0.16021820649E+04 0.  0.
        3    1    3    3  502    0  0.14982829862E+03  0.11191589317E+03  0.41676035393E+03  0.45679633210E+03  0.10100000352E+00 0.  1.
       -3    1    3    3    0  502 -0.14982829862E+03 -0.11191589317E+03 -0.14228383428E+04  0.14350758329E+04  0.10100000352E+00 0. -1.
</event>
<event>
 5   0  0.7849690E-05  0.1602756E+04  0.7818609E-02  0.8818856E-01
       -2   -1    0    0    0  501  0.00000000000E+00  0.00000000000E+00  0.42879720275E+03  0.42879720276E+03  0.25500000920E-02 0. -1.
        2   -1    0    0  501    0  0.00000000000E+00  0.00000000000E+00 -0.14976941847E+04  0.14976941847E+04  0.25500000920E-02 0.  1.
    10030    2    1    2    0    0  0.00000000000E+00  0.00000000000E+00 -0.10688969819E+04  0.19264913874E+04  0.16027564718E+04 0.  0.
        3    1    3    3  502    0 -0.31607987781E+03 -0.43693140493E+03  0.17806841606E+03  0.56791188821E+03  0.10100000352E+00 0. -1.
       -3    1    3    3    0  502  0.31607987781E+03  0.43693140493E+03 -0.12469653980E+04  0.13585794992E+04  0.10100000352E+00 0.  1.
</event>
<event>
 5   0  0.4256406E-05  0.1599300E+04  0.7818609E-02  0.8820978E-01
        1   -1    0    0  501    0  0.00000000000E+00  0.00000000000E+00  0.12372315563E+04  0.12372315563E+04  0.50400001928E-02 0.  1.
       -1   -1    0    0    0  501  0.00000000000E+00  0.00000000000E+00 -0.51683145211E+03  0.51683145213E+03  0.50400001928E-02 0. -1.
    10030    2    1    2    0    0  0.00000000000E+00  0.00000000000E+00  0.72040010418E+03  0.17540630084E+04  0.15993000742E+04 0.  0.
        3    1    3    3  502    0  0.45995555468E+03  0.15850223018E+03 -0.33584503975E+03  0.59116323480E+03  0.10100000352E+00 0. -1.
       -3    1    3    3    0  502 -0.45995555468E+03 -0.15850223018E+03  0.10562451439E+04  0.11628997736E+04  0.10100000352E+00 0.  1.
</event>
<event>
 5   0  0.8620155E-05  0.1601721E+04  0.7818609E-02  0.8819491E-01
       -2   -1    0    0    0  501  0.00000000000E+00  0.00000000000E+00  0.10237810780E+04  0.10237810780E+04  0.25500000920E-02 0.  1.
        2   -1    0    0  501    0  0.00000000000E+00  0.00000000000E+00 -0.62647931152E+03  0.62647931153E+03  0.25500000920E-02 0. -1.
    10030    2    1    2    0    0  0.00000000000E+00  0.00000000000E+00  0.39730176647E+03  0.16502603895E+04  0.16017211554E+04 0.  0.
        4    1    3    3  502    0  0.51154570334E+03  0.59441949112E+02  0.83055910457E+03  0.97726270317E+03  0.12699999809E+01 0.  1.
       -4    1    3    3    0  502 -0.51154570334E+03 -0.59441949112E+02 -0.43325733810E+03  0.67299768635E+03  0.12699999809E+01 0. -1.
</event>
<event>
 5   0  0.7901257E-05  0.1598104E+04  0.7818609E-02  0.8821714E-01
        2   -1    0    0  501    0  0.00000000000E+00  0.00000000000E+00  0.10478636622E+04  0.10478636622E+04  0.25500000920E-02 0.  1.
       -2   -1    0    0    0  501  0.00000000000E+00  0.00000000000E+00 -0.60931960087E+03  0.60931960087E+03  0.25500000920E-02 0. -1.
    10030    2    1    2    0    0  0.00000000000E+00  0.00000000000E+00  0.43854406137E+03  0.16571832631E+04  0.15981037118E+04 0.  0.
        2    1    3    3  502    0 -0.54353704781E+03  0.32007191646E+03  0.72792102017E+03  0.96319653533E+03  0.25500000920E-02 0.  1.
       -2    1    3    3    0  502  0.54353704781E+03 -0.32007191646E+03 -0.28937695880E+03  0.69398672779E+03  0.25500000920E-02 0. -1.
</event>
<event>
 5   0  0.8694033E-05  0.1599152E+04  0.7818609E-02  0.8821069E-01
       -2   -1    0    0    0  501  0.00000000000E+00  0.00000000000E+00  0.11543217566E+04  0.11543217566E+04  0.25500000920E-02 0. -1.
        2   -1    0    0  501    0  0.00000000000E+00  0.00000000000E+00 -0.55385053603E+03  0.55385053604E+03  0.25500000920E-02 0.  1.
    10030    2    1    2    0    0  0.00000000000E+00  0.00000000000E+00  0.60047122059E+03  0.17081722927E+04  0.15991519298E+04 0.  0.
        1    1    3    3  502    0 -0.70706805158E+03 -0.15327780256E+03  0.66385807369E+03  0.98190980052E+03  0.50400001928E-02 0. -1.
       -1    1    3    3    0  502  0.70706805158E+03  0.15327780256E+03 -0.63386853104E+02  0.72626249214E+03  0.50400001928E-02 0.  1.
</event>
<event>
 5   0  0.7849690E-05  0.1603181E+04  0.7818609E-02  0.8818596E-01
        2   -1    0    0  501    0  0.00000000000E+00  0.00000000000E+00  0.93088910928E+03  0.93088910928E+03  0.25500000920E-02 0.  1.
       -2   -1    0    0    0  501  0.00000000000E+00  0.00000000000E+00 -0.69025090437E+03  0.69025090438E+03  0.25500000920E-02 0. -1.
    10030    2    1    2    0    0  0.00000000000E+00  0.00000000000E+00  0.24063820491E+03  0.16211400137E+04  0.16031806505E+04 0.  0.
        3    1    3    3  502    0  0.34942703600E+02  0.76549704708E+03 -0.11756142181E+03  0.77525958216E+03  0.10100000352E+00 0. -1.
       -3    1    3    3    0  502 -0.34942703600E+02 -0.76549704708E+03  0.35819962671E+03  0.84588043151E+03  0.10100000352E+00 0.  1.
</event>
<event>
 5   0  0.7901257E-05  0.1603755E+04  0.7818609E-02  0.8818245E-01
        2   -1    0    0  501    0  0.00000000000E+00  0.00000000000E+00  0.16456054875E+04  0.16456054875E+04  0.25500000920E-02 0. -1.
       -2   -1    0    0    0  501  0.00000000000E+00  0.00000000000E+00 -0.39074204988E+03  0.39074204988E+03  0.25500000920E-02 0.  1.
    10030    2    1    2    0    0  0.00000000000E+00  0.00000000000E+00  0.12548634376E+04  0.20363475373E+04  0.16037546713E+04 0.  0.
        2    1    3    3  502    0 -0.15957574206E+03 -0.55570673989E+03 -0.78081890519E+02  0.58341338676E+03  0.25500000920E-02 0.  1.
       -2    1    3    3    0  502  0.15957574206E+03  0.55570673989E+03  0.13329453281E+04  0.14529341506E+04  0.25500000920E-02 0. -1.
</event>
<event>
 5   0  0.4211419E-05  0.1600577E+04  0.7818609E-02  0.8820194E-01
        1   -1    0    0  501    0  0.00000000000E+00  0.00000000000E+00  0.40064109899E+03  0.40064109902E+03  0.50400001928E-02 0.  1.
       -1   -1    0    0    0  501  0.00000000000E+00  0.00000000000E+00 -0.15985911065E+04  0.15985911065E+04  0.50400001928E-02 0. -1.
    10030    2    1    2    0    0  0.00000000000E+00  0.00000000000E+00 -0.11979500075E+04  0.19992322056E+04  0.16005765184E+04 0.  0.
        2    1    3    3  502    0  0.72273353132E+03  0.14565163679E+03 -0.21014862051E+03  0.76662937544E+03  0.25500000920E-02 0.  1.
       -2    1    3    3    0  502 -0.72273353132E+03 -0.14565163679E+03 -0.98780138703E+03  0.12326028301E+04  0.25500000920E-02 0. -1.
</event>
<event>
 5   0  0.4211419E-05  0.1601979E+04  0.7818609E-02  0.8819333E-01
       -1   -1    0    0    0  501  0.00000000000E+00  0.00000000000E+00  0.67583503527E+03  0.67583503529E+03  0.50400001928E-02 0.  1.
        1   -1    0    0  501    0  0.00000000000E+00  0.00000000000E+00 -0.94932098743E+03  0.94932098745E+03  0.50400001928E-02 0. -1.
    10030    2    1    2    0    0  0.00000000000E+00  0.00000000000E+00 -0.27348595216E+03  0.16251560227E+04  0.16019792546E+04 0.  0.
        2    1    3    3  502    0  0.43005283601E+03 -0.43095408826E+03 -0.66477068792E+03  0.90143604070E+03  0.25500000920E-02 0. -1.
       -2    1    3    3    0  502 -0.43005283601E+03  0.43095408826E+03  0.39128473575E+03  0.72371998203E+03  0.25500000920E-02 0.  1.
</event>
<event>
 5   0  0.4373026E-05  0.1598224E+04  0.7818609E-02  0.8821640E-01
        1   -1    0    0  501    0  0.00000000000E+00  0.00000000000E+00  0.16756497433E+04  0.16756497433E+04  0.50400001928E-02 0.  1.
       -1   -1    0    0    0  501  0.00000000000E+00  0.00000000000E+00 -0.38109385679E+03  0.38109385682E+03  0.50400001928E-02 0. -1.
    10030    2    1    2    0    0  0.00000000000E+00  0.00000000000E+00  0.12945558865E+04  0.20567436001E+04  0.15982237933E+04 0.  0.
        4    1    3    3  502    0  0.56578290119E+03 -0.98088179566E+02 -0.67899807254E+02  0.57822450568E+03  0.12699999809E+01 0. -1.
       -4    1    3    3    0  502 -0.56578290119E+03  0.98088179566E+02  0.13624556937E+04  0.14785190944E+04  0.12699999809E+01 0.  1.
</event>
<event>
 5   0  0.4314657E-05  0.1611707E+04  0.7818609E-02  0.8813388E-01
        1   -1    0    0  501    0  0.00000000000E+00  0.00000000000E+00  0.50808670681E+03  0.50808670684E+03  0.50400001928E-02 0. -1.
       -1   -1    0    0    0  501  0.00000000000E+00  0.00000000000E+00 -0.12781283597E+04  0.12781283597E+04  0.50400001928E-02 0.  1.
    10030    2    1    2    0    0  0.00000000000E+00  0.00000000000E+00 -0.77004165288E+03  0.17862150665E+04  0.16117072057E+04 0.  0.
        5    1    3    3  502    0  0.45696005440E+02 -0.32447299572E+03 -0.12009455335E+04  0.12448546559E+04  0.46999998093E+01 0.  1.
       -5    1    3    3    0  502 -0.45696005440E+02  0.32447299572E+03  0.43090388063E+03  0.54136041064E+03  0.46999998093E+01 0. -1.
</event>
<event>
 5   0  0.4314657E-05  0.1602695E+04  0.7818609E-02  0.8818894E-01
        1   -1    0    0  501    0  0.00000000000E+00  0.00000000000E+00  0.11743112334E+04  0.11743112334E+04  0.50400001928E-02 0.  1.
       -1   -1    0    0    0  501  0.00000000000E+00  0.00000000000E+00 -0.54683758144E+03  0.54683758146E+03  0.50400001928E-02 0. -1.
    10030    2    1    2    0    0  0.00000000000E+00  0.00000000000E+00  0.62747365196E+03  0.17211488149E+04  0.16026946244E+04 0.  0.
        5    1    3    3  502    0 -0.23755982616E+02  0.30074459742E+01  0.11739121297E+04  0.11741657335E+04  0.46999998093E+01 0.  1.
       -5    1    3    3    0  502  0.23755982616E+02 -0.30074459742E+01 -0.54643847770E+03  0.54698308142E+03  0.46999998093E+01 0. -1.
</event>
<event>
 5   0  0.7849690E-05  0.1594558E+04  0.7818609E-02  0.8823898E-01
        2   -1    0    0  501    0  0.00000000000E+00  0.00000000000E+00  0.14085822852E+04  0.14085822852E+04  0.25500000920E-02 0.  1.
       -2   -1    0    0    0  501  0.00000000000E+00  0.00000000000E+00 -0.45127209909E+03  0.45127209909E+03  0.25500000920E-02 0. -1.
    10030    2    1    2    0    0  0.00000000000E+00  0.00000000000E+00  0.95731018607E+03  0.18598543843E+04  0.15945581013E+04 0.  0.
        3    1    3    3  502    0 -0.74194581297E+03 -0.40004079408E+02  0.14147363209E+03  0.75637207413E+03  0.10100000352E+00 0.  1.
       -3    1    3    3    0  502  0.74194581297E+03  0.40004079408E+02  0.81583655399E+03  0.11034823101E+04  0.10100000352E+00 0. -1.
</event>
<event>
 5   0  0.7849690E-05  0.1601477E+04  0.7818609E-02  0.8819641E-01
       -2   -1    0    0    0  501  0.00000000000E+00  0.00000000000E+00  0.27430484769E+03  0.27430484771E+03  0.25500000920E-02 0. -1.
        2   -1    0    0  501    0  0.00000000000E+00  0.00000000000E+00 -0.23374795894E+04  0.23374795894E+04  0.25500000920E-02 0.  1.
    10030    2    1    2    0    0  0.00000000000E+00  0.00000000000E+00 -0.20631747417E+04  0.26117844371E+04  0.16014767969E+04 0.  0.
        3    1    3    3  502    0  0.20025012303E+03 -0.46905709733E+03 -0.24846916276E+02  0.51061928262E+03  0.10100000352E+00 0. -1.
       -3    1    3    3    0  502 -0.20025012303E+03  0.46905709733E+03 -0.20383278254E+04  0.21011651545E+04  0.10100000352E+00 0.  1.
</event>
<event>
 5   0  0.4314657E-05  0.1596686E+04  0.7818609E-02  0.8822587E-01
        1   -1    0    0  501    0  0.00000000000E+00  0.00000000000E+00  0.94128720318E+03  0.94128720319E+03  0.50400001928E-02 0.  1.
       -1   -1    0    0    0  501  0.00000000000E+00  0.00000000000E+00 -0.67710605290E+03  0.67710605291E+03  0.50400001928E-02 0. -1.
    10030    2    1    2    0    0  0.00000000000E+00  0.00000000000E+00  0.26418115028E+03  0.16183932561E+04  0.15966856457E+04 0.  0.
        5    1    3    3  502    0 -0.74224402010E+03  0.27991378345E+03  0.22303929680E+03  0.82404279589E+03  0.46999998093E+01 0. -1.
       -5    1    3    3    0  502  0.74224402010E+03 -0.27991378345E+03  0.41141853476E+02  0.79435046021E+03  0.46999998093E+01 0.  1.
</event>
<event>
 5   0  0.8694033E-05  0.1602190E+04  0.7818609E-02  0.8819204E-01
        2   -1    0    0  501    0  0.00000000000E+00  0.00000000000E+00  0.87431210174E+03  0.87431210174E+03  0.25500000920E-02 0. -1.
       -2   -1    0    0    0  501  0.00000000000E+00  0.00000000000E+00 -0.73400956450E+03  0.73400956450E+03  0.25500000920E-02 0.  1.
    10030    2    1    2    0    0  0.00000000000E+00  0.00000000000E+00  0.14030253724E+03  0.16083216662E+04  0.16021903071E+04 0.  0.
        1    1    3    3  502    0  0.76451298509E+03 -0.30725637871E+02 -0.16809488420E+03  0.78337734159E+03  0.50400001928E-02 0.  1.
       -1    1    3    3    0  502 -0.76451298509E+03  0.30725637871E+02  0.30839742145E+03  0.82494432465E+03  0.50400001928E-02 0. -1.
</event>
<event>
 5   0  0.4211419E-05  0.1598115E+04  0.7818609E-02  0.8821707E-01
        1   -1    0    0  501    0  0.00000000000E+00  0.00000000000E+00  0.12569851138E+04  0.12569851138E+04  0.50400001928E-02 0.  1.
       -1   -1    0    0    0  501  0.00000000000E+00  0.00000000000E+00 -0.50795578150E+03  0.50795578152E+03  0.50400001928E-02 0. -1.
    10030    2    1    2    0    0  0.00000000000E+00  0.00000000000E+00  0.74902933227E+03  0.17649408953E+04  0.15981149594E+04 0.  0.
        2    1    3    3  502    0 -0.49879471536E+03 -0.62032093400E+03  0.29721825732E+03  0.84966635906E+03  0.25500000920E-02 0.  1.
       -2    1    3    3    0  502  0.49879471536E+03  0.62032093400E+03  0.45181107495E+03  0.91527453624E+03  0.25500000920E-02 0. -1.
</event>
<event>
 5   0  0.7849690E-05  0.1600917E+04  0.7818609E-02  0.8819985E-01
        2   -1    0    0  501    0  0.00000000000E+00  0.00000000000E+00  0.62784766134E+03  0.62784766134E+03  0.25500000920E-02 0.  1.
       -2   -1    0    0    0  501  0.00000000000E+00  0.00000000000E+00 -0.10205237294E+04  0.10205237295E+04  0.25500000920E-02 0. -1.
    10030    2    1    2    0    0  0.00000000000E+00  0.00000000000E+00 -0.39267606811E+03  0.16483713908E+04  0.16009165336E+04 0.  0.
        3    1    3    3  502    0  0.69590178501E+03  0.39074079366E+03 -0.25960672172E+03  0.83925760192E+03  0.10100000352E+00 0. -1.
       -3    1    3    3    0  502 -0.69590178501E+03 -0.39074079366E+03 -0.13306934639E+03  0.80911378888E+03  0.10100000352E+00 0.  1.
</event>
<event>
 5   0  0.8620155E-05  0.1598774E+04  0.7818609E-02  0.8821301E-01
        2   -1    0    0  501    0  0.00000000000E+00  0.00000000000E+00  0.62084563962E+03  0.62084563963E+03  0.25500000920E-02 0. -1.
       -2   -1    0    0    0  501  0.00000000000E+00  0.00000000000E+00 -0.10292731076E+04  0.10292731076E+04  0.25500000920E-02 0.  1.
    10030    2    1    2    0    0  0.00000000000E+00  0.00000000000E+00 -0.40842746794E+03  0.16501187472E+04  0.15987741815E+04 0.  0.
        4    1    3    3  502    0 -0.34567588519E+03  0.44047073809E+02 -0.94675294734E+03  0.10088482138E+04  0.12699999809E+01 0.  1.
       -4    1    3    3    0  502  0.34567588519E+03 -0.44047073809E+02  0.53832547940E+03  0.64127053338E+03  0.12699999809E+01 0. -1.
</event>
<event>
 5   0  0.8037548E-05  0.1599057E+04  0.7818609E-02  0.8821127E-01
        2   -1    0    0  501    0  0.00000000000E+00  0.00000000000E+00  0.13613569827E+04  0.13613569827E+04  0.25500000920E-02 0.  1.
       -2   -1    0    0    0  501  0.00000000000E+00  0.00000000000E+00 -0.46956542805E+03  0.46956542806E+03  0.25500000920E-02 0. -1.
    10030    2    1    2    0    0  0.00000000000E+00  0.00000000000E+00  0.89179155468E+03  0.18309224108E+04  0.15990574403E+04 0.  0.
        5    1    3    3  502    0 -0.38309375560E+03 -0.30232926933E+03  0.11710171365E+04  0.12686477197E+04  0.46999998093E+01 0.  1.
       -5    1    3    3    0  502  0.38309375560E+03  0.30232926933E+03 -0.27922558185E+03  0.56227469108E+03  0.46999998093E+01 0. -1.
</event>
<event>
 5   0  0.4504463E-05  0.1600080E+04  0.7818609E-02  0.8820499E-01
        1   -1    0    0  501    0  0.00000000000E+00  0.00000000000E+00  0.16581234578E+04  0.16581234578E+04  0.50400001928E-02 0.  1.
       -1   -1    0    0    0  501  0.00000000000E+00  0.00000000000E+00 -0.38601731800E+03  0.38601731803E+03  0.50400001928E-02 0. -1.
    10030    2    1    2    0    0  0.00000000000E+00  0.00000000000E+00  0.12721061398E+04  0.20441407758E+04  0.16000804606E+04 0.  0.
        1    1    3    3  502    0 -0.19483158119E+03 -0.35990217043E+03  0.15142755692E+04  0.15686042894E+04  0.50400001928E-02 0.  1.
       -1    1    3    3    0  502  0.19483158119E+03  0.35990217043E+03 -0.24216942943E+03  0.47553648639E+03  0.50400001928E-02 0. -1.
</event>
<event>
 5   0  0.4256406E-05  0.1600411E+04  0.7818609E-02  0.8820296E-01
       -1   -1    0    0    0  501  0.00000000000E+00  0.00000000000E+00  0.10452653582E+04  0.10452653582E+04  0.50400001928E-02 0.  1.
        1   -1    0    0  501    0  0.00000000000E+00  0.00000000000E+00 -0.61259918697E+03  0.61259918699E+03  0.50400001928E-02 0. -1.
    10030    2    1    2    0    0  0.00000000000E+00  0.00000000000E+00  0.43266617118E+03  0.16578645452E+04  0.16004108330E+04 0.  0.
        3    1    3    3  502    0 -0.20250099031E+03  0.36833975624E+02  0.10173755786E+04  0.10379867393E+04  0.10100000352E+00 0.  1.
       -3    1    3    3    0  502  0.20250099031E+03 -0.36833975624E+02 -0.58470940743E+03  0.61987780584E+03  0.10100000352E+00 0. -1.
</event>
<event>
 5   0  0.4373026E-05  0.1597261E+04  0.7818609E-02  0.8822232E-01
        1   -1    0    0  501    0  0.00000000000E+00  0.00000000000E+00  0.96461982405E+03  0.96461982406E+03  0.50400001928E-02 0.  1.
       -1   -1    0    0    0  501  0.00000000000E+00  0.00000000000E+00 -0.66120419076E+03  0.66120419078E+03  0.50400001928E-02 0. -1.
    10030    2    1    2    0    0  0.00000000000E+00  0.00000000000E+00  0.30341563328E+03  0.16258240148E+04  0.15972609933E+04 0.  0.
        4    1    3    3  502    0  0.39045388807E+03 -0.70399030635E+02  0.85721039129E+03  0.94457478797E+03  0.12699999809E+01 0.  1.
       -4    1    3    3    0  502 -0.39045388807E+03  0.70399030635E+02 -0.55379475801E+03  0.68124922688E+03  0.12699999809E+01 0. -1.
</event>
<event>
 5   0  0.4314657E-05  0.1601630E+04  0.7818609E-02  0.8819547E-01
       -1   -1    0    0    0  501  0.00000000000E+00  0.00000000000E+00  0.52003837877E+03  0.52003837880E+03  0.50400001928E-02 0. -1.
        1   -1    0    0  501    0  0.00000000000E+00  0.00000000000E+00 -0.12331874112E+04  0.12331874113E+04  0.50400001928E-02 0.  1.
    10030    2    1    2    0    0  0.00000000000E+00  0.00000000000E+00 -0.71314903247E+03  0.17532257901E+04  0.16016301472E+04 0.  0.
        5    1    3    3  502    0  0.31739549448E+03 -0.70398334869E+03 -0.58865659637E+03  0.97101551666E+03  0.46999998093E+01 0.  1.
       -5    1    3    3    0  502 -0.31739549448E+03  0.70398334869E+03 -0.12449243611E+03  0.78221027339E+03  0.46999998093E+01 0. -1.
</event>
<event>
 5   0  0.7849690E-05  0.1599460E+04  0.7818609E-02  0.8820880E-01
       -2   -1    0    0    0  501  0.00000000000E+00  0.00000000000E+00  0.56958509732E+03  0.56958509732E+03  0.25500000920E-02 0.  1.
        2   -1    0    0  501    0  0.00000000000E+00  0.00000000000E+00 -0.11228667330E+04  0.11228667330E+04  0.25500000920E-02 0. -1.
    10030    2    1    2    0    0  0.00000000000E+00  0.00000000000E+00 -0.55328163572E+03  0.16924518304E+04  0.15994601057E+04 0.  0.
        3    1    3    3  502    0  0.54385108627E+01 -0.18596089297E+03  0.54636934768E+03  0.57717458832E+03  0.10100000352E+00 0.  1.
       -3    1    3    3    0  502 -0.54385108627E+01  0.18596089297E+03 -0.10996509834E+04  0.11152772420E+04  0.10100000352E+00 0. -1.
</event>
<event>
 5   0  0.4211419E-05  0.1600993E+04  0.7818609E-02  0.8819938E-01
        1   -1    0    0  501    0  0.00000000000E+00  0.00000000000E+00  0.51972663232E+03  0.51972663234E+03  0.50400001928E-02 0.  1.
       -1   -1    0    0    0  501  0.00000000000E+00  0.00000000000E+00 -0.12329458638E+04  0.12329458638E+04  0.50400001928E-02 0. -1.
    10030    2    1    2    0    0  0.00000000000E+00  0.00000000000E+00 -0.71321923144E+03  0.17526724961E+04  0.16009931938E+04 0.  0.
        2    1    3    3  502    0  0.75308579966E+03  0.25792084296E+03 -0.26414828381E+03  0.83871073603E+03  0.25500000920E-02 0.  1.
       -2    1    3    3    0  502 -0.75308579966E+03 -0.25792084296E+03 -0.44907094762E+03  0.91396176008E+03  0.25500000920E-02 0. -1.
</event>
<event>
 5   0  0.4373026E-05  0.1600939E+04  0.7818609E-02  0.8819971E-01
        1   -1    0    0  501    0  0.00000000000E+00  0.00000000000E+00  0.96354936533E+03  0.96354936534E+03  0.50400001928E-02 0. -1.
       -1   -1    0    0    0  501  0.00000000000E+00  0.00000000000E+00 -0.66499099240E+03  0.66499099242E+03  0.50400001928E-02 0.  1.
    10030    2    1    2    0    0  0.00000000000E+00  0.00000000000E+00  0.29855837293E+03  0.16285403578E+04  0.16009392852E+04 0.  0.
        4    1    3    3  502    0  0.10440999918E+03 -0.51880044886E+03  0.76021211457E+03  0.92627178824E+03  0.12699999809E+01 0. -1.
       -4    1    3    3    0  502 -0.10440999918E+03  0.51880044886E+03 -0.46165374163E+03  0.70226856951E+03  0.12699999809E+01 0.  1.
</event>
<event>
 5   0  0.4256406E-05  0.1616775E+04  0.7818609E-02  0.8810308E-01
        1   -1    0    0  501    0  0.00000000000E+00  0.00000000000E+00  0.12174917533E+04  0.12174917533E+04  0.50400001928E-02 0.  1.
       -1   -1    0    0    0  501  0.00000000000E+00  0.00000000000E+00 -0.53675137609E+03  0.53675137611E+03  0.50400001928E-02 0. -1.
    10030    2    1    2    0    0  0.00000000000E+00  0.00000000000E+00  0.68074037724E+03  0.17542431295E+04  0.16167750295E+04 0.  0.
        3    1    3    3  502    0  0.61200547979E+03 -0.49106152781E+03  0.55131844342E+03  0.95898079629E+03  0.10100000352E+00 0.  1.
       -3    1    3    3    0  502 -0.61200547979E+03  0.49106152781E+03  0.12942193382E+03  0.79526233317E+03  0.10100000352E+00 0. -1.
</event>
<event>
 5   0  0.4373026E-05  0.1602005E+04  0.7818609E-02  0.8819317E-01
       -1   -1    0    0    0  501  0.00000000000E+00  0.00000000000E+00  0.67673731659E+03  0.67673731661E+03  0.50400001928E-02 0.  1.
        1   -1    0    0  501    0  0.00000000000E+00  0.00000000000E+00 -0.94808578610E+03  0.94808578611E+03  0.50400001928E-02 0. -1.
    10030    2    1    2    0    0  0.00000000000E+00  0.00000000000E+00 -0.27134846951E+03  0.16248231027E+04  0.16020050322E+04 0.  0.
        4    1    3    3  502    0  0.39771677310E+03  0.66118979472E+03 -0.35380223583E+03  0.84883933181E+03  0.12699999809E+01 0. -1.
       -4    1    3    3    0  502 -0.39771677310E+03 -0.66118979472E+03  0.82453766324E+02  0.77598377091E+03  0.12699999809E+01 0.  1.
</event>
<event>
 5   0  0.7901257E-05  0.1603771E+04  0.7818609E-02  0.8818235E-01
       -2   -1    0    0    0  501  0.00000000000E+00  0.00000000000E+00  0.29409022646E+03  0.29409022647E+03  0.25500000920E-02 0.  1.
        2   -1    0    0  501    0  0.00000000000E+00  0.00000000000E+00 -0.21864738027E+04  0.21864738027E+04  0.25500000920E-02 0. -1.
    10030    2    1    2    0    0  0.00000000000E+00  0.00000000000E+00 -0.18923835762E+04  0.24805640291E+04  0.16037712752E+04 0.  0.
        2    1    3    3  502    0 -0.65211523313E+03 -0.41845709466E+03 -0.12656530663E+04  0.14839940369E+04  0.25500000920E-02 0.  1.
       -2    1    3    3    0  502  0.65211523313E+03  0.41845709466E+03 -0.62673050992E+03  0.99656999223E+03  0.25500000920E-02 0. -1.
</event>
<event>
 5   0  0.8037548E-05  0.1590858E+04  0.7818609E-02  0.8826184E-01
        2   -1    0    0  501    0  0.00000000000E+00  0.00000000000E+00  0.13378629814E+04  0.13378629814E+04  0.25500000920E-02 0. -1.
       -2   -1    0    0    0  501  0.00000000000E+00  0.00000000000E+00 -0.47292364949E+03  0.47292364949E+03  0.25500000920E-02 0.  1.
    10030    2    1    2    0    0  0.00000000000E+00  0.00000000000E+00  0.86493933194E+03  0.18107866309E+04  0.15908576853E+04 0.  0.
        5    1    3    3  502    0 -0.50102984173E+03  0.20681848678E+03 -0.23014191787E+03  0.58889063598E+03  0.46999998093E+01 0.  1.
       -5    1    3    3    0  502  0.50102984173E+03 -0.20681848678E+03  0.10950812498E+04  0.12218959949E+04  0.46999998093E+01 0. -1.
</event>
<event>
 5   0  0.7849690E-05  0.1600968E+04  0.7818609E-02  0.8819953E-01
        2   -1    0    0  501    0  0.00000000000E+00  0.00000000000E+00  0.15565732275E+04  0.15565732275E+04  0.25500000920E-02 0. -1.
       -2   -1    0    0    0  501  0.00000000000E+00  0.00000000000E+00 -0.41165728880E+03  0.41165728881E+03  0.25500000920E-02 0.  1.
    10030    2    1    2    0    0  0.00000000000E+00  0.00000000000E+00  0.11449159387E+04  0.19682305163E+04  0.16009681004E+04 0.  0.
        3    1    3    3  502    0  0.28353211743E+03 -0.47759023394E+03  0.12811427430E+04  0.13963558398E+04  0.10100000352E+00 0. -1.
       -3    1    3    3    0  502 -0.28353211743E+03  0.47759023394E+03 -0.13622680435E+03  0.57187467648E+03  0.10100000352E+00 0.  1.
</event>
<event>
 5   0  0.8037548E-05  0.1620268E+04  0.7818609E-02  0.8808192E-01
        2   -1    0    0  501    0  0.00000000000E+00  0.00000000000E+00  0.88021608054E+03  0.88021608055E+03  0.25500000920E-02 0. -1.
       -2   -1    0    0    0  501  0.00000000000E+00  0.00000000000E+00 -0.74563180790E+03  0.74563180791E+03  0.25500000920E-02 0.  1.
    10030    2    1    2    0    0  0.00000000000E+00  0.00000000000E+00  0.13458427264E+03  0.16258478885E+04  0.16202680118E+04 0.  0.
        5    1    3    3  502    0 -0.45293782811E+02 -0.75621278239E+03 -0.22072545897E+03  0.78908245275E+03  0.46999998093E+01 0. -1.
       -5    1    3    3    0  502  0.45293782811E+02  0.75621278239E+03  0.35530973161E+03  0.83676543570E+03  0.46999998093E+01 0.  1.
</event>
<event>
 5   0  0.4373026E-05  0.1601167E+04  0.7818609E-02  0.8819831E-01
        1   -1    0    0  501    0  0.00000000000E+00  0.00000000000E+00  0.84837286735E+03  0.84837286737E+03  0.50400001928E-02 0. -1.
       -1   -1    0    0    0  501  0.00000000000E+00  0.00000000000E+00 -0.75548640327E+03  0.75548640328E+03  0.50400001928E-02 0.  1.
    10030    2    1    2    0    0  0.00000000000E+00  0.00000000000E+00  0.92886464088E+02  0.16038592707E+04  0.16011672820E+04 0.  0.
        4    1    3    3  502    0 -0.18534854804E+03 -0.54384200635E+03 -0.51200134277E+03  0.76958768183E+03  0.12699999809E+01 0.  1.
       -4    1    3    3    0  502  0.18534854804E+03  0.54384200635E+03  0.60488780686E+03  0.83427158882E+03  0.12699999809E+01 0. -1.
</event>
<event>
 5   0  0.4256406E-05  0.1603978E+04  0.7818609E-02  0.8818108E-01
       -1   -1    0    0    0  501  0.00000000000E+00  0.00000000000E+00  0.88557924781E+03  0.88557924782E+03  0.50400001928E-02 0.  1.
        1   -1    0    0  501    0  0.00000000000E+00  0.00000000000E+00 -0.72628920075E+03  0.72628920076E+03  0.50400001928E-02 0. -1.
    10030    2    1    2    0    0  0.00000000000E+00  0.00000000000E+00  0.15929004706E+03  0.16118684486E+04  0.16039783591E+04 0.  0.
        3    1    3    3  502    0  0.25240934731E+03 -0.97422183872E+02  0.83833235299E+03  0.88091015705E+03  0.10100000352E+00 0.  1.
       -3    1    3    3    0  502 -0.25240934731E+03  0.97422183872E+02 -0.67904230593E+03  0.73095829154E+03  0.10100000352E+00 0. -1.
</event>
<event>
 5   0  0.4256406E-05  0.1599461E+04  0.7818609E-02  0.8820879E-01
       -1   -1    0    0    0  501  0.00000000000E+00  0.00000000000E+00  0.37939324551E+03  0.37939324555E+03  0.50400001928E-02 0.  1.
        1   -1    0    0  501    0  0.00000000000E+00  0.00000000000E+00 -0.16857682465E+04  0.16857682465E+04  0.50400001928E-02 0. -1.
    10030    2    1    2    0    0  0.00000000000E+00  0.00000000000E+00 -0.13063750010E+04  0.20651614920E+04  0.15994612671E+04 0.  0.
        3    1    3    3  502    0  0.51391299762E+03 -0.26191225310E+03 -0.13684304746E+04  0.14850274649E+04  0.10100000352E+00 0. -1.
       -3    1    3    3    0  502 -0.51391299762E+03  0.26191225310E+03  0.62055473640E+02  0.58013402714E+03  0.10100000352E+00 0.  1.
</event>
<event>
 5   0  0.4314657E-05  0.1599687E+04  0.7818609E-02  0.8820740E-01
        1   -1    0    0  501    0  0.00000000000E+00  0.00000000000E+00  0.78455414215E+03  0.78455414216E+03  0.50400001928E-02 0.  1.
       -1   -1    0    0    0  501  0.00000000000E+00  0.00000000000E+00 -0.81543095037E+03  0.81543095039E+03  0.50400001928E-02 0. -1.
    10030    2    1    2    0    0  0.00000000000E+00  0.00000000000E+00 -0.30876808226E+02  0.15999850926E+04  0.15996871316E+04 0.  0.
        5    1    3    3  502    0 -0.76622736166E+02 -0.15581584877E+03 -0.79633860320E+03  0.81506250274E+03  0.46999998093E+01 0. -1.
       -5    1    3    3    0  502  0.76622736166E+02  0.15581584877E+03  0.76546179498E+03  0.78492258981E+03  0.46999998093E+01 0.  1.
</event>
<event>
 5   0  0.7901257E-05  0.1599722E+04  0.7818609E-02  0.8820719E-01
       -2   -1    0    0    0  501  0.00000000000E+00  0.00000000000E+00  0.61186685601E+03  0.61186685602E+03  0.25500000920E-02 0.  1.
        2   -1    0    0  501    0  0.00000000000E+00  0.00000000000E+00 -0.10456155335E+04  0.10456155335E+04  0.25500000920E-02 0. -1.
    10030    2    1    2    0    0  0.00000000000E+00  0.00000000000E+00 -0.43374867752E+03  0.16574823896E+04  0.15997218372E+04 0.  0.
        2    1    3    3  502    0 -0.52808917567E+03 -0.41598144706E+03 -0.66595066445E+03  0.94626055040E+03  0.25500000920E-02 0. -1.
       -2    1    3    3    0  502  0.52808917567E+03  0.41598144706E+03  0.23220198693E+03  0.71122183916E+03  0.25500000920E-02 0.  1.
</event>
<event>
 5   0  0.7849690E-05  0.1600625E+04  0.7818609E-02  0.8820164E-01
        2   -1    0    0  501    0  0.00000000000E+00  0.00000000000E+00  0.10511527459E+04  0.10511527459E+04  0.25500000920E-02 0. -1.
       -2   -1    0    0    0  501  0.00000000000E+00  0.00000000000E+00 -0.60933112136E+03  0.60933112136E+03  0.25500000920E-02 0.  1.
    10030    2    1    2    0    0  0.00000000000E+00  0.00000000000E+00  0.44182162450E+03  0.16604838672E+04  0.16006249796E+04 0.  0.
        3    1    3    3  502    0 -0.71612376359E+03  0.23102740550E+03  0.50367180533E+03  0.90547899178E+03  0.10100000352E+00 0. -1.
       -3    1    3    3    0  502  0.71612376359E+03 -0.23102740550E+03 -0.61850180823E+02  0.75500487544E+03  0.10100000352E+00 0.  1.
</event>
<event>
 5   0  0.7849690E-05  0.1600960E+04  0.7818609E-02  0.8819959E-01
        2   -1    0    0  501    0  0.00000000000E+00  0.00000000000E+00  0.88844007768E+03  0.88844007769E+03  0.25500000920E-02 0.  1.
       -2   -1    0    0    0  501  0.00000000000E+00  0.00000000000E+00 -0.72122829848E+03  0.72122829849E+03  0.25500000920E-02 0. -1.
    10030    2    1    2    0    0  0.00000000000E+00  0.00000000000E+00  0.16721177920E+03  0.16096683762E+04  0.16009598690E+04 0.  0.
        3    1    3    3  502    0 -0.22724145991E+03 -0.58350849560E+03  0.58496373317E+03  0.85691506281E+03  0.10100000352E+00 0.  1.
       -3    1    3    3    0  502  0.22724145991E+03  0.58350849560E+03 -0.41775195397E+03  0.75275331337E+03  0.10100000352E+00 0. -1.
</event>
<event>
 5   0  0.4211419E-05  0.1600741E+04  0.7818609E-02  0.8820093E-01
       -1   -1    0    0    0  501  0.00000000000E+00  0.00000000000E+00  0.12652058168E+04  0.12652058168E+04  0.50400001928E-02 0.  1.
        1   -1    0    0  501    0  0.00000000000E+00  0.00000000000E+00 -0.50631492885E+03  0.50631492888E+03  0.50400001928E-02 0. -1.
    10030    2    1    2    0    0  0.00000000000E+00  0.00000000000E+00  0.75889088797E+03  0.17715207457E+04  0.16007405701E+04 0.  0.
        2    1    3    3  502    0  0.49219589160E+03  0.54214343167E+03  0.73705526236E+03  0.10389546458E+04  0.25500000920E-02 0.  1.
       -2    1    3    3    0  502 -0.49219589160E+03 -0.54214343167E+03  0.21835625608E+02  0.73256609993E+03  0.25500000920E-02 0. -1.
</event>
<event>
 5   0  0.8620155E-05  0.1571469E+04  0.7818609E-02  0.8838270E-01
       -2   -1    0    0    0  501  0.00000000000E+00  0.00000000000E+00  0.63287836208E+03  0.63287836208E+03  0.25500000920E-02 0. -1.
        2   -1    0    0  501    0  0.00000000000E+00  0.00000000000E+00 -0.97550960718E+03  0.97550960718E+03  0.25500000920E-02 0.  1.
    10030    2    1    2    0    0  0.00000000000E+00  0.00000000000E+00 -0.34263124510E+03  0.16083879693E+04  0.15714692773E+04 0.  0.
        4    1    3    3  502    0  0.64798971439E+03  0.18742072596E+03  0.24109001256E+03  0.71634014654E+03  0.12699999809E+01 0. -1.
       -4    1    3    3    0  502 -0.64798971439E+03 -0.18742072596E+03 -0.58372125766E+03  0.89204782273E+03  0.12699999809E+01 0.  1.
</event>
<event>
 5   0  0.7849690E-05  0.1600547E+04  0.7818609E-02  0.8820212E-01
        2   -1    0    0  501    0  0.00000000000E+00  0.00000000000E+00  0.40856434103E+03  0.40856434104E+03  0.25500000920E-02 0.  1.
       -2   -1    0    0    0  501  0.00000000000E+00  0.00000000000E+00 -0.15675318174E+04  0.15675318174E+04  0.25500000920E-02 0. -1.
    10030    2    1    2    0    0  0.00000000000E+00  0.00000000000E+00 -0.11589674763E+04  0.19760961584E+04  0.16005469115E+04 0.  0.
        3    1    3    3  502    0 -0.22706104184E+03  0.29493460320E+03 -0.14541570305E+04  0.15010382462E+04  0.10100000352E+00 0. -1.
       -3    1    3    3    0  502  0.22706104184E+03 -0.29493460320E+03  0.29518955417E+03  0.47505791224E+03  0.10100000352E+00 0.  1.
</event>
<event>
 5   0  0.7849690E-05  0.1599890E+04  0.7818609E-02  0.8820616E-01
        2   -1    0    0  501    0  0.00000000000E+00  0.00000000000E+00  0.97052738855E+03  0.97052738855E+03  0.25500000920E-02 0. -1.
       -2   -1    0    0    0  501  0.00000000000E+00  0.00000000000E+00 -0.65934449231E+03  0.65934449231E+03  0.25500000920E-02 0.  1.
    10030    2    1    2    0    0  0.00000000000E+00  0.00000000000E+00  0.31118289624E+03  0.16298718809E+04  0.15998898566E+04 0.  0.
        3    1    3    3  502    0 -0.37391271592E+03 -0.46587536833E+03  0.69759686981E+03  0.91841819501E+03  0.10100000352E+00 0. -1.
       -3    1    3    3    0  502  0.37391271592E+03  0.46587536833E+03 -0.38641397358E+03  0.71145368586E+03  0.10100000352E+00 0.  1.
</event>
<event>
 5   0  0.7849690E-05  0.1595663E+04  0.7818609E-02  0.8823217E-01
       -2   -1    0    0    0  501  0.00000000000E+00  0.00000000000E+00  0.31325136261E+03  0.31325136262E+03  0.25500000920E-02 0.  1.
        2   -1    0    0  501    0  0.00000000000E+00  0.00000000000E+00 -0.20320277626E+04  0.20320277626E+04  0.25500000920E-02 0. -1.
    10030    2    1    2    0    0  0.00000000000E+00  0.00000000000E+00 -0.17187764000E+04  0.23452791252E+04  0.15956634551E+04 0.  0.
        3    1    3    3  502    0  0.19058950635E+03 -0.72720180888E+03 -0.12520943897E+04  0.14604407559E+04  0.10100000352E+00 0. -1.
       -3    1    3    3    0  502 -0.19058950635E+03  0.72720180888E+03 -0.46668201030E+03  0.88483836926E+03  0.10100000352E+00 0.  1.
</event>
<event>
 5   0  0.8037548E-05  0.1597584E+04  0.7818609E-02  0.8822034E-01
        2   -1    0    0  501    0  0.00000000000E+00  0.00000000000E+00  0.18884858905E+04  0.18884858905E+04  0.25500000920E-02 0.  1.
       -2   -1    0    0    0  501  0.00000000000E+00  0.00000000000E+00 -0.33787303988E+03  0.33787303989E+03  0.25500000920E-02 0. -1.
    10030    2    1    2    0    0  0.00000000000E+00  0.00000000000E+00  0.15506128506E+04  0.22263589304E+04  0.15975837613E+04 0.  0.
        5    1    3    3  502    0 -0.16358853990E+03 -0.64227205058E+03  0.15399561609E+03  0.68044936411E+03  0.46999998093E+01 0. -1.
       -5    1    3    3    0  502  0.16358853990E+03  0.64227205058E+03  0.13966172345E+04  0.15459095662E+04  0.46999998093E+01 0.  1.
</event>
<event>
 5   0  0.4256406E-05  0.1593233E+04  0.7818609E-02  0.8824716E-01
       -1   -1    0    0    0  501  0.00000000000E+00  0.00000000000E+00  0.11026915586E+04  0.11026915586E+04  0.50400001928E-02 0. -1.
        1   -1    0    0  501    0  0.00000000000E+00  0.00000000000E+00 -0.57549892866E+03  0.57549892868E+03  0.50400001928E-02 0.  1.
    10030    2    1    2    0    0  0.00000000000E+00  0.00000000000E+00  0.52719262994E+03  0.16781904873E+04  0.15932329530E+04 0.  0.
        3    1    3    3  502    0  0.67224288357E+03  0.17392574157E+03  0.67484770034E+03  0.96828719239E+03  0.10100000352E+00 0.  1.
       -3    1    3    3    0  502 -0.67224288357E+03 -0.17392574157E+03 -0.14765507040E+03  0.70990329490E+03  0.10100000352E+00 0. -1.
</event>
<event>
 5   0  0.4211419E-05  0.1597051E+04  0.7818609E-02  0.8822361E-01
        1   -1    0    0  501    0  0.00000000000E+00  0.00000000000E+00  0.83460548728E+03  0.83460548730E+03  0.50400001928E-02 0.  1.
       -1   -1    0    0    0  501  0.00000000000E+00  0.00000000000E+00 -0.76400565367E+03  0.76400565369E+03  0.50400001928E-02 0. -1.
    10030    2    1    2    0    0  0.00000000000E+00  0.00000000000E+00  0.70599833610E+02  0.15986111410E+04  0.15970514217E+04 0.  0.
        2    1    3    3  502    0  0.59034608791E+03 -0.17189211578E+02  0.57326254462E+03  0.82306373847E+03  0.25500000920E-02 0.  1.
       -2    1    3    3    0  502 -0.59034608791E+03  0.17189211578E+02 -0.50266271101E+03  0.77554740252E+03  0.25500000920E-02 0. -1.
</event>
<event>
 5   0  0.4373026E-05  0.1599249E+04  0.7818609E-02  0.8821009E-01
       -1   -1    0    0    0  501  0.00000000000E+00  0.00000000000E+00  0.95154507817E+03  0.95154507818E+03  0.50400001928E-02 0. -1.
        1   -1    0    0  501    0  0.00000000000E+00  0.00000000000E+00 -0.67195935991E+03  0.67195935993E+03  0.50400001928E-02 0.  1.
    10030    2    1    2    0    0  0.00000000000E+00  0.00000000000E+00  0.27958571826E+03  0.16235044381E+04  0.15992493510E+04 0.  0.
        4    1    3    3  502    0 -0.54640661605E+03 -0.41967499861E+03 -0.27220809545E+03  0.74080102230E+03  0.12699999809E+01 0.  1.
       -4    1    3    3    0  502  0.54640661605E+03  0.41967499861E+03  0.55179381371E+03  0.88270341580E+03  0.12699999809E+01 0. -1.
</event>
<event>
 5   0  0.7849690E-05  0.1600207E+04  0.7818609E-02  0.8820421E-01
        2   -1    0    0  501    0  0.00000000000E+00  0.00000000000E+00  0.16085347683E+04  0.16085347683E+04  0.25500000920E-02 0.  1.
       -2   -1    0    0    0  501  0.00000000000E+00  0.00000000000E+00 -0.39798041523E+03  0.39798041524E+03  0.25500000920E-02 0. -1.
    10030    2    1    2    0    0  0.00000000000E+00  0.00000000000E+00  0.12105543531E+04  0.20065151835E+04  0.16002066554E+04 0.  0.
        3    1    3    3  502    0 -0.33216515711E+03 -0.38759103047E+03  0.13778372164E+04  0.14693522054E+04  0.10100000352E+00 0.  1.
       -3    1    3    3    0  502  0.33216515711E+03  0.38759103047E+03 -0.16728286332E+03  0.53716297812E+03  0.10100000352E+00 0. -1.
</event>
<event>
 5   0  0.7849690E-05  0.1599059E+04  0.7818609E-02  0.8821126E-01
        2   -1    0    0  501    0  0.00000000000E+00  0.00000000000E+00  0.14669491223E+04  0.14669491223E+04  0.25500000920E-02 0.  1.
       -2   -1    0    0    0  501  0.00000000000E+00  0.00000000000E+00 -0.43576680711E+03  0.43576680712E+03  0.25500000920E-02 0. -1.
    10030    2    1    2    0    0  0.00000000000E+00  0.00000000000E+00  0.10311823152E+04  0.19027159294E+04  0.15990593925E+04 0.  0.
        3    1    3    3  502    0 -0.16326898023E+03  0.67638083414E+03  0.98420505441E+03  0.12053246003E+04  0.10100000352E+00 0.  1.
       -3    1    3    3    0  502  0.16326898023E+03 -0.67638083414E+03  0.46977260752E+02  0.69739132912E+03  0.10100000352E+00 0. -1.
</event>
<event>
 5   0  0.8694033E-05  0.1601978E+04  0.7818609E-02  0.8819334E-01
        2   -1    0    0  501    0  0.00000000000E+00  0.00000000000E+00  0.19808687613E+04  0.19808687613E+04  0.25500000920E-02 0.  1.
       -2   -1    0    0    0  501  0.00000000000E+00  0.00000000000E+00 -0.32389000046E+03  0.32389000047E+03  0.25500000920E-02 0. -1.
    10030    2    1    2    0    0  0.00000000000E+00  0.00000000000E+00  0.16569787609E+04  0.23047587618E+04  0.16019782571E+04 0.  0.
        1    1    3    3  502    0 -0.30392475889E+02 -0.44303725856E+03  0.17875478132E+04  0.18418829766E+04  0.50400001928E-02 0.  1.
       -1    1    3    3    0  502  0.30392475889E+02  0.44303725856E+03 -0.13056905232E+03  0.46287578518E+03  0.50400001928E-02 0. -1.
</event>
<event>
 5   0  0.4504463E-05  0.1598398E+04  0.7818609E-02  0.8821533E-01
        1   -1    0    0  501    0  0.00000000000E+00  0.00000000000E+00  0.76170124810E+03  0.76170124812E+03  0.50400001928E-02 0. -1.
       -1   -1    0    0    0  501  0.00000000000E+00  0.00000000000E+00 -0.83854234760E+03  0.83854234762E+03  0.50400001928E-02 0.  1.
    10030    2    1    2    0    0  0.00000000000E+00  0.00000000000E+00 -0.76841099502E+02  0.16002435957E+04  0.15983976386E+04 0.  0.
        1    1    3    3  502    0 -0.53340331820E+03  0.52501428003E+03  0.24218810542E+03  0.78664742581E+03  0.50400001928E-02 0. -1.
       -1    1    3    3    0  502  0.53340331820E+03 -0.52501428003E+03 -0.31902920492E+03  0.81359616993E+03  0.50400001928E-02 0.  1.
</event>
<event>
 5   0  0.7901257E-05  0.1597517E+04  0.7818609E-02  0.8822075E-01
        2   -1    0    0  501    0  0.00000000000E+00  0.00000000000E+00  0.15408276465E+04  0.15408276465E+04  0.25500000920E-02 0.  1.
       -2   -1    0    0    0  501  0.00000000000E+00  0.00000000000E+00 -0.41407317525E+03  0.41407317526E+03  0.25500000920E-02 0. -1.
    10030    2    1    2    0    0  0.00000000000E+00  0.00000000000E+00  0.11267544712E+04  0.19549008217E+04  0.15975173190E+04 0.  0.
        2    1    3    3  502    0  0.16188457872E+03 -0.52567575998E+03 -0.14539784764E+03  0.56893071244E+03  0.25500000920E-02 0. -1.
       -2    1    3    3    0  502 -0.16188457872E+03  0.52567575998E+03  0.12721523189E+04  0.13859701093E+04  0.25500000920E-02 0.  1.
</event>
<event>
 5   0  0.7849690E-05  0.1597855E+04  0.7818609E-02  0.8821867E-01
        2   -1    0    0  501    0  0.00000000000E+00  0.00000000000E+00  0.78298450085E+03  0.78298450085E+03  0.25500000920E-02 0. -1.
       -2   -1    0    0    0  501  0.00000000000E+00  0.00000000000E+00 -0.81519473141E+03  0.81519473141E+03  0.25500000920E-02 0.  1.
    10030    2    1    2    0    0  0.00000000000E+00  0.00000000000E+00 -0.32210230559E+02  0.15981792323E+04  0.15978546115E+04 0.  0.
        3    1    3    3  502    0  0.47081759064E+03  0.15164850352E+03 -0.64362269189E+03  0.81173681202E+03  0.10100000352E+00 0.  1.
       -3    1    3    3    0  502 -0.47081759064E+03 -0.15164850352E+03  0.61141246134E+03  0.78644242024E+03  0.10100000352E+00 0. -1.
</event>
<event>
 5   0  0.4504463E-05  0.1598969E+04  0.7818609E-02  0.8821182E-01
       -1   -1    0    0    0  501  0.00000000000E+00  0.00000000000E+00  0.62140687417E+03  0.62140687420E+03  0.50400001928E-02 0.  1.
        1   -1    0    0  501    0  0.00000000000E+00  0.00000000000E+00 -0.10285940536E+04  0.10285940537E+04  0.50400001928E-02 0. -1.
    10030    2    1    2    0    0  0.00000000000E+00  0.00000000000E+00 -0.40718717947E+03  0.16500009279E+04  0.15989689374E+04 0.  0.
        1    1    3    3  502    0  0.13125894243E+03 -0.42113737776E+03 -0.89164979520E+03  0.99479895367E+03  0.50400001928E-02 0. -1.
       -1    1    3    3    0  502 -0.13125894243E+03  0.42113737776E+03  0.48446261573E+03  0.65520197419E+03  0.50400001928E-02 0.  1.
</event>
<event>
 5   0  0.8620155E-05  0.1599531E+04  0.7818609E-02  0.8820836E-01
        2   -1    0    0  501    0  0.00000000000E+00  0.00000000000E+00  0.86558076688E+03  0.86558076688E+03  0.25500000920E-02 0.  1.
       -2   -1    0    0    0  501  0.00000000000E+00  0.00000000000E+00 -0.73895410639E+03  0.73895410639E+03  0.25500000920E-02 0. -1.
    10030    2    1    2    0    0  0.00000000000E+00  0.00000000000E+00  0.12662666049E+03  0.16045348733E+04  0.15995305087E+04 0.  0.
        4    1    3    3  502    0 -0.46163735015E+03 -0.30208390439E+03  0.64414051336E+03  0.84810514808E+03  0.12699999809E+01 0.  1.
       -4    1    3    3    0  502  0.46163735015E+03  0.30208390439E+03 -0.51751385288E+03  0.75642972520E+03  0.12699999809E+01 0. -1.
</event>
<event>
 5   0  0.4314657E-05  0.1611570E+04  0.7818609E-02  0.8813472E-01
       -1   -1    0    0    0  501  0.00000000000E+00  0.00000000000E+00  0.10940436259E+04  0.10940436259E+04  0.50400001928E-02 0.  1.
        1   -1    0    0  501    0  0.00000000000E+00  0.00000000000E+00 -0.59347666856E+03  0.59347666858E+03  0.50400001928E-02 0. -1.
    10030    2    1    2    0    0  0.00000000000E+00  0.00000000000E+00  0.50056695732E+03  0.16875202945E+04  0.16115698761E+04 0.  0.
        5    1    3    3  502    0 -0.72296063089E+03  0.34137668598E+03  0.35529514765E+03  0.87490962247E+03  0.46999998093E+01 0.  1.
       -5    1    3    3    0  502  0.72296063089E+03 -0.34137668598E+03  0.14527180966E+03  0.81261067199E+03  0.46999998093E+01 0. -1.
</event>
<event>
 5   0  0.8037548E-05  0.1599502E+04  0.7818609E-02  0.8820854E-01
        2   -1    0    0  501    0  0.00000000000E+00  0.00000000000E+00  0.13733310022E+04  0.13733310022E+04  0.25500000920E-02 0. -1.
       -2   -1    0    0    0  501  0.00000000000E+00  0.00000000000E+00 -0.46573036146E+03  0.46573036147E+03  0.25500000920E-02 0.  1.
    10030    2    1    2    0    0  0.00000000000E+00  0.00000000000E+00  0.90760064078E+03  0.18390613637E+04  0.15995023527E+04 0.  0.
        5    1    3    3  502    0  0.26546744901E+03  0.37241386757E+03  0.12081191257E+04  0.12917967979E+04  0.46999998093E+01 0. -1.
       -5    1    3    3    0  502 -0.26546744901E+03 -0.37241386757E+03 -0.30051848489E+03  0.54726456582E+03  0.46999998093E+01 0.  1.
</event>
<event>
 5   0  0.8620155E-05  0.1599894E+04  0.7818609E-02  0.8820613E-01
       -2   -1    0    0    0  501  0.00000000000E+00  0.00000000000E+00  0.13781881061E+04  0.13781881061E+04  0.25500000920E-02 0. -1.
        2   -1    0    0  501    0  0.00000000000E+00  0.00000000000E+00 -0.46431612891E+03  0.46431612892E+03  0.25500000920E-02 0.  1.
    10030    2    1    2    0    0  0.00000000000E+00  0.00000000000E+00  0.91387197720E+03  0.18425042350E+04  0.15998937044E+04 0.  0.
        4    1    3    3  502    0  0.43200001554E+03 -0.37850954828E+03  0.10981634666E+04  0.12392974235E+04  0.12699999809E+01 0. -1.
       -4    1    3    3    0  502 -0.43200001554E+03  0.37850954828E+03 -0.18429148938E+03  0.60320681157E+03  0.12699999809E+01 0.  1.
</event>
<event>
 5   0  0.7849690E-05  0.1603321E+04  0.7818609E-02  0.8818510E-01
        2   -1    0    0  501    0  0.00000000000E+00  0.00000000000E+00  0.12584320003E+04  0.12584320003E+04  0.25500000920E-02 0. -1.
       -2   -1    0    0    0  501  0.00000000000E+00  0.00000000000E+00 -0.51068280652E+03  0.51068280653E+03  0.25500000920E-02 0.  1.
    10030    2    1    2    0    0  0.00000000000E+00  0.00000000000E+00  0.74774919377E+03  0.17691148068E+04  0.16033210355E+04 0.  0.
        3    1    3    3  502    0 -0.38946212453E+03 -0.68936312745E+03  0.51238313113E+03  0.94310060503E+03  0.10100000352E+00 0. -1.
       -3    1    3    3    0  502  0.38946212453E+03  0.68936312745E+03  0.23536606264E+03  0.82601420180E+03  0.10100000352E+00 0.  1.
</event>
<event>
 5   0  0.7849690E-05  0.1601528E+04  0.7818609E-02  0.8819610E-01
        2   -1    0    0  501    0  0.00000000000E+00  0.00000000000E+00  0.86179821251E+03  0.86179821252E+03  0.25500000920E-02 0.  1.
       -2   -1    0    0    0  501  0.00000000000E+00  0.00000000000E+00 -0.74405243752E+03  0.74405243752E+03  0.25500000920E-02 0. -1.
    10030    2    1    2    0    0  0.00000000000E+00  0.00000000000E+00  0.11774577499E+03  0.16058506500E+04  0.16015280961E+04 0.  0.
        3    1    3    3  502    0  0.12196973835E+03 -0.78435021383E+03  0.16470954040E+03  0.81068558512E+03  0.10100000352E+00 0.  1.
       -3    1    3    3    0  502 -0.12196973835E+03  0.78435021383E+03 -0.46963765409E+02  0.79516506492E+03  0.10100000352E+00 0. -1.
</event>
<event>
 5   0  0.7901257E-05  0.1599028E+04  0.7818609E-02  0.8821145E-01
       -2   -1    0    0    0  501  0.00000000000E+00  0.00000000000E+00  0.42568504554E+03  0.42568504555E+03  0.25500000920E-02 0. -1.
        2   -1    0    0  501    0  0.00000000000E+00  0.00000000000E+00 -0.15016329997E+04  0.15016329997E+04  0.25500000920E-02 0.  1.
    10030    2    1    2    0    0  0.00000000000E+00  0.00000000000E+00 -0.10759479541E+04  0.19273180452E+04  0.15990280946E+04 0.  0.
        2    1    3    3  502    0 -0.63069235033E+03  0.72939730208E+02 -0.11236703985E+04  0.12906309347E+04  0.25500000920E-02 0.  1.
       -2    1    3    3    0  502  0.63069235033E+03 -0.72939730208E+02  0.47722444416E+02  0.63668711053E+03  0.25500000920E-02 0. -1.
</event>
<event>
 5   0  0.7849690E-05  0.1597488E+04  0.7818609E-02  0.8822093E-01
       -2   -1    0    0    0  501  0.00000000000E+00  0.00000000000E+00  0.26867468737E+03  0.26867468738E+03  0.25500000920E-02 0. -1.
        2   -1    0    0  501    0  0.00000000000E+00  0.00000000000E+00 -0.23745882402E+04  0.23745882402E+04  0.25500000920E-02 0.  1.
    10030    2    1    2    0    0  0.00000000000E+00  0.00000000000E+00 -0.21059135529E+04  0.26432629276E+04  0.15974877190E+04 0.  0.
        3    1    3    3  502    0  0.61638676096E+03 -0.13438001671E+03 -0.24235142524E+03  0.67581421374E+03  0.10100000352E+00 0. -1.
       -3    1    3    3    0  502 -0.61638676096E+03  0.13438001671E+03 -0.18635621276E+04  0.19674487139E+04  0.10100000352E+00 0.  1.
</event>
<event>
 5   0  0.4314657E-05  0.1603818E+04  0.7818609E-02  0.8818206E-01
        1   -1    0    0  501    0  0.00000000000E+00  0.00000000000E+00  0.85777543858E+03  0.85777543859E+03  0.50400001928E-02 0.  1.
       -1   -1    0    0    0  501  0.00000000000E+00  0.00000000000E+00 -0.74968147840E+03  0.74968147842E+03  0.50400001928E-02 0. -1.
    10030    2    1    2    0    0  0.00000000000E+00  0.00000000000E+00  0.10809396018E+03  0.16074569170E+04  0.16038183924E+04 0.  0.
        5    1    3    3  502    0 -0.35688726212E+03  0.49913191903E+03 -0.46339461781E+03  0.76893293093E+03  0.46999998093E+01 0. -1.
       -5    1    3    3    0  502  0.35688726212E+03 -0.49913191903E+03  0.57148857799E+03  0.83852398608E+03  0.46999998093E+01 0.  1.
</event>
<event>
 5   0  0.8694033E-05  0.1600074E+04  0.7818609E-02  0.8820502E-01
       -2   -1    0    0    0  501  0.00000000000E+00  0.00000000000E+00  0.29291788984E+03  0.29291788985E+03  0.25500000920E-02 0.  1.
        2   -1    0    0  501    0  0.00000000000E+00  0.00000000000E+00 -0.21851149950E+04  0.21851149950E+04  0.25500000920E-02 0. -1.
    10030    2    1    2    0    0  0.00000000000E+00  0.00000000000E+00 -0.18921971051E+04  0.24780328848E+04  0.16000740900E+04 0.  0.
        1    1    3    3  502    0  0.31063391161E+03 -0.38231177760E+02  0.19417320566E+03  0.36831818285E+03  0.50400001928E-02 0.  1.
       -1    1    3    3    0  502 -0.31063391161E+03  0.38231177760E+02 -0.20863703108E+04  0.21097147020E+04  0.50400001928E-02 0. -1.
</event>
<event>
 5   0  0.4256406E-05  0.1597294E+04  0.7818609E-02  0.8822212E-01
        1   -1    0    0  501    0  0.00000000000E+00  0.00000000000E+00  0.64600795185E+03  0.64600795187E+03  0.50400001928E-02 0. -1.
       -1   -1    0    0    0  501  0.00000000000E+00  0.00000000000E+00 -0.98735163026E+03  0.98735163027E+03  0.50400001928E-02 0.  1.
    10030    2    1    2    0    0  0.00000000000E+00  0.00000000000E+00 -0.34134367841E+03  0.16333595821E+04  0.15972939672E+04 0.  0.
        3    1    3    3  502    0  0.40331293125E+03 -0.64749992646E+03 -0.41248429444E+03  0.86721437871E+03  0.10100000352E+00 0. -1.
       -3    1    3    3    0  502 -0.40331293125E+03  0.64749992646E+03  0.71140616033E+02  0.76614520343E+03  0.10100000352E+00 0.  1.
</event>
<event>
 5   0  0.8620155E-05  0.1599894E+04  0.7818609E-02  0.8820613E-01
        2   -1    0    0  501    0  0.00000000000E+00  0.00000000000E+00  0.15310025073E+04  0.15310025073E+04  0.25500000920E-02 0.  1.
       -2   -1    0    0    0  501  0.00000000000E+00  0.00000000000E+00 -0.41797126435E+03  0.41797126436E+03  0.25500000920E-02 0. -1.
    10030    2    1    2    0    0  0.00000000000E+00  0.00000000000E+00  0.11130312429E+04  0.19489737716E+04  0.15998938136E+04 0.  0.
        4    1    3    3  502    0 -0.54746825752E+03 -0.15514402893E+02 -0.15375386482E+03  0.56886206899E+03  0.12699999809E+01 0. -1.
       -4    1    3    3    0  502  0.54746825752E+03  0.15514402893E+02  0.12667851077E+04  0.13801117026E+04  0.12699999809E+01 0.  1.
</event>
<event>
 5   0  0.8620155E-05  0.1598537E+04  0.7818609E-02  0.8821447E-01
        2   -1    0    0  501    0  0.00000000000E+00  0.00000000000E+00  0.72287789775E+03  0.72287789776E+03  0.25500000920E-02 0. -1.
       -2   -1    0    0    0  501  0.00000000000E+00  0.00000000000E+00 -0.88373194867E+03  0.88373194867E+03  0.25500000920E-02 0.  1.
    10030    2    1    2    0    0  0.00000000000E+00  0.00000000000E+00 -0.16085405091E+03  0.16066098464E+04  0.15985371979E+04 0.  0.
        4    1    3    3  502    0 -0.22488697262E+03  0.24910924325E+03 -0.80948612381E+03  0.87629844407E+03  0.12699999809E+01 0.  1.
       -4    1    3    3    0  502  0.22488697262E+03 -0.24910924325E+03  0.64863207290E+03  0.73031140236E+03  0.12699999809E+01 0. -1.
</event>
<event>
 5   0  0.3042125E-05  0.1598936E+04  0.7818609E-02  0.8821202E-01
       -3   -1    0    0    0  501  0.00000000000E+00  0.00000000000E+00  0.12834666439E+04  0.12834666479E+04  0.10100000352E+00 0. -1.
        3   -1    0    0  501    0  0.00000000000E+00  0.00000000000E+00 -0.49798646565E+03  0.49798647589E+03  0.10100000352E+00 0.  1.
    10030    2    1    2    0    0  0.00000000000E+00  0.00000000000E+00  0.78548017829E+03  0.17814531238E+04  0.15989359342E+04 0.  0.
        1    1    3    3  502    0 -0.38016605735E+03 -0.43396655101E+03  0.10093547971E+04  0.11626049651E+04  0.50400001928E-02 0. -1.
       -1    1    3    3    0  502  0.38016605735E+03  0.43396655101E+03 -0.22387461877E+03  0.61884815869E+03  0.50400001928E-02 0.  1.
</event>
<event>
 5   0  0.8620155E-05  0.1600595E+04  0.7818609E-02  0.8820182E-01
        2   -1    0    0  501    0  0.00000000000E+00  0.00000000000E+00  0.12304851118E+04  0.12304851118E+04  0.25500000920E-02 0.  1.
       -2   -1    0    0    0  501  0.00000000000E+00  0.00000000000E+00 -0.52050722892E+03  0.52050722892E+03  0.25500000920E-02 0. -1.
    10030    2    1    2    0    0  0.00000000000E+00  0.00000000000E+00  0.70997788285E+03  0.17509923407E+04  0.16005953839E+04 0.  0.
        4    1    3    3  502    0  0.48163372934E+03  0.31200105678E+02  0.10533542081E+04  0.11586635389E+04  0.12699999809E+01 0.  1.
       -4    1    3    3    0  502 -0.48163372934E+03 -0.31200105678E+02 -0.34337632520E+03  0.59232880180E+03  0.12699999809E+01 0. -1.
</event>
<event>
 5   0  0.8694033E-05  0.1599457E+04  0.7818609E-02  0.8820882E-01
        2   -1    0    0  501    0  0.00000000000E+00  0.00000000000E+00  0.35283306746E+03  0.35283306746E+03  0.25500000920E-02 0. -1.
       -2   -1    0    0    0  501  0.00000000000E+00  0.00000000000E+00 -0.18126575598E+04  0.18126575598E+04  0.25500000920E-02 0.  1.
    10030    2    1    2    0    0  0.00000000000E+00  0.00000000000E+00 -0.14598244924E+04  0.21654906273E+04  0.15994568167E+04 0.  0.
        1    1    3    3  502    0  0.47604642282E+03  0.62382854594E+03 -0.93870701997E+03  0.12235003559E+04  0.50400001928E-02 0. -1.
       -1    1    3    3    0  502 -0.47604642282E+03 -0.62382854594E+03 -0.52111747239E+03  0.94199027142E+03  0.50400001928E-02 0.  1.
</event>
<event>
 5   0  0.4373026E-05  0.1600658E+04  0.7818609E-02  0.8820144E-01
       -1   -1    0    0    0  501  0.00000000000E+00  0.00000000000E+00  0.64164297389E+03  0.64164297391E+03  0.50400001928E-02 0.  1.
        1   -1    0    0  501    0  0.00000000000E+00  0.00000000000E+00 -0.99825948068E+03  0.99825948069E+03  0.50400001928E-02 0. -1.
    10030    2    1    2    0    0  0.00000000000E+00  0.00000000000E+00 -0.35661650679E+03  0.16399024546E+04  0.16006575923E+04 0.  0.
        4    1    3    3  502    0  0.46346143693E+03  0.39942677795E+03 -0.70689033714E+03  0.93489775704E+03  0.12699999809E+01 0. -1.
       -4    1    3    3    0  502 -0.46346143693E+03 -0.39942677795E+03  0.35027383036E+03  0.70500469757E+03  0.12699999809E+01 0.  1.
</event>
<event>
 5   0  0.3042125E-05  0.1600665E+04  0.7818609E-02  0.8820140E-01
       -3   -1    0    0    0  501  0.00000000000E+00  0.00000000000E+00  0.40732306371E+03  0.40732307623E+03  0.10100000352E+00 0. -1.
        3   -1    0    0  501    0  0.00000000000E+00  0.00000000000E+00 -0.15725408316E+04  0.15725408349E+04  0.10100000352E+00 0.  1.
    10030    2    1    2    0    0  0.00000000000E+00  0.00000000000E+00 -0.11652177679E+04  0.19798639111E+04  0.16006650680E+04 0.  0.
        3    1    3    3  502    0 -0.54803367281E+03 -0.86601271576E+02  0.13082823930E+03  0.57004975675E+03  0.10100000352E+00 0. -1.
       -3    1    3    3    0  502  0.54803367281E+03  0.86601271576E+02 -0.12960460072E+04  0.14098141543E+04  0.10100000352E+00 0.  1.
</event>
<event>
 5   0  0.4314657E-05  0.1606506E+04  0.7818609E-02  0.8816561E-01
       -1   -1    0    0    0  501  0.00000000000E+00  0.00000000000E+00  0.10480616071E+04  0.10480616071E+04  0.50400001928E-02 0.  1.
        1   -1    0    0  501    0  0.00000000000E+00  0.00000000000E+00 -0.61562707222E+03  0.61562707224E+03  0.50400001928E-02 0. -1.
    10030    2    1    2    0    0  0.00000000000E+00  0.00000000000E+00  0.43243453490E+03  0.16636886794E+04  0.16065056473E+04 0.  0.
        5    1    3    3  502    0  0.17375232918E+03 -0.43619052835E+03 -0.45870207845E+03  0.65641582529E+03  0.46999998093E+01 0. -1.
       -5    1    3    3    0  502 -0.17375232918E+03  0.43619052835E+03  0.89113661334E+03  0.10072728541E+04  0.46999998093E+01 0.  1.
</event>
<event>
 5   0  0.8620155E-05  0.1597814E+04  0.7818609E-02  0.8821892E-01
        2   -1    0    0  501    0  0.00000000000E+00  0.00000000000E+00  0.64778648138E+03  0.64778648139E+03  0.25500000920E-02 0. -1.
       -2   -1    0    0    0  501  0.00000000000E+00  0.00000000000E+00 -0.98528212759E+03  0.98528212759E+03  0.25500000920E-02 0.  1.
    10030    2    1    2    0    0  0.00000000000E+00  0.00000000000E+00 -0.33749564620E+03  0.16330686090E+04  0.15978140600E+04 0.  0.
        4    1    3    3  502    0 -0.66090111336E+03  0.44558592738E+03 -0.11357784646E+03  0.80513268498E+03  0.12699999809E+01 0.  1.
       -4    1    3    3    0  502  0.66090111336E+03 -0.44558592738E+03 -0.22391779974E+03  0.82793592400E+03  0.12699999809E+01 0. -1.
</event>
<event>
 5   0  0.8694033E-05  0.1613465E+04  0.7818609E-02  0.8812318E-01
        2   -1    0    0  501    0  0.00000000000E+00  0.00000000000E+00  0.87347601274E+03  0.87347601274E+03  0.25500000920E-02 0. -1.
       -2   -1    0    0    0  501  0.00000000000E+00  0.00000000000E+00 -0.74508916313E+03  0.74508916313E+03  0.25500000920E-02 0.  1.
    10030    2    1    2    0    0  0.00000000000E+00  0.00000000000E+00  0.12838684961E+03  0.16185651759E+04  0.16134652291E+04 0.  0.
        1    1    3    3  502    0  0.50644505952E+03  0.60641510829E+03 -0.99391416344E+02  0.79630680994E+03  0.50400001928E-02 0.  1.
       -1    1    3    3    0  502 -0.50644505952E+03 -0.60641510829E+03  0.22777826596E+03  0.82225836594E+03  0.50400001928E-02 0. -1.
</event>
<event>
 5   0  0.7901257E-05  0.1600637E+04  0.7818609E-02  0.8820157E-01
        2   -1    0    0  501    0  0.00000000000E+00  0.00000000000E+00  0.70404661596E+03  0.70404661597E+03  0.25500000920E-02 0. -1.
       -2   -1    0    0    0  501  0.00000000000E+00  0.00000000000E+00 -0.90975418008E+03  0.90975418009E+03  0.25500000920E-02 0.  1.
    10030    2    1    2    0    0  0.00000000000E+00  0.00000000000E+00 -0.20570756412E+03  0.16138007961E+04  0.16006365632E+04 0.  0.
        2    1    3    3  502    0  0.45806030150E+03  0.30812740918E+03  0.48134905029E+03  0.73243337466E+03  0.25500000920E-02 0. -1.
       -2    1    3    3    0  502 -0.45806030150E+03 -0.30812740918E+03 -0.68705661441E+03  0.88136742140E+03  0.25500000920E-02 0.  1.
</event>
<event>
 5   0  0.8037548E-05  0.1601053E+04  0.7818609E-02  0.8819901E-01
       -2   -1    0    0    0  501  0.00000000000E+00  0.00000000000E+00  0.84795224850E+03  0.84795224851E+03  0.25500000920E-02 0.  1.
        2   -1    0    0  501    0  0.00000000000E+00  0.00000000000E+00 -0.75575344408E+03  0.75575344408E+03  0.25500000920E-02 0. -1.
    10030    2    1    2    0    0  0.00000000000E+00  0.00000000000E+00  0.92198804429E+02  0.16037056926E+04  0.16010531937E+04 0.  0.
        5    1    3    3  502    0  0.42276805409E+03 -0.67101816295E+03  0.15501104261E+03  0.80811429631E+03  0.46999998093E+01 0. -1.
       -5    1    3    3    0  502 -0.42276805409E+03  0.67101816295E+03 -0.62812238179E+02  0.79559139628E+03  0.46999998093E+01 0.  1.
</event>
<event>
 5   0  0.7901257E-05  0.1598477E+04  0.7818609E-02  0.8821484E-01
       -2   -1    0    0    0  501  0.00000000000E+00  0.00000000000E+00  0.56838943425E+03  0.56838943426E+03  0.25500000920E-02 0. -1.
        2   -1    0    0  501    0  0.00000000000E+00  0.00000000000E+00 -0.11238466425E+04  0.11238466425E+04  0.25500000920E-02 0.  1.
    10030    2    1    2    0    0  0.00000000000E+00  0.00000000000E+00 -0.55545720822E+03  0.16922360767E+04  0.15984774722E+04 0.  0.
        2    1    3    3  502    0  0.35875098621E+03  0.12841469308E+03 -0.10214967687E+04  0.10902514628E+04  0.25500000920E-02 0.  1.
       -2    1    3    3    0  502 -0.35875098621E+03 -0.12841469308E+03  0.46603956050E+03  0.60198461398E+03  0.25500000920E-02 0. -1.
</event>
<event>
 5   0  0.4256406E-05  0.1606791E+04  0.7818609E-02  0.8816387E-01
        1   -1    0    0  501    0  0.00000000000E+00  0.00000000000E+00  0.73486899784E+03  0.73486899786E+03  0.50400001928E-02 0. -1.
       -1   -1    0    0    0  501  0.00000000000E+00  0.00000000000E+00 -0.87831256608E+03  0.87831256609E+03  0.50400001928E-02 0.  1.
    10030    2    1    2    0    0  0.00000000000E+00  0.00000000000E+00 -0.14344356824E+03  0.16131815639E+04  0.16067914305E+04 0.  0.
        3    1    3    3  502    0  0.65911872806E+03 -0.26935539430E+03 -0.44529679055E+03  0.83980894732E+03  0.10100000352E+00 0.  1.
       -3    1    3    3    0  502 -0.65911872806E+03  0.26935539430E+03  0.30185322232E+03  0.77337261663E+03  0.10100000352E+00 0. -1.
</event>
<event>
 5   0  0.8694033E-05  0.1595406E+04  0.7818609E-02  0.8823375E-01
        2   -1    0    0  501    0  0.00000000000E+00  0.00000000000E+00  0.15910606816E+04  0.15910606816E+04  0.25500000920E-02 0. -1.
       -2   -1    0    0    0  501  0.00000000000E+00  0.00000000000E+00 -0.39994096037E+03  0.39994096037E+03  0.25500000920E-02 0.  1.
    10030    2    1    2    0    0  0.00000000000E+00  0.00000000000E+00  0.11911197213E+04  0.19910016420E+04  0.15954063270E+04 0.  0.
        1    1    3    3  502    0  0.25902617229E+03  0.67302615004E+03  0.17002308746E+03  0.74092280763E+03  0.50400001928E-02 0.  1.
       -1    1    3    3    0  502 -0.25902617229E+03 -0.67302615004E+03  0.10210966338E+04  0.12500788344E+04  0.50400001928E-02 0. -1.
</event>
<event>
 5   0  0.4211419E-05  0.1602332E+04  0.7818609E-02  0.8819117E-01
       -1   -1    0    0    0  501  0.00000000000E+00  0.00000000000E+00  0.68038629029E+03  0.68038629031E+03  0.50400001928E-02 0.  1.
        1   -1    0    0  501    0  0.00000000000E+00  0.00000000000E+00 -0.94338572077E+03  0.94338572078E+03  0.50400001928E-02 0. -1.
    10030    2    1    2    0    0  0.00000000000E+00  0.00000000000E+00 -0.26299943048E+03  0.16237720111E+04  0.16023316896E+04 0.  0.
        2    1    3    3  502    0 -0.15734365460E+03  0.70784822553E+03  0.21373541975E+03  0.75596889202E+03  0.25500000920E-02 0.  1.
       -2    1    3    3    0  502  0.15734365460E+03 -0.70784822553E+03 -0.47673485024E+03  0.86780311907E+03  0.25500000920E-02 0. -1.
</event>
<event>
 5   0  0.4373026E-05  0.1598935E+04  0.7818609E-02  0.8821203E-01
        1   -1    0    0  501    0  0.00000000000E+00  0.00000000000E+00  0.11299666715E+04  0.11299666715E+04  0.50400001928E-02 0. -1.
       -1   -1    0    0    0  501  0.00000000000E+00  0.00000000000E+00 -0.56563432475E+03  0.56563432477E+03  0.50400001928E-02 0.  1.
    10030    2    1    2    0    0  0.00000000000E+00  0.00000000000E+00  0.56433234678E+03  0.16956009963E+04  0.15989345643E+04 0.  0.
        4    1    3    3  502    0  0.54186254372E+03  0.17989135995E+03 -0.31128272640E+03  0.65028798722E+03  0.12699999809E+01 0. -1.
       -4    1    3    3    0  502 -0.54186254372E+03 -0.17989135995E+03  0.87561507318E+03  0.10453130091E+04  0.12699999809E+01 0.  1.
</event>
<event>
 5   0  0.7849690E-05  0.1602945E+04  0.7818609E-02  0.8818741E-01
        2   -1    0    0  501    0  0.00000000000E+00  0.00000000000E+00  0.11257591597E+04  0.11257591597E+04  0.25500000920E-02 0.  1.
       -2   -1    0    0    0  501  0.00000000000E+00  0.00000000000E+00 -0.57060032774E+03  0.57060032775E+03  0.25500000920E-02 0. -1.
    10030    2    1    2    0    0  0.00000000000E+00  0.00000000000E+00  0.55515883199E+03  0.16963594875E+04  0.16029454707E+04 0.  0.
        3    1    3    3  502    0  0.69678249862E+00  0.63461824139E+03  0.79561384583E+03  0.10177142033E+04  0.10100000352E+00 0.  1.
       -3    1    3    3    0  502 -0.69678249862E+00 -0.63461824139E+03 -0.24045501384E+03  0.67864528414E+03  0.10100000352E+00 0. -1.
</event>
<event>
 5   0  0.8037548E-05  0.1603993E+04  0.7818609E-02  0.8818099E-01
       -2   -1    0    0    0  501  0.00000000000E+00  0.00000000000E+00  0.50340011932E+03  0.50340011932E+03  0.25500000920E-02 0. -1.
        2   -1    0    0  501    0  0.00000000000E+00  0.00000000000E+00 -0.12777074695E+04  0.12777074695E+04  0.25500000920E-02 0.  1.
    10030    2    1    2    0    0  0.00000000000E+00  0.00000000000E+00 -0.77430735022E+03  0.17811075889E+04  0.16039926342E+04 0.  0.
        5    1    3    3  502    0  0.23070246076E+03 -0.16486665515E+02 -0.12398535365E+04  0.12612510922E+04  0.46999998093E+01 0.  1.
       -5    1    3    3    0  502 -0.23070246076E+03  0.16486665515E+02  0.46554618630E+03  0.51985649666E+03  0.46999998093E+01 0. -1.
</event>
<event>
 5   0  0.3042125E-05  0.1599916E+04  0.7818609E-02  0.8820599E-01
       -3   -1    0    0    0  501  0.00000000000E+00  0.00000000000E+00  0.27960169834E+04  0.27960169852E+04  0.10100000352E+00 0. -1.
        3   -1    0    0  501    0  0.00000000000E+00  0.00000000000E+00 -0.22887307065E+03  0.22887309294E+03  0.10100000352E+00 0.  1.
    10030    2    1    2    0    0  0.00000000000E+00  0.00000000000E+00  0.25671439128E+04  0.30248900782E+04  0.15999162841E+04 0.  0.
        1    1    3    3  502    0 -0.58055192168E+03  0.47227111865E+03  0.18178367527E+04  0.19658613895E+04  0.50400001928E-02 0. -1.
       -1    1    3    3    0  502  0.58055192168E+03 -0.47227111865E+03  0.74930716007E+03  0.10590286887E+04  0.50400001928E-02 0.  1.
</event>
<event>
 5   0  0.8037548E-05  0.1599150E+04  0.7818609E-02  0.8821070E-01
        2   -1    0    0  501    0  0.00000000000E+00  0.00000000000E+00  0.16634327574E+04  0.16634327574E+04  0.25500000920E-02 0. -1.
       -2   -1    0    0    0  501  0.00000000000E+00  0.00000000000E+00 -0.38433801455E+03  0.38433801456E+03  0.25500000920E-02 0.  1.
    10030    2    1    2    0    0  0.00000000000E+00  0.00000000000E+00  0.12790947428E+04  0.20477707719E+04  0.15991503285E+04 0.  0.
        5    1    3    3  502    0 -0.26748656125E+03 -0.13480543993E+03  0.15888533990E+04  0.16168484099E+04  0.46999998093E+01 0. -1.
       -5    1    3    3    0  502  0.26748656125E+03  0.13480543993E+03 -0.30975865613E+03  0.43092236207E+03  0.46999998093E+01 0.  1.
</event>
<event>
 5   0  0.8694033E-05  0.1601496E+04  0.7818609E-02  0.8819630E-01
        2   -1    0    0  501    0  0.00000000000E+00  0.00000000000E+00  0.26106859600E+04  0.26106859600E+04  0.25500000920E-02 0.  1.
       -2   -1    0    0    0  501  0.00000000000E+00  0.00000000000E+00 -0.24560480512E+03  0.24560480514E+03  0.25500000920E-02 0. -1.
    10030    2    1    2    0    0  0.00000000000E+00  0.00000000000E+00  0.23650811548E+04  0.28562907651E+04  0.16014955716E+04 0.  0.
        1    1    3    3  502    0  0.31232519200E+03 -0.15732544074E+03 -0.10220746173E+03  0.36434144030E+03  0.50400001928E-02 0. -1.
       -1    1    3    3    0  502 -0.31232519200E+03  0.15732544074E+03  0.24672886166E+04  0.24919493248E+04  0.50400001928E-02 0.  1.
</event>
<event>
 5   0  0.4373026E-05  0.1599742E+04  0.7818609E-02  0.8820706E-01
       -1   -1    0    0    0  501  0.00000000000E+00  0.00000000000E+00  0.64658598265E+03  0.64658598267E+03  0.50400001928E-02 0. -1.
        1   -1    0    0  501    0  0.00000000000E+00  0.00000000000E+00 -0.98949539337E+03  0.98949539338E+03  0.50400001928E-02 0.  1.
    10030    2    1    2    0    0  0.00000000000E+00  0.00000000000E+00 -0.34290941072E+03  0.16360813760E+04  0.15997422933E+04 0.  0.
        4    1    3    3  502    0 -0.57653753038E+03 -0.19826584930E+03  0.35807831809E+03  0.70705485340E+03  0.12699999809E+01 0. -1.
       -4    1    3    3    0  502  0.57653753038E+03  0.19826584930E+03 -0.70098772882E+03  0.92902652265E+03  0.12699999809E+01 0.  1.
</event>
<event>
 5   0  0.4314657E-05  0.1599071E+04  0.7818609E-02  0.8821119E-01
       -1   -1    0    0    0  501  0.00000000000E+00  0.00000000000E+00  0.64448365902E+03  0.64448365904E+03  0.50400001928E-02 0.  1.
        1   -1    0    0  501    0  0.00000000000E+00  0.00000000000E+00 -0.99189035783E+03  0.99189035785E+03  0.50400001928E-02 0. -1.
    10030    2    1    2    0    0  0.00000000000E+00  0.00000000000E+00 -0.34740669882E+03  0.16363740169E+04  0.15990711394E+04 0.  0.
        5    1    3    3  502    0 -0.64783462632E+03 -0.38306099401E+03 -0.44983051776E+03  0.87680956479E+03  0.46999998093E+01 0. -1.
       -5    1    3    3    0  502  0.64783462632E+03  0.38306099401E+03  0.10242381895E+03  0.75956445209E+03  0.46999998093E+01 0.  1.
</event>
<event>
 5   0  0.8037548E-05  0.1603503E+04  0.7818609E-02  0.8818399E-01
       -2   -1    0    0    0  501  0.00000000000E+00  0.00000000000E+00  0.62846869272E+03  0.62846869272E+03  0.25500000920E-02 0. -1.
        2   -1    0    0  501    0  0.00000000000E+00  0.00000000000E+00 -0.10228120044E+04  0.10228120044E+04  0.25500000920E-02 0.  1.
    10030    2    1    2    0    0  0.00000000000E+00  0.00000000000E+00 -0.39434331166E+03  0.16512806971E+04  0.16035028198E+04 0.  0.
        5    1    3    3  502    0  0.79190459137E+03 -0.20031183731E+02 -0.69921612040E+02  0.79525169097E+03  0.46999998093E+01 0. -1.
       -5    1    3    3    0  502 -0.79190459137E+03  0.20031183731E+02 -0.32442169961E+03  0.85602900613E+03  0.46999998093E+01 0.  1.
</event>
<event>
 5   0  0.7901257E-05  0.1600363E+04  0.7818609E-02  0.8820325E-01
        2   -1    0    0  501    0  0.00000000000E+00  0.00000000000E+00  0.61362096827E+03  0.61362096828E+03  0.25500000920E-02 0.  1.
       -2   -1    0    0    0  501  0.00000000000E+00  0.00000000000E+00 -0.10434622492E+04  0.10434622492E+04  0.25500000920E-02 0. -1.
    10030    2    1    2    0    0  0.00000000000E+00  0.00000000000E+00 -0.42984128091E+03  0.16570832175E+04  0.16003628535E+04 0.  0.
        2    1    3    3  502    0 -0.32837867506E+03 -0.48307568667E+03  0.35135893722E+03  0.68165077280E+03  0.25500000920E-02 0.  1.
       -2    1    3    3    0  502  0.32837867506E+03  0.48307568667E+03 -0.78120021813E+03  0.97543244466E+03  0.25500000920E-02 0. -1.
</event>
<event>
 5   0  0.7849690E-05  0.1603073E+04  0.7818609E-02  0.8818663E-01
       -2   -1    0    0    0  501  0.00000000000E+00  0.00000000000E+00  0.63901341849E+03  0.63901341850E+03  0.25500000920E-02 0. -1.
        2   -1    0    0  501    0  0.00000000000E+00  0.00000000000E+00 -0.10053944149E+04  0.10053944149E+04  0.25500000920E-02 0.  1.
    10030    2    1    2    0    0  0.00000000000E+00  0.00000000000E+00 -0.36638099642E+03  0.16444078334E+04  0.16030727021E+04 0.  0.
        3    1    3    3  502    0  0.15753674442E+03  0.73834641480E+03  0.92986276375E+02  0.76067056725E+03  0.10100000352E+00 0. -1.
       -3    1    3    3    0  502 -0.15753674442E+03 -0.73834641480E+03 -0.45936727280E+03  0.88373726617E+03  0.10100000352E+00 0.  1.
</event>
<event>
 5   0  0.4504463E-05  0.1612085E+04  0.7818609E-02  0.8813158E-01
        1   -1    0    0  501    0  0.00000000000E+00  0.00000000000E+00  0.30911840763E+04  0.30911840764E+04  0.50400001928E-02 0.  1.
       -1   -1    0    0    0  501  0.00000000000E+00  0.00000000000E+00 -0.21017990439E+03  0.21017990445E+03  0.50400001928E-02 0. -1.
    10030    2    1    2    0    0  0.00000000000E+00  0.00000000000E+00  0.28810041720E+04  0.33013639808E+04  0.16120853249E+04 0.  0.
        1    1    3    3  502    0 -0.11397639425E+03 -0.75605520661E+03  0.91801190695E+03  0.11947200322E+04  0.50400001928E-02 0. -1.
       -1    1    3    3    0  502  0.11397639425E+03  0.75605520661E+03  0.19629922650E+04  0.21066439486E+04  0.50400001928E-02 0.  1.
</event>
<event>
 5   0  0.7849690E-05  0.1597881E+04  0.7818609E-02  0.8821851E-01
        2   -1    0    0  501    0  0.00000000000E+00  0.00000000000E+00  0.22908818370E+04  0.22908818370E+04  0.25500000920E-02 0. -1.
       -2   -1    0    0    0  501  0.00000000000E+00  0.00000000000E+00 -0.27862883451E+03  0.27862883453E+03  0.25500000920E-02 0.  1.
    10030    2    1    2    0    0  0.00000000000E+00  0.00000000000E+00  0.20122530025E+04  0.25695106716E+04  0.15978807669E+04 0.  0.
        3    1    3    3  502    0 -0.53394573471E+03 -0.20138026265E+03  0.19052882445E+04  0.19889131109E+04  0.10100000352E+00 0. -1.
       -3    1    3    3    0  502  0.53394573471E+03  0.20138026265E+03  0.10696475801E+03  0.58059756068E+03  0.10100000352E+00 0.  1.
</event>
<event>
 5   0  0.8037548E-05  0.1603303E+04  0.7818609E-02  0.8818522E-01
       -2   -1    0    0    0  501  0.00000000000E+00  0.00000000000E+00  0.13701052625E+04  0.13701052625E+04  0.25500000920E-02 0. -1.
        2   -1    0    0  501    0  0.00000000000E+00  0.00000000000E+00 -0.46904783028E+03  0.46904783029E+03  0.25500000920E-02 0.  1.
    10030    2    1    2    0    0  0.00000000000E+00  0.00000000000E+00  0.90105743225E+03  0.18391530928E+04  0.16033027171E+04 0.  0.
        5    1    3    3  502    0  0.69095779522E+03  0.13261633752E+03  0.98067267793E+01  0.70365334480E+03  0.46999998093E+01 0.  1.
       -5    1    3    3    0  502 -0.69095779522E+03 -0.13261633752E+03  0.89125070547E+03  0.11354997480E+04  0.46999998093E+01 0. -1.
</event>
<event>
 5   0  0.4504463E-05  0.1600670E+04  0.7818609E-02  0.8820137E-01
        1   -1    0    0  501    0  0.00000000000E+00  0.00000000000E+00  0.12716342814E+04  0.12716342815E+04  0.50400001928E-02 0.  1.
       -1   -1    0    0    0  501  0.00000000000E+00  0.00000000000E+00 -0.50371067274E+03  0.50371067277E+03  0.50400001928E-02 0. -1.
    10030    2    1    2    0    0  0.00000000000E+00  0.00000000000E+00  0.76792360870E+03  0.17753449542E+04  0.16006695592E+04 0.  0.
        1    1    3    3  502    0 -0.35945866594E+03  0.33100381019E+03  0.10869780051E+04  0.11917614017E+04  0.50400001928E-02 0.  1.
       -1    1    3    3    0  502  0.35945866594E+03 -0.33100381019E+03 -0.31905439644E+03  0.58358355253E+03  0.50400001928E-02 0. -1.
</event>
<event>
 5   0  0.4211419E-05  0.1601074E+04  0.7818609E-02  0.8819888E-01
        1   -1    0    0  501    0  0.00000000000E+00  0.00000000000E+00  0.11059990281E+04  0.11059990281E+04  0.50400001928E-02 0. -1.
       -1   -1    0    0    0  501  0.00000000000E+00  0.00000000000E+00 -0.57943944696E+03  0.57943944698E+03  0.50400001928E-02 0.  1.
    10030    2    1    2    0    0  0.00000000000E+00  0.00000000000E+00  0.52655958114E+03  0.16854384751E+04  0.16010739711E+04 0.  0.
        2    1    3    3  502    0  0.20848859955E+03  0.61739255550E+03 -0.22621472778E+03  0.68979284340E+03  0.25500000920E-02 0.  1.
       -2    1    3    3    0  502 -0.20848859955E+03 -0.61739255550E+03  0.75277430893E+03  0.99564563170E+03  0.25500000920E-02 0. -1.
</event>
<event>
 5   0  0.8620155E-05  0.1599585E+04  0.7818609E-02  0.8820803E-01
        2   -1    0    0  501    0  0.00000000000E+00  0.00000000000E+00  0.12188101289E+04  0.12188101289E+04  0.25500000920E-02 0.  1.
       -2   -1    0    0    0  501  0.00000000000E+00  0.00000000000E+00 -0.52482968922E+03  0.52482968923E+03  0.25500000920E-02 0. -1.
    10030    2    1    2    0    0  0.00000000000E+00  0.00000000000E+00  0.69398043966E+03  0.17436398181E+04  0.15995846225E+04 0.  0.
        4    1    3    3  502    0 -0.55520667754E+03  0.16960931197E+03 -0.25268464565E+03  0.63314525706E+03  0.12699999809E+01 0. -1.
       -4    1    3    3    0  502  0.55520667754E+03 -0.16960931197E+03  0.94666508531E+03  0.11104945611E+04  0.12699999809E+01 0.  1.
</event>
<event>
 5   0  0.8620155E-05  0.1600324E+04  0.7818609E-02  0.8820349E-01
       -2   -1    0    0    0  501  0.00000000000E+00  0.00000000000E+00  0.50148466441E+03  0.50148466442E+03  0.25500000920E-02 0.  1.
        2   -1    0    0  501    0  0.00000000000E+00  0.00000000000E+00 -0.12767269195E+04  0.12767269195E+04  0.25500000920E-02 0. -1.
    10030    2    1    2    0    0  0.00000000000E+00  0.00000000000E+00 -0.77524225512E+03  0.17782115839E+04  0.16003236808E+04 0.  0.
        4    1    3    3  502    0  0.60848468690E+03 -0.44809999227E+03 -0.67994243279E+03  0.10165483471E+04  0.12699999809E+01 0. -1.
       -4    1    3    3    0  502 -0.60848468690E+03  0.44809999227E+03 -0.95299822324E+02  0.76166323681E+03  0.12699999809E+01 0.  1.
</event>
<event>
 5   0  0.7901257E-05  0.1600267E+04  0.7818609E-02  0.8820384E-01
        2   -1    0    0  501    0  0.00000000000E+00  0.00000000000E+00  0.65208699239E+03  0.65208699240E+03  0.25500000920E-02 0.  1.
       -2   -1    0    0    0  501  0.00000000000E+00  0.00000000000E+00 -0.98179192180E+03  0.98179192180E+03  0.25500000920E-02 0. -1.
    10030    2    1    2    0    0  0.00000000000E+00  0.00000000000E+00 -0.32970492940E+03  0.16338789142E+04  0.16002671545E+04 0.  0.
        2    1    3    3  502    0  0.32371236091E+03  0.58230552482E+03  0.28756207395E+03  0.72564548040E+03  0.25500000920E-02 0.  1.
       -2    1    3    3    0  502 -0.32371236091E+03 -0.58230552482E+03 -0.61726700336E+03  0.90823343380E+03  0.25500000920E-02 0. -1.
</event>
<event>
 5   0  0.8694033E-05  0.1597857E+04  0.7818609E-02  0.8821865E-01
       -2   -1    0    0    0  501  0.00000000000E+00  0.00000000000E+00  0.67266970727E+03  0.67266970727E+03  0.25500000920E-02 0. -1.
        2   -1    0    0  501    0  0.00000000000E+00  0.00000000000E+00 -0.94888633306E+03  0.94888633307E+03  0.25500000920E-02 0.  1.
    10030    2    1    2    0    0  0.00000000000E+00  0.00000000000E+00 -0.27621662579E+03  0.16215560403E+04  0.15978574303E+04 0.  0.
        1    1    3    3  502    0  0.24392158023E+02 -0.60543083664E+02 -0.94617590970E+03  0.94842463826E+03  0.50400001928E-02 0.  1.
       -1    1    3    3    0  502 -0.24392158023E+02  0.60543083664E+02  0.66995928390E+03  0.67313140208E+03  0.50400001928E-02 0. -1.
</event>
<event>
 5   0  0.8620155E-05  0.1599498E+04  0.7818609E-02  0.8820856E-01
       -2   -1    0    0    0  501  0.00000000000E+00  0.00000000000E+00  0.50531480493E+03  0.50531480493E+03  0.25500000920E-02 0.  1.
        2   -1    0    0  501    0  0.00000000000E+00  0.00000000000E+00 -0.12657426673E+04  0.12657426673E+04  0.25500000920E-02 0. -1.
    10030    2    1    2    0    0  0.00000000000E+00  0.00000000000E+00 -0.76042786237E+03  0.17710574722E+04  0.15994980575E+04 0.  0.
        4    1    3    3  502    0 -0.41802117503E+03  0.53449428330E+03 -0.84890088241E+03  0.10867659190E+04  0.12699999809E+01 0. -1.
       -4    1    3    3    0  502  0.41802117503E+03 -0.53449428330E+03  0.88473020041E+02  0.68429155323E+03  0.12699999809E+01 0.  1.
</event>
<event>
 5   0  0.7849690E-05  0.1600007E+04  0.7818609E-02  0.8820543E-01
       -2   -1    0    0    0  501  0.00000000000E+00  0.00000000000E+00  0.37197447829E+03  0.37197447829E+03  0.25500000920E-02 0.  1.
        2   -1    0    0  501    0  0.00000000000E+00  0.00000000000E+00 -0.17205642780E+04  0.17205642780E+04  0.25500000920E-02 0. -1.
    10030    2    1    2    0    0  0.00000000000E+00  0.00000000000E+00 -0.13485897997E+04  0.20925387563E+04  0.16000074996E+04 0.  0.
        3    1    3    3  502    0  0.78246527821E+03 -0.15945374998E+03 -0.73740473194E+03  0.10869421139E+04  0.10100000352E+00 0.  1.
       -3    1    3    3    0  502 -0.78246527821E+03  0.15945374998E+03 -0.61118506773E+03  0.10055966424E+04  0.10100000352E+00 0. -1.
</event>
<event>
 5   0  0.4256406E-05  0.1597701E+04  0.7818609E-02  0.8821962E-01
       -1   -1    0    0    0  501  0.00000000000E+00  0.00000000000E+00  0.53715474257E+03  0.53715474259E+03  0.50400001928E-02 0. -1.
        1   -1    0    0  501    0  0.00000000000E+00  0.00000000000E+00 -0.11880414215E+04  0.11880414215E+04  0.50400001928E-02 0.  1.
    10030    2    1    2    0    0  0.00000000000E+00  0.00000000000E+00 -0.65088667891E+03  0.17251961641E+04  0.15977009532E+04 0.  0.
        3    1    3    3  502    0  0.21263752488E+03 -0.58468656324E+02  0.50363485468E+03  0.54980121663E+03  0.10100000352E+00 0. -1.
       -3    1    3    3    0  502 -0.21263752488E+03  0.58468656324E+02 -0.11545215336E+04  0.11753949474E+04  0.10100000352E+00 0.  1.
</event>
<event>
 5   0  0.4256406E-05  0.1600022E+04  0.7818609E-02  0.8820535E-01
       -1   -1    0    0    0  501  0.00000000000E+00  0.00000000000E+00  0.37146032130E+03  0.37146032134E+03  0.50400001928E-02 0.  1.
        1   -1    0    0  501    0  0.00000000000E+00  0.00000000000E+00 -0.17229760925E+04  0.17229760925E+04  0.50400001928E-02 0. -1.
    10030    2    1    2    0    0  0.00000000000E+00  0.00000000000E+00 -0.13515157712E+04  0.20944364138E+04  0.16000215660E+04 0.  0.
        3    1    3    3  502    0 -0.14515135235E+02  0.32116238087E+02 -0.17219593730E+04  0.17223200151E+04  0.10100000352E+00 0. -1.
       -3    1    3    3    0  502  0.14515135235E+02 -0.32116238087E+02  0.37044360181E+03  0.37211639876E+03  0.10100000352E+00 0.  1.
</event>
<event>
 5   0  0.4373026E-05  0.1601104E+04  0.7818609E-02  0.8819870E-01
       -1   -1    0    0    0  501  0.00000000000E+00  0.00000000000E+00  0.11232919004E+04  0.11232919004E+04  0.50400001928E-02 0.  1.
        1   -1    0    0  501    0  0.00000000000E+00  0.00000000000E+00 -0.57054015875E+03  0.57054015877E+03  0.50400001928E-02 0. -1.
    10030    2    1    2    0    0  0.00000000000E+00  0.00000000000E+00  0.55275174162E+03  0.16938320592E+04  0.16011035434E+04 0.  0.
        4    1    3    3  502    0  0.43855410593E+03 -0.65109163033E+03  0.11034208895E+03  0.79273387994E+03  0.12699999809E+01 0. -1.
       -4    1    3    3    0  502 -0.43855410593E+03  0.65109163033E+03  0.44240965266E+03  0.90109817921E+03  0.12699999809E+01 0.  1.
</event>
<event>
 5   0  0.4504463E-05  0.1612889E+04  0.7818609E-02  0.8812669E-01
        1   -1    0    0  501    0  0.00000000000E+00  0.00000000000E+00  0.66823363991E+03  0.66823363993E+03  0.50400001928E-02 0.  1.
       -1   -1    0    0    0  501  0.00000000000E+00  0.00000000000E+00 -0.97324187205E+03  0.97324187206E+03  0.50400001928E-02 0. -1.
    10030    2    1    2    0    0  0.00000000000E+00  0.00000000000E+00 -0.30500823214E+03  0.16414755120E+04  0.16128892816E+04 0.  0.
        1    1    3    3  502    0  0.45085774488E+03  0.22120106397E+02  0.52761473583E+03  0.69436252399E+03  0.50400001928E-02 0.  1.
       -1    1    3    3    0  502 -0.45085774488E+03 -0.22120106397E+02 -0.83262296797E+03  0.94711298801E+03  0.50400001928E-02 0. -1.
</event>
<event>
 5   0  0.8694033E-05  0.1609747E+04  0.7818609E-02  0.8814582E-01
        2   -1    0    0  501    0  0.00000000000E+00  0.00000000000E+00  0.63064059981E+03  0.63064059982E+03  0.25500000920E-02 0.  1.
       -2   -1    0    0    0  501  0.00000000000E+00  0.00000000000E+00 -0.10272436456E+04  0.10272436456E+04  0.25500000920E-02 0. -1.
    10030    2    1    2    0    0  0.00000000000E+00  0.00000000000E+00 -0.39660304581E+03  0.16578842454E+04  0.16097472458E+04 0.  0.
        1    1    3    3  502    0 -0.21755020803E+03  0.58375570791E+03  0.32656816568E+03  0.70338153686E+03  0.50400001928E-02 0.  1.
       -1    1    3    3    0  502  0.21755020803E+03 -0.58375570791E+03 -0.72317121149E+03  0.95450270858E+03  0.50400001928E-02 0. -1.
</event>
<event>
 5   0  0.8620155E-05  0.1597573E+04  0.7818609E-02  0.8822040E-01
       -2   -1    0    0    0  501  0.00000000000E+00  0.00000000000E+00  0.11225146040E+04  0.11225146040E+04  0.25500000920E-02 0.  1.
        2   -1    0    0  501    0  0.00000000000E+00  0.00000000000E+00 -0.56842018332E+03  0.56842018333E+03  0.25500000920E-02 0. -1.
    10030    2    1    2    0    0  0.00000000000E+00  0.00000000000E+00  0.55409442065E+03  0.16909347873E+04  0.15975731057E+04 0.  0.
        4    1    3    3  502    0 -0.18979479915E+02 -0.89249059329E+02 -0.56288502809E+03  0.57023397216E+03  0.12699999809E+01 0. -1.
       -4    1    3    3    0  502  0.18979479915E+02  0.89249059329E+02  0.11169794487E+04  0.11207008151E+04  0.12699999809E+01 0.  1.
</event>
<event>
 5   0  0.7901257E-05  0.1600519E+04  0.7818609E-02  0.8820229E-01
        2   -1    0    0  501    0  0.00000000000E+00  0.00000000000E+00  0.15288737624E+04  0.15288737624E+04  0.25500000920E-02 0. -1.
       -2   -1    0    0    0  501  0.00000000000E+00  0.00000000000E+00 -0.41888020497E+03  0.41888020498E+03  0.25500000920E-02 0.  1.
    10030    2    1    2    0    0  0.00000000000E+00  0.00000000000E+00  0.11099935574E+04  0.19477539674E+04  0.16005186097E+04 0.  0.
        2    1    3    3  502    0  0.70711547428E+03  0.16243673491E+03  0.14407598938E+03  0.73969985639E+03  0.25500000920E-02 0.  1.
       -2    1    3    3    0  502 -0.70711547428E+03 -0.16243673491E+03  0.96591756806E+03  0.12080541110E+04  0.25500000920E-02 0. -1.
</event>
<event>
 5   0  0.4314657E-05  0.1599953E+04  0.7818609E-02  0.8820577E-01
        1   -1    0    0  501    0  0.00000000000E+00  0.00000000000E+00  0.21964036917E+04  0.21964036917E+04  0.50400001928E-02 0.  1.
       -1   -1    0    0    0  501  0.00000000000E+00  0.00000000000E+00 -0.29136846801E+03  0.29136846805E+03  0.50400001928E-02 0. -1.
    10030    2    1    2    0    0  0.00000000000E+00  0.00000000000E+00  0.19050352237E+04  0.24877721598E+04  0.15999534729E+04 0.  0.
        5    1    3    3  502    0 -0.17749849392E+03 -0.34192587784E+03  0.20426383050E+04  0.20786563824E+04  0.46999998093E+01 0.  1.
       -5    1    3    3    0  502  0.17749849392E+03  0.34192587784E+03 -0.13760308128E+03  0.40911577732E+03  0.46999998093E+01 0. -1.
</event>
<event>
 5   0  0.4256406E-05  0.1599768E+04  0.7818609E-02  0.8820690E-01
       -1   -1    0    0    0  501  0.00000000000E+00  0.00000000000E+00  0.48640823639E+03  0.48640823642E+03  0.50400001928E-02 0.  1.
        1   -1    0    0  501    0  0.00000000000E+00  0.00000000000E+00 -0.13153858643E+04  0.13153858643E+04  0.50400001928E-02 0. -1.
    10030    2    1    2    0    0  0.00000000000E+00  0.00000000000E+00 -0.82897762789E+03  0.18017941007E+04  0.15997681313E+04 0.  0.
        3    1    3    3  502    0  0.58744868941E+02 -0.76218078593E+03 -0.67968995597E+03  0.10229119984E+04  0.10100000352E+00 0. -1.
       -3    1    3    3    0  502 -0.58744868941E+02  0.76218078593E+03 -0.14928767192E+03  0.77888210228E+03  0.10100000352E+00 0.  1.
</event>
<event>
 5   0  0.8694033E-05  0.1600468E+04  0.7818609E-02  0.8820261E-01
       -2   -1    0    0    0  501  0.00000000000E+00  0.00000000000E+00  0.24812159073E+03  0.24812159074E+03  0.25500000920E-02 0. -1.
        2   -1    0    0  501    0  0.00000000000E+00  0.00000000000E+00 -0.25808898711E+04  0.25808898711E+04  0.25500000920E-02 0.  1.
    10030    2    1    2    0    0  0.00000000000E+00  0.00000000000E+00 -0.23327682804E+04  0.28290114618E+04  0.16004680570E+04 0.  0.
        1    1    3    3  502    0 -0.56788145377E+02  0.61838212123E+03 -0.27421440773E+03  0.67883347203E+03  0.50400001928E-02 0. -1.
       -1    1    3    3    0  502  0.56788145377E+02 -0.61838212123E+03 -0.20585538726E+04  0.21501779898E+04  0.50400001928E-02 0.  1.
</event>
<event>
 5   0  0.4373026E-05  0.1600238E+04  0.7818609E-02  0.8820402E-01
       -1   -1    0    0    0  501  0.00000000000E+00  0.00000000000E+00  0.81909831388E+03  0.81909831390E+03  0.50400001928E-02 0. -1.
        1   -1    0    0  501    0  0.00000000000E+00  0.00000000000E+00 -0.78157898213E+03  0.78157898215E+03  0.50400001928E-02 0.  1.
    10030    2    1    2    0    0  0.00000000000E+00  0.00000000000E+00  0.37519331749E+02  0.16006772960E+04  0.16002375154E+04 0.  0.
        4    1    3    3  502    0  0.46286719551E+02 -0.63238239606E+02  0.81524910476E+03  0.81900808975E+03  0.12699999809E+01 0. -1.
       -4    1    3    3    0  502 -0.46286719551E+02  0.63238239606E+02 -0.77772977301E+03  0.78166920630E+03  0.12699999809E+01 0.  1.
</event>
<event>
 5   0  0.4256406E-05  0.1603682E+04  0.7818609E-02  0.8818289E-01
       -1   -1    0    0    0  501  0.00000000000E+00  0.00000000000E+00  0.12290761725E+04  0.12290761725E+04  0.50400001928E-02 0. -1.
        1   -1    0    0  501    0  0.00000000000E+00  0.00000000000E+00 -0.52311574439E+03  0.52311574442E+03  0.50400001928E-02 0.  1.
    10030    2    1    2    0    0  0.00000000000E+00  0.00000000000E+00  0.70596042810E+03  0.17521919169E+04  0.16036821342E+04 0.  0.
        3    1    3    3  502    0 -0.47609343513E+03 -0.64344480470E+03  0.40495552815E+03  0.89703688088E+03  0.10100000352E+00 0.  1.
       -3    1    3    3    0  502  0.47609343513E+03  0.64344480470E+03  0.30100489995E+03  0.85515503604E+03  0.10100000352E+00 0. -1.
</event>
<event>
 5   0  0.4504463E-05  0.1602185E+04  0.7818609E-02  0.8819207E-01
        1   -1    0    0  501    0  0.00000000000E+00  0.00000000000E+00  0.67240900375E+03  0.67240900377E+03  0.50400001928E-02 0. -1.
       -1   -1    0    0    0  501  0.00000000000E+00  0.00000000000E+00 -0.95440244148E+03  0.95440244150E+03  0.50400001928E-02 0.  1.
    10030    2    1    2    0    0  0.00000000000E+00  0.00000000000E+00 -0.28199343773E+03  0.16268114453E+04  0.16021845023E+04 0.  0.
        1    1    3    3  502    0  0.39550866248E+03 -0.10178093017E+03 -0.84076504042E+03  0.93470439876E+03  0.50400001928E-02 0.  1.
       -1    1    3    3    0  502 -0.39550866248E+03  0.10178093017E+03  0.55877160268E+03  0.69210704651E+03  0.50400001928E-02 0. -1.
</event>
<event>
 5   0  0.4314657E-05  0.1599548E+04  0.7818609E-02  0.8820826E-01
       -1   -1    0    0    0  501  0.00000000000E+00  0.00000000000E+00  0.77480212700E+03  0.77480212702E+03  0.50400001928E-02 0. -1.
        1   -1    0    0  501    0  0.00000000000E+00  0.00000000000E+00 -0.82555071043E+03  0.82555071044E+03  0.50400001928E-02 0.  1.
    10030    2    1    2    0    0  0.00000000000E+00  0.00000000000E+00 -0.50748583424E+02  0.16003528375E+04  0.15995479942E+04 0.  0.
        5    1    3    3  502    0 -0.93028384697E+01  0.55137209350E+03  0.55415686220E+03  0.78179898069E+03  0.46999998093E+01 0. -1.
       -5    1    3    3    0  502  0.93028384697E+01 -0.55137209350E+03 -0.60490544562E+03  0.81855385677E+03  0.46999998093E+01 0.  1.
</event>
<event>
 5   0  0.4256406E-05  0.1596858E+04  0.7818609E-02  0.8822481E-01
       -1   -1    0    0    0  501  0.00000000000E+00  0.00000000000E+00  0.41406659737E+03  0.41406659740E+03  0.50400001928E-02 0. -1.
        1   -1    0    0  501    0  0.00000000000E+00  0.00000000000E+00 -0.15395806248E+04  0.15395806248E+04  0.50400001928E-02 0.  1.
    10030    2    1    2    0    0  0.00000000000E+00  0.00000000000E+00 -0.11255140274E+04  0.19536472222E+04  0.15968580534E+04 0.  0.
        3    1    3    3  502    0  0.12153175083E+03  0.78864600722E+03 -0.52910908993E+03  0.95743873455E+03  0.10100000352E+00 0.  1.
       -3    1    3    3    0  502 -0.12153175083E+03 -0.78864600722E+03 -0.59640493746E+03  0.99620848761E+03  0.10100000352E+00 0. -1.
</event>
<event>
 5   0  0.8620155E-05  0.1602929E+04  0.7818609E-02  0.8818751E-01
       -2   -1    0    0    0  501  0.00000000000E+00  0.00000000000E+00  0.37377776444E+03  0.37377776445E+03  0.25500000920E-02 0. -1.
        2   -1    0    0  501    0  0.00000000000E+00  0.00000000000E+00 -0.17185212878E+04  0.17185212878E+04  0.25500000920E-02 0.  1.
    10030    2    1    2    0    0  0.00000000000E+00  0.00000000000E+00 -0.13447435233E+04  0.20922990522E+04  0.16029286261E+04 0.  0.
        4    1    3    3  502    0 -0.31412599275E+03 -0.31610155027E+01 -0.16348093699E+04  0.16647187210E+04  0.12699999809E+01 0.  1.
       -4    1    3    3    0  502  0.31412599275E+03  0.31610155027E+01  0.29006584659E+03  0.42758033117E+03  0.12699999809E+01 0. -1.
</event>
<event>
 5   0  0.8694033E-05  0.1600596E+04  0.7818609E-02  0.8820182E-01
       -2   -1    0    0    0  501  0.00000000000E+00  0.00000000000E+00  0.25448035185E+03  0.25448035186E+03  0.25500000920E-02 0. -1.
        2   -1    0    0  501    0  0.00000000000E+00  0.00000000000E+00 -0.25168020806E+04  0.25168020806E+04  0.25500000920E-02 0.  1.
    10030    2    1    2    0    0  0.00000000000E+00  0.00000000000E+00 -0.22623217287E+04  0.27712824324E+04  0.16005957379E+04 0.  0.
        1    1    3    3  502    0  0.60145326390E+03 -0.33816413318E+03 -0.18331298099E+04  0.19586898452E+04  0.50400001928E-02 0.  1.
       -1    1    3    3    0  502 -0.60145326390E+03  0.33816413318E+03 -0.42919191877E+03  0.81259258721E+03  0.50400001928E-02 0. -1.
</event>
<event>
 5   0  0.4373026E-05  0.1599680E+04  0.7818609E-02  0.8820745E-01
        1   -1    0    0  501    0  0.00000000000E+00  0.00000000000E+00  0.40199332095E+03  0.40199332098E+03  0.50400001928E-02 0. -1.
       -1   -1    0    0    0  501  0.00000000000E+00  0.00000000000E+00 -0.15914288120E+04  0.15914288120E+04  0.50400001928E-02 0.  1.
    10030    2    1    2    0    0  0.00000000000E+00  0.00000000000E+00 -0.11894354911E+04  0.19934221330E+04  0.15996796595E+04 0.  0.
        4    1    3    3  502    0 -0.78278722609E+02  0.66416678955E+03 -0.11414545386E+04  0.13229380784E+04  0.12699999809E+01 0.  1.
       -4    1    3    3    0  502  0.78278722609E+02 -0.66416678955E+03 -0.47980952457E+02  0.67048405458E+03  0.12699999809E+01 0. -1.
</event>
<event>
 5   0  0.8037548E-05  0.1617983E+04  0.7818609E-02  0.8809576E-01
       -2   -1    0    0    0  501  0.00000000000E+00  0.00000000000E+00  0.57596124172E+03  0.57596124173E+03  0.25500000920E-02 0. -1.
        2   -1    0    0  501    0  0.00000000000E+00  0.00000000000E+00 -0.11363036265E+04  0.11363036265E+04  0.25500000920E-02 0.  1.
    10030    2    1    2    0    0  0.00000000000E+00  0.00000000000E+00 -0.56034238480E+03  0.17122648683E+04  0.16179825064E+04 0.  0.
        5    1    3    3  502    0  0.16779424203E+03  0.74149156499E+02 -0.11139869412E+04  0.11290004429E+04  0.46999998093E+01 0.  1.
       -5    1    3    3    0  502 -0.16779424203E+03 -0.74149156499E+02  0.55364455636E+03  0.58326442533E+03  0.46999998093E+01 0. -1.
</event>
<event>
 5   0  0.4373026E-05  0.1597752E+04  0.7818609E-02  0.8821930E-01
        1   -1    0    0  501    0  0.00000000000E+00  0.00000000000E+00  0.67422693476E+03  0.67422693478E+03  0.50400001928E-02 0.  1.
       -1   -1    0    0    0  501  0.00000000000E+00  0.00000000000E+00 -0.94656963070E+03  0.94656963071E+03  0.50400001928E-02 0. -1.
    10030    2    1    2    0    0  0.00000000000E+00  0.00000000000E+00 -0.27234269594E+03  0.16207965655E+04  0.15977518464E+04 0.  0.
        4    1    3    3  502    0  0.72811871694E+03  0.14340225921E+03 -0.43620757844E+03  0.86081341665E+03  0.12699999809E+01 0. -1.
       -4    1    3    3    0  502 -0.72811871694E+03 -0.14340225921E+03  0.16386488250E+03  0.75998314884E+03  0.12699999809E+01 0.  1.
</event>
<event>
 5   0  0.4504463E-05  0.1599687E+04  0.7818609E-02  0.8820740E-01
        1   -1    0    0  501    0  0.00000000000E+00  0.00000000000E+00  0.50659046620E+03  0.50659046623E+03  0.50400001928E-02 0. -1.
       -1   -1    0    0    0  501  0.00000000000E+00  0.00000000000E+00 -0.12628538293E+04  0.12628538293E+04  0.50400001928E-02 0.  1.
    10030    2    1    2    0    0  0.00000000000E+00  0.00000000000E+00 -0.75626336308E+03  0.17694442955E+04  0.15996871071E+04 0.  0.
        1    1    3    3  502    0 -0.44963763023E+02 -0.71959070639E+03  0.49069381924E+01  0.72101082015E+03  0.50400001928E-02 0.  1.
       -1    1    3    3    0  502  0.44963763023E+02  0.71959070639E+03 -0.76117030127E+03  0.10484334754E+04  0.50400001928E-02 0. -1.
</event>
<event>
 5   0  0.4504463E-05  0.1599219E+04  0.7818609E-02  0.8821028E-01
        1   -1    0    0  501    0  0.00000000000E+00  0.00000000000E+00  0.10831729342E+04  0.10831729342E+04  0.50400001928E-02 0.  1.
       -1   -1    0    0    0  501  0.00000000000E+00  0.00000000000E+00 -0.59027977860E+03  0.59027977863E+03  0.50400001928E-02 0. -1.
    10030    2    1    2    0    0  0.00000000000E+00  0.00000000000E+00  0.49289315560E+03  0.16734527128E+04  0.15992186590E+04 0.  0.
        1    1    3    3  502    0  0.41636417402E+03 -0.13429803198E+03 -0.45393530906E+03  0.63043822190E+03  0.50400001928E-02 0. -1.
       -1    1    3    3    0  502 -0.41636417402E+03  0.13429803198E+03  0.94682846466E+03  0.10430144909E+04  0.50400001928E-02 0.  1.
</event>
<event>
 5   0  0.4256406E-05  0.1600336E+04  0.7818609E-02  0.8820342E-01
       -1   -1    0    0    0  501  0.00000000000E+00  0.00000000000E+00  0.37307192269E+03  0.37307192272E+03  0.50400001928E-02 0.  1.
        1   -1    0    0  501    0  0.00000000000E+00  0.00000000000E+00 -0.17162064455E+04  0.17162064455E+04  0.50400001928E-02 0. -1.
    10030    2    1    2    0    0  0.00000000000E+00  0.00000000000E+00 -0.13431345228E+04  0.20892783682E+04  0.16003355128E+04 0.  0.
        3    1    3    3  502    0  0.17952557278E+03  0.57735124224E+03  0.12688059923E+02  0.60475192042E+03  0.10100000352E+00 0.  1.
       -3    1    3    3    0  502 -0.17952557278E+03 -0.57735124224E+03 -0.13558225827E+04  0.14845264478E+04  0.10100000352E+00 0. -1.
</event>
<event>
 5   0  0.8037548E-05  0.1603937E+04  0.7818609E-02  0.8818133E-01
        2   -1    0    0  501    0  0.00000000000E+00  0.00000000000E+00  0.13422802026E+04  0.13422802026E+04  0.25500000920E-02 0.  1.
       -2   -1    0    0    0  501  0.00000000000E+00  0.00000000000E+00 -0.47914985668E+03  0.47914985668E+03  0.25500000920E-02 0. -1.
    10030    2    1    2    0    0  0.00000000000E+00  0.00000000000E+00  0.86313034596E+03  0.18214300593E+04  0.16039368650E+04 0.  0.
        5    1    3    3  502    0 -0.13211879013E+03 -0.56376718628E+03 -0.19850582818E+03  0.61214007290E+03  0.46999998093E+01 0. -1.
       -5    1    3    3    0  502  0.13211879013E+03  0.56376718628E+03  0.10616361741E+04  0.12092899864E+04  0.46999998093E+01 0.  1.
</event>
<event>
 5   0  0.8694033E-05  0.1597591E+04  0.7818609E-02  0.8822030E-01
       -2   -1    0    0    0  501  0.00000000000E+00  0.00000000000E+00  0.61672565193E+03  0.61672565194E+03  0.25500000920E-02 0. -1.
        2   -1    0    0  501    0  0.00000000000E+00  0.00000000000E+00 -0.10346155140E+04  0.10346155140E+04  0.25500000920E-02 0.  1.
    10030    2    1    2    0    0  0.00000000000E+00  0.00000000000E+00 -0.41788986204E+03  0.16513411659E+04  0.15975905951E+04 0.  0.
        1    1    3    3  502    0 -0.29780799611E+03  0.37606276358E+03 -0.86915280762E+03  0.99274337456E+03  0.50400001928E-02 0.  1.
       -1    1    3    3    0  502  0.29780799611E+03 -0.37606276358E+03  0.45126294558E+03  0.65859779136E+03  0.50400001928E-02 0. -1.
</event>
<event>
 5   0  0.4373026E-05  0.1600671E+04  0.7818609E-02  0.8820136E-01
        1   -1    0    0  501    0  0.00000000000E+00  0.00000000000E+00  0.10090002850E+04  0.10090002850E+04  0.50400001928E-02 0.  1.
       -1   -1    0    0    0  501  0.00000000000E+00  0.00000000000E+00 -0.63482319504E+03  0.63482319506E+03  0.50400001928E-02 0. -1.
    10030    2    1    2    0    0  0.00000000000E+00  0.00000000000E+00  0.37417708996E+03  0.16438234801E+04  0.16006708403E+04 0.  0.
        4    1    3    3  502    0 -0.58029816617E+03  0.18013699583E+03 -0.34785746770E+03  0.70014407779E+03  0.12699999809E+01 0. -1.
       -4    1    3    3    0  502  0.58029816617E+03 -0.18013699583E+03  0.72203455766E+03  0.94367940228E+03  0.12699999809E+01 0.  1.
</event>
<event>
 5   0  0.4256406E-05  0.1598030E+04  0.7818609E-02  0.8821759E-01
       -1   -1    0    0    0  501  0.00000000000E+00  0.00000000000E+00  0.96048974011E+03  0.96048974012E+03  0.50400001928E-02 0.  1.
        1   -1    0    0  501    0  0.00000000000E+00  0.00000000000E+00 -0.66468681581E+03  0.66468681583E+03  0.50400001928E-02 0. -1.
    10030    2    1    2    0    0  0.00000000000E+00  0.00000000000E+00  0.29580292430E+03  0.16251765559E+04  0.15980298708E+04 0.  0.
        3    1    3    3  502    0  0.38552141016E+02  0.47342456565E+03 -0.50551427086E+03  0.69365825533E+03  0.10100000352E+00 0. -1.
       -3    1    3    3    0  502 -0.38552141016E+02 -0.47342456565E+03  0.80131719516E+03  0.93151830062E+03  0.10100000352E+00 0.  1.
</event>
<event>
 5   0  0.8037548E-05  0.1600575E+04  0.7818609E-02  0.8820195E-01
       -2   -1    0    0    0  501  0.00000000000E+00  0.00000000000E+00  0.54646611229E+03  0.54646611229E+03  0.25500000920E-02 0.  1.
        2   -1    0    0  501    0  0.00000000000E+00  0.00000000000E+00 -0.11720033793E+04  0.11720033793E+04  0.25500000920E-02 0. -1.
    10030    2    1    2    0    0  0.00000000000E+00  0.00000000000E+00 -0.62553726701E+03  0.17184694916E+04  0.16005750595E+04 0.  0.
        5    1    3    3  502    0  0.48676344462E+02  0.31530406152E+03  0.47521994099E+03  0.57240031450E+03  0.46999998093E+01 0.  1.
       -5    1    3    3    0  502 -0.48676344462E+02 -0.31530406152E+03 -0.11007572080E+04  0.11460691771E+04  0.46999998093E+01 0. -1.
</event>
<event>
 5   0  0.4256406E-05  0.1603632E+04  0.7818609E-02  0.8818320E-01
        1   -1    0    0  501    0  0.00000000000E+00  0.00000000000E+00  0.15931681774E+04  0.15931681774E+04  0.50400001928E-02 0.  1.
       -1   -1    0    0    0  501  0.00000000000E+00  0.00000000000E+00 -0.40354131766E+03  0.40354131769E+03  0.50400001928E-02 0. -1.
    10030    2    1    2    0    0  0.00000000000E+00  0.00000000000E+00  0.11896268598E+04  0.19967094951E+04  0.16036323589E+04 0.  0.
        3    1    3    3  502    0  0.27200222462E+03  0.58406506546E+03  0.11890772250E+04  0.13524133496E+04  0.10100000352E+00 0.  1.
       -3    1    3    3    0  502 -0.27200222462E+03 -0.58406506546E+03  0.54963478330E+00  0.64429614556E+03  0.10100000352E+00 0. -1.
</event>
<event>
 5   0  0.4256406E-05  0.1601149E+04  0.7818609E-02  0.8819843E-01
        1   -1    0    0  501    0  0.00000000000E+00  0.00000000000E+00  0.21025074069E+04  0.21025074070E+04  0.50400001928E-02 0. -1.
       -1   -1    0    0    0  501  0.00000000000E+00  0.00000000000E+00 -0.30483573439E+03  0.30483573443E+03  0.50400001928E-02 0.  1.
    10030    2    1    2    0    0  0.00000000000E+00  0.00000000000E+00  0.17976716726E+04  0.24073431414E+04  0.16011488245E+04 0.  0.
        3    1    3    3  502    0  0.73407876947E+03 -0.30853723792E+03  0.10232962417E+04  0.12966117674E+04  0.10100000352E+00 0. -1.
       -3    1    3    3    0  502 -0.73407876947E+03  0.30853723792E+03  0.77437543086E+03  0.11107313740E+04  0.10100000352E+00 0.  1.
</event>
<event>
 5   0  0.8620155E-05  0.1599643E+04  0.7818609E-02  0.8820768E-01
       -2   -1    0    0    0  501  0.00000000000E+00  0.00000000000E+00  0.68198391583E+03  0.68198391583E+03  0.25500000920E-02 0.  1.
        2   -1    0    0  501    0  0.00000000000E+00  0.00000000000E+00 -0.93801927011E+03  0.93801927011E+03  0.25500000920E-02 0. -1.
    10030    2    1    2    0    0  0.00000000000E+00  0.00000000000E+00 -0.25603535428E+03  0.16200031859E+04  0.15996425288E+04 0.  0.
        4    1    3    3  502    0  0.10174284623E+03  0.12254279334E+03 -0.92179515484E+03  0.93545511028E+03  0.12699999809E+01 0. -1.
       -4    1    3    3    0  502 -0.10174284623E+03 -0.12254279334E+03  0.66575980056E+03  0.68454807567E+03  0.12699999809E+01 0.  1.
</event>
<event>
 5   0  0.7901257E-05  0.1582429E+04  0.7818609E-02  0.8831416E-01
       -2   -1    0    0    0  501  0.00000000000E+00  0.00000000000E+00  0.65431291552E+03  0.65431291553E+03  0.25500000920E-02 0.  1.
        2   -1    0    0  501    0  0.00000000000E+00  0.00000000000E+00 -0.95676005840E+03  0.95676005840E+03  0.25500000920E-02 0. -1.
    10030    2    1    2    0    0  0.00000000000E+00  0.00000000000E+00 -0.30244714288E+03  0.16110729739E+04  0.15824290989E+04 0.  0.
        2    1    3    3  502    0  0.20480706669E+03 -0.27382677456E+03 -0.87764675559E+03  0.94190809776E+03  0.25500000920E-02 0. -1.
       -2    1    3    3    0  502 -0.20480706669E+03  0.27382677456E+03  0.57519961271E+03  0.66916487617E+03  0.25500000920E-02 0.  1.
</event>
<event>
 5   0  0.4211419E-05  0.1600211E+04  0.7818609E-02  0.8820418E-01
       -1   -1    0    0    0  501  0.00000000000E+00  0.00000000000E+00  0.63719235294E+03  0.63719235296E+03  0.50400001928E-02 0. -1.
        1   -1    0    0  501    0  0.00000000000E+00  0.00000000000E+00 -0.10046712462E+04  0.10046712463E+04  0.50400001928E-02 0.  1.
    10030    2    1    2    0    0  0.00000000000E+00  0.00000000000E+00 -0.36747889330E+03  0.16418635992E+04  0.16002110303E+04 0.  0.
        2    1    3    3  502    0  0.78062688014E+03  0.14707351507E+03 -0.28193796980E+03  0.84291041259E+03  0.25500000920E-02 0.  1.
       -2    1    3    3    0  502 -0.78062688014E+03 -0.14707351507E+03 -0.85540923503E+02  0.79895318663E+03  0.25500000920E-02 0. -1.
</event>
<event>
 5   0  0.7901257E-05  0.1600318E+04  0.7818609E-02  0.8820353E-01
        2   -1    0    0  501    0  0.00000000000E+00  0.00000000000E+00  0.20823202776E+04  0.20823202776E+04  0.25500000920E-02 0.  1.
       -2   -1    0    0    0  501  0.00000000000E+00  0.00000000000E+00 -0.30747160705E+03  0.30747160706E+03  0.25500000920E-02 0. -1.
    10030    2    1    2    0    0  0.00000000000E+00  0.00000000000E+00  0.17748486705E+04  0.23897918847E+04  0.16003179211E+04 0.  0.
        2    1    3    3  502    0 -0.48988228808E+03  0.71432394154E+02  0.18261619360E+04  0.18920768112E+04  0.25500000920E-02 0.  1.
       -2    1    3    3    0  502  0.48988228808E+03 -0.71432394154E+02 -0.51313265450E+02  0.49771507343E+03  0.25500000920E-02 0. -1.
</event>
<event>
 5   0  0.4211419E-05  0.1599470E+04  0.7818609E-02  0.8820874E-01
        1   -1    0    0  501    0  0.00000000000E+00  0.00000000000E+00  0.10861036981E+04  0.10861036981E+04  0.50400001928E-02 0.  1.
       -1   -1    0    0    0  501  0.00000000000E+00  0.00000000000E+00 -0.58887194835E+03  0.58887194838E+03  0.50400001928E-02 0. -1.
    10030    2    1    2    0    0  0.00000000000E+00  0.00000000000E+00  0.49723174970E+03  0.16749756464E+04  0.15994699132E+04 0.  0.
        2    1    3    3  502    0  0.21451313451E+02 -0.23143601080E+03  0.10499536328E+04  0.10753722225E+04  0.25500000920E-02 0.  1.
       -2    1    3    3    0  502 -0.21451313451E+02  0.23143601080E+03 -0.55272188308E+03  0.59960342393E+03  0.25500000920E-02 0. -1.
</event>
<event>
 5   0  0.3042125E-05  0.1590278E+04  0.7818609E-02  0.8826543E-01
       -3   -1    0    0    0  501  0.00000000000E+00  0.00000000000E+00  0.10491352008E+04  0.10491352057E+04  0.10100000352E+00 0.  1.
        3   -1    0    0  501    0  0.00000000000E+00  0.00000000000E+00 -0.60263506264E+03  0.60263507110E+03  0.10100000352E+00 0. -1.
    10030    2    1    2    0    0  0.00000000000E+00  0.00000000000E+00  0.44650013820E+03  0.16517702768E+04  0.15902775462E+04 0.  0.
        1    1    3    3  502    0 -0.53236198345E+03 -0.41186841937E+03  0.66294016421E+03  0.94474046046E+03  0.50400001928E-02 0.  1.
       -1    1    3    3    0  502  0.53236198345E+03  0.41186841937E+03 -0.21644002601E+03  0.70702981633E+03  0.50400001928E-02 0. -1.
</event>
<event>
 5   0  0.4504463E-05  0.1603548E+04  0.7818609E-02  0.8818371E-01
        1   -1    0    0  501    0  0.00000000000E+00  0.00000000000E+00  0.12416780678E+04  0.12416780678E+04  0.50400001928E-02 0.  1.
       -1   -1    0    0    0  501  0.00000000000E+00  0.00000000000E+00 -0.51772013515E+03  0.51772013518E+03  0.50400001928E-02 0. -1.
    10030    2    1    2    0    0  0.00000000000E+00  0.00000000000E+00  0.72395793267E+03  0.17593982030E+04  0.16035482370E+04 0.  0.
        1    1    3    3  502    0  0.44230933568E+02 -0.59353259414E+03 -0.22745289199E+03  0.63715942580E+03  0.50400001928E-02 0. -1.
       -1    1    3    3    0  502 -0.44230933568E+02  0.59353259414E+03  0.95141082466E+03  0.11222387772E+04  0.50400001928E-02 0.  1.
</event>
<event>
 5   0  0.7901257E-05  0.1584182E+04  0.7818609E-02  0.8830325E-01
        2   -1    0    0  501    0  0.00000000000E+00  0.00000000000E+00  0.16405095239E+04  0.16405095239E+04  0.25500000920E-02 0.  1.
       -2   -1    0    0    0  501  0.00000000000E+00  0.00000000000E+00 -0.38244708174E+03  0.38244708175E+03  0.25500000920E-02 0. -1.
    10030    2    1    2    0    0  0.00000000000E+00  0.00000000000E+00  0.12580624422E+04  0.20229566056E+04  0.15841819087E+04 0.  0.
        2    1    3    3  502    0  0.24300370602E+03  0.49952010632E+03  0.13500819748E+04  0.14598946800E+04  0.25500000920E-02 0.  1.
       -2    1    3    3    0  502 -0.24300370602E+03 -0.49952010632E+03 -0.92019532684E+02  0.56306192569E+03  0.25500000920E-02 0. -1.
</event>
<event>
 5   0  0.8620155E-05  0.1598437E+04  0.7818609E-02  0.8821509E-01
        2   -1    0    0  501    0  0.00000000000E+00  0.00000000000E+00  0.30622204070E+04  0.30622204070E+04  0.25500000920E-02 0. -1.
       -2   -1    0    0    0  501  0.00000000000E+00  0.00000000000E+00 -0.20859050265E+03  0.20859050266E+03  0.25500000920E-02 0.  1.
    10030    2    1    2    0    0  0.00000000000E+00  0.00000000000E+00  0.28536299044E+04  0.32708109097E+04  0.15984368539E+04 0.  0.
        4    1    3    3  502    0 -0.45983823957E+03 -0.38262724596E+03  0.25113183722E+04  0.25815840865E+04  0.12699999809E+01 0. -1.
       -4    1    3    3    0  502  0.45983823957E+03  0.38262724596E+03  0.34231153217E+03  0.68922682324E+03  0.12699999809E+01 0.  1.
</event>
<event>
 5   0  0.8694033E-05  0.1597874E+04  0.7818609E-02  0.8821855E-01
       -2   -1    0    0    0  501  0.00000000000E+00  0.00000000000E+00  0.80163859007E+03  0.80163859007E+03  0.25500000920E-02 0.  1.
        2   -1    0    0  501    0  0.00000000000E+00  0.00000000000E+00 -0.79624414394E+03  0.79624414395E+03  0.25500000920E-02 0. -1.
    10030    2    1    2    0    0  0.00000000000E+00  0.00000000000E+00  0.53944461210E+01  0.15978827340E+04  0.15978736282E+04 0.  0.
        1    1    3    3  502    0 -0.10356557923E+03  0.73164862623E+03 -0.30105521397E+03  0.79791589992E+03  0.50400001928E-02 0. -1.
       -1    1    3    3    0  502  0.10356557923E+03 -0.73164862623E+03  0.30644966009E+03  0.79996683410E+03  0.50400001928E-02 0.  1.
</event>
<event>
 5   0  0.8694033E-05  0.1596240E+04  0.7818609E-02  0.8822861E-01
        2   -1    0    0  501    0  0.00000000000E+00  0.00000000000E+00  0.90684045950E+03  0.90684045950E+03  0.25500000920E-02 0. -1.
       -2   -1    0    0    0  501  0.00000000000E+00  0.00000000000E+00 -0.70243413946E+03  0.70243413947E+03  0.25500000920E-02 0.  1.
    10030    2    1    2    0    0  0.00000000000E+00  0.00000000000E+00  0.20440632004E+03  0.16092745990E+04  0.15962402047E+04 0.  0.
        1    1    3    3  502    0 -0.22679205162E+02  0.25333890383E+03  0.86488616516E+03  0.90151152253E+03  0.50400001928E-02 0. -1.
       -1    1    3    3    0  502  0.22679205162E+02 -0.25333890383E+03 -0.66047984512E+03  0.70776307644E+03  0.50400001928E-02 0.  1.
</event>
<event>
 5   0  0.4211419E-05  0.1599906E+04  0.7818609E-02  0.8820606E-01
       -1   -1    0    0    0  501  0.00000000000E+00  0.00000000000E+00  0.64747907205E+03  0.64747907206E+03  0.50400001928E-02 0.  1.
        1   -1    0    0  501    0  0.00000000000E+00  0.00000000000E+00 -0.98833319663E+03  0.98833319664E+03  0.50400001928E-02 0. -1.
    10030    2    1    2    0    0  0.00000000000E+00  0.00000000000E+00 -0.34085412458E+03  0.16358122687E+04  0.15999063236E+04 0.  0.
        2    1    3    3  502    0 -0.63370865176E+03  0.47465581996E+03 -0.28718381378E+03  0.84223473310E+03  0.25500000920E-02 0. -1.
       -2    1    3    3    0  502  0.63370865176E+03 -0.47465581996E+03 -0.53670310805E+02  0.79357753560E+03  0.25500000920E-02 0.  1.
</event>
<event>
 5   0  0.3042125E-05  0.1602358E+04  0.7818609E-02  0.8819101E-01
       -4   -1    0    0    0  501  0.00000000000E+00  0.00000000000E+00  0.82702109985E+03  0.82702207497E+03  0.12699999809E+01 0.  1.
        4   -1    0    0  501    0  0.00000000000E+00  0.00000000000E+00 -0.77614250538E+03  0.77614354443E+03  0.12699999809E+01 0. -1.
    10030    2    1    2    0    0  0.00000000000E+00  0.00000000000E+00  0.50878594464E+02  0.16031656194E+04  0.16023580661E+04 0.  0.
        1    1    3    3  502    0  0.10794301533E+03 -0.67971382727E+03 -0.38492014012E+03  0.78855950684E+03  0.50400001928E-02 0. -1.
       -1    1    3    3    0  502 -0.10794301533E+03  0.67971382727E+03  0.43579873458E+03  0.81460611256E+03  0.50400001928E-02 0.  1.
</event>
<event>
 5   0  0.8694033E-05  0.1608849E+04  0.7818609E-02  0.8815130E-01
        2   -1    0    0  501    0  0.00000000000E+00  0.00000000000E+00  0.95858647549E+03  0.95858647549E+03  0.25500000920E-02 0. -1.
       -2   -1    0    0    0  501  0.00000000000E+00  0.00000000000E+00 -0.67505550221E+03  0.67505550221E+03  0.25500000920E-02 0.  1.
    10030    2    1    2    0    0  0.00000000000E+00  0.00000000000E+00  0.28353097328E+03  0.16336419777E+04  0.16088493710E+04 0.  0.
        1    1    3    3  502    0  0.12648238411E+03  0.62828324650E+03 -0.35189664706E+03  0.73114217602E+03  0.50400001928E-02 0.  1.
       -1    1    3    3    0  502 -0.12648238411E+03 -0.62828324650E+03  0.63542762034E+03  0.90249980168E+03  0.50400001928E-02 0. -1.
</event>
<event>
 5   0  0.8037548E-05  0.1597908E+04  0.7818609E-02  0.8821834E-01
       -2   -1    0    0    0  501  0.00000000000E+00  0.00000000000E+00  0.56707754340E+03  0.56707754340E+03  0.25500000920E-02 0. -1.
        2   -1    0    0  501    0  0.00000000000E+00  0.00000000000E+00 -0.11256437246E+04  0.11256437246E+04  0.25500000920E-02 0.  1.
    10030    2    1    2    0    0  0.00000000000E+00  0.00000000000E+00 -0.55856618122E+03  0.16927212680E+04  0.15979077296E+04 0.  0.
        5    1    3    3  502    0 -0.47177802078E+02 -0.21858278164E+02 -0.11238348369E+04  0.11250468257E+04  0.46999998093E+01 0.  1.
       -5    1    3    3    0  502  0.47177802078E+02  0.21858278164E+02  0.56526865571E+03  0.56767444232E+03  0.46999998093E+01 0. -1.
</event>
<event>
 5   0  0.8620155E-05  0.1595217E+04  0.7818609E-02  0.8823492E-01
       -2   -1    0    0    0  501  0.00000000000E+00  0.00000000000E+00  0.49218845835E+03  0.49218845836E+03  0.25500000920E-02 0. -1.
        2   -1    0    0  501    0  0.00000000000E+00  0.00000000000E+00 -0.12925514926E+04  0.12925514926E+04  0.25500000920E-02 0.  1.
    10030    2    1    2    0    0  0.00000000000E+00  0.00000000000E+00 -0.80036303427E+03  0.17847399510E+04  0.15952165076E+04 0.  0.
        4    1    3    3  502    0 -0.75088804546E+03  0.25417246639E+03 -0.30174672477E+03  0.84822709123E+03  0.12699999809E+01 0.  1.
       -4    1    3    3    0  502  0.75088804546E+03 -0.25417246639E+03 -0.49861630949E+03  0.93651285975E+03  0.12699999809E+01 0. -1.
</event>
<event>
 5   0  0.4504463E-05  0.1604151E+04  0.7818609E-02  0.8818002E-01
       -1   -1    0    0    0  501  0.00000000000E+00  0.00000000000E+00  0.45639420827E+03  0.45639420829E+03  0.50400001928E-02 0.  1.
        1   -1    0    0  501    0  0.00000000000E+00  0.00000000000E+00 -0.14095816539E+04  0.14095816539E+04  0.50400001928E-02 0. -1.
    10030    2    1    2    0    0  0.00000000000E+00  0.00000000000E+00 -0.95318744562E+03  0.18659758622E+04  0.16041507447E+04 0.  0.
        1    1    3    3  502    0 -0.45918994429E+03  0.34863572453E+03 -0.11252087560E+04  0.12643168187E+04  0.50400001928E-02 0. -1.
       -1    1    3    3    0  502  0.45918994429E+03 -0.34863572453E+03  0.17202131041E+03  0.60165904350E+03  0.50400001928E-02 0.  1.
</event>
<event>
 5   0  0.7849690E-05  0.1601813E+04  0.7818609E-02  0.8819435E-01
        2   -1    0    0  501    0  0.00000000000E+00  0.00000000000E+00  0.94144184712E+03  0.94144184713E+03  0.25500000920E-02 0.  1.
       -2   -1    0    0    0  501  0.00000000000E+00  0.00000000000E+00 -0.68134985376E+03  0.68134985376E+03  0.25500000920E-02 0. -1.
    10030    2    1    2    0    0  0.00000000000E+00  0.00000000000E+00  0.26009199337E+03  0.16227917009E+04  0.16018130538E+04 0.  0.
        3    1    3    3  502    0 -0.38320105722E+03 -0.62091485485E+03 -0.20454131997E+03  0.75777006341E+03  0.10100000352E+00 0. -1.
       -3    1    3    3    0  502  0.38320105722E+03  0.62091485485E+03  0.46463331334E+03  0.86502163747E+03  0.10100000352E+00 0.  1.
</event>
<event>
 5   0  0.8694033E-05  0.1598226E+04  0.7818609E-02  0.8821639E-01
       -2   -1    0    0    0  501  0.00000000000E+00  0.00000000000E+00  0.54870205442E+03  0.54870205443E+03  0.25500000920E-02 0. -1.
        2   -1    0    0  501    0  0.00000000000E+00  0.00000000000E+00 -0.11638037236E+04  0.11638037236E+04  0.25500000920E-02 0.  1.
    10030    2    1    2    0    0  0.00000000000E+00  0.00000000000E+00 -0.61510166918E+03  0.17125057780E+04  0.15982258840E+04 0.  0.
        1    1    3    3  502    0 -0.77825872171E+03  0.17735834954E+03 -0.26690603699E+03  0.84165399938E+03  0.50400001928E-02 0.  1.
       -1    1    3    3    0  502  0.77825872171E+03 -0.17735834954E+03 -0.34819563219E+03  0.87085177865E+03  0.50400001928E-02 0. -1.
</event>
<event>
 5   0  0.4373026E-05  0.1602018E+04  0.7818609E-02  0.8819309E-01
        1   -1    0    0  501    0  0.00000000000E+00  0.00000000000E+00  0.97096218386E+03  0.97096218387E+03  0.50400001928E-02 0. -1.
       -1   -1    0    0    0  501  0.00000000000E+00  0.00000000000E+00 -0.66080351763E+03  0.66080351765E+03  0.50400001928E-02 0.  1.
    10030    2    1    2    0    0  0.00000000000E+00  0.00000000000E+00  0.31015866623E+03  0.16317657015E+04  0.16020177610E+04 0.  0.
        4    1    3    3  502    0  0.44766013712E+03  0.58886738249E+03  0.46811200221E+03  0.87538268891E+03  0.12699999809E+01 0.  1.
       -4    1    3    3    0  502 -0.44766013712E+03 -0.58886738249E+03 -0.15795333598E+03  0.75638301261E+03  0.12699999809E+01 0. -1.
</event>
<event>
 5   0  0.7849690E-05  0.1601767E+04  0.7818609E-02  0.8819463E-01
       -2   -1    0    0    0  501  0.00000000000E+00  0.00000000000E+00  0.39625111413E+03  0.39625111414E+03  0.25500000920E-02 0. -1.
        2   -1    0    0  501    0  0.00000000000E+00  0.00000000000E+00 -0.16187077965E+04  0.16187077965E+04  0.25500000920E-02 0.  1.
    10030    2    1    2    0    0  0.00000000000E+00  0.00000000000E+00 -0.12224566824E+04  0.20149589107E+04  0.16017674835E+04 0.  0.
        3    1    3    3  502    0 -0.42026226164E+03  0.21946720700E+03 -0.14232006652E+04  0.15000954527E+04  0.10100000352E+00 0.  1.
       -3    1    3    3    0  502  0.42026226164E+03 -0.21946720700E+03  0.20074398283E+03  0.51486345797E+03  0.10100000352E+00 0. -1.
</event>
<event>
 5   0  0.8694033E-05  0.1595559E+04  0.7818609E-02  0.8823281E-01
        2   -1    0    0  501    0  0.00000000000E+00  0.00000000000E+00  0.18312025908E+04  0.18312025908E+04  0.25500000920E-02 0.  1.
       -2   -1    0    0    0  501  0.00000000000E+00  0.00000000000E+00 -0.34755959119E+03  0.34755959120E+03  0.25500000920E-02 0. -1.
    10030    2    1    2    0    0  0.00000000000E+00  0.00000000000E+00  0.14836429996E+04  0.21787621820E+04  0.15955588662E+04 0.  0.
        1    1    3    3  502    0  0.90932682386E+02 -0.10455395578E+03  0.18146447049E+04  0.18199273852E+04  0.50400001928E-02 0.  1.
       -1    1    3    3    0  502 -0.90932682386E+02  0.10455395578E+03 -0.33100170533E+03  0.35883479675E+03  0.50400001928E-02 0. -1.
</event>
<event>
 5   0  0.4211419E-05  0.1603272E+04  0.7818609E-02  0.8818541E-01
       -1   -1    0    0    0  501  0.00000000000E+00  0.00000000000E+00  0.11480486078E+04  0.11480486078E+04  0.50400001928E-02 0. -1.
        1   -1    0    0  501    0  0.00000000000E+00  0.00000000000E+00 -0.55974984234E+03  0.55974984236E+03  0.50400001928E-02 0.  1.
    10030    2    1    2    0    0  0.00000000000E+00  0.00000000000E+00  0.58829876548E+03  0.17077984502E+04  0.16032716891E+04 0.  0.
        2    1    3    3  502    0  0.73811541698E+03 -0.30409306870E+03  0.21636043624E+03  0.82710265481E+03  0.25500000920E-02 0. -1.
       -2    1    3    3    0  502 -0.73811541698E+03  0.30409306870E+03  0.37193832924E+03  0.88069579537E+03  0.25500000920E-02 0.  1.
</event>
<event>
 5   0  0.8037548E-05  0.1601727E+04  0.7818609E-02  0.8819488E-01
       -2   -1    0    0    0  501  0.00000000000E+00  0.00000000000E+00  0.13646561046E+04  0.13646561046E+04  0.25500000920E-02 0.  1.
        2   -1    0    0  501    0  0.00000000000E+00  0.00000000000E+00 -0.46999575484E+03  0.46999575484E+03  0.25500000920E-02 0. -1.
    10030    2    1    2    0    0  0.00000000000E+00  0.00000000000E+00  0.89466034973E+03  0.18346518594E+04  0.16017272876E+04 0.  0.
        5    1    3    3  502    0  0.55693898535E+03  0.40348323517E+03  0.91734470813E+03  0.11465265623E+04  0.46999998093E+01 0.  1.
       -5    1    3    3    0  502 -0.55693898535E+03 -0.40348323517E+03 -0.22684358391E+02  0.68812529715E+03  0.46999998093E+01 0. -1.
</event>
<event>
 5   0  0.4504463E-05  0.1597853E+04  0.7818609E-02  0.8821868E-01
       -1   -1    0    0    0  501  0.00000000000E+00  0.00000000000E+00  0.36719887859E+03  0.36719887863E+03  0.50400001928E-02 0.  1.
        1   -1    0    0  501    0  0.00000000000E+00  0.00000000000E+00 -0.17382496526E+04  0.17382496526E+04  0.50400001928E-02 0. -1.
    10030    2    1    2    0    0  0.00000000000E+00  0.00000000000E+00 -0.13710507740E+04  0.21054485313E+04  0.15978527131E+04 0.  0.
        1    1    3    3  502    0 -0.89855038792E+02 -0.49244543151E+03  0.13493883142E+03  0.51844471187E+03  0.50400001928E-02 0.  1.
       -1    1    3    3    0  502  0.89855038792E+02  0.49244543151E+03 -0.15059896055E+04  0.15870038194E+04  0.50400001928E-02 0. -1.
</event>
<event>
 5   0  0.8694033E-05  0.1598832E+04  0.7818609E-02  0.8821266E-01
        2   -1    0    0  501    0  0.00000000000E+00  0.00000000000E+00  0.49933131512E+03  0.49933131513E+03  0.25500000920E-02 0. -1.
       -2   -1    0    0    0  501  0.00000000000E+00  0.00000000000E+00 -0.12798434646E+04  0.12798434646E+04  0.25500000920E-02 0.  1.
    10030    2    1    2    0    0  0.00000000000E+00  0.00000000000E+00 -0.78051214944E+03  0.17791747797E+04  0.15988319741E+04 0.  0.
        1    1    3    3  502    0 -0.30388908092E+03 -0.71063124722E+03 -0.16296051942E+03  0.78987434060E+03  0.50400001928E-02 0. -1.
       -1    1    3    3    0  502  0.30388908092E+03  0.71063124722E+03 -0.61755163002E+03  0.98930043910E+03  0.50400001928E-02 0.  1.
</event>
<event>
 5   0  0.7901257E-05  0.1595781E+04  0.7818609E-02  0.8823144E-01
       -2   -1    0    0    0  501  0.00000000000E+00  0.00000000000E+00  0.16753103319E+04  0.16753103319E+04  0.25500000920E-02 0. -1.
        2   -1    0    0  501    0  0.00000000000E+00  0.00000000000E+00 -0.38000693693E+03  0.38000693693E+03  0.25500000920E-02 0.  1.
    10030    2    1    2    0    0  0.00000000000E+00  0.00000000000E+00  0.12953033949E+04  0.20553172688E+04  0.15957813730E+04 0.  0.
        2    1    3    3  502    0 -0.33509210058E+03 -0.43037204162E+03  0.13976908501E+04  0.15003488003E+04  0.25500000920E-02 0. -1.
       -2    1    3    3    0  502  0.33509210058E+03  0.43037204162E+03 -0.10238745515E+03  0.55496846852E+03  0.25500000920E-02 0.  1.
</event>
<event>
 5   0  0.4314657E-05  0.1598187E+04  0.7818609E-02  0.8821662E-01
        1   -1    0    0  501    0  0.00000000000E+00  0.00000000000E+00  0.29645399980E+04  0.29645399980E+04  0.50400001928E-02 0. -1.
       -1   -1    0    0    0  501  0.00000000000E+00  0.00000000000E+00 -0.21539621343E+03  0.21539621349E+03  0.50400001928E-02 0.  1.
    10030    2    1    2    0    0  0.00000000000E+00  0.00000000000E+00  0.27491437846E+04  0.31799362115E+04  0.15981873360E+04 0.  0.
        5    1    3    3  502    0 -0.70000293328E+03 -0.36394622082E+03  0.16267845023E+04  0.18080129605E+04  0.46999998093E+01 0.  1.
       -5    1    3    3    0  502  0.70000293328E+03  0.36394622082E+03  0.11223592822E+04  0.13719232510E+04  0.46999998093E+01 0. -1.
</event>
<event>
 5   0  0.4256406E-05  0.1618913E+04  0.7818609E-02  0.8809013E-01
        1   -1    0    0  501    0  0.00000000000E+00  0.00000000000E+00  0.19557073693E+04  0.19557073693E+04  0.50400001928E-02 0. -1.
       -1   -1    0    0    0  501  0.00000000000E+00  0.00000000000E+00 -0.33502960832E+03  0.33502960836E+03  0.50400001928E-02 0.  1.
    10030    2    1    2    0    0  0.00000000000E+00  0.00000000000E+00  0.16206777610E+04  0.22907369777E+04  0.16189130600E+04 0.  0.
        3    1    3    3  502    0 -0.45573915475E+02 -0.80208146248E+03  0.67020389665E+03  0.10462241287E+04  0.10100000352E+00 0.  1.
       -3    1    3    3    0  502  0.45573915475E+02  0.80208146248E+03  0.95047386435E+03  0.12445128490E+04  0.10100000352E+00 0. -1.
</event>
<event>
 5   0  0.7849690E-05  0.1589733E+04  0.7818609E-02  0.8826880E-01
        2   -1    0    0  501    0  0.00000000000E+00  0.00000000000E+00  0.22017247251E+04  0.22017247251E+04  0.25500000920E-02 0.  1.
       -2   -1    0    0    0  501  0.00000000000E+00  0.00000000000E+00 -0.28696256781E+03  0.28696256782E+03  0.25500000920E-02 0. -1.
    10030    2    1    2    0    0  0.00000000000E+00  0.00000000000E+00  0.19147621573E+04  0.24886872929E+04  0.15897327835E+04 0.  0.
        3    1    3    3  502    0  0.26631175258E+03 -0.74623803161E+03  0.85813166357E+03  0.11679824963E+04  0.10100000352E+00 0.  1.
       -3    1    3    3    0  502 -0.26631175258E+03  0.74623803161E+03  0.10566304937E+04  0.13207047966E+04  0.10100000352E+00 0. -1.
</event>
<event>
 5   0  0.8037548E-05  0.1592428E+04  0.7818609E-02  0.8825213E-01
       -2   -1    0    0    0  501  0.00000000000E+00  0.00000000000E+00  0.12023982171E+04  0.12023982171E+04  0.25500000920E-02 0. -1.
        2   -1    0    0  501    0  0.00000000000E+00  0.00000000000E+00 -0.52724382293E+03  0.52724382294E+03  0.25500000920E-02 0.  1.
    10030    2    1    2    0    0  0.00000000000E+00  0.00000000000E+00  0.67515439413E+03  0.17296420400E+04  0.15924283754E+04 0.  0.
        5    1    3    3  502    0 -0.25714064895E+02  0.27503238529E+03 -0.47351411029E+03  0.54821686287E+03  0.46999998093E+01 0.  1.
       -5    1    3    3    0  502  0.25714064895E+02 -0.27503238529E+03  0.11486685044E+04  0.11814251771E+04  0.46999998093E+01 0. -1.
</event>
<event>
 5   0  0.4314657E-05  0.1600458E+04  0.7818609E-02  0.8820267E-01
        1   -1    0    0  501    0  0.00000000000E+00  0.00000000000E+00  0.21577507809E+04  0.21577507809E+04  0.50400001928E-02 0. -1.
       -1   -1    0    0    0  501  0.00000000000E+00  0.00000000000E+00 -0.29677487817E+03  0.29677487822E+03  0.50400001928E-02 0.  1.
    10030    2    1    2    0    0  0.00000000000E+00  0.00000000000E+00  0.18609759027E+04  0.24545256591E+04  0.16004577160E+04 0.  0.
        5    1    3    3  502    0 -0.42610974885E+03 -0.15033194365E+03  0.19433579765E+04  0.19952021267E+04  0.46999998093E+01 0. -1.
       -5    1    3    3    0  502  0.42610974885E+03  0.15033194365E+03 -0.82382073832E+02  0.45932353242E+03  0.46999998093E+01 0.  1.
</event>
<event>
 5   0  0.8694033E-05  0.1599750E+04  0.7818609E-02  0.8820701E-01
       -2   -1    0    0    0  501  0.00000000000E+00  0.00000000000E+00  0.50238033890E+03  0.50238033891E+03  0.25500000920E-02 0. -1.
        2   -1    0    0  501    0  0.00000000000E+00  0.00000000000E+00 -0.12735377667E+04  0.12735377667E+04  0.25500000920E-02 0.  1.
    10030    2    1    2    0    0  0.00000000000E+00  0.00000000000E+00 -0.77115742779E+03  0.17759181056E+04  0.15997503991E+04 0.  0.
        1    1    3    3  502    0 -0.57641034854E+03  0.47179275238E+02 -0.99899074473E+03  0.11543211347E+04  0.50400001928E-02 0.  1.
       -1    1    3    3    0  502  0.57641034854E+03 -0.47179275238E+02  0.22783331694E+03  0.62159697091E+03  0.50400001928E-02 0. -1.
</event>
<event>
 5   0  0.4504463E-05  0.1592508E+04  0.7818609E-02  0.8825164E-01
        1   -1    0    0  501    0  0.00000000000E+00  0.00000000000E+00  0.13112429468E+04  0.13112429468E+04  0.50400001928E-02 0.  1.
       -1   -1    0    0    0  501  0.00000000000E+00  0.00000000000E+00 -0.48352651686E+03  0.48352651688E+03  0.50400001928E-02 0. -1.
    10030    2    1    2    0    0  0.00000000000E+00  0.00000000000E+00  0.82771642995E+03  0.17947694637E+04  0.15925083797E+04 0.  0.
        1    1    3    3  502    0 -0.77729238699E+03  0.35724439608E+01  0.60848995240E+03  0.98714550064E+03  0.50400001928E-02 0.  1.
       -1    1    3    3    0  502  0.77729238699E+03 -0.35724439608E+01  0.21922647756E+03  0.80762396307E+03  0.50400001928E-02 0. -1.
</event>
<event>
 5   0  0.7849690E-05  0.1603144E+04  0.7818609E-02  0.8818619E-01
       -2   -1    0    0    0  501  0.00000000000E+00  0.00000000000E+00  0.66291965205E+03  0.66291965205E+03  0.25500000920E-02 0.  1.
        2   -1    0    0  501    0  0.00000000000E+00  0.00000000000E+00 -0.96922429049E+03  0.96922429049E+03  0.25500000920E-02 0. -1.
    10030    2    1    2    0    0  0.00000000000E+00  0.00000000000E+00 -0.30630463844E+03  0.16321439425E+04  0.16031441974E+04 0.  0.
        3    1    3    3  502    0 -0.32812503190E+03  0.71083895681E+03 -0.32819192353E+03  0.84892167363E+03  0.10100000352E+00 0. -1.
       -3    1    3    3    0  502  0.32812503190E+03 -0.71083895681E+03  0.21887285086E+02  0.78322226892E+03  0.10100000352E+00 0.  1.
</event>
<event>
 5   0  0.8620155E-05  0.1600235E+04  0.7818609E-02  0.8820404E-01
       -2   -1    0    0    0  501  0.00000000000E+00  0.00000000000E+00  0.59166066502E+03  0.59166066502E+03  0.25500000920E-02 0.  1.
        2   -1    0    0  501    0  0.00000000000E+00  0.00000000000E+00 -0.10820189883E+04  0.10820189883E+04  0.25500000920E-02 0. -1.
    10030    2    1    2    0    0  0.00000000000E+00  0.00000000000E+00 -0.49035832325E+03  0.16736796533E+04  0.16002350754E+04 0.  0.
        4    1    3    3  502    0 -0.51948978096E+03 -0.34566164821E+03 -0.76899966312E+03  0.99030990217E+03  0.12699999809E+01 0. -1.
       -4    1    3    3    0  502  0.51948978096E+03  0.34566164821E+03  0.27864133987E+03  0.68336975112E+03  0.12699999809E+01 0.  1.
</event>
<event>
 5   0  0.7901257E-05  0.1600670E+04  0.7818609E-02  0.8820136E-01
       -2   -1    0    0    0  501  0.00000000000E+00  0.00000000000E+00  0.86232095671E+03  0.86232095672E+03  0.25500000920E-02 0. -1.
        2   -1    0    0  501    0  0.00000000000E+00  0.00000000000E+00 -0.74280480654E+03  0.74280480655E+03  0.25500000920E-02 0.  1.
    10030    2    1    2    0    0  0.00000000000E+00  0.00000000000E+00  0.11951615017E+03  0.16051257633E+04  0.16006700490E+04 0.  0.
        2    1    3    3  502    0  0.13873614522E+03 -0.74725644505E+03 -0.19173126680E+03  0.78383722247E+03  0.25500000920E-02 0.  1.
       -2    1    3    3    0  502 -0.13873614522E+03  0.74725644505E+03  0.31124741697E+03  0.82128854079E+03  0.25500000920E-02 0. -1.
</event>
<event>
 5   0  0.7901257E-05  0.1599288E+04  0.7818609E-02  0.8820986E-01
       -2   -1    0    0    0  501  0.00000000000E+00  0.00000000000E+00  0.43257013830E+03  0.43257013831E+03  0.25500000920E-02 0. -1.
        2   -1    0    0  501    0  0.00000000000E+00  0.00000000000E+00 -0.14782123498E+04  0.14782123498E+04  0.25500000920E-02 0.  1.
    10030    2    1    2    0    0  0.00000000000E+00  0.00000000000E+00 -0.10456422115E+04  0.19107824881E+04  0.15992879923E+04 0.  0.
        2    1    3    3  502    0  0.14824965836E+03 -0.61234980317E+03 -0.11111535334E+04  0.12773458488E+04  0.25500000920E-02 0.  1.
       -2    1    3    3    0  502 -0.14824965836E+03  0.61234980317E+03  0.65511321955E+02  0.63343663926E+03  0.25500000920E-02 0. -1.
</event>
<event>
 5   0  0.8694033E-05  0.1599968E+04  0.7818609E-02  0.8820568E-01
        2   -1    0    0  501    0  0.00000000000E+00  0.00000000000E+00  0.87931364441E+03  0.87931364441E+03  0.25500000920E-02 0.  1.
       -2   -1    0    0    0  501  0.00000000000E+00  0.00000000000E+00 -0.72781144455E+03  0.72781144455E+03  0.25500000920E-02 0. -1.
    10030    2    1    2    0    0  0.00000000000E+00  0.00000000000E+00  0.15150219986E+03  0.16071250890E+04  0.15999681669E+04 0.  0.
        1    1    3    3  502    0 -0.77241498119E+01 -0.32097904134E+03  0.81175466002E+03  0.87294492126E+03  0.50400001928E-02 0.  1.
       -1    1    3    3    0  502  0.77241498119E+01  0.32097904134E+03 -0.66025246016E+03  0.73418016770E+03  0.50400001928E-02 0. -1.
</event>
<event>
 5   0  0.4314657E-05  0.1600081E+04  0.7818609E-02  0.8820498E-01
        1   -1    0    0  501    0  0.00000000000E+00  0.00000000000E+00  0.69994395445E+03  0.69994395447E+03  0.50400001928E-02 0.  1.
       -1   -1    0    0    0  501  0.00000000000E+00  0.00000000000E+00 -0.91445199459E+03  0.91445199460E+03  0.50400001928E-02 0. -1.
    10030    2    1    2    0    0  0.00000000000E+00  0.00000000000E+00 -0.21450804014E+03  0.16143959491E+04  0.16000814295E+04 0.  0.
        5    1    3    3  502    0  0.14011520694E+03 -0.50319832013E+03 -0.71864725939E+03  0.88843502521E+03  0.46999998093E+01 0. -1.
       -5    1    3    3    0  502 -0.14011520694E+03  0.50319832013E+03  0.50413921925E+03  0.72596092386E+03  0.46999998093E+01 0.  1.
</event>
<event>
 5   0  0.4504463E-05  0.1598701E+04  0.7818609E-02  0.8821347E-01
        1   -1    0    0  501    0  0.00000000000E+00  0.00000000000E+00  0.14082880287E+04  0.14082880287E+04  0.50400001928E-02 0.  1.
       -1   -1    0    0    0  501  0.00000000000E+00  0.00000000000E+00 -0.45371465199E+03  0.45371465202E+03  0.50400001928E-02 0. -1.
    10030    2    1    2    0    0  0.00000000000E+00  0.00000000000E+00  0.95457337670E+03  0.18620026807E+04  0.15987006135E+04 0.  0.
        1    1    3    3  502    0  0.37525036403E+03 -0.70499189569E+03  0.43805687816E+03  0.91088980520E+03  0.50400001928E-02 0. -1.
       -1    1    3    3    0  502 -0.37525036403E+03  0.70499189569E+03  0.51651649855E+03  0.95111287553E+03  0.50400001928E-02 0.  1.
</event>
<event>
 5   0  0.8694033E-05  0.1620892E+04  0.7818609E-02  0.8807815E-01
        2   -1    0    0  501    0  0.00000000000E+00  0.00000000000E+00  0.21255371868E+04  0.21255371868E+04  0.25500000920E-02 0. -1.
       -2   -1    0    0    0  501  0.00000000000E+00  0.00000000000E+00 -0.30901510053E+03  0.30901510054E+03  0.25500000920E-02 0.  1.
    10030    2    1    2    0    0  0.00000000000E+00  0.00000000000E+00  0.18165220863E+04  0.24345522873E+04  0.16208924548E+04 0.  0.
        1    1    3    3  502    0  0.26249119257E+03 -0.21063758560E+02  0.20594871456E+04  0.20762544668E+04  0.50400001928E-02 0. -1.
       -1    1    3    3    0  502 -0.26249119257E+03  0.21063758560E+02 -0.24296505933E+03  0.35829782051E+03  0.50400001928E-02 0.  1.
</event>
<event>
 5   0  0.4211419E-05  0.1598433E+04  0.7818609E-02  0.8821512E-01
       -1   -1    0    0    0  501  0.00000000000E+00  0.00000000000E+00  0.68462005480E+03  0.68462005482E+03  0.50400001928E-02 0.  1.
        1   -1    0    0  501    0  0.00000000000E+00  0.00000000000E+00 -0.93299438839E+03  0.93299438841E+03  0.50400001928E-02 0. -1.
    10030    2    1    2    0    0  0.00000000000E+00  0.00000000000E+00 -0.24837433359E+03  0.16176144432E+04  0.15984325689E+04 0.  0.
        2    1    3    3  502    0 -0.26578699717E+03 -0.74234658735E+03  0.78604147200E+01  0.78853216151E+03  0.25500000920E-02 0.  1.
       -2    1    3    3    0  502  0.26578699717E+03  0.74234658735E+03 -0.25623474831E+03  0.82908228172E+03  0.25500000920E-02 0. -1.
</event>
<event>
 5   0  0.4256406E-05  0.1600092E+04  0.7818609E-02  0.8820491E-01
        1   -1    0    0  501    0  0.00000000000E+00  0.00000000000E+00  0.11521649476E+04  0.11521649476E+04  0.50400001928E-02 0.  1.
       -1   -1    0    0    0  501  0.00000000000E+00  0.00000000000E+00 -0.55554018863E+03  0.55554018865E+03  0.50400001928E-02 0. -1.
    10030    2    1    2    0    0  0.00000000000E+00  0.00000000000E+00  0.59662475901E+03  0.17077051363E+04  0.16000924128E+04 0.  0.
        3    1    3    3  502    0 -0.58223627588E+03  0.18972127160E+03 -0.25117390545E+03  0.66187731705E+03  0.10100000352E+00 0. -1.
       -3    1    3    3    0  502  0.58223627588E+03 -0.18972127160E+03  0.84779866447E+03  0.10458278192E+04  0.10100000352E+00 0.  1.
</event>
<event>
 5   0  0.4373026E-05  0.1601286E+04  0.7818609E-02  0.8819759E-01
        1   -1    0    0  501    0  0.00000000000E+00  0.00000000000E+00  0.61907033440E+03  0.61907033442E+03  0.50400001928E-02 0. -1.
       -1   -1    0    0    0  501  0.00000000000E+00  0.00000000000E+00 -0.10354702324E+04  0.10354702325E+04  0.50400001928E-02 0.  1.
    10030    2    1    2    0    0  0.00000000000E+00  0.00000000000E+00 -0.41639989805E+03  0.16545405669E+04  0.16012856124E+04 0.  0.
        4    1    3    3  502    0  0.43068695003E+03  0.50124512499E+03 -0.67521566818E+03  0.94480460187E+03  0.12699999809E+01 0.  1.
       -4    1    3    3    0  502 -0.43068695003E+03 -0.50124512499E+03  0.25881577013E+03  0.70973596501E+03  0.12699999809E+01 0. -1.
</event>
<event>
 5   0  0.8694033E-05  0.1602994E+04  0.7818609E-02  0.8818711E-01
       -2   -1    0    0    0  501  0.00000000000E+00  0.00000000000E+00  0.42079567502E+03  0.42079567503E+03  0.25500000920E-02 0. -1.
        2   -1    0    0  501    0  0.00000000000E+00  0.00000000000E+00 -0.15266252790E+04  0.15266252790E+04  0.25500000920E-02 0.  1.
    10030    2    1    2    0    0  0.00000000000E+00  0.00000000000E+00 -0.11058296040E+04  0.19474209541E+04  0.16029938425E+04 0.  0.
        1    1    3    3  502    0  0.21452211137E+03 -0.71525460415E+03 -0.90666466531E+03  0.11745849056E+04  0.50400001928E-02 0.  1.
       -1    1    3    3    0  502 -0.21452211137E+03  0.71525460415E+03 -0.19916493870E+03  0.77283604850E+03  0.50400001928E-02 0. -1.
</event>
<event>
 5   0  0.4211419E-05  0.1599131E+04  0.7818609E-02  0.8821082E-01
       -1   -1    0    0    0  501  0.00000000000E+00  0.00000000000E+00  0.14705760278E+04  0.14705760278E+04  0.50400001928E-02 0. -1.
        1   -1    0    0  501    0  0.00000000000E+00  0.00000000000E+00 -0.43473105221E+03  0.43473105223E+03  0.50400001928E-02 0.  1.
    10030    2    1    2    0    0  0.00000000000E+00  0.00000000000E+00  0.10358449756E+04  0.19053070801E+04  0.15991310940E+04 0.  0.
        2    1    3    3  502    0  0.43908436401E+03 -0.22721054744E+03 -0.23079232539E+03  0.54560499361E+03  0.25500000920E-02 0.  1.
       -2    1    3    3    0  502 -0.43908436401E+03  0.22721054744E+03  0.12666373010E+04  0.13597020864E+04  0.25500000920E-02 0. -1.
</event>
<event>
 5   0  0.4256406E-05  0.1602471E+04  0.7818609E-02  0.8819031E-01
       -1   -1    0    0    0  501  0.00000000000E+00  0.00000000000E+00  0.62605245224E+03  0.62605245226E+03  0.50400001928E-02 0. -1.
        1   -1    0    0  501    0  0.00000000000E+00  0.00000000000E+00 -0.10254387677E+04  0.10254387677E+04  0.50400001928E-02 0.  1.
    10030    2    1    2    0    0  0.00000000000E+00  0.00000000000E+00 -0.39938631544E+03  0.16514912200E+04  0.16024711606E+04 0.  0.
        3    1    3    3  502    0 -0.75205171563E+03 -0.22089783099E+02 -0.48363659382E+03  0.89441271603E+03  0.10100000352E+00 0.  1.
       -3    1    3    3    0  502  0.75205171563E+03  0.22089783099E+02  0.84250278385E+02  0.75707850393E+03  0.10100000352E+00 0. -1.
</event>
<event>
 5   0  0.4314657E-05  0.1601652E+04  0.7818609E-02  0.8819533E-01
       -1   -1    0    0    0  501  0.00000000000E+00  0.00000000000E+00  0.10371382836E+04  0.10371382837E+04  0.50400001928E-02 0.  1.
        1   -1    0    0  501    0  0.00000000000E+00  0.00000000000E+00 -0.61835790708E+03  0.61835790710E+03  0.50400001928E-02 0. -1.
    10030    2    1    2    0    0  0.00000000000E+00  0.00000000000E+00  0.41878037657E+03  0.16554961908E+04  0.16016524697E+04 0.  0.
        5    1    3    3  502    0  0.24950085992E+03 -0.73175832633E+03 -0.63851087953E+01  0.77316478636E+03  0.46999998093E+01 0. -1.
       -5    1    3    3    0  502 -0.24950085992E+03  0.73175832633E+03  0.42516548536E+03  0.88233140440E+03  0.46999998093E+01 0.  1.
</event>
<event>
 5   0  0.8694033E-05  0.1599596E+04  0.7818609E-02  0.8820796E-01
       -2   -1    0    0    0  501  0.00000000000E+00  0.00000000000E+00  0.96983821333E+03  0.96983821334E+03  0.25500000920E-02 0. -1.
        2   -1    0    0  501    0  0.00000000000E+00  0.00000000000E+00 -0.65957087168E+03  0.65957087168E+03  0.25500000920E-02 0.  1.
    10030    2    1    2    0    0  0.00000000000E+00  0.00000000000E+00  0.31026734166E+03  0.16294090850E+04  0.15995962438E+04 0.  0.
        1    1    3    3  502    0  0.14442763083E+03 -0.43406045325E+03 -0.51314952356E+03  0.68745199918E+03  0.50400001928E-02 0.  1.
       -1    1    3    3    0  502 -0.14442763083E+03  0.43406045325E+03  0.82341686521E+03  0.94195708584E+03  0.50400001928E-02 0. -1.
</event>
<event>
 5   0  0.3042125E-05  0.1598111E+04  0.7818609E-02  0.8821709E-01
       -3   -1    0    0    0  501  0.00000000000E+00  0.00000000000E+00  0.43461462672E+03  0.43461463846E+03  0.10100000352E+00 0.  1.
        3   -1    0    0  501    0  0.00000000000E+00  0.00000000000E+00 -0.14690938100E+04  0.14690938135E+04  0.10100000352E+00 0. -1.
    10030    2    1    2    0    0  0.00000000000E+00  0.00000000000E+00 -0.10344791833E+04  0.19037084520E+04  0.15981109753E+04 0.  0.
        5    1    3    3  502    0  0.14263199004E+03  0.37050019789E+03  0.30879798683E+03  0.50298366563E+03  0.46999998093E+01 0.  1.
       -5    1    3    3    0  502 -0.14263199004E+03 -0.37050019789E+03 -0.13432771701E+04  0.14007247863E+04  0.46999998093E+01 0. -1.
</event>
<event>
 5   0  0.4314657E-05  0.1600576E+04  0.7818609E-02  0.8820194E-01
       -1   -1    0    0    0  501  0.00000000000E+00  0.00000000000E+00  0.49104349192E+03  0.49104349194E+03  0.50400001928E-02 0. -1.
        1   -1    0    0  501    0  0.00000000000E+00  0.00000000000E+00 -0.13042855814E+04  0.13042855814E+04  0.50400001928E-02 0.  1.
    10030    2    1    2    0    0  0.00000000000E+00  0.00000000000E+00 -0.81324208946E+03  0.17953290733E+04  0.16005760793E+04 0.  0.
        5    1    3    3  502    0  0.32257970641E+03 -0.34234286152E+03 -0.11328429454E+04  0.12266260762E+04  0.46999998093E+01 0.  1.
       -5    1    3    3    0  502 -0.32257970641E+03  0.34234286152E+03  0.31960085596E+03  0.56870299714E+03  0.46999998093E+01 0. -1.
</event>
<event>
 5   0  0.7901257E-05  0.1596106E+04  0.7818609E-02  0.8822944E-01
       -2   -1    0    0    0  501  0.00000000000E+00  0.00000000000E+00  0.83896103914E+03  0.83896103914E+03  0.25500000920E-02 0. -1.
        2   -1    0    0  501    0  0.00000000000E+00  0.00000000000E+00 -0.75913967639E+03  0.75913967639E+03  0.25500000920E-02 0.  1.
    10030    2    1    2    0    0  0.00000000000E+00  0.00000000000E+00  0.79821362753E+02  0.15981007155E+04  0.15961060263E+04 0.  0.
        2    1    3    3  502    0 -0.16359453579E+03 -0.12466115620E+03 -0.73214637398E+03  0.76048792820E+03  0.25500000920E-02 0.  1.
       -2    1    3    3    0  502  0.16359453579E+03  0.12466115620E+03  0.81196773673E+03  0.83761278733E+03  0.25500000920E-02 0. -1.
</event>
<event>
 5   0  0.4211419E-05  0.1599866E+04  0.7818609E-02  0.8820630E-01
       -1   -1    0    0    0  501  0.00000000000E+00  0.00000000000E+00  0.31507708806E+03  0.31507708810E+03  0.50400001928E-02 0. -1.
        1   -1    0    0  501    0  0.00000000000E+00  0.00000000000E+00 -0.20309085328E+04  0.20309085328E+04  0.50400001928E-02 0.  1.
    10030    2    1    2    0    0  0.00000000000E+00  0.00000000000E+00 -0.17158314448E+04  0.23459856209E+04  0.15998659277E+04 0.  0.
        2    1    3    3  502    0 -0.54608243943E+02 -0.73317663325E+03 -0.13201407662E+04  0.15110597865E+04  0.25500000920E-02 0.  1.
       -2    1    3    3    0  502  0.54608243943E+02  0.73317663325E+03 -0.39569067856E+03  0.83492583441E+03  0.25500000920E-02 0. -1.
</event>
<event>
 5   0  0.8037548E-05  0.1601720E+04  0.7818609E-02  0.8819492E-01
        2   -1    0    0  501    0  0.00000000000E+00  0.00000000000E+00  0.18512850124E+04  0.18512850124E+04  0.25500000920E-02 0.  1.
       -2   -1    0    0    0  501  0.00000000000E+00  0.00000000000E+00 -0.34644951531E+03  0.34644951532E+03  0.25500000920E-02 0. -1.
    10030    2    1    2    0    0  0.00000000000E+00  0.00000000000E+00  0.15048354971E+04  0.21977345277E+04  0.16017200695E+04 0.  0.
        5    1    3    3  502    0  0.36501821510E+03  0.45364999215E+03  0.15068507599E+04  0.16154435661E+04  0.46999998093E+01 0.  1.
       -5    1    3    3    0  502 -0.36501821510E+03 -0.45364999215E+03 -0.20152627459E+01  0.58229096165E+03  0.46999998093E+01 0. -1.
</event>
<event>
 5   0  0.8620155E-05  0.1598715E+04  0.7818609E-02  0.8821338E-01
       -2   -1    0    0    0  501  0.00000000000E+00  0.00000000000E+00  0.45477567635E+03  0.45477567636E+03  0.25500000920E-02 0. -1.
        2   -1    0    0  501    0  0.00000000000E+00  0.00000000000E+00 -0.14050269980E+04  0.14050269980E+04  0.25500000920E-02 0.  1.
    10030    2    1    2    0    0  0.00000000000E+00  0.00000000000E+00 -0.95025132167E+03  0.18598026744E+04  0.15987146128E+04 0.  0.
        4    1    3    3  502    0  0.23174500419E+03 -0.13994659350E+03 -0.13500715966E+04  0.13769479746E+04  0.12699999809E+01 0.  1.
       -4    1    3    3    0  502 -0.23174500419E+03  0.13994659350E+03  0.39982027489E+03  0.48285469979E+03  0.12699999809E+01 0. -1.
</event>
<event>
 5   0  0.8620155E-05  0.1603800E+04  0.7818609E-02  0.8818217E-01
        2   -1    0    0  501    0  0.00000000000E+00  0.00000000000E+00  0.23328507930E+04  0.23328507930E+04  0.25500000920E-02 0. -1.
       -2   -1    0    0    0  501  0.00000000000E+00  0.00000000000E+00 -0.27564717028E+03  0.27564717030E+03  0.25500000920E-02 0.  1.
    10030    2    1    2    0    0  0.00000000000E+00  0.00000000000E+00  0.20572036227E+04  0.26084979633E+04  0.16038001369E+04 0.  0.
        4    1    3    3  502    0 -0.41489322453E+03 -0.34560765543E+03  0.19928278776E+04  0.20646901951E+04  0.12699999809E+01 0. -1.
       -4    1    3    3    0  502  0.41489322453E+03  0.34560765543E+03  0.64375745113E+02  0.54380776816E+03  0.12699999809E+01 0.  1.
</event>
<event>
 5   0  0.4314657E-05  0.1583463E+04  0.7818609E-02  0.8830772E-01
        1   -1    0    0  501    0  0.00000000000E+00  0.00000000000E+00  0.11950171771E+04  0.11950171771E+04  0.50400001928E-02 0.  1.
       -1   -1    0    0    0  501  0.00000000000E+00  0.00000000000E+00 -0.52454357627E+03  0.52454357629E+03  0.50400001928E-02 0. -1.
    10030    2    1    2    0    0  0.00000000000E+00  0.00000000000E+00  0.67047360081E+03  0.17195607534E+04  0.15834627672E+04 0.  0.
        5    1    3    3  502    0  0.23785080239E+03 -0.12416493634E+03 -0.47365100677E+03  0.54438708822E+03  0.46999998093E+01 0. -1.
       -5    1    3    3    0  502 -0.23785080239E+03  0.12416493634E+03  0.11441246076E+04  0.11751736652E+04  0.46999998093E+01 0.  1.
</event>
<event>
 5   0  0.3042125E-05  0.1599121E+04  0.7818609E-02  0.8821088E-01
       -3   -1    0    0    0  501  0.00000000000E+00  0.00000000000E+00  0.11727615768E+04  0.11727615811E+04  0.10100000352E+00 0. -1.
        3   -1    0    0  501    0  0.00000000000E+00  0.00000000000E+00 -0.54512092286E+03  0.54512093222E+03  0.10100000352E+00 0.  1.
    10030    2    1    2    0    0  0.00000000000E+00  0.00000000000E+00  0.62764065390E+03  0.17178825133E+04  0.15991208645E+04 0.  0.
        2    1    3    3  502    0  0.69725638468E+02 -0.67416794013E+03 -0.14186741766E+03  0.69245248238E+03  0.25500000920E-02 0.  1.
       -2    1    3    3    0  502 -0.69725638468E+02  0.67416794013E+03  0.76950807156E+03  0.10254300309E+04  0.25500000920E-02 0. -1.
</event>
<event>
 5   0  0.4314657E-05  0.1596475E+04  0.7818609E-02  0.8822716E-01
       -1   -1    0    0    0  501  0.00000000000E+00  0.00000000000E+00  0.22941845490E+04  0.22941845491E+04  0.50400001928E-02 0. -1.
        1   -1    0    0  501    0  0.00000000000E+00  0.00000000000E+00 -0.27773845089E+03  0.27773845093E+03  0.50400001928E-02 0.  1.
    10030    2    1    2    0    0  0.00000000000E+00  0.00000000000E+00  0.20164460982E+04  0.25719230000E+04  0.15964751959E+04 0.  0.
        5    1    3    3  502    0 -0.89179605471E-01  0.64080692152E+03  0.24146843051E+03  0.68480844880E+03  0.46999998093E+01 0.  1.
       -5    1    3    3    0  502  0.89179605471E-01 -0.64080692152E+03  0.17749776676E+04  0.18871145512E+04  0.46999998093E+01 0. -1.
</event>
<event>
 5   0  0.8620155E-05  0.1600569E+04  0.7818609E-02  0.8820198E-01
        2   -1    0    0  501    0  0.00000000000E+00  0.00000000000E+00  0.10995710037E+04  0.10995710037E+04  0.25500000920E-02 0. -1.
       -2   -1    0    0    0  501  0.00000000000E+00  0.00000000000E+00 -0.58245941196E+03  0.58245941196E+03  0.25500000920E-02 0.  1.
    10030    2    1    2    0    0  0.00000000000E+00  0.00000000000E+00  0.51711159176E+03  0.16820304157E+04  0.16005692490E+04 0.  0.
        4    1    3    3  502    0  0.18064151594E+03 -0.73029666200E+03 -0.28262142312E+02  0.75283791974E+03  0.12699999809E+01 0.  1.
       -4    1    3    3    0  502 -0.18064151594E+03  0.73029666200E+03  0.54537373407E+03  0.92919249595E+03  0.12699999809E+01 0. -1.
</event>
<event>
 5   0  0.8037548E-05  0.1608473E+04  0.7818609E-02  0.8815360E-01
       -2   -1    0    0    0  501  0.00000000000E+00  0.00000000000E+00  0.24682978730E+03  0.24682978731E+03  0.25500000920E-02 0.  1.
        2   -1    0    0  501    0  0.00000000000E+00  0.00000000000E+00 -0.26204138647E+04  0.26204138647E+04  0.25500000920E-02 0. -1.
    10030    2    1    2    0    0  0.00000000000E+00  0.00000000000E+00 -0.23735840774E+04  0.28672436520E+04  0.16084728122E+04 0.  0.
        5    1    3    3  502    0  0.68513755096E+02  0.17994217142E+03  0.20511186643E+03  0.28136504303E+03  0.46999998093E+01 0.  1.
       -5    1    3    3    0  502 -0.68513755096E+02 -0.17994217142E+03 -0.25786959438E+04  0.25858786090E+04  0.46999998093E+01 0. -1.
</event>
<event>
 5   0  0.4256406E-05  0.1603783E+04  0.7818609E-02  0.8818228E-01
       -1   -1    0    0    0  501  0.00000000000E+00  0.00000000000E+00  0.68954433158E+03  0.68954433160E+03  0.50400001928E-02 0. -1.
        1   -1    0    0  501    0  0.00000000000E+00  0.00000000000E+00 -0.93254283785E+03  0.93254283786E+03  0.50400001928E-02 0.  1.
    10030    2    1    2    0    0  0.00000000000E+00  0.00000000000E+00 -0.24299850627E+03  0.16220871695E+04  0.16037825636E+04 0.  0.
        3    1    3    3  502    0 -0.37257886202E+03  0.31363162763E+03  0.52283523224E+03  0.71451836684E+03  0.10100000352E+00 0. -1.
       -3    1    3    3    0  502  0.37257886202E+03 -0.31363162763E+03 -0.76583373850E+03  0.90756880263E+03  0.10100000352E+00 0.  1.
</event>
<event>
 5   0  0.8620155E-05  0.1600862E+04  0.7818609E-02  0.8820019E-01
        2   -1    0    0  501    0  0.00000000000E+00  0.00000000000E+00  0.17769235745E+04  0.17769235745E+04  0.25500000920E-02 0. -1.
       -2   -1    0    0    0  501  0.00000000000E+00  0.00000000000E+00 -0.36056128917E+03  0.36056128918E+03  0.25500000920E-02 0.  1.
    10030    2    1    2    0    0  0.00000000000E+00  0.00000000000E+00  0.14163622853E+04  0.21374848637E+04  0.16008620862E+04 0.  0.
        4    1    3    3  502    0  0.68864108914E+03 -0.35927440816E+03  0.45002073263E+03  0.89767751598E+03  0.12699999809E+01 0.  1.
       -4    1    3    3    0  502 -0.68864108914E+03  0.35927440816E+03  0.96634155269E+03  0.12398073477E+04  0.12699999809E+01 0. -1.
</event>
<event>
 5   0  0.8694033E-05  0.1607506E+04  0.7818609E-02  0.8815950E-01
       -2   -1    0    0    0  501  0.00000000000E+00  0.00000000000E+00  0.72307157338E+03  0.72307157338E+03  0.25500000920E-02 0.  1.
        2   -1    0    0  501    0  0.00000000000E+00  0.00000000000E+00 -0.89343664522E+03  0.89343664523E+03  0.25500000920E-02 0. -1.
    10030    2    1    2    0    0  0.00000000000E+00  0.00000000000E+00 -0.17036507184E+03  0.16165082186E+04  0.16075056961E+04 0.  0.
        1    1    3    3  502    0 -0.94081857118E+01  0.38520211411E+03 -0.79450469161E+03  0.88301012887E+03  0.50400001928E-02 0. -1.
       -1    1    3    3    0  502  0.94081857118E+01 -0.38520211411E+03  0.62413961976E+03  0.73349808974E+03  0.50400001928E-02 0.  1.
</event>
<event>
 5   0  0.4256406E-05  0.1601381E+04  0.7818609E-02  0.8819700E-01
       -1   -1    0    0    0  501  0.00000000000E+00  0.00000000000E+00  0.63433487791E+03  0.63433487793E+03  0.50400001928E-02 0.  1.
        1   -1    0    0  501    0  0.00000000000E+00  0.00000000000E+00 -0.10106732651E+04  0.10106732651E+04  0.50400001928E-02 0. -1.
    10030    2    1    2    0    0  0.00000000000E+00  0.00000000000E+00 -0.37633838722E+03  0.16450081431E+04  0.16013810318E+04 0.  0.
        3    1    3    3  502    0 -0.54516736058E+03  0.28750987333E+03 -0.71320607673E+03  0.94261991088E+03  0.10100000352E+00 0. -1.
       -3    1    3    3    0  502  0.54516736058E+03 -0.28750987333E+03  0.33686768951E+03  0.70238823220E+03  0.10100000352E+00 0.  1.
</event>
<event>
 5   0  0.7849690E-05  0.1605119E+04  0.7818609E-02  0.8817409E-01
        2   -1    0    0  501    0  0.00000000000E+00  0.00000000000E+00  0.77943327823E+03  0.77943327824E+03  0.25500000920E-02 0.  1.
       -2   -1    0    0    0  501  0.00000000000E+00  0.00000000000E+00 -0.82637237365E+03  0.82637237366E+03  0.25500000920E-02 0. -1.
    10030    2    1    2    0    0  0.00000000000E+00  0.00000000000E+00 -0.46939095422E+02  0.16058056519E+04  0.16051194700E+04 0.  0.
        3    1    3    3  502    0  0.22727113832E+03 -0.50777181296E+03  0.55523926527E+03  0.78598666417E+03  0.10100000352E+00 0.  1.
       -3    1    3    3    0  502 -0.22727113832E+03  0.50777181296E+03 -0.60217836069E+03  0.81981898773E+03  0.10100000352E+00 0. -1.
</event>
<event>
 5   0  0.4256406E-05  0.1594503E+04  0.7818609E-02  0.8823932E-01
       -1   -1    0    0    0  501  0.00000000000E+00  0.00000000000E+00  0.38688369156E+03  0.38688369159E+03  0.50400001928E-02 0. -1.
        1   -1    0    0  501    0  0.00000000000E+00  0.00000000000E+00 -0.16428974993E+04  0.16428974993E+04  0.50400001928E-02 0.  1.
    10030    2    1    2    0    0  0.00000000000E+00  0.00000000000E+00 -0.12560138077E+04  0.20297811909E+04  0.15945033702E+04 0.  0.
        3    1    3    3  502    0  0.10586678498E+03  0.78388409016E+03 -0.50116610786E+03  0.93640243530E+03  0.10100000352E+00 0. -1.
       -3    1    3    3    0  502 -0.10586678498E+03 -0.78388409016E+03 -0.75484769983E+03  0.10933787556E+04  0.10100000352E+00 0.  1.
</event>
<event>
 5   0  0.4314657E-05  0.1605956E+04  0.7818609E-02  0.8816898E-01
        1   -1    0    0  501    0  0.00000000000E+00  0.00000000000E+00  0.95293292554E+03  0.95293292555E+03  0.50400001928E-02 0.  1.
       -1   -1    0    0    0  501  0.00000000000E+00  0.00000000000E+00 -0.67661993877E+03  0.67661993879E+03  0.50400001928E-02 0. -1.
    10030    2    1    2    0    0  0.00000000000E+00  0.00000000000E+00  0.27631298677E+03  0.16295528643E+04  0.16059556877E+04 0.  0.
        5    1    3    3  502    0  0.46151938217E+03 -0.12398179905E+03 -0.51659978375E+03  0.70375354577E+03  0.46999998093E+01 0. -1.
       -5    1    3    3    0  502 -0.46151938217E+03  0.12398179905E+03  0.79291277052E+03  0.92579931857E+03  0.46999998093E+01 0.  1.
</event>
<event>
 5   0  0.4504463E-05  0.1601835E+04  0.7818609E-02  0.8819421E-01
        1   -1    0    0  501    0  0.00000000000E+00  0.00000000000E+00  0.73046191400E+03  0.73046191401E+03  0.50400001928E-02 0. -1.
       -1   -1    0    0    0  501  0.00000000000E+00  0.00000000000E+00 -0.87816881531E+03  0.87816881533E+03  0.50400001928E-02 0.  1.
    10030    2    1    2    0    0  0.00000000000E+00  0.00000000000E+00 -0.14770690132E+03  0.16086307293E+04  0.16018350398E+04 0.  0.
        1    1    3    3  502    0  0.77645032475E+03 -0.19592772655E+03 -0.88270287842E+02  0.80563914042E+03  0.50400001928E-02 0.  1.
       -1    1    3    3    0  502 -0.77645032475E+03  0.19592772655E+03 -0.59436613475E+02  0.80299158892E+03  0.50400001928E-02 0. -1.
</event>
<event>
 5   0  0.4504463E-05  0.1598738E+04  0.7818609E-02  0.8821324E-01
       -1   -1    0    0    0  501  0.00000000000E+00  0.00000000000E+00  0.12456944991E+04  0.12456944991E+04  0.50400001928E-02 0.  1.
        1   -1    0    0  501    0  0.00000000000E+00  0.00000000000E+00 -0.51295924841E+03  0.51295924843E+03  0.50400001928E-02 0. -1.
    10030    2    1    2    0    0  0.00000000000E+00  0.00000000000E+00  0.73273525067E+03  0.17586537475E+04  0.15987376445E+04 0.  0.
        1    1    3    3  502    0 -0.75809507597E+03 -0.58263705971E+02  0.63780394749E+03  0.99241960838E+03  0.50400001928E-02 0.  1.
       -1    1    3    3    0  502  0.75809507597E+03  0.58263705971E+02  0.94931303180E+02  0.76623413914E+03  0.50400001928E-02 0. -1.
</event>
<event>
 5   0  0.7849690E-05  0.1599941E+04  0.7818609E-02  0.8820584E-01
        2   -1    0    0  501    0  0.00000000000E+00  0.00000000000E+00  0.71615498414E+03  0.71615498415E+03  0.25500000920E-02 0. -1.
       -2   -1    0    0    0  501  0.00000000000E+00  0.00000000000E+00 -0.89359576633E+03  0.89359576633E+03  0.25500000920E-02 0.  1.
    10030    2    1    2    0    0  0.00000000000E+00  0.00000000000E+00 -0.17744078219E+03  0.16097507505E+04  0.15999413263E+04 0.  0.
        3    1    3    3  502    0 -0.92601941851E+02 -0.39878036471E+03  0.60277219705E+03  0.72865302487E+03  0.10100000352E+00 0. -1.
       -3    1    3    3    0  502  0.92601941851E+02  0.39878036471E+03 -0.78021297923E+03  0.88109772561E+03  0.10100000352E+00 0.  1.
</event>
<event>
 5   0  0.4504463E-05  0.1620598E+04  0.7818609E-02  0.8807993E-01
       -1   -1    0    0    0  501  0.00000000000E+00  0.00000000000E+00  0.59064190679E+03  0.59064190681E+03  0.50400001928E-02 0.  1.
        1   -1    0    0  501    0  0.00000000000E+00  0.00000000000E+00 -0.11116454487E+04  0.11116454487E+04  0.50400001928E-02 0. -1.
    10030    2    1    2    0    0  0.00000000000E+00  0.00000000000E+00 -0.52100354188E+03  0.17022873555E+04  0.16205978989E+04 0.  0.
        1    1    3    3  502    0  0.50246881221E+03  0.74046742748E+02 -0.92369596833E+03  0.10541214680E+04  0.50400001928E-02 0. -1.
       -1    1    3    3    0  502 -0.50246881221E+03 -0.74046742748E+02  0.40269242645E+03  0.64816588749E+03  0.50400001928E-02 0.  1.
</event>
<event>
 5   0  0.4211419E-05  0.1597716E+04  0.7818609E-02  0.8821952E-01
       -1   -1    0    0    0  501  0.00000000000E+00  0.00000000000E+00  0.83933063587E+03  0.83933063589E+03  0.50400001928E-02 0.  1.
        1   -1    0    0  501    0  0.00000000000E+00  0.00000000000E+00 -0.76033714934E+03  0.76033714936E+03  0.50400001928E-02 0. -1.
    10030    2    1    2    0    0  0.00000000000E+00  0.00000000000E+00  0.78993486532E+02  0.15996677852E+04  0.15977161989E+04 0.  0.
        2    1    3    3  502    0  0.99619219414E+02 -0.55490331385E+03  0.60616739478E+03  0.82781675937E+03  0.25500000920E-02 0.  1.
       -2    1    3    3    0  502 -0.99619219414E+02  0.55490331385E+03 -0.52717390825E+03  0.77185102587E+03  0.25500000920E-02 0. -1.
</event>
<event>
 5   0  0.4314657E-05  0.1600695E+04  0.7818609E-02  0.8820121E-01
       -1   -1    0    0    0  501  0.00000000000E+00  0.00000000000E+00  0.65192987011E+03  0.65192987013E+03  0.50400001928E-02 0.  1.
        1   -1    0    0  501    0  0.00000000000E+00  0.00000000000E+00 -0.98255395913E+03  0.98255395914E+03  0.50400001928E-02 0. -1.
    10030    2    1    2    0    0  0.00000000000E+00  0.00000000000E+00 -0.33062408902E+03  0.16344838293E+04  0.16006951927E+04 0.  0.
        5    1    3    3  502    0 -0.53751143055E+03 -0.56563011731E+03 -0.34705281088E+03  0.85400451469E+03  0.46999998093E+01 0.  1.
       -5    1    3    3    0  502  0.53751143055E+03  0.56563011731E+03  0.16428721858E+02  0.78047931458E+03  0.46999998093E+01 0. -1.
</event>
<event>
 5   0  0.8620155E-05  0.1571998E+04  0.7818609E-02  0.8837938E-01
       -2   -1    0    0    0  501  0.00000000000E+00  0.00000000000E+00  0.62236832963E+03  0.62236832963E+03  0.25500000920E-02 0.  1.
        2   -1    0    0  501    0  0.00000000000E+00  0.00000000000E+00 -0.99265093207E+03  0.99265093208E+03  0.25500000920E-02 0. -1.
    10030    2    1    2    0    0  0.00000000000E+00  0.00000000000E+00 -0.37028260245E+03  0.16150192617E+04  0.15719980948E+04 0.  0.
        4    1    3    3  502    0 -0.62640137074E+03  0.79131248047E+02  0.29580751923E+03  0.69724036961E+03  0.12699999809E+01 0.  1.
       -4    1    3    3    0  502  0.62640137074E+03 -0.79131248047E+02 -0.66609012168E+03  0.91777889210E+03  0.12699999809E+01 0. -1.
</event>
<event>
 5   0  0.7849690E-05  0.1598500E+04  0.7818609E-02  0.8821470E-01
        2   -1    0    0  501    0  0.00000000000E+00  0.00000000000E+00  0.15259515477E+04  0.15259515477E+04  0.25500000920E-02 0.  1.
       -2   -1    0    0    0  501  0.00000000000E+00  0.00000000000E+00 -0.41862417295E+03  0.41862417296E+03  0.25500000920E-02 0. -1.
    10030    2    1    2    0    0  0.00000000000E+00  0.00000000000E+00  0.11073273747E+04  0.19445757206E+04  0.15984995522E+04 0.  0.
        3    1    3    3  502    0 -0.73634217281E+03 -0.32573014009E+02  0.17765005582E+03  0.75816907694E+03  0.10100000352E+00 0.  1.
       -3    1    3    3    0  502  0.73634217281E+03  0.32573014009E+02  0.92967731891E+03  0.11864066437E+04  0.10100000352E+00 0. -1.
</event>
<event>
 5   0  0.4373026E-05  0.1594803E+04  0.7818609E-02  0.8823747E-01
       -1   -1    0    0    0  501  0.00000000000E+00  0.00000000000E+00  0.44472357032E+03  0.44472357034E+03  0.50400001928E-02 0.  1.
        1   -1    0    0  501    0  0.00000000000E+00  0.00000000000E+00 -0.14297631795E+04  0.14297631795E+04  0.50400001928E-02 0. -1.
    10030    2    1    2    0    0  0.00000000000E+00  0.00000000000E+00 -0.98503960916E+03  0.18744867498E+04  0.15948032931E+04 0.  0.
        4    1    3    3  502    0  0.75874227597E+03  0.17309146514E+03 -0.28827118127E+03  0.82991106963E+03  0.12699999809E+01 0.  1.
       -4    1    3    3    0  502 -0.75874227597E+03 -0.17309146514E+03 -0.69676842789E+03  0.10445756802E+04  0.12699999809E+01 0. -1.
</event>
<event>
 5   0  0.4211419E-05  0.1603800E+04  0.7818609E-02  0.8818217E-01
        1   -1    0    0  501    0  0.00000000000E+00  0.00000000000E+00  0.83306302617E+03  0.83306302619E+03  0.50400001928E-02 0.  1.
       -1   -1    0    0    0  501  0.00000000000E+00  0.00000000000E+00 -0.77190289283E+03  0.77190289285E+03  0.50400001928E-02 0. -1.
    10030    2    1    2    0    0  0.00000000000E+00  0.00000000000E+00  0.61160133337E+02  0.16049659190E+04  0.16038001869E+04 0.  0.
        2    1    3    3  502    0  0.40943545021E+02 -0.44147677787E+03  0.69924658229E+03  0.82796370822E+03  0.25500000920E-02 0.  1.
       -2    1    3    3    0  502 -0.40943545021E+02  0.44147677787E+03 -0.63808644895E+03  0.77700221082E+03  0.25500000920E-02 0. -1.
</event>
<event>
 5   0  0.4373026E-05  0.1600329E+04  0.7818609E-02  0.8820346E-01
       -1   -1    0    0    0  501  0.00000000000E+00  0.00000000000E+00  0.75670651769E+03  0.75670651770E+03  0.50400001928E-02 0. -1.
        1   -1    0    0  501    0  0.00000000000E+00  0.00000000000E+00 -0.84611863825E+03  0.84611863827E+03  0.50400001928E-02 0.  1.
    10030    2    1    2    0    0  0.00000000000E+00  0.00000000000E+00 -0.89412120569E+02  0.16028251560E+04  0.16003293265E+04 0.  0.
        4    1    3    3  502    0 -0.18593256432E+03  0.76015832920E+03 -0.21185033411E+03  0.81073656689E+03  0.12699999809E+01 0.  1.
       -4    1    3    3    0  502  0.18593256432E+03 -0.76015832920E+03  0.12243821354E+03  0.79208858908E+03  0.12699999809E+01 0. -1.
</event>
<event>
 5   0  0.4504463E-05  0.1606728E+04  0.7818609E-02  0.8816425E-01
        1   -1    0    0  501    0  0.00000000000E+00  0.00000000000E+00  0.17488908745E+04  0.17488908745E+04  0.50400001928E-02 0.  1.
       -1   -1    0    0    0  501  0.00000000000E+00  0.00000000000E+00 -0.36903032015E+03  0.36903032019E+03  0.50400001928E-02 0. -1.
    10030    2    1    2    0    0  0.00000000000E+00  0.00000000000E+00  0.13798605544E+04  0.21179211947E+04  0.16067280534E+04 0.  0.
        1    1    3    3  502    0 -0.67998178967E+03 -0.18310706862E+03  0.11995825498E+04  0.13910074503E+04  0.50400001928E-02 0.  1.
       -1    1    3    3    0  502  0.67998178967E+03  0.18310706862E+03  0.18027800451E+03  0.72691374440E+03  0.50400001928E-02 0. -1.
</event>
<event>
 5   0  0.3042125E-05  0.1599314E+04  0.7818609E-02  0.8820970E-01
        3   -1    0    0  501    0  0.00000000000E+00  0.00000000000E+00  0.83790845572E+03  0.83790846181E+03  0.10100000352E+00 0. -1.
       -3   -1    0    0    0  501  0.00000000000E+00  0.00000000000E+00 -0.76315175070E+03  0.76315175739E+03  0.10100000352E+00 0.  1.
    10030    2    1    2    0    0  0.00000000000E+00  0.00000000000E+00  0.74756705020E+02  0.16010602192E+04  0.15993139969E+04 0.  0.
        1    1    3    3  502    0  0.75504954880E+03  0.22270756224E+03  0.17807658912E+03  0.80709959178E+03  0.50400001928E-02 0. -1.
       -1    1    3    3    0  502 -0.75504954880E+03 -0.22270756224E+03 -0.10331988410E+03  0.79396062743E+03  0.50400001928E-02 0.  1.
</event>
<event>
 5   0  0.4373026E-05  0.1599186E+04  0.7818609E-02  0.8821048E-01
        1   -1    0    0  501    0  0.00000000000E+00  0.00000000000E+00  0.88672174759E+03  0.88672174761E+03  0.50400001928E-02 0. -1.
       -1   -1    0    0    0  501  0.00000000000E+00  0.00000000000E+00 -0.72102522848E+03  0.72102522850E+03  0.50400001928E-02 0.  1.
    10030    2    1    2    0    0  0.00000000000E+00  0.00000000000E+00  0.16569651911E+03  0.16077469761E+04  0.15991857312E+04 0.  0.
        4    1    3    3  502    0  0.39667934523E+03 -0.18337161717E+03  0.75603546090E+03  0.87325304692E+03  0.12699999809E+01 0. -1.
       -4    1    3    3    0  502 -0.39667934523E+03  0.18337161717E+03 -0.59033894179E+03  0.73449392918E+03  0.12699999809E+01 0.  1.
</event>
<event>
 5   0  0.8620155E-05  0.1600873E+04  0.7818609E-02  0.8820012E-01
       -2   -1    0    0    0  501  0.00000000000E+00  0.00000000000E+00  0.74218965681E+03  0.74218965681E+03  0.25500000920E-02 0. -1.
        2   -1    0    0  501    0  0.00000000000E+00  0.00000000000E+00 -0.86325411406E+03  0.86325411407E+03  0.25500000920E-02 0.  1.
    10030    2    1    2    0    0  0.00000000000E+00  0.00000000000E+00 -0.12106445726E+03  0.16054437709E+04  0.16008726054E+04 0.  0.
        4    1    3    3  502    0 -0.29855078410E+03 -0.71451195913E+03  0.14262150712E+03  0.78740232259E+03  0.12699999809E+01 0. -1.
       -4    1    3    3    0  502  0.29855078410E+03  0.71451195913E+03 -0.26368596437E+03  0.81804144829E+03  0.12699999809E+01 0.  1.
</event>
<event>
 5   0  0.8620155E-05  0.1599985E+04  0.7818609E-02  0.8820557E-01
       -2   -1    0    0    0  501  0.00000000000E+00  0.00000000000E+00  0.46111957298E+03  0.46111957299E+03  0.25500000920E-02 0.  1.
        2   -1    0    0  501    0  0.00000000000E+00  0.00000000000E+00 -0.13878998054E+04  0.13878998054E+04  0.25500000920E-02 0. -1.
    10030    2    1    2    0    0  0.00000000000E+00  0.00000000000E+00 -0.92678023246E+03  0.18490193784E+04  0.15999847070E+04 0.  0.
        4    1    3    3  502    0 -0.34238053866E+03 -0.72102024959E+03 -0.40124762370E+03  0.89336213374E+03  0.12699999809E+01 0. -1.
       -4    1    3    3    0  502  0.34238053866E+03  0.72102024959E+03 -0.52553260876E+03  0.95565724469E+03  0.12699999809E+01 0.  1.
</event>
<event>
 5   0  0.4504463E-05  0.1602665E+04  0.7818609E-02  0.8818912E-01
        1   -1    0    0  501    0  0.00000000000E+00  0.00000000000E+00  0.51196868747E+03  0.51196868750E+03  0.50400001928E-02 0. -1.
       -1   -1    0    0    0  501  0.00000000000E+00  0.00000000000E+00 -0.12542447697E+04  0.12542447698E+04  0.50400001928E-02 0.  1.
    10030    2    1    2    0    0  0.00000000000E+00  0.00000000000E+00 -0.74227608228E+03  0.17662134573E+04  0.16026653407E+04 0.  0.
        1    1    3    3  502    0  0.22605645569E+03  0.74036824263E+03 -0.14291201591E+03  0.78719152700E+03  0.50400001928E-02 0.  1.
       -1    1    3    3    0  502 -0.22605645569E+03 -0.74036824263E+03 -0.59936406637E+03  0.97902193026E+03  0.50400001928E-02 0. -1.
</event>
<event>
 5   0  0.4373026E-05  0.1600049E+04  0.7818609E-02  0.8820518E-01
       -1   -1    0    0    0  501  0.00000000000E+00  0.00000000000E+00  0.57320500505E+03  0.57320500508E+03  0.50400001928E-02 0.  1.
        1   -1    0    0  501    0  0.00000000000E+00  0.00000000000E+00 -0.11165977816E+04  0.11165977816E+04  0.50400001928E-02 0. -1.
    10030    2    1    2    0    0  0.00000000000E+00  0.00000000000E+00 -0.54339277653E+03  0.16898027867E+04  0.16000492956E+04 0.  0.
        4    1    3    3  502    0  0.77103047370E+03  0.21300807148E+03 -0.25763032869E+03  0.84037814647E+03  0.12699999809E+01 0. -1.
       -4    1    3    3    0  502 -0.77103047370E+03 -0.21300807148E+03 -0.28576244784E+03  0.84942464021E+03  0.12699999809E+01 0.  1.
</event>
<event>
 5   0  0.8620155E-05  0.1595330E+04  0.7818609E-02  0.8823422E-01
       -2   -1    0    0    0  501  0.00000000000E+00  0.00000000000E+00  0.27158764530E+03  0.27158764531E+03  0.25500000920E-02 0. -1.
        2   -1    0    0  501    0  0.00000000000E+00  0.00000000000E+00 -0.23427784175E+04  0.23427784175E+04  0.25500000920E-02 0.  1.
    10030    2    1    2    0    0  0.00000000000E+00  0.00000000000E+00 -0.20711907722E+04  0.26143660628E+04  0.15953302779E+04 0.  0.
        4    1    3    3  502    0 -0.71855739598E+03  0.16945159100E+03 -0.54062022212E+03  0.91504667120E+03  0.12699999809E+01 0. -1.
       -4    1    3    3    0  502  0.71855739598E+03 -0.16945159100E+03 -0.15305705500E+04  0.16993193916E+04  0.12699999809E+01 0.  1.
</event>
<event>
 5   0  0.8620155E-05  0.1599713E+04  0.7818609E-02  0.8820724E-01
        2   -1    0    0  501    0  0.00000000000E+00  0.00000000000E+00  0.64862636747E+03  0.64862636747E+03  0.25500000920E-02 0.  1.
       -2   -1    0    0    0  501  0.00000000000E+00  0.00000000000E+00 -0.98634719727E+03  0.98634719728E+03  0.25500000920E-02 0. -1.
    10030    2    1    2    0    0  0.00000000000E+00  0.00000000000E+00 -0.33772082981E+03  0.16349735647E+04  0.15997134739E+04 0.  0.
        4    1    3    3  502    0  0.50991691167E+03 -0.23268381184E+03 -0.75206220600E+03  0.93795319057E+03  0.12699999809E+01 0. -1.
       -4    1    3    3    0  502 -0.50991691167E+03  0.23268381184E+03  0.41434137619E+03  0.69702037418E+03  0.12699999809E+01 0.  1.
</event>
<event>
 5   0  0.8037548E-05  0.1600768E+04  0.7818609E-02  0.8820076E-01
       -2   -1    0    0    0  501  0.00000000000E+00  0.00000000000E+00  0.44495498016E+03  0.44495498017E+03  0.25500000920E-02 0. -1.
        2   -1    0    0  501    0  0.00000000000E+00  0.00000000000E+00 -0.14397291031E+04  0.14397291031E+04  0.25500000920E-02 0.  1.
    10030    2    1    2    0    0  0.00000000000E+00  0.00000000000E+00 -0.99477412290E+03  0.18846840832E+04  0.16007681088E+04 0.  0.
        5    1    3    3  502    0 -0.33752567431E+03  0.29119871064E+03 -0.12800207092E+04  0.13554318042E+04  0.46999998093E+01 0.  1.
       -5    1    3    3    0  502  0.33752567431E+03 -0.29119871064E+03  0.28524658627E+03  0.52925227905E+03  0.46999998093E+01 0. -1.
</event>
<event>
 5   0  0.8694033E-05  0.1601846E+04  0.7818609E-02  0.8819415E-01
       -2   -1    0    0    0  501  0.00000000000E+00  0.00000000000E+00  0.49920479916E+03  0.49920479917E+03  0.25500000920E-02 0. -1.
        2   -1    0    0  501    0  0.00000000000E+00  0.00000000000E+00 -0.12849995064E+04  0.12849995064E+04  0.25500000920E-02 0.  1.
    10030    2    1    2    0    0  0.00000000000E+00  0.00000000000E+00 -0.78579470720E+03  0.17842043055E+04  0.16018463353E+04 0.  0.
        1    1    3    3  502    0 -0.64191674935E+02  0.67786480987E+03 -0.86263869505E+03  0.10989844357E+04  0.50400001928E-02 0.  1.
       -1    1    3    3    0  502  0.64191674935E+02 -0.67786480987E+03  0.76843987850E+02  0.68521986988E+03  0.50400001928E-02 0. -1.
</event>
<event>
 5   0  0.4314657E-05  0.1599536E+04  0.7818609E-02  0.8820833E-01
       -1   -1    0    0    0  501  0.00000000000E+00  0.00000000000E+00  0.40290867137E+03  0.40290867140E+03  0.50400001928E-02 0.  1.
        1   -1    0    0  501    0  0.00000000000E+00  0.00000000000E+00 -0.15875276829E+04  0.15875276829E+04  0.50400001928E-02 0. -1.
    10030    2    1    2    0    0  0.00000000000E+00  0.00000000000E+00 -0.11846190115E+04  0.19904363543E+04  0.15995357695E+04 0.  0.
        5    1    3    3  502    0  0.61525924731E+03  0.47330443558E+03 -0.83181879317E+03  0.11377634309E+04  0.46999998093E+01 0. -1.
       -5    1    3    3    0  502 -0.61525924731E+03 -0.47330443558E+03 -0.35280021832E+03  0.85267292333E+03  0.46999998093E+01 0.  1.
</event>
<event>
 5   0  0.8037548E-05  0.1599365E+04  0.7818609E-02  0.8820938E-01
       -2   -1    0    0    0  501  0.00000000000E+00  0.00000000000E+00  0.24609239535E+04  0.24609239535E+04  0.25500000920E-02 0.  1.
        2   -1    0    0  501    0  0.00000000000E+00  0.00000000000E+00 -0.25985845451E+03  0.25985845452E+03  0.25500000920E-02 0. -1.
    10030    2    1    2    0    0  0.00000000000E+00  0.00000000000E+00  0.22010654989E+04  0.27207824080E+04  0.15993647429E+04 0.  0.
        5    1    3    3  502    0  0.71897411593E+03  0.26316298717E+03  0.14932448831E+04  0.16780884685E+04  0.46999998093E+01 0. -1.
       -5    1    3    3    0  502 -0.71897411593E+03 -0.26316298717E+03  0.70782061584E+03  0.10426939395E+04  0.46999998093E+01 0.  1.
</event>
<event>
 5   0  0.4211419E-05  0.1600098E+04  0.7818609E-02  0.8820488E-01
        1   -1    0    0  501    0  0.00000000000E+00  0.00000000000E+00  0.88098840187E+03  0.88098840188E+03  0.50400001928E-02 0. -1.
       -1   -1    0    0    0  501  0.00000000000E+00  0.00000000000E+00 -0.72654595813E+03  0.72654595815E+03  0.50400001928E-02 0.  1.
    10030    2    1    2    0    0  0.00000000000E+00  0.00000000000E+00  0.15444244374E+03  0.16075343600E+04  0.16000982002E+04 0.  0.
        2    1    3    3  502    0 -0.90736346343E+02 -0.28346315236E+03 -0.66885649767E+03  0.73208842211E+03  0.25500000920E-02 0.  1.
       -2    1    3    3    0  502  0.90736346343E+02  0.28346315236E+03  0.82329894141E+03  0.87544593793E+03  0.25500000920E-02 0. -1.
</event>
<event>
 5   0  0.8037548E-05  0.1601670E+04  0.7818609E-02  0.8819523E-01
       -2   -1    0    0    0  501  0.00000000000E+00  0.00000000000E+00  0.10713568268E+04  0.10713568268E+04  0.25500000920E-02 0.  1.
        2   -1    0    0  501    0  0.00000000000E+00  0.00000000000E+00 -0.59862114836E+03  0.59862114836E+03  0.25500000920E-02 0. -1.
    10030    2    1    2    0    0  0.00000000000E+00  0.00000000000E+00  0.47273567840E+03  0.16699779751E+04  0.16016701957E+04 0.  0.
        5    1    3    3  502    0  0.25069820613E+03  0.30183894084E+02  0.10287487183E+04  0.10592953665E+04  0.46999998093E+01 0.  1.
       -5    1    3    3    0  502 -0.25069820613E+03 -0.30183894084E+02 -0.55601303988E+03  0.61068260867E+03  0.46999998093E+01 0. -1.
</event>
<event>
 5   0  0.4256406E-05  0.1600640E+04  0.7818609E-02  0.8820155E-01
       -1   -1    0    0    0  501  0.00000000000E+00  0.00000000000E+00  0.90151780113E+03  0.90151780114E+03  0.50400001928E-02 0.  1.
        1   -1    0    0  501    0  0.00000000000E+00  0.00000000000E+00 -0.71048204277E+03  0.71048204279E+03  0.50400001928E-02 0. -1.
    10030    2    1    2    0    0  0.00000000000E+00  0.00000000000E+00  0.19103575836E+03  0.16119998439E+04  0.16006401332E+04 0.  0.
        3    1    3    3  502    0 -0.14453125546E+03 -0.73119312719E+03 -0.19806345852E+03  0.77120802438E+03  0.10100000352E+00 0. -1.
       -3    1    3    3    0  502  0.14453125546E+03  0.73119312719E+03  0.38909921687E+03  0.84079181956E+03  0.10100000352E+00 0.  1.
</event>
<event>
 5   0  0.4373026E-05  0.1603206E+04  0.7818609E-02  0.8818581E-01
       -1   -1    0    0    0  501  0.00000000000E+00  0.00000000000E+00  0.36304671188E+03  0.36304671192E+03  0.50400001928E-02 0. -1.
        1   -1    0    0  501    0  0.00000000000E+00  0.00000000000E+00 -0.17699306191E+04  0.17699306192E+04  0.50400001928E-02 0.  1.
    10030    2    1    2    0    0  0.00000000000E+00  0.00000000000E+00 -0.14068839073E+04  0.21329773311E+04  0.16032061522E+04 0.  0.
        4    1    3    3  502    0  0.73618585180E+03  0.31175433114E+03 -0.62580155134E+03  0.10152780732E+04  0.12699999809E+01 0.  1.
       -4    1    3    3    0  502 -0.73618585180E+03 -0.31175433114E+03 -0.78108235593E+03  0.11176992579E+04  0.12699999809E+01 0. -1.
</event>
<event>
 5   0  0.4256406E-05  0.1601560E+04  0.7818609E-02  0.8819590E-01
        1   -1    0    0  501    0  0.00000000000E+00  0.00000000000E+00  0.76170988982E+03  0.76170988984E+03  0.50400001928E-02 0. -1.
       -1   -1    0    0    0  501  0.00000000000E+00  0.00000000000E+00 -0.84185390298E+03  0.84185390299E+03  0.50400001928E-02 0.  1.
    10030    2    1    2    0    0  0.00000000000E+00  0.00000000000E+00 -0.80144013152E+02  0.16035637928E+04  0.16015597943E+04 0.  0.
        3    1    3    3  502    0  0.16203817270E+03  0.77612413721E+03  0.72422429999E+02  0.79615957216E+03  0.10100000352E+00 0. -1.
       -3    1    3    3    0  502 -0.16203817270E+03 -0.77612413721E+03 -0.15256644315E+03  0.80740422067E+03  0.10100000352E+00 0.  1.
</event>
<event>
 5   0  0.4256406E-05  0.1634014E+04  0.7818609E-02  0.8799920E-01
       -1   -1    0    0    0  501  0.00000000000E+00  0.00000000000E+00  0.71309002509E+03  0.71309002511E+03  0.50400001928E-02 0. -1.
        1   -1    0    0  501    0  0.00000000000E+00  0.00000000000E+00 -0.93606781113E+03  0.93606781114E+03  0.50400001928E-02 0.  1.
    10030    2    1    2    0    0  0.00000000000E+00  0.00000000000E+00 -0.22297778604E+03  0.16491578363E+04  0.16340142214E+04 0.  0.
        3    1    3    3  502    0  0.20138501469E+03  0.47458122978E+03  0.52819686307E+03  0.73808888635E+03  0.10100000352E+00 0. -1.
       -3    1    3    3    0  502 -0.20138501469E+03 -0.47458122978E+03 -0.75117464911E+03  0.91106894990E+03  0.10100000352E+00 0.  1.
</event>
<event>
 5   0  0.7901257E-05  0.1598591E+04  0.7818609E-02  0.8821414E-01
       -2   -1    0    0    0  501  0.00000000000E+00  0.00000000000E+00  0.33026996135E+03  0.33026996136E+03  0.25500000920E-02 0.  1.
        2   -1    0    0  501    0  0.00000000000E+00  0.00000000000E+00 -0.19343969176E+04  0.19343969176E+04  0.25500000920E-02 0. -1.
    10030    2    1    2    0    0  0.00000000000E+00  0.00000000000E+00 -0.16041269563E+04  0.22646668790E+04  0.15985908735E+04 0.  0.
        2    1    3    3  502    0  0.37170652237E+03  0.16953634448E+03  0.17118076345E+03  0.44295729439E+03  0.25500000920E-02 0.  1.
       -2    1    3    3    0  502 -0.37170652237E+03 -0.16953634448E+03 -0.17753077197E+04  0.18217095846E+04  0.25500000920E-02 0. -1.
</event>
<event>
 5   0  0.4314657E-05  0.1590137E+04  0.7818609E-02  0.8826630E-01
        1   -1    0    0  501    0  0.00000000000E+00  0.00000000000E+00  0.12927835098E+04  0.12927835098E+04  0.50400001928E-02 0.  1.
       -1   -1    0    0    0  501  0.00000000000E+00  0.00000000000E+00 -0.48897096812E+03  0.48897096815E+03  0.50400001928E-02 0. -1.
    10030    2    1    2    0    0  0.00000000000E+00  0.00000000000E+00  0.80381254166E+03  0.17817544779E+04  0.15901366034E+04 0.  0.
        5    1    3    3  502    0  0.53879528059E+03  0.32662736643E+03  0.94523603485E+03  0.11359925363E+04  0.46999998093E+01 0.  1.
       -5    1    3    3    0  502 -0.53879528059E+03 -0.32662736643E+03 -0.14142349319E+03  0.64576194167E+03  0.46999998093E+01 0. -1.
</event>
<event>
 5   0  0.4211419E-05  0.1600141E+04  0.7818609E-02  0.8820462E-01
       -1   -1    0    0    0  501  0.00000000000E+00  0.00000000000E+00  0.59777148214E+03  0.59777148216E+03  0.50400001928E-02 0. -1.
        1   -1    0    0  501    0  0.00000000000E+00  0.00000000000E+00 -0.10708314212E+04  0.10708314212E+04  0.50400001928E-02 0.  1.
    10030    2    1    2    0    0  0.00000000000E+00  0.00000000000E+00 -0.47305993905E+03  0.16686029034E+04  0.16001406011E+04 0.  0.
        2    1    3    3  502    0  0.70416795673E+03 -0.28674815049E+03 -0.49625565304E+03  0.90793539764E+03  0.25500000920E-02 0. -1.
       -2    1    3    3    0  502 -0.70416795673E+03  0.28674815049E+03  0.23195713990E+02  0.76066750572E+03  0.25500000920E-02 0.  1.
</event>
<event>
 5   0  0.4256406E-05  0.1599569E+04  0.7818609E-02  0.8820813E-01
       -1   -1    0    0    0  501  0.00000000000E+00  0.00000000000E+00  0.37973133983E+03  0.37973133986E+03  0.50400001928E-02 0.  1.
        1   -1    0    0  501    0  0.00000000000E+00  0.00000000000E+00 -0.16844945628E+04  0.16844945628E+04  0.50400001928E-02 0. -1.
    10030    2    1    2    0    0  0.00000000000E+00  0.00000000000E+00 -0.13047632230E+04  0.20642259027E+04  0.15995691636E+04 0.  0.
        3    1    3    3  502    0 -0.62863972608E+03  0.35837806067E+03 -0.21279519535E+03  0.75425761179E+03  0.10100000352E+00 0. -1.
       -3    1    3    3    0  502  0.62863972608E+03 -0.35837806067E+03 -0.10919680276E+04  0.13099682909E+04  0.10100000352E+00 0.  1.
</event>
<event>
 5   0  0.8694033E-05  0.1601725E+04  0.7818609E-02  0.8819489E-01
       -2   -1    0    0    0  501  0.00000000000E+00  0.00000000000E+00  0.45415904846E+03  0.45415904847E+03  0.25500000920E-02 0.  1.
        2   -1    0    0  501    0  0.00000000000E+00  0.00000000000E+00 -0.14122380027E+04  0.14122380027E+04  0.25500000920E-02 0. -1.
    10030    2    1    2    0    0  0.00000000000E+00  0.00000000000E+00 -0.95807895426E+03  0.18663970512E+04  0.16017249046E+04 0.  0.
        1    1    3    3  502    0  0.22443592156E+03 -0.76620208428E+03 -0.40586496715E+03  0.89563580122E+03  0.50400001928E-02 0. -1.
       -1    1    3    3    0  502 -0.22443592156E+03  0.76620208428E+03 -0.55221398711E+03  0.97076124996E+03  0.50400001928E-02 0.  1.
</event>
<event>
 5   0  0.7901257E-05  0.1599594E+04  0.7818609E-02  0.8820798E-01
        2   -1    0    0  501    0  0.00000000000E+00  0.00000000000E+00  0.12033961830E+04  0.12033961830E+04  0.25500000920E-02 0.  1.
       -2   -1    0    0    0  501  0.00000000000E+00  0.00000000000E+00 -0.53155803495E+03  0.53155803495E+03  0.25500000920E-02 0. -1.
    10030    2    1    2    0    0  0.00000000000E+00  0.00000000000E+00  0.67183814800E+03  0.17349542179E+04  0.15995935862E+04 0.  0.
        2    1    3    3  502    0  0.36320256013E+03 -0.87782783208E+02 -0.43106506106E+03  0.57047261423E+03  0.25500000920E-02 0. -1.
       -2    1    3    3    0  502 -0.36320256013E+03  0.87782783208E+02  0.11029032091E+04  0.11644816037E+04  0.25500000920E-02 0.  1.
</event>
<event>
 5   0  0.4256406E-05  0.1590680E+04  0.7818609E-02  0.8826294E-01
       -1   -1    0    0    0  501  0.00000000000E+00  0.00000000000E+00  0.32786099088E+03  0.32786099091E+03  0.50400001928E-02 0.  1.
        1   -1    0    0  501    0  0.00000000000E+00  0.00000000000E+00 -0.19293708935E+04  0.19293708935E+04  0.50400001928E-02 0. -1.
    10030    2    1    2    0    0  0.00000000000E+00  0.00000000000E+00 -0.16015099026E+04  0.22572318844E+04  0.15906796698E+04 0.  0.
        3    1    3    3  502    0 -0.37833651786E+03 -0.63111976405E+03 -0.37241574609E+03  0.82470853971E+03  0.10100000352E+00 0.  1.
       -3    1    3    3    0  502  0.37833651786E+03  0.63111976405E+03 -0.12290941565E+04  0.14325233447E+04  0.10100000352E+00 0. -1.
</event>
<event>
 5   0  0.8694033E-05  0.1598628E+04  0.7818609E-02  0.8821391E-01
       -2   -1    0    0    0  501  0.00000000000E+00  0.00000000000E+00  0.31503617198E+03  0.31503617199E+03  0.25500000920E-02 0.  1.
        2   -1    0    0  501    0  0.00000000000E+00  0.00000000000E+00 -0.20280313392E+04  0.20280313392E+04  0.25500000920E-02 0. -1.
    10030    2    1    2    0    0  0.00000000000E+00  0.00000000000E+00 -0.17129951672E+04  0.23430675112E+04  0.15986284494E+04 0.  0.
        1    1    3    3  502    0  0.71477304094E+03 -0.33058515920E+03 -0.65598303124E+03  0.10249394054E+04  0.50400001928E-02 0. -1.
       -1    1    3    3    0  502 -0.71477304094E+03  0.33058515920E+03 -0.10570121360E+04  0.13181281057E+04  0.50400001928E-02 0.  1.
</event>
<event>
 5   0  0.4504463E-05  0.1602967E+04  0.7818609E-02  0.8818727E-01
        1   -1    0    0  501    0  0.00000000000E+00  0.00000000000E+00  0.14710257421E+04  0.14710257421E+04  0.50400001928E-02 0.  1.
       -1   -1    0    0    0  501  0.00000000000E+00  0.00000000000E+00 -0.43668568633E+03  0.43668568636E+03  0.50400001928E-02 0. -1.
    10030    2    1    2    0    0  0.00000000000E+00  0.00000000000E+00  0.10343400558E+04  0.19077114285E+04  0.16029671061E+04 0.  0.
        1    1    3    3  502    0 -0.82164557038E+01  0.15479451361E+03  0.14530156478E+04  0.14612608680E+04  0.50400001928E-02 0.  1.
       -1    1    3    3    0  502  0.82164557038E+01 -0.15479451361E+03 -0.41867559200E+03  0.44645056048E+03  0.50400001928E-02 0. -1.
</event>
<event>
 5   0  0.4256406E-05  0.1603647E+04  0.7818609E-02  0.8818310E-01
        1   -1    0    0  501    0  0.00000000000E+00  0.00000000000E+00  0.70925337405E+03  0.70925337407E+03  0.50400001928E-02 0.  1.
       -1   -1    0    0    0  501  0.00000000000E+00  0.00000000000E+00 -0.90647619080E+03  0.90647619082E+03  0.50400001928E-02 0. -1.
    10030    2    1    2    0    0  0.00000000000E+00  0.00000000000E+00 -0.19722281675E+03  0.16157295649E+04  0.16036474636E+04 0.  0.
        3    1    3    3  502    0  0.43911184896E+03 -0.41473390602E+03  0.43271156211E+03  0.74300924280E+03  0.10100000352E+00 0.  1.
       -3    1    3    3    0  502 -0.43911184896E+03  0.41473390602E+03 -0.62993437886E+03  0.87272032208E+03  0.10100000352E+00 0. -1.
</event>
<event>
 5   0  0.8620155E-05  0.1589050E+04  0.7818609E-02  0.8827303E-01
       -2   -1    0    0    0  501  0.00000000000E+00  0.00000000000E+00  0.44069850326E+03  0.44069850326E+03  0.25500000920E-02 0.  1.
        2   -1    0    0  501    0  0.00000000000E+00  0.00000000000E+00 -0.14324302835E+04  0.14324302835E+04  0.25500000920E-02 0. -1.
    10030    2    1    2    0    0  0.00000000000E+00  0.00000000000E+00 -0.99173178019E+03  0.18731287867E+04  0.15890498821E+04 0.  0.
        4    1    3    3  502    0  0.24196864531E+03 -0.44919193289E+03  0.22206970146E+03  0.55645195938E+03  0.12699999809E+01 0.  1.
       -4    1    3    3    0  502 -0.24196864531E+03  0.44919193289E+03 -0.12138014817E+04  0.13166768273E+04  0.12699999809E+01 0. -1.
</event>
<event>
 5   0  0.3042125E-05  0.1600154E+04  0.7818609E-02  0.8820453E-01
        4   -1    0    0  501    0  0.00000000000E+00  0.00000000000E+00  0.72862717952E+03  0.72862828632E+03  0.12699999809E+01 0. -1.
       -4   -1    0    0    0  501  0.00000000000E+00  0.00000000000E+00 -0.87853116114E+03  0.87853207910E+03  0.12699999809E+01 0.  1.
    10030    2    1    2    0    0  0.00000000000E+00  0.00000000000E+00 -0.14990398163E+03  0.16071603654E+04  0.16001541290E+04 0.  0.
        2    1    3    3  502    0 -0.44792926496E+03  0.44448968031E+03 -0.56895062727E+03  0.84965670632E+03  0.25500000920E-02 0.  1.
       -2    1    3    3    0  502  0.44792926496E+03 -0.44448968031E+03  0.41904664565E+03  0.75750365910E+03  0.25500000920E-02 0. -1.
</event>
<event>
 5   0  0.3042125E-05  0.1598836E+04  0.7818609E-02  0.8821263E-01
       -3   -1    0    0    0  501  0.00000000000E+00  0.00000000000E+00  0.15588219753E+04  0.15588219786E+04  0.10100000352E+00 0. -1.
        3   -1    0    0  501    0  0.00000000000E+00  0.00000000000E+00 -0.40996953258E+03  0.40996954502E+03  0.10100000352E+00 0.  1.
    10030    2    1    2    0    0  0.00000000000E+00  0.00000000000E+00  0.11488524427E+04  0.19687915236E+04  0.15988364920E+04 0.  0.
        3    1    3    3  502    0 -0.54211122533E+03 -0.80237684446E+01 -0.14897809418E+03  0.56226634635E+03  0.10100000352E+00 0.  1.
       -3    1    3    3    0  502  0.54211122533E+03  0.80237684446E+01  0.12978305369E+04  0.14065251773E+04  0.10100000352E+00 0. -1.
</event>
<event>
 5   0  0.8694033E-05  0.1598601E+04  0.7818609E-02  0.8821408E-01
       -2   -1    0    0    0  501  0.00000000000E+00  0.00000000000E+00  0.63393081643E+03  0.63393081644E+03  0.25500000920E-02 0.  1.
        2   -1    0    0  501    0  0.00000000000E+00  0.00000000000E+00 -0.10078091551E+04  0.10078091551E+04  0.25500000920E-02 0. -1.
    10030    2    1    2    0    0  0.00000000000E+00  0.00000000000E+00 -0.37387833867E+03  0.16417399715E+04  0.15986009890E+04 0.  0.
        1    1    3    3  502    0  0.68313595952E+03 -0.16829938124E+03 -0.57649285335E+03  0.90958420771E+03  0.50400001928E-02 0. -1.
       -1    1    3    3    0  502 -0.68313595952E+03  0.16829938124E+03  0.20261451469E+03  0.73215576383E+03  0.50400001928E-02 0.  1.
</event>
<event>
 5   0  0.8037548E-05  0.1601050E+04  0.7818609E-02  0.8819903E-01
       -2   -1    0    0    0  501  0.00000000000E+00  0.00000000000E+00  0.56349069941E+03  0.56349069942E+03  0.25500000920E-02 0.  1.
        2   -1    0    0  501    0  0.00000000000E+00  0.00000000000E+00 -0.11372685992E+04  0.11372685992E+04  0.25500000920E-02 0. -1.
    10030    2    1    2    0    0  0.00000000000E+00  0.00000000000E+00 -0.57377789977E+03  0.17007592986E+04  0.16010500034E+04 0.  0.
        5    1    3    3  502    0  0.32770667194E+03 -0.53537240425E+03  0.24084265010E+03  0.67234109362E+03  0.46999998093E+01 0.  1.
       -5    1    3    3    0  502 -0.32770667194E+03  0.53537240425E+03 -0.81462054987E+03  0.10284182050E+04  0.46999998093E+01 0. -1.
</event>
<event>
 5   0  0.8620155E-05  0.1600839E+04  0.7818609E-02  0.8820033E-01
        2   -1    0    0  501    0  0.00000000000E+00  0.00000000000E+00  0.21762240731E+04  0.21762240731E+04  0.25500000920E-02 0.  1.
       -2   -1    0    0    0  501  0.00000000000E+00  0.00000000000E+00 -0.29439593758E+03  0.29439593759E+03  0.25500000920E-02 0. -1.
    10030    2    1    2    0    0  0.00000000000E+00  0.00000000000E+00  0.18818281355E+04  0.24706200107E+04  0.16008391879E+04 0.  0.
        4    1    3    3  502    0 -0.86767421943E+02 -0.53933281879E+03  0.38019098501E+02  0.54759066800E+03  0.12699999809E+01 0. -1.
       -4    1    3    3    0  502  0.86767421943E+02  0.53933281879E+03  0.18438090370E+04  0.19230293427E+04  0.12699999809E+01 0.  1.
</event>
<event>
 5   0  0.4256406E-05  0.1596514E+04  0.7818609E-02  0.8822692E-01
       -1   -1    0    0    0  501  0.00000000000E+00  0.00000000000E+00  0.90241449232E+03  0.90241449233E+03  0.50400001928E-02 0. -1.
        1   -1    0    0  501    0  0.00000000000E+00  0.00000000000E+00 -0.70612179679E+03  0.70612179681E+03  0.50400001928E-02 0.  1.
    10030    2    1    2    0    0  0.00000000000E+00  0.00000000000E+00  0.19629269552E+03  0.16085362891E+04  0.15965143818E+04 0.  0.
        3    1    3    3  502    0 -0.49292882211E+02 -0.12635212030E+03  0.89072096351E+03  0.90098750911E+03  0.10100000352E+00 0. -1.
       -3    1    3    3    0  502  0.49292882211E+02  0.12635212030E+03 -0.69442826798E+03  0.70754878003E+03  0.10100000352E+00 0.  1.
</event>
<event>
 5   0  0.4256406E-05  0.1598269E+04  0.7818609E-02  0.8821612E-01
        1   -1    0    0  501    0  0.00000000000E+00  0.00000000000E+00  0.11585322462E+04  0.11585322462E+04  0.50400001928E-02 0. -1.
       -1   -1    0    0    0  501  0.00000000000E+00  0.00000000000E+00 -0.55122811843E+03  0.55122811846E+03  0.50400001928E-02 0.  1.
    10030    2    1    2    0    0  0.00000000000E+00  0.00000000000E+00  0.60730412777E+03  0.17097603647E+04  0.15982685009E+04 0.  0.
        3    1    3    3  502    0  0.52463156606E+03  0.49240382467E+03  0.67563833523E+03  0.98700910679E+03  0.10100000352E+00 0.  1.
       -3    1    3    3    0  502 -0.52463156606E+03 -0.49240382467E+03 -0.68334207460E+02  0.72275125788E+03  0.10100000352E+00 0. -1.
</event>
<event>
 5   0  0.7849690E-05  0.1603648E+04  0.7818609E-02  0.8818310E-01
        2   -1    0    0  501    0  0.00000000000E+00  0.00000000000E+00  0.16131321683E+04  0.16131321683E+04  0.25500000920E-02 0. -1.
       -2   -1    0    0    0  501  0.00000000000E+00  0.00000000000E+00 -0.39855467226E+03  0.39855467226E+03  0.25500000920E-02 0.  1.
    10030    2    1    2    0    0  0.00000000000E+00  0.00000000000E+00  0.12145774960E+04  0.20116868405E+04  0.16036475456E+04 0.  0.
        3    1    3    3  502    0 -0.47891975757E+03  0.17541714587E+03 -0.16883236592E+03  0.53725197742E+03  0.10100000352E+00 0.  1.
       -3    1    3    3    0  502  0.47891975757E+03 -0.17541714587E+03  0.13834098619E+04  0.14744348631E+04  0.10100000352E+00 0. -1.
</event>
<event>
 5   0  0.8620155E-05  0.1599818E+04  0.7818609E-02  0.8820660E-01
       -2   -1    0    0    0  501  0.00000000000E+00  0.00000000000E+00  0.37078816429E+03  0.37078816430E+03  0.25500000920E-02 0. -1.
        2   -1    0    0  501    0  0.00000000000E+00  0.00000000000E+00 -0.17256592401E+04  0.17256592401E+04  0.25500000920E-02 0.  1.
    10030    2    1    2    0    0  0.00000000000E+00  0.00000000000E+00 -0.13548710758E+04  0.20964474044E+04  0.15998175169E+04 0.  0.
        4    1    3    3  502    0  0.64886097235E+03 -0.16717690895E+03 -0.12499651822E+04  0.14182324387E+04  0.12699999809E+01 0. -1.
       -4    1    3    3    0  502 -0.64886097235E+03  0.16717690895E+03 -0.10490589352E+03  0.67821496571E+03  0.12699999809E+01 0.  1.
</event>
<event>
 5   0  0.4211419E-05  0.1600958E+04  0.7818609E-02  0.8819960E-01
        1   -1    0    0  501    0  0.00000000000E+00  0.00000000000E+00  0.12813102825E+04  0.12813102825E+04  0.50400001928E-02 0. -1.
       -1   -1    0    0    0  501  0.00000000000E+00  0.00000000000E+00 -0.50008685104E+03  0.50008685106E+03  0.50400001928E-02 0.  1.
    10030    2    1    2    0    0  0.00000000000E+00  0.00000000000E+00  0.78122343146E+03  0.17813971336E+04  0.16009577439E+04 0.  0.
        2    1    3    3  502    0 -0.49911337596E+03  0.49550013144E+03  0.81596850474E+03  0.10772368092E+04  0.25500000920E-02 0. -1.
       -2    1    3    3    0  502  0.49911337596E+03 -0.49550013144E+03 -0.34745073280E+02  0.70416032439E+03  0.25500000920E-02 0.  1.
</event>
<event>
 5   0  0.4504463E-05  0.1599707E+04  0.7818609E-02  0.8820728E-01
       -1   -1    0    0    0  501  0.00000000000E+00  0.00000000000E+00  0.12699157741E+04  0.12699157741E+04  0.50400001928E-02 0. -1.
        1   -1    0    0  501    0  0.00000000000E+00  0.00000000000E+00 -0.50378598941E+03  0.50378598943E+03  0.50400001928E-02 0.  1.
    10030    2    1    2    0    0  0.00000000000E+00  0.00000000000E+00  0.76612978470E+03  0.17737017635E+04  0.15997071916E+04 0.  0.
        1    1    3    3  502    0  0.75493869781E+02  0.14734451345E+03 -0.48458018119E+03  0.51208171423E+03  0.50400001928E-02 0.  1.
       -1    1    3    3    0  502 -0.75493869781E+02 -0.14734451345E+03  0.12507099659E+04  0.12616200493E+04  0.50400001928E-02 0. -1.
</event>
<event>
 5   0  0.4211419E-05  0.1599174E+04  0.7818609E-02  0.8821056E-01
        1   -1    0    0  501    0  0.00000000000E+00  0.00000000000E+00  0.14023780195E+04  0.14023780195E+04  0.50400001928E-02 0.  1.
       -1   -1    0    0    0  501  0.00000000000E+00  0.00000000000E+00 -0.45589669281E+03  0.45589669283E+03  0.50400001928E-02 0. -1.
    10030    2    1    2    0    0  0.00000000000E+00  0.00000000000E+00  0.94648132669E+03  0.18582747123E+04  0.15991741634E+04 0.  0.
        2    1    3    3  502    0  0.62060218271E+03 -0.50237104184E+03  0.52275652823E+03  0.95435743863E+03  0.25500000920E-02 0.  1.
       -2    1    3    3    0  502 -0.62060218271E+03  0.50237104184E+03  0.42372479846E+03  0.90391727370E+03  0.25500000920E-02 0. -1.
</event>
<event>
 5   0  0.8620155E-05  0.1599685E+04  0.7818609E-02  0.8820741E-01
        2   -1    0    0  501    0  0.00000000000E+00  0.00000000000E+00  0.74272719702E+03  0.74272719702E+03  0.25500000920E-02 0. -1.
       -2   -1    0    0    0  501  0.00000000000E+00  0.00000000000E+00 -0.86135016960E+03  0.86135016960E+03  0.25500000920E-02 0.  1.
    10030    2    1    2    0    0  0.00000000000E+00  0.00000000000E+00 -0.11862297258E+03  0.16040773666E+04  0.15996852154E+04 0.  0.
        4    1    3    3  502    0 -0.54427369210E+03 -0.47462619845E+03 -0.40411998092E+03  0.82753758346E+03  0.12699999809E+01 0.  1.
       -4    1    3    3    0  502  0.54427369210E+03  0.47462619845E+03  0.28549700834E+03  0.77653978316E+03  0.12699999809E+01 0. -1.
</event>
<event>
 5   0  0.8620155E-05  0.1598168E+04  0.7818609E-02  0.8821675E-01
       -2   -1    0    0    0  501  0.00000000000E+00  0.00000000000E+00  0.10696170952E+04  0.10696170952E+04  0.25500000920E-02 0.  1.
        2   -1    0    0  501    0  0.00000000000E+00  0.00000000000E+00 -0.59697522810E+03  0.59697522810E+03  0.25500000920E-02 0. -1.
    10030    2    1    2    0    0  0.00000000000E+00  0.00000000000E+00  0.47264186714E+03  0.16665923233E+04  0.15981675875E+04 0.  0.
        4    1    3    3  502    0 -0.78687881797E+02 -0.77794291167E+03  0.64505291153E+02  0.78456962855E+03  0.12699999809E+01 0.  1.
       -4    1    3    3    0  502  0.78687881797E+02  0.77794291167E+03  0.40813657598E+03  0.88202269478E+03  0.12699999809E+01 0. -1.
</event>
<event>
 5   0  0.8037548E-05  0.1601067E+04  0.7818609E-02  0.8819893E-01
        2   -1    0    0  501    0  0.00000000000E+00  0.00000000000E+00  0.72364519069E+03  0.72364519070E+03  0.25500000920E-02 0.  1.
       -2   -1    0    0    0  501  0.00000000000E+00  0.00000000000E+00 -0.88559163862E+03  0.88559163862E+03  0.25500000920E-02 0. -1.
    10030    2    1    2    0    0  0.00000000000E+00  0.00000000000E+00 -0.16194644792E+03  0.16092368293E+04  0.16010673068E+04 0.  0.
        5    1    3    3  502    0  0.89486779899E+02 -0.33574037032E+03 -0.80583445065E+03  0.87756522942E+03  0.46999998093E+01 0. -1.
       -5    1    3    3    0  502 -0.89486779899E+02  0.33574037032E+03  0.64388800272E+03  0.73167159989E+03  0.46999998093E+01 0.  1.
</event>
<event>
 5   0  0.4256406E-05  0.1599642E+04  0.7818609E-02  0.8820768E-01
       -1   -1    0    0    0  501  0.00000000000E+00  0.00000000000E+00  0.68015665825E+03  0.68015665827E+03  0.50400001928E-02 0. -1.
        1   -1    0    0  501    0  0.00000000000E+00  0.00000000000E+00 -0.94053821251E+03  0.94053821252E+03  0.50400001928E-02 0.  1.
    10030    2    1    2    0    0  0.00000000000E+00  0.00000000000E+00 -0.26038155426E+03  0.16206948708E+04  0.15996416194E+04 0.  0.
        3    1    3    3  502    0  0.31640046306E+03 -0.64300060492E+03  0.22966590243E+03  0.75253270221E+03  0.10100000352E+00 0. -1.
       -3    1    3    3    0  502 -0.31640046306E+03  0.64300060492E+03 -0.49004745668E+03  0.86816216858E+03  0.10100000352E+00 0.  1.
</event>
<event>
 5   0  0.4211419E-05  0.1597936E+04  0.7818609E-02  0.8821817E-01
       -1   -1    0    0    0  501  0.00000000000E+00  0.00000000000E+00  0.30978109832E+03  0.30978109836E+03  0.50400001928E-02 0. -1.
        1   -1    0    0  501    0  0.00000000000E+00  0.00000000000E+00 -0.20606472386E+04  0.20606472387E+04  0.50400001928E-02 0.  1.
    10030    2    1    2    0    0  0.00000000000E+00  0.00000000000E+00 -0.17508661403E+04  0.23704283370E+04  0.15979356243E+04 0.  0.
        2    1    3    3  502    0 -0.10287179730E+03  0.41119328332E+03  0.12924237247E+03  0.44313216287E+03  0.25500000920E-02 0. -1.
       -2    1    3    3    0  502  0.10287179730E+03 -0.41119328332E+03 -0.18801085128E+04  0.19272961741E+04  0.25500000920E-02 0.  1.
</event>
<event>
 5   0  0.8694033E-05  0.1597755E+04  0.7818609E-02  0.8821928E-01
        2   -1    0    0  501    0  0.00000000000E+00  0.00000000000E+00  0.92652001426E+03  0.92652001427E+03  0.25500000920E-02 0. -1.
       -2   -1    0    0    0  501  0.00000000000E+00  0.00000000000E+00 -0.68881960797E+03  0.68881960797E+03  0.25500000920E-02 0.  1.
    10030    2    1    2    0    0  0.00000000000E+00  0.00000000000E+00  0.23770040630E+03  0.16153396222E+04  0.15977548661E+04 0.  0.
        1    1    3    3  502    0 -0.42903806981E+03  0.14045762609E+03  0.78519678821E+03  0.90572402326E+03  0.50400001928E-02 0. -1.
       -1    1    3    3    0  502  0.42903806981E+03 -0.14045762609E+03 -0.54749638192E+03  0.70961559898E+03  0.50400001928E-02 0.  1.
</event>
<event>
 5   0  0.4373026E-05  0.1599399E+04  0.7818609E-02  0.8820917E-01
        1   -1    0    0  501    0  0.00000000000E+00  0.00000000000E+00  0.13858936715E+04  0.13858936715E+04  0.50400001928E-02 0. -1.
       -1   -1    0    0    0  501  0.00000000000E+00  0.00000000000E+00 -0.46144894295E+03  0.46144894297E+03  0.50400001928E-02 0.  1.
    10030    2    1    2    0    0  0.00000000000E+00  0.00000000000E+00  0.92444472856E+03  0.18473426145E+04  0.15993988493E+04 0.  0.
        4    1    3    3  502    0 -0.37682537616E+03  0.44065655342E+03 -0.17392383758E+03  0.60533187292E+03  0.12699999809E+01 0.  1.
       -4    1    3    3    0  502  0.37682537616E+03 -0.44065655342E+03  0.10983685661E+04  0.12420107416E+04  0.12699999809E+01 0. -1.
</event>
<event>
 5   0  0.8620155E-05  0.1602727E+04  0.7818609E-02  0.8818874E-01
       -2   -1    0    0    0  501  0.00000000000E+00  0.00000000000E+00  0.37200181127E+03  0.37200181128E+03  0.25500000920E-02 0. -1.
        2   -1    0    0  501    0  0.00000000000E+00  0.00000000000E+00 -0.17262917234E+04  0.17262917234E+04  0.25500000920E-02 0.  1.
    10030    2    1    2    0    0  0.00000000000E+00  0.00000000000E+00 -0.13542899122E+04  0.20982935347E+04  0.16027272356E+04 0.  0.
        4    1    3    3  502    0  0.12307790377E+02 -0.78002941950E+03 -0.43721907925E+03  0.89429274466E+03  0.12699999809E+01 0.  1.
       -4    1    3    3    0  502 -0.12307790377E+02  0.78002941950E+03 -0.91707083292E+03  0.12040007901E+04  0.12699999809E+01 0. -1.
</event>
<event>
 5   0  0.3042125E-05  0.1603867E+04  0.7818609E-02  0.8818176E-01
       -3   -1    0    0    0  501  0.00000000000E+00  0.00000000000E+00  0.93955744540E+03  0.93955745083E+03  0.10100000352E+00 0. -1.
        3   -1    0    0  501    0  0.00000000000E+00  0.00000000000E+00 -0.68446824773E+03  0.68446825518E+03  0.10100000352E+00 0.  1.
    10030    2    1    2    0    0  0.00000000000E+00  0.00000000000E+00  0.25508919767E+03  0.16240257060E+04  0.16038668882E+04 0.  0.
        3    1    3    3  502    0 -0.20990558383E+03  0.63539399988E+03  0.57503973360E+03  0.88230187273E+03  0.10100000352E+00 0. -1.
       -3    1    3    3    0  502  0.20990558383E+03 -0.63539399988E+03 -0.31995053593E+03  0.74172383328E+03  0.10100000352E+00 0.  1.
</event>
<event>
 5   0  0.7901257E-05  0.1599166E+04  0.7818609E-02  0.8821061E-01
        2   -1    0    0  501    0  0.00000000000E+00  0.00000000000E+00  0.59394903464E+03  0.59394903465E+03  0.25500000920E-02 0.  1.
       -2   -1    0    0    0  501  0.00000000000E+00  0.00000000000E+00 -0.10764099194E+04  0.10764099194E+04  0.25500000920E-02 0. -1.
    10030    2    1    2    0    0  0.00000000000E+00  0.00000000000E+00 -0.48246088476E+03  0.16703589541E+04  0.15991655731E+04 0.  0.
        2    1    3    3  502    0 -0.78176690394E+03 -0.65464215930E+02 -0.40266719999E+03  0.88180832930E+03  0.25500000920E-02 0. -1.
       -2    1    3    3    0  502  0.78176690394E+03  0.65464215930E+02 -0.79793684772E+02  0.78855062476E+03  0.25500000920E-02 0.  1.
</event>
<event>
 5   0  0.4373026E-05  0.1601030E+04  0.7818609E-02  0.8819916E-01
        1   -1    0    0  501    0  0.00000000000E+00  0.00000000000E+00  0.10419863372E+04  0.10419863372E+04  0.50400001928E-02 0.  1.
       -1   -1    0    0    0  501  0.00000000000E+00  0.00000000000E+00 -0.61500223989E+03  0.61500223991E+03  0.50400001928E-02 0. -1.
    10030    2    1    2    0    0  0.00000000000E+00  0.00000000000E+00  0.42698409729E+03  0.16569885771E+04  0.16010295829E+04 0.  0.
        4    1    3    3  502    0  0.97733894463E+02 -0.43469048031E+01  0.10357751636E+04  0.10403857997E+04  0.12699999809E+01 0.  1.
       -4    1    3    3    0  502 -0.97733894463E+02  0.43469048031E+01 -0.60879106636E+03  0.61660277739E+03  0.12699999809E+01 0. -1.
</event>
<event>
 5   0  0.8620155E-05  0.1597702E+04  0.7818609E-02  0.8821961E-01
        2   -1    0    0  501    0  0.00000000000E+00  0.00000000000E+00  0.90136065474E+03  0.90136065474E+03  0.25500000920E-02 0. -1.
       -2   -1    0    0    0  501  0.00000000000E+00  0.00000000000E+00 -0.70799910676E+03  0.70799910677E+03  0.25500000920E-02 0.  1.
    10030    2    1    2    0    0  0.00000000000E+00  0.00000000000E+00  0.19336154798E+03  0.16093597615E+04  0.15977015221E+04 0.  0.
        4    1    3    3  502    0 -0.66404320008E+03  0.70672847743E+02 -0.34493925109E+03  0.75162006548E+03  0.12699999809E+01 0.  1.
       -4    1    3    3    0  502  0.66404320008E+03 -0.70672847743E+02  0.53830079907E+03  0.85773969604E+03  0.12699999809E+01 0. -1.
</event>
<event>
 5   0  0.4256406E-05  0.1597998E+04  0.7818609E-02  0.8821779E-01
       -1   -1    0    0    0  501  0.00000000000E+00  0.00000000000E+00  0.41773873886E+03  0.41773873890E+03  0.50400001928E-02 0. -1.
        1   -1    0    0  501    0  0.00000000000E+00  0.00000000000E+00 -0.15282271939E+04  0.15282271939E+04  0.50400001928E-02 0.  1.
    10030    2    1    2    0    0  0.00000000000E+00  0.00000000000E+00 -0.11104884550E+04  0.19459659328E+04  0.15979983739E+04 0.  0.
        3    1    3    3  502    0 -0.59301662452E+02 -0.67564891669E+03 -0.10695647574E+04  0.12664860545E+04  0.10100000352E+00 0.  1.
       -3    1    3    3    0  502  0.59301662452E+02  0.67564891669E+03 -0.40923697651E+02  0.67947987831E+03  0.10100000352E+00 0. -1.
</event>
<event>
 5   0  0.8037548E-05  0.1602011E+04  0.7818609E-02  0.8819313E-01
        2   -1    0    0  501    0  0.00000000000E+00  0.00000000000E+00  0.88076065269E+03  0.88076065269E+03  0.25500000920E-02 0.  1.
       -2   -1    0    0    0  501  0.00000000000E+00  0.00000000000E+00 -0.72847244997E+03  0.72847244998E+03  0.25500000920E-02 0. -1.
    10030    2    1    2    0    0  0.00000000000E+00  0.00000000000E+00  0.15228820272E+03  0.16092331027E+04  0.16020110743E+04 0.  0.
        5    1    3    3  502    0 -0.53246899917E+02 -0.79921839725E+03  0.74555307536E+02  0.80446619738E+03  0.46999998093E+01 0. -1.
       -5    1    3    3    0  502  0.53246899917E+02  0.79921839725E+03  0.77732895179E+02  0.80476690529E+03  0.46999998093E+01 0.  1.
</event>
<event>
 5   0  0.8037548E-05  0.1598571E+04  0.7818609E-02  0.8821426E-01
        2   -1    0    0  501    0  0.00000000000E+00  0.00000000000E+00  0.94680992133E+03  0.94680992134E+03  0.25500000920E-02 0. -1.
       -2   -1    0    0    0  501  0.00000000000E+00  0.00000000000E+00 -0.67474716914E+03  0.67474716914E+03  0.25500000920E-02 0.  1.
    10030    2    1    2    0    0  0.00000000000E+00  0.00000000000E+00  0.27206275220E+03  0.16215570905E+04  0.15985710045E+04 0.  0.
        5    1    3    3  502    0  0.69697096492E+03 -0.19999857711E+03  0.47712119803E+03  0.86800615458E+03  0.46999998093E+01 0. -1.
       -5    1    3    3    0  502 -0.69697096492E+03  0.19999857711E+03 -0.20505844584E+03  0.75355093589E+03  0.46999998093E+01 0.  1.
</event>
<event>
 5   0  0.8694033E-05  0.1606499E+04  0.7818609E-02  0.8816566E-01
        2   -1    0    0  501    0  0.00000000000E+00  0.00000000000E+00  0.48246232927E+03  0.48246232928E+03  0.25500000920E-02 0.  1.
       -2   -1    0    0    0  501  0.00000000000E+00  0.00000000000E+00 -0.13373259978E+04  0.13373259978E+04  0.25500000920E-02 0. -1.
    10030    2    1    2    0    0  0.00000000000E+00  0.00000000000E+00 -0.85486366851E+03  0.18197883271E+04  0.16064985725E+04 0.  0.
        1    1    3    3  502    0 -0.46264852304E+03  0.48055947710E+03  0.79446016497E+02  0.67178325110E+03  0.50400001928E-02 0.  1.
       -1    1    3    3    0  502  0.46264852304E+03 -0.48055947710E+03 -0.93430968501E+03  0.11480050760E+04  0.50400001928E-02 0. -1.
</event>
<event>
 5   0  0.4211419E-05  0.1599872E+04  0.7818609E-02  0.8820627E-01
       -1   -1    0    0    0  501  0.00000000000E+00  0.00000000000E+00  0.32196125353E+03  0.32196125357E+03  0.50400001928E-02 0. -1.
        1   -1    0    0  501    0  0.00000000000E+00  0.00000000000E+00 -0.19874984184E+04  0.19874984184E+04  0.50400001928E-02 0.  1.
    10030    2    1    2    0    0  0.00000000000E+00  0.00000000000E+00 -0.16655371649E+04  0.23094596720E+04  0.15998718477E+04 0.  0.
        2    1    3    3  502    0  0.62629195007E+03 -0.26244651895E+03 -0.14431226732E+04  0.15949052737E+04  0.25500000920E-02 0.  1.
       -2    1    3    3    0  502 -0.62629195007E+03  0.26244651895E+03 -0.22241449165E+03  0.71455439831E+03  0.25500000920E-02 0. -1.
</event>
<event>
 5   0  0.4256406E-05  0.1594244E+04  0.7818609E-02  0.8824092E-01
        1   -1    0    0  501    0  0.00000000000E+00  0.00000000000E+00  0.82400154698E+03  0.82400154700E+03  0.50400001928E-02 0.  1.
       -1   -1    0    0    0  501  0.00000000000E+00  0.00000000000E+00 -0.77111935621E+03  0.77111935623E+03  0.50400001928E-02 0. -1.
    10030    2    1    2    0    0  0.00000000000E+00  0.00000000000E+00  0.52882190770E+02  0.15951209032E+04  0.15942440747E+04 0.  0.
        3    1    3    3  502    0  0.35195695651E+02 -0.52532334168E+03 -0.57238634881E+03  0.77770784541E+03  0.10100000352E+00 0. -1.
       -3    1    3    3    0  502 -0.35195695651E+02  0.52532334168E+03  0.62526853958E+03  0.81741305782E+03  0.10100000352E+00 0.  1.
</event>
<event>
 5   0  0.4256406E-05  0.1606860E+04  0.7818609E-02  0.8816345E-01
       -1   -1    0    0    0  501  0.00000000000E+00  0.00000000000E+00  0.39037061100E+03  0.39037061103E+03  0.50400001928E-02 0.  1.
        1   -1    0    0  501    0  0.00000000000E+00  0.00000000000E+00 -0.16535565422E+04  0.16535565422E+04  0.50400001928E-02 0. -1.
    10030    2    1    2    0    0  0.00000000000E+00  0.00000000000E+00 -0.12631859312E+04  0.20439271532E+04  0.16068601404E+04 0.  0.
        3    1    3    3  502    0 -0.32778250483E+03  0.65857728412E+03 -0.10424599243E+04  0.12758871868E+04  0.10100000352E+00 0.  1.
       -3    1    3    3    0  502  0.32778250483E+03 -0.65857728412E+03 -0.22072600691E+03  0.76803996638E+03  0.10100000352E+00 0. -1.
</event>
<event>
 5   0  0.8620155E-05  0.1597354E+04  0.7818609E-02  0.8822175E-01
        2   -1    0    0  501    0  0.00000000000E+00  0.00000000000E+00  0.54648986132E+03  0.54648986132E+03  0.25500000920E-02 0.  1.
       -2   -1    0    0    0  501  0.00000000000E+00  0.00000000000E+00 -0.11672407669E+04  0.11672407669E+04  0.25500000920E-02 0. -1.
    10030    2    1    2    0    0  0.00000000000E+00  0.00000000000E+00 -0.62075090559E+03  0.17137306282E+04  0.15973543687E+04 0.  0.
        4    1    3    3  502    0 -0.26664485824E+03  0.44690158013E+03  0.33962201693E+03  0.62142194203E+03  0.12699999809E+01 0.  1.
       -4    1    3    3    0  502  0.26664485824E+03 -0.44690158013E+03 -0.96037292252E+03  0.10923086862E+04  0.12699999809E+01 0. -1.
</event>
<event>
 5   0  0.4314657E-05  0.1601991E+04  0.7818609E-02  0.8819326E-01
        1   -1    0    0  501    0  0.00000000000E+00  0.00000000000E+00  0.78380492333E+03  0.78380492335E+03  0.50400001928E-02 0.  1.
       -1   -1    0    0    0  501  0.00000000000E+00  0.00000000000E+00 -0.81856327230E+03  0.81856327231E+03  0.50400001928E-02 0. -1.
    10030    2    1    2    0    0  0.00000000000E+00  0.00000000000E+00 -0.34758348966E+02  0.16023681957E+04  0.16019911647E+04 0.  0.
        5    1    3    3  502    0  0.30204492340E+03  0.63698652845E+03 -0.39771708496E+03  0.80943433510E+03  0.46999998093E+01 0.  1.
       -5    1    3    3    0  502 -0.30204492340E+03 -0.63698652845E+03  0.36295873599E+03  0.79293386055E+03  0.46999998093E+01 0. -1.
</event>
<event>
 5   0  0.4373026E-05  0.1609237E+04  0.7818609E-02  0.8814894E-01
       -1   -1    0    0    0  501  0.00000000000E+00  0.00000000000E+00  0.54155721741E+03  0.54155721743E+03  0.50400001928E-02 0. -1.
        1   -1    0    0  501    0  0.00000000000E+00  0.00000000000E+00 -0.11954613229E+04  0.11954613229E+04  0.50400001928E-02 0.  1.
    10030    2    1    2    0    0  0.00000000000E+00  0.00000000000E+00 -0.65390410546E+03  0.17370185403E+04  0.16092367229E+04 0.  0.
        4    1    3    3  502    0 -0.68080141057E+03  0.10963027036E+03 -0.77448202504E+03  0.10369828238E+04  0.12699999809E+01 0.  1.
       -4    1    3    3    0  502  0.68080141057E+03 -0.10963027036E+03  0.12057791958E+03  0.70003571652E+03  0.12699999809E+01 0. -1.
</event>
<event>
 5   0  0.4211419E-05  0.1595159E+04  0.7818609E-02  0.8823527E-01
        1   -1    0    0  501    0  0.00000000000E+00  0.00000000000E+00  0.19999329434E+04  0.19999329434E+04  0.50400001928E-02 0.  1.
       -1   -1    0    0    0  501  0.00000000000E+00  0.00000000000E+00 -0.31807727964E+03  0.31807727968E+03  0.50400001928E-02 0. -1.
    10030    2    1    2    0    0  0.00000000000E+00  0.00000000000E+00  0.16818556638E+04  0.23180102231E+04  0.15951592148E+04 0.  0.
        2    1    3    3  502    0 -0.35943499954E+03 -0.37815954315E+03 -0.35716167685E+02  0.52294722832E+03  0.25500000920E-02 0. -1.
       -2    1    3    3    0  502  0.35943499954E+03  0.37815954315E+03  0.17175718315E+04  0.17950629948E+04  0.25500000920E-02 0.  1.
</event>
<event>
 5   0  0.7849690E-05  0.1597566E+04  0.7818609E-02  0.8822045E-01
       -2   -1    0    0    0  501  0.00000000000E+00  0.00000000000E+00  0.59965576506E+03  0.59965576506E+03  0.25500000920E-02 0. -1.
        2   -1    0    0  501    0  0.00000000000E+00  0.00000000000E+00 -0.10640340986E+04  0.10640340986E+04  0.25500000920E-02 0.  1.
    10030    2    1    2    0    0  0.00000000000E+00  0.00000000000E+00 -0.46437833356E+03  0.16636898637E+04  0.15975658753E+04 0.  0.
        3    1    3    3  502    0  0.59991969919E+03  0.18034869849E+03  0.28392973765E+03  0.68778296333E+03  0.10100000352E+00 0. -1.
       -3    1    3    3    0  502 -0.59991969919E+03 -0.18034869849E+03 -0.74830807121E+03  0.97590690036E+03  0.10100000352E+00 0.  1.
</event>
<event>
 5   0  0.8620155E-05  0.1605600E+04  0.7818609E-02  0.8817115E-01
        2   -1    0    0  501    0  0.00000000000E+00  0.00000000000E+00  0.75178651901E+03  0.75178651901E+03  0.25500000920E-02 0.  1.
       -2   -1    0    0    0  501  0.00000000000E+00  0.00000000000E+00 -0.85727489546E+03  0.85727489547E+03  0.25500000920E-02 0. -1.
    10030    2    1    2    0    0  0.00000000000E+00  0.00000000000E+00 -0.10548837645E+03  0.16090614145E+04  0.16055998374E+04 0.  0.
        4    1    3    3  502    0  0.45161233052E+03  0.13320245348E+02  0.61227895065E+03  0.76093248868E+03  0.12699999809E+01 0.  1.
       -4    1    3    3    0  502 -0.45161233052E+03 -0.13320245348E+02 -0.71776732711E+03  0.84812892580E+03  0.12699999809E+01 0. -1.
</event>
<event>
 5   0  0.8694033E-05  0.1602848E+04  0.7818609E-02  0.8818800E-01
        2   -1    0    0  501    0  0.00000000000E+00  0.00000000000E+00  0.11727603529E+04  0.11727603529E+04  0.25500000920E-02 0. -1.
       -2   -1    0    0    0  501  0.00000000000E+00  0.00000000000E+00 -0.54766576318E+03  0.54766576319E+03  0.25500000920E-02 0.  1.
    10030    2    1    2    0    0  0.00000000000E+00  0.00000000000E+00  0.62509458971E+03  0.17204261161E+04  0.16028483318E+04 0.  0.
        1    1    3    3  502    0 -0.98860828404E+02  0.39009162750E+03  0.10564498555E+04  0.11305004372E+04  0.50400001928E-02 0. -1.
       -1    1    3    3    0  502  0.98860828404E+02 -0.39009162750E+03 -0.43135526582E+03  0.58992567889E+03  0.50400001928E-02 0.  1.
</event>
<event>
 5   0  0.7849690E-05  0.1598552E+04  0.7818609E-02  0.8821438E-01
       -2   -1    0    0    0  501  0.00000000000E+00  0.00000000000E+00  0.35320011076E+03  0.35320011076E+03  0.25500000920E-02 0. -1.
        2   -1    0    0  501    0  0.00000000000E+00  0.00000000000E+00 -0.18087264136E+04  0.18087264136E+04  0.25500000920E-02 0.  1.
    10030    2    1    2    0    0  0.00000000000E+00  0.00000000000E+00 -0.14555263029E+04  0.21619265244E+04  0.15985523071E+04 0.  0.
        3    1    3    3  502    0 -0.30147020897E+03  0.73791632077E+03 -0.80705713520E+03  0.11343482768E+04  0.10100000352E+00 0. -1.
       -3    1    3    3    0  502  0.30147020897E+03 -0.73791632077E+03 -0.64846916768E+03  0.10275782476E+04  0.10100000352E+00 0.  1.
</event>
<event>
 5   0  0.4314657E-05  0.1593845E+04  0.7818609E-02  0.8824338E-01
        1   -1    0    0  501    0  0.00000000000E+00  0.00000000000E+00  0.10369076081E+04  0.10369076082E+04  0.50400001928E-02 0. -1.
       -1   -1    0    0    0  501  0.00000000000E+00  0.00000000000E+00 -0.61247998930E+03  0.61247998932E+03  0.50400001928E-02 0.  1.
    10030    2    1    2    0    0  0.00000000000E+00  0.00000000000E+00  0.42442761884E+03  0.16493875975E+04  0.15938446107E+04 0.  0.
        5    1    3    3  502    0 -0.33714766842E+03  0.56046474127E+03 -0.25892507037E+03  0.70345828490E+03  0.46999998093E+01 0.  1.
       -5    1    3    3    0  502  0.33714766842E+03 -0.56046474127E+03  0.68335268921E+03  0.94592931257E+03  0.46999998093E+01 0. -1.
</event>
<event>
 5   0  0.4373026E-05  0.1599495E+04  0.7818609E-02  0.8820858E-01
        1   -1    0    0  501    0  0.00000000000E+00  0.00000000000E+00  0.25780194349E+04  0.25780194349E+04  0.50400001928E-02 0. -1.
       -1   -1    0    0    0  501  0.00000000000E+00  0.00000000000E+00 -0.24809586003E+03  0.24809586008E+03  0.50400001928E-02 0.  1.
    10030    2    1    2    0    0  0.00000000000E+00  0.00000000000E+00  0.23299235748E+04  0.28261152950E+04  0.15994948565E+04 0.  0.
        4    1    3    3  502    0 -0.71454073157E+03 -0.26625367766E+03  0.73894635075E+03  0.10618393476E+04  0.12699999809E+01 0. -1.
       -4    1    3    3    0  502  0.71454073157E+03  0.26625367766E+03  0.15909772241E+04  0.17642759474E+04  0.12699999809E+01 0.  1.
</event>
<event>
 5   0  0.4314657E-05  0.1600977E+04  0.7818609E-02  0.8819948E-01
       -1   -1    0    0    0  501  0.00000000000E+00  0.00000000000E+00  0.70334933635E+03  0.70334933637E+03  0.50400001928E-02 0. -1.
        1   -1    0    0  501    0  0.00000000000E+00  0.00000000000E+00 -0.91104339318E+03  0.91104339319E+03  0.50400001928E-02 0.  1.
    10030    2    1    2    0    0  0.00000000000E+00  0.00000000000E+00 -0.20769405683E+03  0.16143927296E+04  0.16009769093E+04 0.  0.
        5    1    3    3  502    0 -0.38366446656E+03 -0.68652844217E+03 -0.25422736060E+03  0.82654302107E+03  0.46999998093E+01 0.  1.
       -5    1    3    3    0  502  0.38366446656E+03  0.68652844217E+03  0.46533303771E+02  0.78784970849E+03  0.46999998093E+01 0. -1.
</event>
<event>
 5   0  0.4504463E-05  0.1600974E+04  0.7818609E-02  0.8819950E-01
       -1   -1    0    0    0  501  0.00000000000E+00  0.00000000000E+00  0.13938806214E+04  0.13938806214E+04  0.50400001928E-02 0.  1.
        1   -1    0    0  501    0  0.00000000000E+00  0.00000000000E+00 -0.45970917563E+03  0.45970917566E+03  0.50400001928E-02 0. -1.
    10030    2    1    2    0    0  0.00000000000E+00  0.00000000000E+00  0.93417144578E+03  0.18535897971E+04  0.16009743426E+04 0.  0.
        1    1    3    3  502    0 -0.74052697692E+03  0.85121767719E+02  0.80494142715E+03  0.10970672815E+04  0.50400001928E-02 0. -1.
       -1    1    3    3    0  502  0.74052697692E+03 -0.85121767719E+02  0.12923001863E+03  0.75652251561E+03  0.50400001928E-02 0.  1.
</event>
<event>
 5   0  0.8620155E-05  0.1597859E+04  0.7818609E-02  0.8821864E-01
        2   -1    0    0  501    0  0.00000000000E+00  0.00000000000E+00  0.10945998232E+04  0.10945998232E+04  0.25500000920E-02 0.  1.
       -2   -1    0    0    0  501  0.00000000000E+00  0.00000000000E+00 -0.58312513914E+03  0.58312513915E+03  0.25500000920E-02 0. -1.
    10030    2    1    2    0    0  0.00000000000E+00  0.00000000000E+00  0.51147468406E+03  0.16777249624E+04  0.15978594109E+04 0.  0.
        4    1    3    3  502    0 -0.43517712604E+02 -0.79773616414E+03  0.25237044317E+03  0.83783604147E+03  0.12699999809E+01 0.  1.
       -4    1    3    3    0  502  0.43517712604E+02  0.79773616414E+03  0.25910424089E+03  0.83988892089E+03  0.12699999809E+01 0. -1.
</event>
<event>
 5   0  0.8694033E-05  0.1602126E+04  0.7818609E-02  0.8819243E-01
        2   -1    0    0  501    0  0.00000000000E+00  0.00000000000E+00  0.20139307220E+04  0.20139307220E+04  0.25500000920E-02 0. -1.
       -2   -1    0    0    0  501  0.00000000000E+00  0.00000000000E+00 -0.31863138712E+03  0.31863138713E+03  0.25500000920E-02 0.  1.
    10030    2    1    2    0    0  0.00000000000E+00  0.00000000000E+00  0.16952993349E+04  0.23325621091E+04  0.16021255126E+04 0.  0.
        1    1    3    3  502    0  0.73826900774E+03  0.25057787303E+03  0.57970100391E+03  0.97153674774E+03  0.50400001928E-02 0. -1.
       -1    1    3    3    0  502 -0.73826900774E+03 -0.25057787303E+03  0.11155983310E+04  0.13610253614E+04  0.50400001928E-02 0.  1.
</event>
<event>
 5   0  0.7901257E-05  0.1599681E+04  0.7818609E-02  0.8820744E-01
       -2   -1    0    0    0  501  0.00000000000E+00  0.00000000000E+00  0.28000166390E+03  0.28000166391E+03  0.25500000920E-02 0.  1.
        2   -1    0    0  501    0  0.00000000000E+00  0.00000000000E+00 -0.22847881877E+04  0.22847881877E+04  0.25500000920E-02 0. -1.
    10030    2    1    2    0    0  0.00000000000E+00  0.00000000000E+00 -0.20047865238E+04  0.25647898517E+04  0.15996805859E+04 0.  0.
        2    1    3    3  502    0 -0.26147447532E+03 -0.48888072892E+03 -0.19267300156E+04  0.20049094297E+04  0.25500000920E-02 0. -1.
       -2    1    3    3    0  502  0.26147447532E+03  0.48888072892E+03 -0.78056508222E+02  0.55988042191E+03  0.25500000920E-02 0.  1.
</event>
<event>
 5   0  0.4256406E-05  0.1599741E+04  0.7818609E-02  0.8820707E-01
        1   -1    0    0  501    0  0.00000000000E+00  0.00000000000E+00  0.10719615687E+04  0.10719615687E+04  0.50400001928E-02 0.  1.
       -1   -1    0    0    0  501  0.00000000000E+00  0.00000000000E+00 -0.59684314562E+03  0.59684314564E+03  0.50400001928E-02 0. -1.
    10030    2    1    2    0    0  0.00000000000E+00  0.00000000000E+00  0.47511842307E+03  0.16688047143E+04  0.15997411224E+04 0.  0.
        3    1    3    3  502    0  0.69230247790E+03 -0.35425464263E+03  0.43275733101E+03  0.88997639883E+03  0.10100000352E+00 0.  1.
       -3    1    3    3    0  502 -0.69230247790E+03  0.35425464263E+03  0.42361092064E+02  0.77882831552E+03  0.10100000352E+00 0. -1.
</event>
<event>
 5   0  0.7849690E-05  0.1601437E+04  0.7818609E-02  0.8819666E-01
        2   -1    0    0  501    0  0.00000000000E+00  0.00000000000E+00  0.10059390934E+04  0.10059390934E+04  0.25500000920E-02 0.  1.
       -2   -1    0    0    0  501  0.00000000000E+00  0.00000000000E+00 -0.63736439638E+03  0.63736439639E+03  0.25500000920E-02 0. -1.
    10030    2    1    2    0    0  0.00000000000E+00  0.00000000000E+00  0.36857469703E+03  0.16433034898E+04  0.16014365589E+04 0.  0.
        3    1    3    3  502    0  0.27829044037E+03  0.43790712159E+03 -0.44152680248E+03  0.68128859073E+03  0.10100000352E+00 0. -1.
       -3    1    3    3    0  502 -0.27829044037E+03 -0.43790712159E+03  0.81010149951E+03  0.96201489908E+03  0.10100000352E+00 0.  1.
</event>
<event>
 5   0  0.8037548E-05  0.1602245E+04  0.7818609E-02  0.8819170E-01
        2   -1    0    0  501    0  0.00000000000E+00  0.00000000000E+00  0.12233407308E+04  0.12233407308E+04  0.25500000920E-02 0. -1.
       -2   -1    0    0    0  501  0.00000000000E+00  0.00000000000E+00 -0.52462668208E+03  0.52462668208E+03  0.25500000920E-02 0.  1.
    10030    2    1    2    0    0  0.00000000000E+00  0.00000000000E+00  0.69871404869E+03  0.17479674129E+04  0.16022449109E+04 0.  0.
        5    1    3    3  502    0 -0.55738862984E+03 -0.42416100857E+02 -0.27667459107E+03  0.62374043450E+03  0.46999998093E+01 0.  1.
       -5    1    3    3    0  502  0.55738862984E+03  0.42416100857E+02  0.97538863976E+03  0.11242269784E+04  0.46999998093E+01 0. -1.
</event>
<event>
 5   0  0.8694033E-05  0.1603543E+04  0.7818609E-02  0.8818374E-01
       -2   -1    0    0    0  501  0.00000000000E+00  0.00000000000E+00  0.65820387936E+03  0.65820387936E+03  0.25500000920E-02 0.  1.
        2   -1    0    0  501    0  0.00000000000E+00  0.00000000000E+00 -0.97665418332E+03  0.97665418332E+03  0.25500000920E-02 0. -1.
    10030    2    1    2    0    0  0.00000000000E+00  0.00000000000E+00 -0.31845030396E+03  0.16348580627E+04  0.16035430425E+04 0.  0.
        1    1    3    3  502    0  0.20981281341E+03  0.19971637305E+03  0.60299066684E+03  0.66895873614E+03  0.50400001928E-02 0.  1.
       -1    1    3    3    0  502 -0.20981281341E+03 -0.19971637305E+03 -0.92144097080E+03  0.96589932655E+03  0.50400001928E-02 0. -1.
</event>
<event>
 5   0  0.4256406E-05  0.1600679E+04  0.7818609E-02  0.8820131E-01
       -1   -1    0    0    0  501  0.00000000000E+00  0.00000000000E+00  0.89526033539E+03  0.89526033541E+03  0.50400001928E-02 0.  1.
        1   -1    0    0  501    0  0.00000000000E+00  0.00000000000E+00 -0.71548270075E+03  0.71548270077E+03  0.50400001928E-02 0. -1.
    10030    2    1    2    0    0  0.00000000000E+00  0.00000000000E+00  0.17977763464E+03  0.16107430362E+04  0.16006789593E+04 0.  0.
        3    1    3    3  502    0 -0.49731882897E+03 -0.45496958135E+03 -0.34435646745E+03  0.75690469973E+03  0.10100000352E+00 0. -1.
       -3    1    3    3    0  502  0.49731882897E+03  0.45496958135E+03  0.52413410209E+03  0.85383833644E+03  0.10100000352E+00 0.  1.
</event>
<event>
 5   0  0.4373026E-05  0.1597667E+04  0.7818609E-02  0.8821983E-01
        1   -1    0    0  501    0  0.00000000000E+00  0.00000000000E+00  0.10245999294E+04  0.10245999294E+04  0.50400001928E-02 0. -1.
       -1   -1    0    0    0  501  0.00000000000E+00  0.00000000000E+00 -0.62281380878E+03  0.62281380880E+03  0.50400001928E-02 0.  1.
    10030    2    1    2    0    0  0.00000000000E+00  0.00000000000E+00  0.40178612065E+03  0.16474137382E+04  0.15976670298E+04 0.  0.
        4    1    3    3  502    0  0.17670207115E+03 -0.77902387839E+03  0.20668458205E+03  0.82511935767E+03  0.12699999809E+01 0. -1.
       -4    1    3    3    0  502 -0.17670207115E+03  0.77902387839E+03  0.19510153859E+03  0.82229438057E+03  0.12699999809E+01 0.  1.
</event>
<event>
 5   0  0.4256406E-05  0.1600276E+04  0.7818609E-02  0.8820378E-01
       -1   -1    0    0    0  501  0.00000000000E+00  0.00000000000E+00  0.10314498560E+04  0.10314498560E+04  0.50400001928E-02 0.  1.
        1   -1    0    0  501    0  0.00000000000E+00  0.00000000000E+00 -0.62070011397E+03  0.62070011399E+03  0.50400001928E-02 0. -1.
    10030    2    1    2    0    0  0.00000000000E+00  0.00000000000E+00  0.41074974200E+03  0.16521499700E+04  0.16002762801E+04 0.  0.
        3    1    3    3  502    0  0.39119669549E+03  0.67123046616E+03  0.77654826173E+01  0.77694626981E+03  0.10100000352E+00 0.  1.
       -3    1    3    3    0  502 -0.39119669549E+03 -0.67123046616E+03  0.40298425939E+03  0.87520370016E+03  0.10100000352E+00 0. -1.
</event>
<event>
 5   0  0.8620155E-05  0.1601421E+04  0.7818609E-02  0.8819675E-01
       -2   -1    0    0    0  501  0.00000000000E+00  0.00000000000E+00  0.42964232532E+03  0.42964232532E+03  0.25500000920E-02 0.  1.
        2   -1    0    0  501    0  0.00000000000E+00  0.00000000000E+00 -0.14922586338E+04  0.14922586338E+04  0.25500000920E-02 0. -1.
    10030    2    1    2    0    0  0.00000000000E+00  0.00000000000E+00 -0.10626163085E+04  0.19219009591E+04  0.16014212056E+04 0.  0.
        4    1    3    3  502    0  0.21131246261E+03  0.25049317000E+03  0.34546795172E+03  0.47618221684E+03  0.12699999809E+01 0.  1.
       -4    1    3    3    0  502 -0.21131246261E+03 -0.25049317000E+03 -0.14080842602E+04  0.14457187423E+04  0.12699999809E+01 0. -1.
</event>
<event>
 5   0  0.8037548E-05  0.1600287E+04  0.7818609E-02  0.8820372E-01
       -2   -1    0    0    0  501  0.00000000000E+00  0.00000000000E+00  0.47425051320E+03  0.47425051321E+03  0.25500000920E-02 0.  1.
        2   -1    0    0  501    0  0.00000000000E+00  0.00000000000E+00 -0.13499824172E+04  0.13499824172E+04  0.25500000920E-02 0. -1.
    10030    2    1    2    0    0  0.00000000000E+00  0.00000000000E+00 -0.87573190400E+03  0.18242329304E+04  0.16002872919E+04 0.  0.
        5    1    3    3  502    0  0.18309479830E+03 -0.39964354631E+03  0.32425005339E+03  0.54625896458E+03  0.46999998093E+01 0.  1.
       -5    1    3    3    0  502 -0.18309479830E+03  0.39964354631E+03 -0.11999819574E+04  0.12779739658E+04  0.46999998093E+01 0. -1.
</event>
<event>
 5   0  0.7901257E-05  0.1598318E+04  0.7818609E-02  0.8821582E-01
        2   -1    0    0  501    0  0.00000000000E+00  0.00000000000E+00  0.15985402803E+04  0.15985402803E+04  0.25500000920E-02 0.  1.
       -2   -1    0    0    0  501  0.00000000000E+00  0.00000000000E+00 -0.39952374385E+03  0.39952374385E+03  0.25500000920E-02 0. -1.
    10030    2    1    2    0    0  0.00000000000E+00  0.00000000000E+00  0.11990165365E+04  0.19980640242E+04  0.15983176124E+04 0.  0.
        2    1    3    3  502    0 -0.18232648272E+03  0.71646098589E+03  0.97888049739E+03  0.12266891696E+04  0.25500000920E-02 0.  1.
       -2    1    3    3    0  502  0.18232648272E+03 -0.71646098589E+03  0.22013603910E+03  0.77137485461E+03  0.25500000920E-02 0. -1.
</event>
<event>
 5   0  0.7849690E-05  0.1600974E+04  0.7818609E-02  0.8819950E-01
        2   -1    0    0  501    0  0.00000000000E+00  0.00000000000E+00  0.94569895659E+03  0.94569895660E+03  0.25500000920E-02 0. -1.
       -2   -1    0    0    0  501  0.00000000000E+00  0.00000000000E+00 -0.67757273409E+03  0.67757273410E+03  0.25500000920E-02 0.  1.
    10030    2    1    2    0    0  0.00000000000E+00  0.00000000000E+00  0.26812622250E+03  0.16232716907E+04  0.16009744878E+04 0.  0.
        3    1    3    3  502    0 -0.13837365428E+03 -0.32602806589E+03  0.86193172458E+03  0.93186258428E+03  0.10100000352E+00 0. -1.
       -3    1    3    3    0  502  0.13837365428E+03  0.32602806589E+03 -0.59380550207E+03  0.69140910642E+03  0.10100000352E+00 0.  1.
</event>
<event>
 5   0  0.7901257E-05  0.1609997E+04  0.7818609E-02  0.8814430E-01
        2   -1    0    0  501    0  0.00000000000E+00  0.00000000000E+00  0.36433354449E+03  0.36433354449E+03  0.25500000920E-02 0.  1.
       -2   -1    0    0    0  501  0.00000000000E+00  0.00000000000E+00 -0.17786518573E+04  0.17786518573E+04  0.25500000920E-02 0. -1.
    10030    2    1    2    0    0  0.00000000000E+00  0.00000000000E+00 -0.14143183128E+04  0.21429854018E+04  0.16099969386E+04 0.  0.
        2    1    3    3  502    0  0.30813625105E+03 -0.54504302152E+03 -0.33691989583E+02  0.62702072907E+03  0.25500000920E-02 0.  1.
       -2    1    3    3    0  502 -0.30813625105E+03  0.54504302152E+03 -0.13806263232E+04  0.15159646727E+04  0.25500000920E-02 0. -1.
</event>
<event>
 5   0  0.7849690E-05  0.1620173E+04  0.7818609E-02  0.8808250E-01
       -2   -1    0    0    0  501  0.00000000000E+00  0.00000000000E+00  0.72926110810E+03  0.72926110810E+03  0.25500000920E-02 0. -1.
        2   -1    0    0  501    0  0.00000000000E+00  0.00000000000E+00 -0.89986982136E+03  0.89986982137E+03  0.25500000920E-02 0.  1.
    10030    2    1    2    0    0  0.00000000000E+00  0.00000000000E+00 -0.17060871326E+03  0.16291309295E+04  0.16201729082E+04 0.  0.
        3    1    3    3  502    0  0.70908296126E+03  0.38608134920E+03 -0.18737127855E+02  0.80759429437E+03  0.10100000352E+00 0.  1.
       -3    1    3    3    0  502 -0.70908296126E+03 -0.38608134920E+03 -0.15187158541E+03  0.82153663509E+03  0.10100000352E+00 0. -1.
</event>
<event>
 5   0  0.7849690E-05  0.1602477E+04  0.7818609E-02  0.8819028E-01
        2   -1    0    0  501    0  0.00000000000E+00  0.00000000000E+00  0.12841907231E+04  0.12841907231E+04  0.25500000920E-02 0. -1.
       -2   -1    0    0    0  501  0.00000000000E+00  0.00000000000E+00 -0.49991275100E+03  0.49991275101E+03  0.25500000920E-02 0.  1.
    10030    2    1    2    0    0  0.00000000000E+00  0.00000000000E+00  0.78427797212E+03  0.17841034741E+04  0.16024772288E+04 0.  0.
        3    1    3    3  502    0 -0.34171671102E+03  0.38207754484E+03 -0.29347452852E+03  0.59066138350E+03  0.10100000352E+00 0.  1.
       -3    1    3    3    0  502  0.34171671102E+03 -0.38207754484E+03  0.10777525006E+04  0.11934420906E+04  0.10100000352E+00 0. -1.
</event>
<event>
 5   0  0.7901257E-05  0.1602036E+04  0.7818609E-02  0.8819298E-01
       -2   -1    0    0    0  501  0.00000000000E+00  0.00000000000E+00  0.90985360294E+03  0.90985360294E+03  0.25500000920E-02 0.  1.
        2   -1    0    0  501    0  0.00000000000E+00  0.00000000000E+00 -0.70520141024E+03  0.70520141025E+03  0.25500000920E-02 0. -1.
    10030    2    1    2    0    0  0.00000000000E+00  0.00000000000E+00  0.20465219269E+03  0.16150550132E+04  0.16020362592E+04 0.  0.
        2    1    3    3  502    0  0.23044475624E+03  0.40238081739E+03 -0.55613937600E+03  0.72408985176E+03  0.25500000920E-02 0. -1.
       -2    1    3    3    0  502 -0.23044475624E+03 -0.40238081739E+03  0.76079156869E+03  0.89096516143E+03  0.25500000920E-02 0.  1.
</event>
<event>
 5   0  0.4256406E-05  0.1598202E+04  0.7818609E-02  0.8821653E-01
       -1   -1    0    0    0  501  0.00000000000E+00  0.00000000000E+00  0.91319904832E+03  0.91319904833E+03  0.50400001928E-02 0.  1.
        1   -1    0    0  501    0  0.00000000000E+00  0.00000000000E+00 -0.69925890047E+03  0.69925890048E+03  0.50400001928E-02 0. -1.
    10030    2    1    2    0    0  0.00000000000E+00  0.00000000000E+00  0.21394014785E+03  0.16124579488E+04  0.15982021930E+04 0.  0.
        3    1    3    3  502    0 -0.12291560901E+03  0.77646297721E+03 -0.37694929354E+02  0.78703489111E+03  0.10100000352E+00 0. -1.
       -3    1    3    3    0  502  0.12291560901E+03 -0.77646297721E+03  0.25163507721E+03  0.82542305771E+03  0.10100000352E+00 0.  1.
</event>
<event>
 5   0  0.4211419E-05  0.1600843E+04  0.7818609E-02  0.8820030E-01
       -1   -1    0    0    0  501  0.00000000000E+00  0.00000000000E+00  0.12243788954E+04  0.12243788954E+04  0.50400001928E-02 0. -1.
        1   -1    0    0  501    0  0.00000000000E+00  0.00000000000E+00 -0.52326503583E+03  0.52326503585E+03  0.50400001928E-02 0.  1.
    10030    2    1    2    0    0  0.00000000000E+00  0.00000000000E+00  0.70111385958E+03  0.17476439313E+04  0.16008431111E+04 0.  0.
        2    1    3    3  502    0 -0.50381934459E+02 -0.22936993664E+03  0.11859236792E+04  0.12089515623E+04  0.25500000920E-02 0. -1.
       -2    1    3    3    0  502  0.50381934459E+02  0.22936993664E+03 -0.48480981962E+03  0.53869236895E+03  0.25500000920E-02 0.  1.
</event>
<event>
 5   0  0.4211419E-05  0.1599851E+04  0.7818609E-02  0.8820640E-01
        1   -1    0    0  501    0  0.00000000000E+00  0.00000000000E+00  0.11036549311E+04  0.11036549311E+04  0.50400001928E-02 0.  1.
       -1   -1    0    0    0  501  0.00000000000E+00  0.00000000000E+00 -0.57978314028E+03  0.57978314030E+03  0.50400001928E-02 0. -1.
    10030    2    1    2    0    0  0.00000000000E+00  0.00000000000E+00  0.52387179080E+03  0.16834380714E+04  0.15998506452E+04 0.  0.
        2    1    3    3  502    0 -0.25839627439E+03  0.46239734187E+03 -0.36879872002E+03  0.64543972010E+03  0.25500000920E-02 0. -1.
       -2    1    3    3    0  502  0.25839627439E+03 -0.46239734187E+03  0.89267051082E+03  0.10379983513E+04  0.25500000920E-02 0.  1.
</event>
<event>
 5   0  0.4256406E-05  0.1602470E+04  0.7818609E-02  0.8819032E-01
        1   -1    0    0  501    0  0.00000000000E+00  0.00000000000E+00  0.76320837350E+03  0.76320837352E+03  0.50400001928E-02 0. -1.
       -1   -1    0    0    0  501  0.00000000000E+00  0.00000000000E+00 -0.84115679121E+03  0.84115679123E+03  0.50400001928E-02 0.  1.
    10030    2    1    2    0    0  0.00000000000E+00  0.00000000000E+00 -0.77948417712E+02  0.16043651647E+04  0.16024704759E+04 0.  0.
        3    1    3    3  502    0  0.57001523206E+03  0.19379043344E+02  0.52443886787E+03  0.77480903998E+03  0.10100000352E+00 0. -1.
       -3    1    3    3    0  502 -0.57001523206E+03 -0.19379043344E+02 -0.60238728558E+03  0.82955612477E+03  0.10100000352E+00 0.  1.
</event>
<event>
 5   0  0.8694033E-05  0.1603778E+04  0.7818609E-02  0.8818231E-01
        2   -1    0    0  501    0  0.00000000000E+00  0.00000000000E+00  0.16712484134E+04  0.16712484134E+04  0.25500000920E-02 0. -1.
       -2   -1    0    0    0  501  0.00000000000E+00  0.00000000000E+00 -0.38475762795E+03  0.38475762796E+03  0.25500000920E-02 0.  1.
    10030    2    1    2    0    0  0.00000000000E+00  0.00000000000E+00  0.12864907854E+04  0.20560060413E+04  0.16037775098E+04 0.  0.
        1    1    3    3  502    0  0.53326132986E+03  0.23807925821E+03  0.13477220746E+04  0.14688104607E+04  0.50400001928E-02 0. -1.
       -1    1    3    3    0  502 -0.53326132986E+03 -0.23807925821E+03 -0.61231289166E+02  0.58719558063E+03  0.50400001928E-02 0.  1.
</event>
<event>
 5   0  0.4256406E-05  0.1599724E+04  0.7818609E-02  0.8820718E-01
        1   -1    0    0  501    0  0.00000000000E+00  0.00000000000E+00  0.11440677025E+04  0.11440677025E+04  0.50400001928E-02 0.  1.
       -1   -1    0    0    0  501  0.00000000000E+00  0.00000000000E+00 -0.55921443080E+03  0.55921443082E+03  0.50400001928E-02 0. -1.
    10030    2    1    2    0    0  0.00000000000E+00  0.00000000000E+00  0.58485327169E+03  0.17032821333E+04  0.15997239375E+04 0.  0.
        3    1    3    3  502    0 -0.25715987973E+03  0.55547656232E+03  0.84062948298E+03  0.10398766046E+04  0.10100000352E+00 0.  1.
       -3    1    3    3    0  502  0.25715987973E+03 -0.55547656232E+03 -0.25577621129E+03  0.66340552868E+03  0.10100000352E+00 0. -1.
</event>
<event>
 5   0  0.7849690E-05  0.1598780E+04  0.7818609E-02  0.8821298E-01
       -2   -1    0    0    0  501  0.00000000000E+00  0.00000000000E+00  0.71928862649E+03  0.71928862649E+03  0.25500000920E-02 0. -1.
        2   -1    0    0  501    0  0.00000000000E+00  0.00000000000E+00 -0.88841182931E+03  0.88841182931E+03  0.25500000920E-02 0.  1.
    10030    2    1    2    0    0  0.00000000000E+00  0.00000000000E+00 -0.16912320282E+03  0.16077004558E+04  0.15987801906E+04 0.  0.
        3    1    3    3  502    0  0.21409078123E+03 -0.72448702109E+03 -0.34737821929E+03  0.83149741056E+03  0.10100000352E+00 0.  1.
       -3    1    3    3    0  502 -0.21409078123E+03  0.72448702109E+03  0.17825501647E+03  0.77620304524E+03  0.10100000352E+00 0. -1.
</event>
<event>
 5   0  0.4504463E-05  0.1600955E+04  0.7818609E-02  0.8819962E-01
        1   -1    0    0  501    0  0.00000000000E+00  0.00000000000E+00  0.18858252951E+04  0.18858252951E+04  0.50400001928E-02 0.  1.
       -1   -1    0    0    0  501  0.00000000000E+00  0.00000000000E+00 -0.33977914052E+03  0.33977914055E+03  0.50400001928E-02 0. -1.
    10030    2    1    2    0    0  0.00000000000E+00  0.00000000000E+00  0.15460461546E+04  0.22256044357E+04  0.16009548376E+04 0.  0.
        1    1    3    3  502    0 -0.78400996816E+03  0.72140400046E+02  0.97394148277E+03  0.12523728995E+04  0.50400001928E-02 0.  1.
       -1    1    3    3    0  502  0.78400996816E+03 -0.72140400046E+02  0.57210467185E+03  0.97323153621E+03  0.50400001928E-02 0. -1.
</event>
<event>
 5   0  0.8620155E-05  0.1601594E+04  0.7818609E-02  0.8819569E-01
       -2   -1    0    0    0  501  0.00000000000E+00  0.00000000000E+00  0.48948566768E+03  0.48948566768E+03  0.25500000920E-02 0.  1.
        2   -1    0    0  501    0  0.00000000000E+00  0.00000000000E+00 -0.13101018476E+04  0.13101018476E+04  0.25500000920E-02 0. -1.
    10030    2    1    2    0    0  0.00000000000E+00  0.00000000000E+00 -0.82061617991E+03  0.17995875153E+04  0.16015943027E+04 0.  0.
        4    1    3    3  502    0  0.58285671240E+03  0.54640516116E+03 -0.34882716950E+03  0.87175831193E+03  0.12699999809E+01 0.  1.
       -4    1    3    3    0  502 -0.58285671240E+03 -0.54640516116E+03 -0.47178901042E+03  0.92782920335E+03  0.12699999809E+01 0. -1.
</event>
<event>
 5   0  0.8620155E-05  0.1601318E+04  0.7818609E-02  0.8819739E-01
       -2   -1    0    0    0  501  0.00000000000E+00  0.00000000000E+00  0.26290750063E+03  0.26290750065E+03  0.25500000920E-02 0.  1.
        2   -1    0    0  501    0  0.00000000000E+00  0.00000000000E+00 -0.24383293209E+04  0.24383293209E+04  0.25500000920E-02 0. -1.
    10030    2    1    2    0    0  0.00000000000E+00  0.00000000000E+00 -0.21754218202E+04  0.27012368215E+04  0.16013182913E+04 0.  0.
        4    1    3    3  502    0  0.53122098600E+03 -0.29374458505E+02 -0.78403661817E+02  0.53778001252E+03  0.12699999809E+01 0.  1.
       -4    1    3    3    0  502 -0.53122098600E+03  0.29374458505E+02 -0.20970181584E+04  0.21634568090E+04  0.12699999809E+01 0. -1.
</event>
<event>
 5   0  0.4314657E-05  0.1574490E+04  0.7818609E-02  0.8836375E-01
        1   -1    0    0  501    0  0.00000000000E+00  0.00000000000E+00  0.46905524584E+03  0.46905524587E+03  0.50400001928E-02 0. -1.
       -1   -1    0    0    0  501  0.00000000000E+00  0.00000000000E+00 -0.13212829851E+04  0.13212829851E+04  0.50400001928E-02 0.  1.
    10030    2    1    2    0    0  0.00000000000E+00  0.00000000000E+00 -0.85222773924E+03  0.17903382310E+04  0.15744900323E+04 0.  0.
        5    1    3    3  502    0  0.33425906762E+03  0.21139882151E+03  0.34787176542E+03  0.52674039260E+03  0.46999998093E+01 0. -1.
       -5    1    3    3    0  502 -0.33425906762E+03 -0.21139882151E+03 -0.12000995047E+04  0.12635978384E+04  0.46999998093E+01 0.  1.
</event>
<event>
 5   0  0.4256406E-05  0.1598274E+04  0.7818609E-02  0.8821609E-01
       -1   -1    0    0    0  501  0.00000000000E+00  0.00000000000E+00  0.99300355475E+03  0.99300355476E+03  0.50400001928E-02 0. -1.
        1   -1    0    0  501    0  0.00000000000E+00  0.00000000000E+00 -0.64311956289E+03  0.64311956291E+03  0.50400001928E-02 0.  1.
    10030    2    1    2    0    0  0.00000000000E+00  0.00000000000E+00  0.34988399186E+03  0.16361231177E+04  0.15982740843E+04 0.  0.
        3    1    3    3  502    0  0.67093160091E+03  0.43248852359E+03  0.21357786904E+03  0.82632381818E+03  0.10100000352E+00 0. -1.
       -3    1    3    3    0  502 -0.67093160091E+03 -0.43248852359E+03  0.13630612281E+03  0.80979929949E+03  0.10100000352E+00 0.  1.
</event>
<event>
 5   0  0.4211419E-05  0.1599409E+04  0.7818609E-02  0.8820911E-01
       -1   -1    0    0    0  501  0.00000000000E+00  0.00000000000E+00  0.12238439929E+04  0.12238439929E+04  0.50400001928E-02 0.  1.
        1   -1    0    0  501    0  0.00000000000E+00  0.00000000000E+00 -0.52255650468E+03  0.52255650470E+03  0.50400001928E-02 0. -1.
    10030    2    1    2    0    0  0.00000000000E+00  0.00000000000E+00  0.70128748824E+03  0.17464004976E+04  0.15994094401E+04 0.  0.
        2    1    3    3  502    0 -0.69388993853E+03 -0.37668430485E+03  0.48942000525E+03  0.92892747503E+03  0.25500000920E-02 0.  1.
       -2    1    3    3    0  502  0.69388993853E+03  0.37668430485E+03  0.21186748299E+03  0.81747302260E+03  0.25500000920E-02 0. -1.
</event>
<event>
 5   0  0.8620155E-05  0.1602367E+04  0.7818609E-02  0.8819095E-01
        2   -1    0    0  501    0  0.00000000000E+00  0.00000000000E+00  0.65287394633E+03  0.65287394633E+03  0.25500000920E-02 0. -1.
       -2   -1    0    0    0  501  0.00000000000E+00  0.00000000000E+00 -0.98318420120E+03  0.98318420120E+03  0.25500000920E-02 0.  1.
    10030    2    1    2    0    0  0.00000000000E+00  0.00000000000E+00 -0.33031025487E+03  0.16360581475E+04  0.16023674353E+04 0.  0.
        4    1    3    3  502    0  0.51664473632E+03  0.50532413024E+02  0.45793691677E+03  0.69223055479E+03  0.12699999809E+01 0. -1.
       -4    1    3    3    0  502 -0.51664473632E+03 -0.50532413024E+02 -0.78824717164E+03  0.94382759275E+03  0.12699999809E+01 0.  1.
</event>
<event>
 5   0  0.4256406E-05  0.1599353E+04  0.7818609E-02  0.8820946E-01
       -1   -1    0    0    0  501  0.00000000000E+00  0.00000000000E+00  0.69142299048E+03  0.69142299050E+03  0.50400001928E-02 0. -1.
        1   -1    0    0  501    0  0.00000000000E+00  0.00000000000E+00 -0.92487829518E+03  0.92487829519E+03  0.50400001928E-02 0.  1.
    10030    2    1    2    0    0  0.00000000000E+00  0.00000000000E+00 -0.23345530470E+03  0.16163012857E+04  0.15993525149E+04 0.  0.
        3    1    3    3  502    0  0.67288930166E+03 -0.32577900628E+03  0.17012915589E+03  0.76671762280E+03  0.10100000352E+00 0. -1.
       -3    1    3    3    0  502 -0.67288930166E+03  0.32577900628E+03 -0.40358446059E+03  0.84958366289E+03  0.10100000352E+00 0.  1.
</event>
<event>
 5   0  0.7901257E-05  0.1599474E+04  0.7818609E-02  0.8820871E-01
       -2   -1    0    0    0  501  0.00000000000E+00  0.00000000000E+00  0.11274997428E+04  0.11274997428E+04  0.25500000920E-02 0.  1.
        2   -1    0    0  501    0  0.00000000000E+00  0.00000000000E+00 -0.56725442952E+03  0.56725442953E+03  0.25500000920E-02 0. -1.
    10030    2    1    2    0    0  0.00000000000E+00  0.00000000000E+00  0.56024531328E+03  0.16947541723E+04  0.15994739428E+04 0.  0.
        2    1    3    3  502    0  0.41444929845E+03  0.33905674822E+03  0.90952092127E+03  0.10554411427E+04  0.25500000920E-02 0.  1.
       -2    1    3    3    0  502 -0.41444929845E+03 -0.33905674822E+03 -0.34927560799E+03  0.63931302962E+03  0.25500000920E-02 0. -1.
</event>
<event>
 5   0  0.8620155E-05  0.1597305E+04  0.7818609E-02  0.8822205E-01
        2   -1    0    0  501    0  0.00000000000E+00  0.00000000000E+00  0.93637026376E+03  0.93637026376E+03  0.25500000920E-02 0. -1.
       -2   -1    0    0    0  501  0.00000000000E+00  0.00000000000E+00 -0.68118959463E+03  0.68118959464E+03  0.25500000920E-02 0.  1.
    10030    2    1    2    0    0  0.00000000000E+00  0.00000000000E+00  0.25518066913E+03  0.16175598584E+04  0.15973048305E+04 0.  0.
        4    1    3    3  502    0  0.56859696429E+02  0.32015163055E+03 -0.61112121422E+03  0.69224334088E+03  0.12699999809E+01 0.  1.
       -4    1    3    3    0  502 -0.56859696429E+02 -0.32015163055E+03  0.86630188334E+03  0.92531651752E+03  0.12699999809E+01 0. -1.
</event>
<event>
 5   0  0.4314657E-05  0.1600311E+04  0.7818609E-02  0.8820357E-01
        1   -1    0    0  501    0  0.00000000000E+00  0.00000000000E+00  0.13592148670E+04  0.13592148670E+04  0.50400001928E-02 0.  1.
       -1   -1    0    0    0  501  0.00000000000E+00  0.00000000000E+00 -0.47104306855E+03  0.47104306858E+03  0.50400001928E-02 0. -1.
    10030    2    1    2    0    0  0.00000000000E+00  0.00000000000E+00  0.88817179844E+03  0.18302579356E+04  0.16003108970E+04 0.  0.
        5    1    3    3  502    0 -0.77977663815E+03 -0.45982690029E+02  0.64237874123E+03  0.10113548093E+04  0.46999998093E+01 0.  1.
       -5    1    3    3    0  502  0.77977663815E+03  0.45982690029E+02  0.24579305721E+03  0.81890312623E+03  0.46999998093E+01 0. -1.
</event>
<event>
 5   0  0.3042125E-05  0.1589627E+04  0.7818609E-02  0.8826946E-01
       -4   -1    0    0    0  501  0.00000000000E+00  0.00000000000E+00  0.49356254883E+03  0.49356418277E+03  0.12699999809E+01 0.  1.
        4   -1    0    0  501    0  0.00000000000E+00  0.00000000000E+00 -0.12799325142E+04  0.12799331443E+04  0.12699999809E+01 0. -1.
    10030    2    1    2    0    0  0.00000000000E+00  0.00000000000E+00 -0.78636996537E+03  0.17734973270E+04  0.15896273295E+04 0.  0.
        5    1    3    3  502    0 -0.23145409464E+03 -0.65242270851E+03  0.42469374938E+02  0.69357921415E+03  0.46999998093E+01 0.  1.
       -5    1    3    3    0  502  0.23145409464E+03  0.65242270851E+03 -0.82883934031E+03  0.10799181129E+04  0.46999998093E+01 0. -1.
</event>
<event>
 5   0  0.7901257E-05  0.1607840E+04  0.7818609E-02  0.8815746E-01
        2   -1    0    0  501    0  0.00000000000E+00  0.00000000000E+00  0.48983686733E+03  0.48983686734E+03  0.25500000920E-02 0.  1.
       -2   -1    0    0    0  501  0.00000000000E+00  0.00000000000E+00 -0.13193934755E+04  0.13193934755E+04  0.25500000920E-02 0. -1.
    10030    2    1    2    0    0  0.00000000000E+00  0.00000000000E+00 -0.82955660816E+03  0.18092303428E+04  0.16078402493E+04 0.  0.
        2    1    3    3  502    0 -0.36528887249E+03  0.13556285401E+03  0.37648830113E+03  0.54180871961E+03  0.25500000920E-02 0.  1.
       -2    1    3    3    0  502  0.36528887249E+03 -0.13556285401E+03 -0.12060449093E+04  0.12674216232E+04  0.25500000920E-02 0. -1.
</event>
<event>
 5   0  0.7849690E-05  0.1601170E+04  0.7818609E-02  0.8819829E-01
       -2   -1    0    0    0  501  0.00000000000E+00  0.00000000000E+00  0.96206475304E+03  0.96206475304E+03  0.25500000920E-02 0. -1.
        2   -1    0    0  501    0  0.00000000000E+00  0.00000000000E+00 -0.66620949227E+03  0.66620949227E+03  0.25500000920E-02 0.  1.
    10030    2    1    2    0    0  0.00000000000E+00  0.00000000000E+00  0.29585526077E+03  0.16282742453E+04  0.16011704102E+04 0.  0.
        3    1    3    3  502    0  0.17238277091E+03 -0.76302539480E+03 -0.25287957797E+02  0.78266408109E+03  0.10100000352E+00 0.  1.
       -3    1    3    3    0  502 -0.17238277091E+03  0.76302539480E+03  0.32114321857E+03  0.84561016423E+03  0.10100000352E+00 0. -1.
</event>
<event>
 5   0  0.8037548E-05  0.1602068E+04  0.7818609E-02  0.8819278E-01
        2   -1    0    0  501    0  0.00000000000E+00  0.00000000000E+00  0.97809322858E+03  0.97809322858E+03  0.25500000920E-02 0.  1.
       -2   -1    0    0    0  501  0.00000000000E+00  0.00000000000E+00 -0.65602716711E+03  0.65602716711E+03  0.25500000920E-02 0. -1.
    10030    2    1    2    0    0  0.00000000000E+00  0.00000000000E+00  0.32206606147E+03  0.16341203957E+04  0.16020683255E+04 0.  0.
        5    1    3    3  502    0 -0.56245845958E+03  0.31735548804E+03 -0.32232489513E+03  0.72179599096E+03  0.46999998093E+01 0. -1.
       -5    1    3    3    0  502  0.56245845958E+03 -0.31735548804E+03  0.64439095660E+03  0.91232440474E+03  0.46999998093E+01 0.  1.
</event>
<event>
 5   0  0.4211419E-05  0.1595140E+04  0.7818609E-02  0.8823539E-01
       -1   -1    0    0    0  501  0.00000000000E+00  0.00000000000E+00  0.10538027033E+04  0.10538027033E+04  0.50400001928E-02 0. -1.
        1   -1    0    0  501    0  0.00000000000E+00  0.00000000000E+00 -0.60364037253E+03  0.60364037255E+03  0.50400001928E-02 0.  1.
    10030    2    1    2    0    0  0.00000000000E+00  0.00000000000E+00  0.45016233075E+03  0.16574430758E+04  0.15951399392E+04 0.  0.
        2    1    3    3  502    0  0.73612316703E+03 -0.23224749655E+02 -0.92981207025E+02  0.74233564572E+03  0.25500000920E-02 0.  1.
       -2    1    3    3    0  502 -0.73612316703E+03  0.23224749655E+02  0.54314353777E+03  0.91510743013E+03  0.25500000920E-02 0. -1.
</event>
<event>
 5   0  0.7901257E-05  0.1599893E+04  0.7818609E-02  0.8820614E-01
       -2   -1    0    0    0  501  0.00000000000E+00  0.00000000000E+00  0.98577601042E+03  0.98577601042E+03  0.25500000920E-02 0.  1.
        2   -1    0    0  501    0  0.00000000000E+00  0.00000000000E+00 -0.64914798581E+03  0.64914798581E+03  0.25500000920E-02 0. -1.
    10030    2    1    2    0    0  0.00000000000E+00  0.00000000000E+00  0.33662802461E+03  0.16349239962E+04  0.15998931360E+04 0.  0.
        2    1    3    3  502    0 -0.58897995495E+03  0.30209753902E+03  0.62731950914E+03  0.91197043646E+03  0.25500000920E-02 0.  1.
       -2    1    3    3    0  502  0.58897995495E+03 -0.30209753902E+03 -0.29069148453E+03  0.72295355978E+03  0.25500000920E-02 0. -1.
</event>
<event>
 5   0  0.4211419E-05  0.1599474E+04  0.7818609E-02  0.8820871E-01
       -1   -1    0    0    0  501  0.00000000000E+00  0.00000000000E+00  0.57377213138E+03  0.57377213140E+03  0.50400001928E-02 0. -1.
        1   -1    0    0  501    0  0.00000000000E+00  0.00000000000E+00 -0.11146922372E+04  0.11146922372E+04  0.50400001928E-02 0.  1.
    10030    2    1    2    0    0  0.00000000000E+00  0.00000000000E+00 -0.54092010577E+03  0.16884643686E+04  0.15994740895E+04 0.  0.
        2    1    3    3  502    0  0.47953205090E+03 -0.32747823788E+03  0.31003134334E+03  0.65826470206E+03  0.25500000920E-02 0. -1.
       -2    1    3    3    0  502 -0.47953205090E+03  0.32747823788E+03 -0.85095144911E+03  0.10301996665E+04  0.25500000920E-02 0.  1.
</event>
<event>
 5   0  0.8037548E-05  0.1600992E+04  0.7818609E-02  0.8819939E-01
        2   -1    0    0  501    0  0.00000000000E+00  0.00000000000E+00  0.17471418338E+04  0.17471418338E+04  0.25500000920E-02 0.  1.
       -2   -1    0    0    0  501  0.00000000000E+00  0.00000000000E+00 -0.36676683579E+03  0.36676683580E+03  0.25500000920E-02 0. -1.
    10030    2    1    2    0    0  0.00000000000E+00  0.00000000000E+00  0.13803749980E+04  0.21139086696E+04  0.16009917952E+04 0.  0.
        5    1    3    3  502    0  0.61441192287E+02 -0.41806573431E+03 -0.20749004101E+03  0.47077402799E+03  0.46999998093E+01 0. -1.
       -5    1    3    3    0  502 -0.61441192287E+02  0.41806573431E+03  0.15878650390E+04  0.16431346416E+04  0.46999998093E+01 0.  1.
</event>
<event>
 5   0  0.4504463E-05  0.1591533E+04  0.7818609E-02  0.8825767E-01
        1   -1    0    0  501    0  0.00000000000E+00  0.00000000000E+00  0.79119787077E+03  0.79119787079E+03  0.50400001928E-02 0. -1.
       -1   -1    0    0    0  501  0.00000000000E+00  0.00000000000E+00 -0.80036115466E+03  0.80036115468E+03  0.50400001928E-02 0.  1.
    10030    2    1    2    0    0  0.00000000000E+00  0.00000000000E+00 -0.91632838953E+01  0.15915590255E+04  0.15915326468E+04 0.  0.
        1    1    3    3  502    0 -0.19309751485E+03 -0.65218271989E+03  0.40848100073E+03  0.79340133498E+03  0.50400001928E-02 0. -1.
       -1    1    3    3    0  502  0.19309751485E+03  0.65218271989E+03 -0.41764428463E+03  0.79815769048E+03  0.50400001928E-02 0.  1.
</event>
<event>
 5   0  0.4211419E-05  0.1600888E+04  0.7818609E-02  0.8820003E-01
        1   -1    0    0  501    0  0.00000000000E+00  0.00000000000E+00  0.80906577429E+03  0.80906577430E+03  0.50400001928E-02 0.  1.
       -1   -1    0    0    0  501  0.00000000000E+00  0.00000000000E+00 -0.79191361691E+03  0.79191361693E+03  0.50400001928E-02 0. -1.
    10030    2    1    2    0    0  0.00000000000E+00  0.00000000000E+00  0.17152157378E+02  0.16009793912E+04  0.16008875084E+04 0.  0.
        2    1    3    3  502    0  0.16115317074E+03  0.21724159231E+03  0.76197577351E+03  0.80856127368E+03  0.25500000920E-02 0.  1.
       -2    1    3    3    0  502 -0.16115317074E+03 -0.21724159231E+03 -0.74482361613E+03  0.79241811755E+03  0.25500000920E-02 0. -1.
</event>
<event>
 5   0  0.4504463E-05  0.1601168E+04  0.7818609E-02  0.8819831E-01
       -1   -1    0    0    0  501  0.00000000000E+00  0.00000000000E+00  0.55155798541E+03  0.55155798543E+03  0.50400001928E-02 0. -1.
        1   -1    0    0  501    0  0.00000000000E+00  0.00000000000E+00 -0.11620442310E+04  0.11620442310E+04  0.50400001928E-02 0.  1.
    10030    2    1    2    0    0  0.00000000000E+00  0.00000000000E+00 -0.61048624555E+03  0.17136022164E+04  0.16011680424E+04 0.  0.
        1    1    3    3  502    0  0.47352316558E+03 -0.33618684223E+03  0.28453360020E+03  0.64668783111E+03  0.50400001928E-02 0. -1.
       -1    1    3    3    0  502 -0.47352316558E+03  0.33618684223E+03 -0.89501984575E+03  0.10669143853E+04  0.50400001928E-02 0.  1.
</event>
<event>
 5   0  0.8037548E-05  0.1600387E+04  0.7818609E-02  0.8820310E-01
        2   -1    0    0  501    0  0.00000000000E+00  0.00000000000E+00  0.18101792617E+04  0.18101792617E+04  0.25500000920E-02 0. -1.
       -2   -1    0    0    0  501  0.00000000000E+00  0.00000000000E+00 -0.35372737405E+03  0.35372737406E+03  0.25500000920E-02 0.  1.
    10030    2    1    2    0    0  0.00000000000E+00  0.00000000000E+00  0.14564518876E+04  0.21639066357E+04  0.16003873991E+04 0.  0.
        5    1    3    3  502    0 -0.57311155547E+01  0.35110185481E+03 -0.24396443830E+03  0.42760506930E+03  0.46999998093E+01 0.  1.
       -5    1    3    3    0  502  0.57311155547E+01 -0.35110185481E+03  0.17004163259E+04  0.17363015664E+04  0.46999998093E+01 0. -1.
</event>
<event>
 5   0  0.4314657E-05  0.1600460E+04  0.7818609E-02  0.8820266E-01
       -1   -1    0    0    0  501  0.00000000000E+00  0.00000000000E+00  0.10085229671E+04  0.10085229671E+04  0.50400001928E-02 0.  1.
        1   -1    0    0  501    0  0.00000000000E+00  0.00000000000E+00 -0.63495628018E+03  0.63495628020E+03  0.50400001928E-02 0. -1.
    10030    2    1    2    0    0  0.00000000000E+00  0.00000000000E+00  0.37356668689E+03  0.16434792473E+04  0.16004599235E+04 0.  0.
        5    1    3    3  502    0 -0.36958707663E+02  0.61848508260E+03 -0.33324376906E+03  0.70353624149E+03  0.46999998093E+01 0. -1.
       -5    1    3    3    0  502  0.36958707663E+02 -0.61848508260E+03  0.70681045595E+03  0.93994300578E+03  0.46999998093E+01 0.  1.
</event>
<event>
 5   0  0.4256406E-05  0.1600061E+04  0.7818609E-02  0.8820511E-01
        1   -1    0    0  501    0  0.00000000000E+00  0.00000000000E+00  0.74769097173E+03  0.74769097175E+03  0.50400001928E-02 0. -1.
       -1   -1    0    0    0  501  0.00000000000E+00  0.00000000000E+00 -0.85603345536E+03  0.85603345537E+03  0.50400001928E-02 0.  1.
    10030    2    1    2    0    0  0.00000000000E+00  0.00000000000E+00 -0.10834248362E+03  0.16037244271E+04  0.16000606065E+04 0.  0.
        3    1    3    3  502    0 -0.53371860519E+03  0.36421735380E+02 -0.65040006220E+03  0.84214152222E+03  0.10100000352E+00 0.  1.
       -3    1    3    3    0  502  0.53371860519E+03 -0.36421735380E+02  0.54205757858E+03  0.76158290490E+03  0.10100000352E+00 0. -1.
</event>
<event>
 5   0  0.8694033E-05  0.1605692E+04  0.7818609E-02  0.8817059E-01
        2   -1    0    0  501    0  0.00000000000E+00  0.00000000000E+00  0.91177991918E+03  0.91177991918E+03  0.25500000920E-02 0.  1.
       -2   -1    0    0    0  501  0.00000000000E+00  0.00000000000E+00 -0.70692644228E+03  0.70692644228E+03  0.25500000920E-02 0. -1.
    10030    2    1    2    0    0  0.00000000000E+00  0.00000000000E+00  0.20485347690E+03  0.16187063615E+04  0.16056915450E+04 0.  0.
        1    1    3    3  502    0 -0.72220625694E+03  0.14086722005E+02  0.45566811895E+03  0.85405722756E+03  0.50400001928E-02 0.  1.
       -1    1    3    3    0  502  0.72220625694E+03 -0.14086722005E+02 -0.25081464205E+03  0.76464913391E+03  0.50400001928E-02 0. -1.
</event>
<event>
 5   0  0.4256406E-05  0.1599412E+04  0.7818609E-02  0.8820909E-01
        1   -1    0    0  501    0  0.00000000000E+00  0.00000000000E+00  0.12818672059E+04  0.12818672059E+04  0.50400001928E-02 0. -1.
       -1   -1    0    0    0  501  0.00000000000E+00  0.00000000000E+00 -0.49890507578E+03  0.49890507580E+03  0.50400001928E-02 0.  1.
    10030    2    1    2    0    0  0.00000000000E+00  0.00000000000E+00  0.78296213015E+03  0.17807722817E+04  0.15994124616E+04 0.  0.
        3    1    3    3  502    0 -0.46963897206E+03  0.18225174304E+03  0.10829981210E+04  0.11944293207E+04  0.10100000352E+00 0. -1.
       -3    1    3    3    0  502  0.46963897206E+03 -0.18225174304E+03 -0.30003599086E+03  0.58634296101E+03  0.10100000352E+00 0.  1.
</event>
<event>
 5   0  0.7849690E-05  0.1603439E+04  0.7818609E-02  0.8818438E-01
        2   -1    0    0  501    0  0.00000000000E+00  0.00000000000E+00  0.17099073539E+04  0.17099073539E+04  0.25500000920E-02 0. -1.
       -2   -1    0    0    0  501  0.00000000000E+00  0.00000000000E+00 -0.37590021010E+03  0.37590021011E+03  0.25500000920E-02 0.  1.
    10030    2    1    2    0    0  0.00000000000E+00  0.00000000000E+00  0.13340071438E+04  0.20858075640E+04  0.16034394701E+04 0.  0.
        3    1    3    3  502    0  0.53042356289E+03  0.20078010630E+03 -0.70114221984E+02  0.57146987802E+03  0.10100000352E+00 0.  1.
       -3    1    3    3    0  502 -0.53042356289E+03 -0.20078010630E+03  0.14041213658E+04  0.15143376860E+04  0.10100000352E+00 0. -1.
</event>
<event>
 5   0  0.4504463E-05  0.1599477E+04  0.7818609E-02  0.8820870E-01
        1   -1    0    0  501    0  0.00000000000E+00  0.00000000000E+00  0.11674490578E+04  0.11674490578E+04  0.50400001928E-02 0. -1.
       -1   -1    0    0    0  501  0.00000000000E+00  0.00000000000E+00 -0.54784521550E+03  0.54784521552E+03  0.50400001928E-02 0.  1.
    10030    2    1    2    0    0  0.00000000000E+00  0.00000000000E+00  0.61960384228E+03  0.17152942733E+04  0.15994766402E+04 0.  0.
        1    1    3    3  502    0  0.17412017443E+02  0.79829550991E+03  0.35779128067E+03  0.87498199984E+03  0.50400001928E-02 0. -1.
       -1    1    3    3    0  502 -0.17412017443E+02 -0.79829550991E+03  0.26181256161E+03  0.84031227347E+03  0.50400001928E-02 0.  1.
</event>
<event>
 5   0  0.4504463E-05  0.1609667E+04  0.7818609E-02  0.8814631E-01
       -1   -1    0    0    0  501  0.00000000000E+00  0.00000000000E+00  0.75403687437E+03  0.75403687439E+03  0.50400001928E-02 0. -1.
        1   -1    0    0  501    0  0.00000000000E+00  0.00000000000E+00 -0.85905255964E+03  0.85905255965E+03  0.50400001928E-02 0.  1.
    10030    2    1    2    0    0  0.00000000000E+00  0.00000000000E+00 -0.10501568526E+03  0.16130894340E+04  0.16096674278E+04 0.  0.
        1    1    3    3  502    0 -0.14025745889E+03  0.14272427249E+03 -0.83372584931E+03  0.85740373487E+03  0.50400001928E-02 0.  1.
       -1    1    3    3    0  502  0.14025745889E+03 -0.14272427249E+03  0.72871016405E+03  0.75568569918E+03  0.50400001928E-02 0. -1.
</event>
<event>
 5   0  0.8694033E-05  0.1596350E+04  0.7818609E-02  0.8822793E-01
       -2   -1    0    0    0  501  0.00000000000E+00  0.00000000000E+00  0.81263625809E+03  0.81263625809E+03  0.25500000920E-02 0.  1.
        2   -1    0    0  501    0  0.00000000000E+00  0.00000000000E+00 -0.78397127947E+03  0.78397127947E+03  0.25500000920E-02 0. -1.
    10030    2    1    2    0    0  0.00000000000E+00  0.00000000000E+00  0.28664978625E+02  0.15966075376E+04  0.15963501959E+04 0.  0.
        1    1    3    3  502    0  0.29187519404E+02  0.40271836622E+03 -0.67429102540E+03  0.78594044350E+03  0.50400001928E-02 0. -1.
       -1    1    3    3    0  502 -0.29187519404E+02 -0.40271836622E+03  0.70295600402E+03  0.81066709406E+03  0.50400001928E-02 0.  1.
</event>
<event>
 5   0  0.4504463E-05  0.1598448E+04  0.7818609E-02  0.8821502E-01
       -1   -1    0    0    0  501  0.00000000000E+00  0.00000000000E+00  0.54969561879E+03  0.54969561882E+03  0.50400001928E-02 0. -1.
        1   -1    0    0  501    0  0.00000000000E+00  0.00000000000E+00 -0.11620234860E+04  0.11620234860E+04  0.50400001928E-02 0.  1.
    10030    2    1    2    0    0  0.00000000000E+00  0.00000000000E+00 -0.61232786721E+03  0.17117191048E+04  0.15984482716E+04 0.  0.
        1    1    3    3  502    0  0.71874808035E+03 -0.32286422602E+03 -0.16281578047E+03  0.80458007050E+03  0.50400001928E-02 0. -1.
       -1    1    3    3    0  502 -0.71874808035E+03  0.32286422602E+03 -0.44951208674E+03  0.90713903433E+03  0.50400001928E-02 0.  1.
</event>
<event>
 5   0  0.4504463E-05  0.1599259E+04  0.7818609E-02  0.8821004E-01
        1   -1    0    0  501    0  0.00000000000E+00  0.00000000000E+00  0.56073267811E+03  0.56073267813E+03  0.50400001928E-02 0.  1.
       -1   -1    0    0    0  501  0.00000000000E+00  0.00000000000E+00 -0.11403063076E+04  0.11403063076E+04  0.50400001928E-02 0. -1.
    10030    2    1    2    0    0  0.00000000000E+00  0.00000000000E+00 -0.57957362947E+03  0.17010389857E+04  0.15992585904E+04 0.  0.
        1    1    3    3  502    0 -0.78176709599E+03  0.70490166635E+02 -0.12750430826E+03  0.79522701452E+03  0.50400001928E-02 0. -1.
       -1    1    3    3    0  502  0.78176709599E+03 -0.70490166635E+02 -0.45206932121E+03  0.90581197120E+03  0.50400001928E-02 0.  1.
</event>
<event>
 5   0  0.7849690E-05  0.1598357E+04  0.7818609E-02  0.8821558E-01
       -2   -1    0    0    0  501  0.00000000000E+00  0.00000000000E+00  0.34408554976E+03  0.34408554977E+03  0.25500000920E-02 0.  1.
        2   -1    0    0  501    0  0.00000000000E+00  0.00000000000E+00 -0.18561843992E+04  0.18561843992E+04  0.25500000920E-02 0. -1.
    10030    2    1    2    0    0  0.00000000000E+00  0.00000000000E+00 -0.15120988494E+04  0.22002699490E+04  0.15983569432E+04 0.  0.
        3    1    3    3  502    0  0.48742099108E+03  0.30841844860E+03 -0.15175185596E+04  0.16234419456E+04  0.10100000352E+00 0. -1.
       -3    1    3    3    0  502 -0.48742099108E+03 -0.30841844860E+03  0.54197101411E+01  0.57682800334E+03  0.10100000352E+00 0.  1.
</event>
<event>
 5   0  0.8037548E-05  0.1598336E+04  0.7818609E-02  0.8821571E-01
        2   -1    0    0  501    0  0.00000000000E+00  0.00000000000E+00  0.48211834040E+03  0.48211834040E+03  0.25500000920E-02 0. -1.
       -2   -1    0    0    0  501  0.00000000000E+00  0.00000000000E+00 -0.13247143996E+04  0.13247143996E+04  0.25500000920E-02 0.  1.
    10030    2    1    2    0    0  0.00000000000E+00  0.00000000000E+00 -0.84259605921E+03  0.18068327400E+04  0.15983355190E+04 0.  0.
        5    1    3    3  502    0  0.70154996968E+03 -0.31589111125E+03 -0.66555678601E+03  0.10173236847E+04  0.46999998093E+01 0.  1.
       -5    1    3    3    0  502 -0.70154996968E+03  0.31589111125E+03 -0.17703927321E+03  0.78950905528E+03  0.46999998093E+01 0. -1.
</event>
<event>
 5   0  0.7901257E-05  0.1598774E+04  0.7818609E-02  0.8821302E-01
       -2   -1    0    0    0  501  0.00000000000E+00  0.00000000000E+00  0.11203380154E+04  0.11203380154E+04  0.25500000920E-02 0.  1.
        2   -1    0    0  501    0  0.00000000000E+00  0.00000000000E+00 -0.57038076962E+03  0.57038076962E+03  0.25500000920E-02 0. -1.
    10030    2    1    2    0    0  0.00000000000E+00  0.00000000000E+00  0.54995724574E+03  0.16907187850E+04  0.15987736043E+04 0.  0.
        2    1    3    3  502    0 -0.76367714260E+03  0.13805988882E+03  0.72234522741E+02  0.77941076290E+03  0.25500000920E-02 0. -1.
       -2    1    3    3    0  502  0.76367714260E+03 -0.13805988882E+03  0.47772272300E+03  0.91130802208E+03  0.25500000920E-02 0.  1.
</event>
<event>
 5   0  0.7901257E-05  0.1601572E+04  0.7818609E-02  0.8819583E-01
        2   -1    0    0  501    0  0.00000000000E+00  0.00000000000E+00  0.12834280841E+04  0.12834280841E+04  0.25500000920E-02 0. -1.
       -2   -1    0    0    0  501  0.00000000000E+00  0.00000000000E+00 -0.49964493569E+03  0.49964493570E+03  0.25500000920E-02 0.  1.
    10030    2    1    2    0    0  0.00000000000E+00  0.00000000000E+00  0.78378314843E+03  0.17830730198E+04  0.16015721558E+04 0.  0.
        2    1    3    3  502    0 -0.41686500037E+03  0.36918229055E+00  0.11531024109E+04  0.12261409930E+04  0.25500000920E-02 0. -1.
       -2    1    3    3    0  502  0.41686500037E+03 -0.36918229055E+00 -0.36931926245E+03  0.55693202678E+03  0.25500000920E-02 0.  1.
</event>
<event>
 5   0  0.7849690E-05  0.1600508E+04  0.7818609E-02  0.8820236E-01
       -2   -1    0    0    0  501  0.00000000000E+00  0.00000000000E+00  0.54579421858E+03  0.54579421859E+03  0.25500000920E-02 0.  1.
        2   -1    0    0  501    0  0.00000000000E+00  0.00000000000E+00 -0.11733482634E+04  0.11733482634E+04  0.25500000920E-02 0. -1.
    10030    2    1    2    0    0  0.00000000000E+00  0.00000000000E+00 -0.62755404486E+03  0.17191424820E+04  0.16005082925E+04 0.  0.
        3    1    3    3  502    0  0.22341614061E+03  0.60383492444E+03 -0.82426828760E+03  0.10459204597E+04  0.10100000352E+00 0. -1.
       -3    1    3    3    0  502 -0.22341614061E+03 -0.60383492444E+03  0.19671424274E+03  0.67322202234E+03  0.10100000352E+00 0.  1.
</event>
<event>
 5   0  0.4211419E-05  0.1612270E+04  0.7818609E-02  0.8813045E-01
        1   -1    0    0  501    0  0.00000000000E+00  0.00000000000E+00  0.10659898070E+04  0.10659898070E+04  0.50400001928E-02 0. -1.
       -1   -1    0    0    0  501  0.00000000000E+00  0.00000000000E+00 -0.60962494923E+03  0.60962494926E+03  0.50400001928E-02 0.  1.
    10030    2    1    2    0    0  0.00000000000E+00  0.00000000000E+00  0.45636485778E+03  0.16756147563E+04  0.16122704265E+04 0.  0.
        2    1    3    3  502    0 -0.82591517056E+02  0.16401203616E+02  0.10614067415E+04  0.10647415786E+04  0.25500000920E-02 0. -1.
       -2    1    3    3    0  502  0.82591517056E+02 -0.16401203616E+02 -0.60504188374E+03  0.61087317772E+03  0.25500000920E-02 0.  1.
</event>
<event>
 5   0  0.8694033E-05  0.1600201E+04  0.7818609E-02  0.8820425E-01
       -2   -1    0    0    0  501  0.00000000000E+00  0.00000000000E+00  0.95524553142E+03  0.95524553142E+03  0.25500000920E-02 0.  1.
        2   -1    0    0  501    0  0.00000000000E+00  0.00000000000E+00 -0.67015303400E+03  0.67015303400E+03  0.25500000920E-02 0. -1.
    10030    2    1    2    0    0  0.00000000000E+00  0.00000000000E+00  0.28509249742E+03  0.16253985654E+04  0.16002008513E+04 0.  0.
        1    1    3    3  502    0 -0.38297137942E+03  0.53939325543E+03 -0.31459448648E+03  0.73251747584E+03  0.50400001928E-02 0. -1.
       -1    1    3    3    0  502  0.38297137942E+03 -0.53939325543E+03  0.59968698390E+03  0.89288108959E+03  0.50400001928E-02 0.  1.
</event>
<event>
 5   0  0.4256406E-05  0.1601487E+04  0.7818609E-02  0.8819635E-01
       -1   -1    0    0    0  501  0.00000000000E+00  0.00000000000E+00  0.51523144308E+03  0.51523144310E+03  0.50400001928E-02 0.  1.
        1   -1    0    0  501    0  0.00000000000E+00  0.00000000000E+00 -0.12444705873E+04  0.12444705873E+04  0.50400001928E-02 0. -1.
    10030    2    1    2    0    0  0.00000000000E+00  0.00000000000E+00 -0.72923914421E+03  0.17597020304E+04  0.16014872795E+04 0.  0.
        3    1    3    3  502    0  0.43303375868E+03 -0.66327988504E+03 -0.49337968312E+03  0.93321056787E+03  0.10100000352E+00 0. -1.
       -3    1    3    3    0  502 -0.43303375868E+03  0.66327988504E+03 -0.23585946109E+03  0.82649146254E+03  0.10100000352E+00 0.  1.
</event>
<event>
 5   0  0.4256406E-05  0.1599729E+04  0.7818609E-02  0.8820714E-01
       -1   -1    0    0    0  501  0.00000000000E+00  0.00000000000E+00  0.34787519979E+03  0.34787519983E+03  0.50400001928E-02 0.  1.
        1   -1    0    0  501    0  0.00000000000E+00  0.00000000000E+00 -0.18391175494E+04  0.18391175494E+04  0.50400001928E-02 0. -1.
    10030    2    1    2    0    0  0.00000000000E+00  0.00000000000E+00 -0.14912423496E+04  0.21869927492E+04  0.15997292083E+04 0.  0.
        3    1    3    3  502    0 -0.39293994868E+03  0.53907297016E+03 -0.14226303988E+03  0.68208522426E+03  0.10100000352E+00 0.  1.
       -3    1    3    3    0  502  0.39293994868E+03 -0.53907297016E+03 -0.13489793097E+04  0.15049075249E+04  0.10100000352E+00 0. -1.
</event>
<event>
 5   0  0.4373026E-05  0.1599186E+04  0.7818609E-02  0.8821048E-01
       -1   -1    0    0    0  501  0.00000000000E+00  0.00000000000E+00  0.74224371643E+03  0.74224371645E+03  0.50400001928E-02 0. -1.
        1   -1    0    0  501    0  0.00000000000E+00  0.00000000000E+00 -0.86137323701E+03  0.86137323703E+03  0.50400001928E-02 0.  1.
    10030    2    1    2    0    0  0.00000000000E+00  0.00000000000E+00 -0.11912952058E+03  0.16036169535E+04  0.15991858838E+04 0.  0.
        4    1    3    3  502    0 -0.17629347089E+03  0.93062481142E+02 -0.83605343865E+03  0.85949227946E+03  0.12699999809E+01 0.  1.
       -4    1    3    3    0  502  0.17629347089E+03 -0.93062481142E+02  0.71692391807E+03  0.74412467401E+03  0.12699999809E+01 0. -1.
</event>
<event>
 5   0  0.8620155E-05  0.1599855E+04  0.7818609E-02  0.8820637E-01
        2   -1    0    0  501    0  0.00000000000E+00  0.00000000000E+00  0.13529825390E+04  0.13529825390E+04  0.25500000920E-02 0.  1.
       -2   -1    0    0    0  501  0.00000000000E+00  0.00000000000E+00 -0.47294325919E+03  0.47294325919E+03  0.25500000920E-02 0. -1.
    10030    2    1    2    0    0  0.00000000000E+00  0.00000000000E+00  0.88003927984E+03  0.18259257982E+04  0.15998549580E+04 0.  0.
        4    1    3    3  502    0 -0.48015730755E+03 -0.43065699412E+03  0.98002299599E+03  0.11732276728E+04  0.12699999809E+01 0.  1.
       -4    1    3    3    0  502  0.48015730755E+03  0.43065699412E+03 -0.99983716149E+02  0.65269812545E+03  0.12699999809E+01 0. -1.
</event>
<event>
 5   0  0.4256406E-05  0.1603960E+04  0.7818609E-02  0.8818119E-01
       -1   -1    0    0    0  501  0.00000000000E+00  0.00000000000E+00  0.59669525501E+03  0.59669525503E+03  0.50400001928E-02 0.  1.
        1   -1    0    0  501    0  0.00000000000E+00  0.00000000000E+00 -0.10778898353E+04  0.10778898353E+04  0.50400001928E-02 0. -1.
    10030    2    1    2    0    0  0.00000000000E+00  0.00000000000E+00 -0.48119458028E+03  0.16745850903E+04  0.16039597877E+04 0.  0.
        3    1    3    3  502    0  0.78160110261E+03 -0.55662654938E+01 -0.53134771865E+02  0.78342490457E+03  0.10100000352E+00 0.  1.
       -3    1    3    3    0  502 -0.78160110261E+03  0.55662654938E+01 -0.42805980841E+03  0.89116018577E+03  0.10100000352E+00 0. -1.
</event>
<event>
 5   0  0.8037548E-05  0.1601952E+04  0.7818609E-02  0.8819350E-01
       -2   -1    0    0    0  501  0.00000000000E+00  0.00000000000E+00  0.88580797372E+03  0.88580797372E+03  0.25500000920E-02 0. -1.
        2   -1    0    0  501    0  0.00000000000E+00  0.00000000000E+00 -0.72426843662E+03  0.72426843663E+03  0.25500000920E-02 0.  1.
    10030    2    1    2    0    0  0.00000000000E+00  0.00000000000E+00  0.16153953709E+03  0.16100764103E+04  0.16019522543E+04 0.  0.
        5    1    3    3  502    0  0.27065477502E+03  0.20448047389E+03  0.81003506316E+03  0.87820565074E+03  0.46999998093E+01 0. -1.
       -5    1    3    3    0  502 -0.27065477502E+03 -0.20448047389E+03 -0.64849552606E+03  0.73187075961E+03  0.46999998093E+01 0.  1.
</event>
<event>
 5   0  0.4256406E-05  0.1594562E+04  0.7818609E-02  0.8823896E-01
        1   -1    0    0  501    0  0.00000000000E+00  0.00000000000E+00  0.60557030104E+03  0.60557030106E+03  0.50400001928E-02 0.  1.
       -1   -1    0    0    0  501  0.00000000000E+00  0.00000000000E+00 -0.10496828143E+04  0.10496828143E+04  0.50400001928E-02 0. -1.
    10030    2    1    2    0    0  0.00000000000E+00  0.00000000000E+00 -0.44411251325E+03  0.16552531154E+04  0.15945616801E+04 0.  0.
        3    1    3    3  502    0  0.43633324821E+03  0.11353899159E+03  0.46052655487E+03  0.64448624814E+03  0.10100000352E+00 0.  1.
       -3    1    3    3    0  502 -0.43633324821E+03 -0.11353899159E+03 -0.90463906812E+03  0.10107668672E+04  0.10100000352E+00 0. -1.
</event>
<event>
 5   0  0.8694033E-05  0.1598817E+04  0.7818609E-02  0.8821275E-01
       -2   -1    0    0    0  501  0.00000000000E+00  0.00000000000E+00  0.35460497687E+03  0.35460497688E+03  0.25500000920E-02 0. -1.
        2   -1    0    0  501    0  0.00000000000E+00  0.00000000000E+00 -0.18021577070E+04  0.18021577070E+04  0.25500000920E-02 0.  1.
    10030    2    1    2    0    0  0.00000000000E+00  0.00000000000E+00 -0.14475527301E+04  0.21567626839E+04  0.15988171778E+04 0.  0.
        1    1    3    3  502    0 -0.44206480284E+02 -0.61701753856E+03 -0.14068278650E+04  0.15368244850E+04  0.50400001928E-02 0.  1.
       -1    1    3    3    0  502  0.44206480284E+02  0.61701753856E+03 -0.40724865091E+02  0.61993819889E+03  0.50400001928E-02 0. -1.
</event>
<event>
 5   0  0.4256406E-05  0.1601721E+04  0.7818609E-02  0.8819491E-01
       -1   -1    0    0    0  501  0.00000000000E+00  0.00000000000E+00  0.68841544710E+03  0.68841544711E+03  0.50400001928E-02 0.  1.
        1   -1    0    0  501    0  0.00000000000E+00  0.00000000000E+00 -0.93167277535E+03  0.93167277536E+03  0.50400001928E-02 0. -1.
    10030    2    1    2    0    0  0.00000000000E+00  0.00000000000E+00 -0.24325732825E+03  0.16200882225E+04  0.16017214867E+04 0.  0.
        3    1    3    3  502    0 -0.10512032022E+03  0.78803182893E+03 -0.23910939712E+02  0.79537172968E+03  0.10100000352E+00 0.  1.
       -3    1    3    3    0  502  0.10512032022E+03 -0.78803182893E+03 -0.21934638854E+03  0.82471649280E+03  0.10100000352E+00 0. -1.
</event>
<event>
 5   0  0.8037548E-05  0.1596426E+04  0.7818609E-02  0.8822747E-01
       -2   -1    0    0    0  501  0.00000000000E+00  0.00000000000E+00  0.57297889984E+03  0.57297889985E+03  0.25500000920E-02 0. -1.
        2   -1    0    0  501    0  0.00000000000E+00  0.00000000000E+00 -0.11119851694E+04  0.11119851694E+04  0.25500000920E-02 0.  1.
    10030    2    1    2    0    0  0.00000000000E+00  0.00000000000E+00 -0.53900626951E+03  0.16849640692E+04  0.15964260572E+04 0.  0.
        5    1    3    3  502    0  0.24838326118E+03  0.75856042944E+03 -0.27342107438E+03  0.84373535155E+03  0.46999998093E+01 0. -1.
       -5    1    3    3    0  502 -0.24838326118E+03 -0.75856042944E+03 -0.26558519513E+03  0.84122871766E+03  0.46999998093E+01 0.  1.
</event>
<event>
 5   0  0.7849690E-05  0.1600059E+04  0.7818609E-02  0.8820512E-01
        2   -1    0    0  501    0  0.00000000000E+00  0.00000000000E+00  0.51581122333E+03  0.51581122334E+03  0.25500000920E-02 0. -1.
       -2   -1    0    0    0  501  0.00000000000E+00  0.00000000000E+00 -0.12408548574E+04  0.12408548574E+04  0.25500000920E-02 0.  1.
    10030    2    1    2    0    0  0.00000000000E+00  0.00000000000E+00 -0.72504363403E+03  0.17566660807E+04  0.16000585764E+04 0.  0.
        3    1    3    3  502    0 -0.43027010791E+03  0.18388780545E+03 -0.10749577752E+04  0.11723827529E+04  0.10100000352E+00 0.  1.
       -3    1    3    3    0  502  0.43027010791E+03 -0.18388780545E+03  0.34991414114E+03  0.58428332778E+03  0.10100000352E+00 0. -1.
</event>
<event>
 5   0  0.7849690E-05  0.1599901E+04  0.7818609E-02  0.8820609E-01
       -2   -1    0    0    0  501  0.00000000000E+00  0.00000000000E+00  0.45978722350E+03  0.45978722350E+03  0.25500000920E-02 0. -1.
        2   -1    0    0  501    0  0.00000000000E+00  0.00000000000E+00 -0.13917767967E+04  0.13917767967E+04  0.25500000920E-02 0.  1.
    10030    2    1    2    0    0  0.00000000000E+00  0.00000000000E+00 -0.93198957318E+03  0.18515640202E+04  0.15999014833E+04 0.  0.
        3    1    3    3  502    0 -0.17422714304E+03  0.17285660933E+03  0.41513960051E+03  0.48226072085E+03  0.10100000352E+00 0. -1.
       -3    1    3    3    0  502  0.17422714304E+03 -0.17285660933E+03 -0.13471291737E+04  0.13693032993E+04  0.10100000352E+00 0.  1.
</event>
<event>
 5   0  0.4504463E-05  0.1598959E+04  0.7818609E-02  0.8821188E-01
        1   -1    0    0  501    0  0.00000000000E+00  0.00000000000E+00  0.61070190925E+03  0.61070190928E+03  0.50400001928E-02 0. -1.
       -1   -1    0    0    0  501  0.00000000000E+00  0.00000000000E+00 -0.10466107714E+04  0.10466107714E+04  0.50400001928E-02 0.  1.
    10030    2    1    2    0    0  0.00000000000E+00  0.00000000000E+00 -0.43590886214E+03  0.16573126807E+04  0.15989586566E+04 0.  0.
        1    1    3    3  502    0 -0.10801192825E+02 -0.70804249460E+02  0.60736984355E+03  0.61157831419E+03  0.50400001928E-02 0. -1.
       -1    1    3    3    0  502  0.10801192825E+02  0.70804249460E+02 -0.10432787057E+04  0.10457343665E+04  0.50400001928E-02 0.  1.
</event>
<event>
 5   0  0.4373026E-05  0.1590304E+04  0.7818609E-02  0.8826527E-01
       -1   -1    0    0    0  501  0.00000000000E+00  0.00000000000E+00  0.73253502719E+03  0.73253502721E+03  0.50400001928E-02 0. -1.
        1   -1    0    0  501    0  0.00000000000E+00  0.00000000000E+00 -0.86312099372E+03  0.86312099374E+03  0.50400001928E-02 0.  1.
    10030    2    1    2    0    0  0.00000000000E+00  0.00000000000E+00 -0.13058596653E+03  0.15956560209E+04  0.15903035693E+04 0.  0.
        4    1    3    3  502    0  0.24694088860E+03  0.40463476082E+03  0.57525652731E+03  0.74540645103E+03  0.12699999809E+01 0. -1.
       -4    1    3    3    0  502 -0.24694088860E+03 -0.40463476082E+03 -0.70584249384E+03  0.85024956992E+03  0.12699999809E+01 0.  1.
</event>
<event>
 5   0  0.4504463E-05  0.1600823E+04  0.7818609E-02  0.8820042E-01
       -1   -1    0    0    0  501  0.00000000000E+00  0.00000000000E+00  0.82052202552E+03  0.82052202554E+03  0.50400001928E-02 0.  1.
        1   -1    0    0  501    0  0.00000000000E+00  0.00000000000E+00 -0.78079418832E+03  0.78079418833E+03  0.50400001928E-02 0. -1.
    10030    2    1    2    0    0  0.00000000000E+00  0.00000000000E+00  0.39727837205E+02  0.16013162139E+04  0.16008233243E+04 0.  0.
        1    1    3    3  502    0  0.10159377870E+03 -0.51124963821E+03 -0.58774498523E+03  0.78558364044E+03  0.50400001928E-02 0. -1.
       -1    1    3    3    0  502 -0.10159377870E+03  0.51124963821E+03  0.62747282243E+03  0.81573257343E+03  0.50400001928E-02 0.  1.
</event>
<event>
 5   0  0.3042125E-05  0.1614190E+04  0.7818609E-02  0.8811878E-01
       -3   -1    0    0    0  501  0.00000000000E+00  0.00000000000E+00  0.58646721872E+03  0.58646722742E+03  0.10100000352E+00 0.  1.
        3   -1    0    0  501    0  0.00000000000E+00  0.00000000000E+00 -0.11107225326E+04  0.11107225372E+04  0.10100000352E+00 0. -1.
    10030    2    1    2    0    0  0.00000000000E+00  0.00000000000E+00 -0.52425531393E+03  0.16971897647E+04  0.16141900331E+04 0.  0.
        2    1    3    3  502    0 -0.69955196343E+03  0.26422342706E+03  0.57156568446E+02  0.74996922755E+03  0.25500000920E-02 0. -1.
       -2    1    3    3    0  502  0.69955196343E+03 -0.26422342706E+03 -0.58141188238E+03  0.94722053711E+03  0.25500000920E-02 0.  1.
</event>
<event>
 5   0  0.4256406E-05  0.1592290E+04  0.7818609E-02  0.8825298E-01
       -1   -1    0    0    0  501  0.00000000000E+00  0.00000000000E+00  0.11930208156E+04  0.11930208157E+04  0.50400001928E-02 0. -1.
        1   -1    0    0  501    0  0.00000000000E+00  0.00000000000E+00 -0.53129605640E+03  0.53129605643E+03  0.50400001928E-02 0.  1.
    10030    2    1    2    0    0  0.00000000000E+00  0.00000000000E+00  0.66172475924E+03  0.17243168721E+04  0.15922904943E+04 0.  0.
        3    1    3    3  502    0  0.76986742866E+03  0.12276073647E+03  0.15597500342E+03  0.79504356360E+03  0.10100000352E+00 0.  1.
       -3    1    3    3    0  502 -0.76986742866E+03 -0.12276073647E+03  0.50574975582E+03  0.92927330848E+03  0.10100000352E+00 0. -1.
</event>
<event>
 5   0  0.4373026E-05  0.1601607E+04  0.7818609E-02  0.8819561E-01
        1   -1    0    0  501    0  0.00000000000E+00  0.00000000000E+00  0.70813927495E+03  0.70813927497E+03  0.50400001928E-02 0. -1.
       -1   -1    0    0    0  501  0.00000000000E+00  0.00000000000E+00 -0.90559333474E+03  0.90559333476E+03  0.50400001928E-02 0.  1.
    10030    2    1    2    0    0  0.00000000000E+00  0.00000000000E+00 -0.19745405979E+03  0.16137326097E+04  0.16016069524E+04 0.  0.
        4    1    3    3  502    0  0.14064779572E+03 -0.67314314835E+03  0.31472230079E+03  0.75627722439E+03  0.12699999809E+01 0. -1.
       -4    1    3    3    0  502 -0.14064779572E+03  0.67314314835E+03 -0.51217636059E+03  0.85745538534E+03  0.12699999809E+01 0.  1.
</event>
<event>
 5   0  0.4211419E-05  0.1605435E+04  0.7818609E-02  0.8817216E-01
       -1   -1    0    0    0  501  0.00000000000E+00  0.00000000000E+00  0.81179751671E+03  0.81179751672E+03  0.50400001928E-02 0. -1.
        1   -1    0    0  501    0  0.00000000000E+00  0.00000000000E+00 -0.79373862385E+03  0.79373862387E+03  0.50400001928E-02 0.  1.
    10030    2    1    2    0    0  0.00000000000E+00  0.00000000000E+00  0.18058892852E+02  0.16055361406E+04  0.16054345752E+04 0.  0.
        2    1    3    3  502    0 -0.58939522211E+03  0.45612039877E+03  0.30724706698E+03  0.80612238909E+03  0.25500000920E-02 0. -1.
       -2    1    3    3    0  502  0.58939522211E+03 -0.45612039877E+03 -0.28918817412E+03  0.79941375150E+03  0.25500000920E-02 0.  1.
</event>
<event>
 5   0  0.7901257E-05  0.1600847E+04  0.7818609E-02  0.8820028E-01
        2   -1    0    0  501    0  0.00000000000E+00  0.00000000000E+00  0.10632552644E+04  0.10632552644E+04  0.25500000920E-02 0. -1.
       -2   -1    0    0    0  501  0.00000000000E+00  0.00000000000E+00 -0.60256254795E+03  0.60256254796E+03  0.25500000920E-02 0.  1.
    10030    2    1    2    0    0  0.00000000000E+00  0.00000000000E+00  0.46069271641E+03  0.16658178123E+04  0.16008470273E+04 0.  0.
        2    1    3    3  502    0 -0.71109447912E+03  0.31847715126E+03  0.42107387558E+03  0.88565583768E+03  0.25500000920E-02 0. -1.
       -2    1    3    3    0  502  0.71109447912E+03 -0.31847715126E+03  0.39618840831E+02  0.78016197464E+03  0.25500000920E-02 0.  1.
</event>
<event>
 5   0  0.4314657E-05  0.1608826E+04  0.7818609E-02  0.8815144E-01
       -1   -1    0    0    0  501  0.00000000000E+00  0.00000000000E+00  0.49212666287E+03  0.49212666290E+03  0.50400001928E-02 0.  1.
        1   -1    0    0  501    0  0.00000000000E+00  0.00000000000E+00 -0.13148652799E+04  0.13148652799E+04  0.50400001928E-02 0. -1.
    10030    2    1    2    0    0  0.00000000000E+00  0.00000000000E+00 -0.82273861698E+03  0.18069919428E+04  0.16088259848E+04 0.  0.
        5    1    3    3  502    0 -0.53071367179E+03  0.55082539124E+03 -0.69102066285E+03  0.10308235831E+04  0.46999998093E+01 0. -1.
       -5    1    3    3    0  502  0.53071367179E+03 -0.55082539124E+03 -0.13171795414E+03  0.77616835963E+03  0.46999998093E+01 0.  1.
</event>
<event>
 5   0  0.4256406E-05  0.1628102E+04  0.7818609E-02  0.8803467E-01
       -1   -1    0    0    0  501  0.00000000000E+00  0.00000000000E+00  0.10602652196E+04  0.10602652197E+04  0.50400001928E-02 0. -1.
        1   -1    0    0  501    0  0.00000000000E+00  0.00000000000E+00 -0.62501278453E+03  0.62501278455E+03  0.50400001928E-02 0.  1.
    10030    2    1    2    0    0  0.00000000000E+00  0.00000000000E+00  0.43525243511E+03  0.16852780042E+04  0.16281023522E+04 0.  0.
        3    1    3    3  502    0  0.70934799763E+03 -0.37812341057E+03  0.84552505399E+02  0.80827039519E+03  0.10100000352E+00 0.  1.
       -3    1    3    3    0  502 -0.70934799763E+03  0.37812341057E+03  0.35069992971E+03  0.87700760901E+03  0.10100000352E+00 0. -1.
</event>
<event>
 5   0  0.7901257E-05  0.1604679E+04  0.7818609E-02  0.8817678E-01
        2   -1    0    0  501    0  0.00000000000E+00  0.00000000000E+00  0.12409700199E+04  0.12409700199E+04  0.25500000920E-02 0.  1.
       -2   -1    0    0    0  501  0.00000000000E+00  0.00000000000E+00 -0.51874656011E+03  0.51874656011E+03  0.25500000920E-02 0. -1.
    10030    2    1    2    0    0  0.00000000000E+00  0.00000000000E+00  0.72222345980E+03  0.17597165800E+04  0.16046793188E+04 0.  0.
        2    1    3    3  502    0 -0.76253967722E+03  0.10037352154E+03  0.61167660762E+03  0.98269520986E+03  0.25500000920E-02 0.  1.
       -2    1    3    3    0  502  0.76253967722E+03 -0.10037352154E+03  0.11054685218E+03  0.77702137017E+03  0.25500000920E-02 0. -1.
</event>
<event>
 5   0  0.4211419E-05  0.1599534E+04  0.7818609E-02  0.8820834E-01
        1   -1    0    0  501    0  0.00000000000E+00  0.00000000000E+00  0.94707749597E+03  0.94707749598E+03  0.50400001928E-02 0. -1.
       -1   -1    0    0    0  501  0.00000000000E+00  0.00000000000E+00 -0.67536958949E+03  0.67536958951E+03  0.50400001928E-02 0.  1.
    10030    2    1    2    0    0  0.00000000000E+00  0.00000000000E+00  0.27170790648E+03  0.16224470855E+04  0.15995341068E+04 0.  0.
        2    1    3    3  502    0  0.65873381792E+03 -0.35647669403E+03 -0.14855783852E+03  0.76359367968E+03  0.25500000920E-02 0. -1.
       -2    1    3    3    0  502 -0.65873381792E+03  0.35647669403E+03  0.42026574500E+03  0.85885340581E+03  0.25500000920E-02 0.  1.
</event>
<event>
 5   0  0.4314657E-05  0.1599386E+04  0.7818609E-02  0.8820925E-01
       -1   -1    0    0    0  501  0.00000000000E+00  0.00000000000E+00  0.96204299815E+03  0.96204299817E+03  0.50400001928E-02 0.  1.
        1   -1    0    0  501    0  0.00000000000E+00  0.00000000000E+00 -0.66474063154E+03  0.66474063156E+03  0.50400001928E-02 0. -1.
    10030    2    1    2    0    0  0.00000000000E+00  0.00000000000E+00  0.29730236661E+03  0.16267836297E+04  0.15993862200E+04 0.  0.
        5    1    3    3  502    0 -0.60155051670E+03 -0.51527608694E+02  0.68200843144E+03  0.91086536280E+03  0.46999998093E+01 0.  1.
       -5    1    3    3    0  502  0.60155051670E+03  0.51527608694E+02 -0.38470606482E+03  0.71591826692E+03  0.46999998093E+01 0. -1.
</event>
<event>
 5   0  0.8694033E-05  0.1598973E+04  0.7818609E-02  0.8821179E-01
        2   -1    0    0  501    0  0.00000000000E+00  0.00000000000E+00  0.89344218435E+03  0.89344218436E+03  0.25500000920E-02 0. -1.
       -2   -1    0    0    0  501  0.00000000000E+00  0.00000000000E+00 -0.71541152575E+03  0.71541152575E+03  0.25500000920E-02 0.  1.
    10030    2    1    2    0    0  0.00000000000E+00  0.00000000000E+00  0.17803065861E+03  0.16088537101E+04  0.15989732159E+04 0.  0.
        1    1    3    3  502    0 -0.77044198414E+03 -0.17384200068E+03 -0.35754731154E+02  0.79062019513E+03  0.50400001928E-02 0.  1.
       -1    1    3    3    0  502  0.77044198414E+03  0.17384200068E+03  0.21378538976E+03  0.81823351498E+03  0.50400001928E-02 0. -1.
</event>
<event>
 5   0  0.7901257E-05  0.1611890E+04  0.7818609E-02  0.8813277E-01
       -2   -1    0    0    0  501  0.00000000000E+00  0.00000000000E+00  0.44505744501E+03  0.44505744502E+03  0.25500000920E-02 0. -1.
        2   -1    0    0  501    0  0.00000000000E+00  0.00000000000E+00 -0.14594680915E+04  0.14594680915E+04  0.25500000920E-02 0.  1.
    10030    2    1    2    0    0  0.00000000000E+00  0.00000000000E+00 -0.10144106465E+04  0.19045255365E+04  0.16118897480E+04 0.  0.
        2    1    3    3  502    0  0.66192487284E+03 -0.35385540496E+03 -0.16032690941E+03  0.76750433405E+03  0.25500000920E-02 0. -1.
       -2    1    3    3    0  502 -0.66192487284E+03  0.35385540496E+03 -0.85408373708E+03  0.11370212025E+04  0.25500000920E-02 0.  1.
</event>
<event>
 5   0  0.8620155E-05  0.1602341E+04  0.7818609E-02  0.8819111E-01
       -2   -1    0    0    0  501  0.00000000000E+00  0.00000000000E+00  0.32645697376E+03  0.32645697377E+03  0.25500000920E-02 0. -1.
        2   -1    0    0  501    0  0.00000000000E+00  0.00000000000E+00 -0.19661825370E+04  0.19661825370E+04  0.25500000920E-02 0.  1.
    10030    2    1    2    0    0  0.00000000000E+00  0.00000000000E+00 -0.16397255633E+04  0.22926395108E+04  0.16023407889E+04 0.  0.
        4    1    3    3  502    0 -0.31627060051E+01  0.36190043409E+03  0.20282903664E+03  0.41487728053E+03  0.12699999809E+01 0. -1.
       -4    1    3    3    0  502  0.31627060051E+01 -0.36190043409E+03 -0.18425545999E+04  0.18777622303E+04  0.12699999809E+01 0.  1.
</event>
<event>
 5   0  0.8037548E-05  0.1599577E+04  0.7818609E-02  0.8820808E-01
       -2   -1    0    0    0  501  0.00000000000E+00  0.00000000000E+00  0.50536385868E+03  0.50536385869E+03  0.25500000920E-02 0. -1.
        2   -1    0    0  501    0  0.00000000000E+00  0.00000000000E+00 -0.12657454209E+04  0.12657454209E+04  0.25500000920E-02 0.  1.
    10030    2    1    2    0    0  0.00000000000E+00  0.00000000000E+00 -0.76038156225E+03  0.17711092796E+04  0.15995774317E+04 0.  0.
        5    1    3    3  502    0 -0.37772107809E+03 -0.44339246892E+03 -0.98702243589E+03  0.11460826642E+04  0.46999998093E+01 0. -1.
       -5    1    3    3    0  502  0.37772107809E+03  0.44339246892E+03  0.22664087364E+03  0.62502661538E+03  0.46999998093E+01 0.  1.
</event>
<event>
 5   0  0.8620155E-05  0.1596981E+04  0.7818609E-02  0.8822405E-01
       -2   -1    0    0    0  501  0.00000000000E+00  0.00000000000E+00  0.59763030246E+03  0.59763030247E+03  0.25500000920E-02 0. -1.
        2   -1    0    0  501    0  0.00000000000E+00  0.00000000000E+00 -0.10668580724E+04  0.10668580724E+04  0.25500000920E-02 0.  1.
    10030    2    1    2    0    0  0.00000000000E+00  0.00000000000E+00 -0.46922776993E+03  0.16644883749E+04  0.15969805415E+04 0.  0.
        4    1    3    3  502    0 -0.34443004909E+02  0.28519440991E+03  0.54190541219E+03  0.61333943351E+03  0.12699999809E+01 0. -1.
       -4    1    3    3    0  502  0.34443004909E+02 -0.28519440991E+03 -0.10111331821E+04  0.10511489414E+04  0.12699999809E+01 0.  1.
</event>
<event>
 5   0  0.8694033E-05  0.1627960E+04  0.7818609E-02  0.8803553E-01
        2   -1    0    0  501    0  0.00000000000E+00  0.00000000000E+00  0.10539243070E+04  0.10539243070E+04  0.25500000920E-02 0. -1.
       -2   -1    0    0    0  501  0.00000000000E+00  0.00000000000E+00 -0.62866304941E+03  0.62866304941E+03  0.25500000920E-02 0.  1.
    10030    2    1    2    0    0  0.00000000000E+00  0.00000000000E+00  0.42526125757E+03  0.16825873564E+04  0.16279597890E+04 0.  0.
        1    1    3    3  502    0 -0.59597342022E+03 -0.52340674617E+03  0.23672622922E+02  0.79353596809E+03  0.50400001928E-02 0.  1.
       -1    1    3    3    0  502  0.59597342022E+03  0.52340674617E+03  0.40158863465E+03  0.88905138830E+03  0.50400001928E-02 0. -1.
</event>
<event>
 5   0  0.4211419E-05  0.1599060E+04  0.7818609E-02  0.8821126E-01
        1   -1    0    0  501    0  0.00000000000E+00  0.00000000000E+00  0.11667792644E+04  0.11667792644E+04  0.50400001928E-02 0.  1.
       -1   -1    0    0    0  501  0.00000000000E+00  0.00000000000E+00 -0.54787424154E+03  0.54787424157E+03  0.50400001928E-02 0. -1.
    10030    2    1    2    0    0  0.00000000000E+00  0.00000000000E+00  0.61890502286E+03  0.17146535060E+04  0.15990601046E+04 0.  0.
        2    1    3    3  502    0 -0.24668478974E+03 -0.64682556943E+03 -0.11947837509E+03  0.70250393940E+03  0.25500000920E-02 0. -1.
       -2    1    3    3    0  502  0.24668478974E+03  0.64682556943E+03  0.73838339794E+03  0.10121495666E+04  0.25500000920E-02 0.  1.
</event>
<event>
 5   0  0.7901257E-05  0.1601373E+04  0.7818609E-02  0.8819705E-01
       -2   -1    0    0    0  501  0.00000000000E+00  0.00000000000E+00  0.54893551368E+03  0.54893551368E+03  0.25500000920E-02 0.  1.
        2   -1    0    0  501    0  0.00000000000E+00  0.00000000000E+00 -0.11678939936E+04  0.11678939936E+04  0.25500000920E-02 0. -1.
    10030    2    1    2    0    0  0.00000000000E+00  0.00000000000E+00 -0.61895847996E+03  0.17168295073E+04  0.16013725230E+04 0.  0.
        2    1    3    3  502    0 -0.63167600855E+03  0.48591168870E+03 -0.22661675246E+03  0.82854082669E+03  0.25500000920E-02 0.  1.
       -2    1    3    3    0  502  0.63167600855E+03 -0.48591168870E+03 -0.39234172750E+03  0.88828868063E+03  0.25500000920E-02 0. -1.
</event>
<event>
 5   0  0.7849690E-05  0.1601408E+04  0.7818609E-02  0.8819683E-01
        2   -1    0    0  501    0  0.00000000000E+00  0.00000000000E+00  0.63153793434E+03  0.63153793435E+03  0.25500000920E-02 0.  1.
       -2   -1    0    0    0  501  0.00000000000E+00  0.00000000000E+00 -0.10151835963E+04  0.10151835964E+04  0.25500000920E-02 0. -1.
    10030    2    1    2    0    0  0.00000000000E+00  0.00000000000E+00 -0.38364566200E+03  0.16467215307E+04  0.16014080697E+04 0.  0.
        3    1    3    3  502    0 -0.40722649299E+03  0.12425892575E+03  0.50549019579E+03  0.66090396084E+03  0.10100000352E+00 0.  1.
       -3    1    3    3    0  502  0.40722649299E+03 -0.12425892575E+03 -0.88913585779E+03  0.98581756985E+03  0.10100000352E+00 0. -1.
</event>
<event>
 5   0  0.8037548E-05  0.1601473E+04  0.7818609E-02  0.8819644E-01
       -2   -1    0    0    0  501  0.00000000000E+00  0.00000000000E+00  0.41398159523E+03  0.41398159524E+03  0.25500000920E-02 0.  1.
        2   -1    0    0  501    0  0.00000000000E+00  0.00000000000E+00 -0.15488105324E+04  0.15488105325E+04  0.25500000920E-02 0. -1.
    10030    2    1    2    0    0  0.00000000000E+00  0.00000000000E+00 -0.11348289372E+04  0.19627921277E+04  0.16014731405E+04 0.  0.
        5    1    3    3  502    0  0.47547065989E+02  0.67743227742E+03 -0.10873732109E+04  0.12820209841E+04  0.46999998093E+01 0. -1.
       -5    1    3    3    0  502 -0.47547065989E+02 -0.67743227742E+03 -0.47455726350E+02  0.68077114359E+03  0.46999998093E+01 0.  1.
</event>
<event>
 5   0  0.8694033E-05  0.1600269E+04  0.7818609E-02  0.8820383E-01
       -2   -1    0    0    0  501  0.00000000000E+00  0.00000000000E+00  0.33067247830E+03  0.33067247831E+03  0.25500000920E-02 0.  1.
        2   -1    0    0  501    0  0.00000000000E+00  0.00000000000E+00 -0.19361005722E+04  0.19361005722E+04  0.25500000920E-02 0. -1.
    10030    2    1    2    0    0  0.00000000000E+00  0.00000000000E+00 -0.16054280939E+04  0.22667730505E+04  0.16002689455E+04 0.  0.
        1    1    3    3  502    0  0.48606985894E+03  0.63518781425E+03 -0.83399606001E+03  0.11555418189E+04  0.50400001928E-02 0.  1.
       -1    1    3    3    0  502 -0.48606985894E+03 -0.63518781425E+03 -0.77143203391E+03  0.11112312316E+04  0.50400001928E-02 0. -1.
</event>
<event>
 5   0  0.4504463E-05  0.1599819E+04  0.7818609E-02  0.8820659E-01
       -1   -1    0    0    0  501  0.00000000000E+00  0.00000000000E+00  0.46626619860E+03  0.46626619863E+03  0.50400001928E-02 0.  1.
        1   -1    0    0  501    0  0.00000000000E+00  0.00000000000E+00 -0.13722961551E+04  0.13722961552E+04  0.50400001928E-02 0. -1.
    10030    2    1    2    0    0  0.00000000000E+00  0.00000000000E+00 -0.90602995655E+03  0.18385623538E+04  0.15998191293E+04 0.  0.
        1    1    3    3  502    0  0.32383489290E+03  0.56194134183E+03 -0.99108138435E+03  0.11844363301E+04  0.50400001928E-02 0. -1.
       -1    1    3    3    0  502 -0.32383489290E+03 -0.56194134183E+03  0.85051427798E+02  0.65412602373E+03  0.50400001928E-02 0.  1.
</event>
<event>
 5   0  0.7901257E-05  0.1602721E+04  0.7818609E-02  0.8818878E-01
        2   -1    0    0  501    0  0.00000000000E+00  0.00000000000E+00  0.12235833821E+04  0.12235833821E+04  0.25500000920E-02 0. -1.
       -2   -1    0    0    0  501  0.00000000000E+00  0.00000000000E+00 -0.52483469931E+03  0.52483469932E+03  0.25500000920E-02 0.  1.
    10030    2    1    2    0    0  0.00000000000E+00  0.00000000000E+00  0.69874868278E+03  0.17484180814E+04  0.16027214561E+04 0.  0.
        2    1    3    3  502    0  0.69547646681E+02  0.66709038135E+03 -0.12905042028E+03  0.68300839162E+03  0.25500000920E-02 0.  1.
       -2    1    3    3    0  502 -0.69547646681E+02 -0.66709038135E+03  0.82779910307E+03  0.10654096898E+04  0.25500000920E-02 0. -1.
</event>
<event>
 5   0  0.4256406E-05  0.1601203E+04  0.7818609E-02  0.8819810E-01
       -1   -1    0    0    0  501  0.00000000000E+00  0.00000000000E+00  0.11961680691E+04  0.11961680691E+04  0.50400001928E-02 0. -1.
        1   -1    0    0  501    0  0.00000000000E+00  0.00000000000E+00 -0.53584649766E+03  0.53584649768E+03  0.50400001928E-02 0.  1.
    10030    2    1    2    0    0  0.00000000000E+00  0.00000000000E+00  0.66032157144E+03  0.17320145668E+04  0.16012026361E+04 0.  0.
        3    1    3    3  502    0 -0.36196840274E+03 -0.49874850116E+02  0.11007155559E+04  0.11597772935E+04  0.10100000352E+00 0. -1.
       -3    1    3    3    0  502  0.36196840274E+03  0.49874850116E+02 -0.44039398444E+03  0.57223727333E+03  0.10100000352E+00 0.  1.
</event>
<event>
 5   0  0.8037548E-05  0.1603500E+04  0.7818609E-02  0.8818401E-01
       -2   -1    0    0    0  501  0.00000000000E+00  0.00000000000E+00  0.32626046679E+03  0.32626046680E+03  0.25500000920E-02 0.  1.
        2   -1    0    0  501    0  0.00000000000E+00  0.00000000000E+00 -0.19702150603E+04  0.19702150603E+04  0.25500000920E-02 0. -1.
    10030    2    1    2    0    0  0.00000000000E+00  0.00000000000E+00 -0.16439545935E+04  0.22964755271E+04  0.16035002779E+04 0.  0.
        5    1    3    3  502    0  0.24917787881E+03 -0.25033799149E+03 -0.18527599024E+04  0.18861336303E+04  0.46999998093E+01 0. -1.
       -5    1    3    3    0  502 -0.24917787881E+03  0.25033799149E+03  0.20880530890E+03  0.41034189683E+03  0.46999998093E+01 0.  1.
</event>
<event>
 5   0  0.4211419E-05  0.1580218E+04  0.7818609E-02  0.8832794E-01
        1   -1    0    0  501    0  0.00000000000E+00  0.00000000000E+00  0.41342581430E+03  0.41342581433E+03  0.50400001928E-02 0. -1.
       -1   -1    0    0    0  501  0.00000000000E+00  0.00000000000E+00 -0.15099973082E+04  0.15099973082E+04  0.50400001928E-02 0.  1.
    10030    2    1    2    0    0  0.00000000000E+00  0.00000000000E+00 -0.10965714939E+04  0.19234231225E+04  0.15802175379E+04 0.  0.
        2    1    3    3  502    0  0.25982293491E+03 -0.34062000975E+03  0.25978639327E+03  0.50101788260E+03  0.25500000920E-02 0. -1.
       -2    1    3    3    0  502 -0.25982293491E+03  0.34062000975E+03 -0.13563578871E+04  0.14224052399E+04  0.25500000920E-02 0.  1.
</event>
<event>
 5   0  0.8620155E-05  0.1583692E+04  0.7818609E-02  0.8830630E-01
        2   -1    0    0  501    0  0.00000000000E+00  0.00000000000E+00  0.42014276714E+03  0.42014276715E+03  0.25500000920E-02 0. -1.
       -2   -1    0    0    0  501  0.00000000000E+00  0.00000000000E+00 -0.14923978231E+04  0.14923978232E+04  0.25500000920E-02 0.  1.
    10030    2    1    2    0    0  0.00000000000E+00  0.00000000000E+00 -0.10722550560E+04  0.19125405903E+04  0.15836920800E+04 0.  0.
        4    1    3    3  502    0  0.62404572500E+03  0.35868587152E+03 -0.13754936398E+03  0.73280970365E+03  0.12699999809E+01 0. -1.
       -4    1    3    3    0  502 -0.62404572500E+03 -0.35868587152E+03 -0.93470569202E+03  0.11797308867E+04  0.12699999809E+01 0.  1.
</event>
<event>
 5   0  0.4504463E-05  0.1602542E+04  0.7818609E-02  0.8818988E-01
       -1   -1    0    0    0  501  0.00000000000E+00  0.00000000000E+00  0.13908252931E+04  0.13908252931E+04  0.50400001928E-02 0. -1.
        1   -1    0    0  501    0  0.00000000000E+00  0.00000000000E+00 -0.46162166075E+03  0.46162166078E+03  0.50400001928E-02 0.  1.
    10030    2    1    2    0    0  0.00000000000E+00  0.00000000000E+00  0.92920363236E+03  0.18524469539E+04  0.16025418330E+04 0.  0.
        1    1    3    3  502    0 -0.44231167504E+03  0.56970488179E+03  0.61126699374E+02  0.72383682112E+03  0.50400001928E-02 0.  1.
       -1    1    3    3    0  502  0.44231167504E+03 -0.56970488179E+03  0.86807693299E+03  0.11286101328E+04  0.50400001928E-02 0. -1.
</event>
<event>
 5   0  0.8694033E-05  0.1627015E+04  0.7818609E-02  0.8804121E-01
       -2   -1    0    0    0  501  0.00000000000E+00  0.00000000000E+00  0.25297675549E+03  0.25297675550E+03  0.25500000920E-02 0. -1.
        2   -1    0    0  501    0  0.00000000000E+00  0.00000000000E+00 -0.26160298814E+04  0.26160298814E+04  0.25500000920E-02 0.  1.
    10030    2    1    2    0    0  0.00000000000E+00  0.00000000000E+00 -0.23630531259E+04  0.28690066369E+04  0.16270153677E+04 0.  0.
        1    1    3    3  502    0 -0.58655582546E+03  0.32479258600E+03 -0.19939280231E+04  0.21036365945E+04  0.50400001928E-02 0.  1.
       -1    1    3    3    0  502  0.58655582546E+03 -0.32479258600E+03 -0.36912510283E+03  0.76537004244E+03  0.50400001928E-02 0. -1.
</event>
<event>
 5   0  0.4373026E-05  0.1602052E+04  0.7818609E-02  0.8819288E-01
        1   -1    0    0  501    0  0.00000000000E+00  0.00000000000E+00  0.13484509430E+04  0.13484509430E+04  0.50400001928E-02 0. -1.
       -1   -1    0    0    0  501  0.00000000000E+00  0.00000000000E+00 -0.47583701343E+03  0.47583701346E+03  0.50400001928E-02 0.  1.
    10030    2    1    2    0    0  0.00000000000E+00  0.00000000000E+00  0.87261392960E+03  0.18242879565E+04  0.16020522707E+04 0.  0.
        4    1    3    3  502    0  0.23731441285E+03  0.35039848588E+02 -0.43397218350E+03  0.49586226968E+03  0.12699999809E+01 0.  1.
       -4    1    3    3    0  502 -0.23731441285E+03 -0.35039848588E+02  0.13065861131E+04  0.13284256868E+04  0.12699999809E+01 0. -1.
</event>
<event>
 5   0  0.3042125E-05  0.1599039E+04  0.7818609E-02  0.8821139E-01
        3   -1    0    0  501    0  0.00000000000E+00  0.00000000000E+00  0.13790588565E+04  0.13790588602E+04  0.10100000352E+00 0. -1.
       -3   -1    0    0    0  501  0.00000000000E+00  0.00000000000E+00 -0.46352701842E+03  0.46352702942E+03  0.10100000352E+00 0.  1.
    10030    2    1    2    0    0  0.00000000000E+00  0.00000000000E+00  0.91553183812E+03  0.18425858896E+04  0.15990385280E+04 0.  0.
        5    1    3    3  502    0  0.67511917112E+03  0.81554591443E+02  0.94224546762E+03  0.11620179249E+04  0.46999998093E+01 0. -1.
       -5    1    3    3    0  502 -0.67511917112E+03 -0.81554591443E+02 -0.26713629506E+02  0.68056796472E+03  0.46999998093E+01 0.  1.
</event>
<event>
 5   0  0.7849690E-05  0.1597559E+04  0.7818609E-02  0.8822049E-01
       -2   -1    0    0    0  501  0.00000000000E+00  0.00000000000E+00  0.65817754839E+03  0.65817754840E+03  0.25500000920E-02 0. -1.
        2   -1    0    0  501    0  0.00000000000E+00  0.00000000000E+00 -0.96941713304E+03  0.96941713304E+03  0.25500000920E-02 0.  1.
    10030    2    1    2    0    0  0.00000000000E+00  0.00000000000E+00 -0.31123958464E+03  0.16275946814E+04  0.15975588778E+04 0.  0.
        3    1    3    3  502    0  0.57987369867E+03  0.42584319324E+03  0.19796824943E+03  0.74618186095E+03  0.10100000352E+00 0. -1.
       -3    1    3    3    0  502 -0.57987369867E+03 -0.42584319324E+03 -0.50920783407E+03  0.88141282048E+03  0.10100000352E+00 0.  1.
</event>
<event>
 5   0  0.4256406E-05  0.1593003E+04  0.7818609E-02  0.8824858E-01
        1   -1    0    0  501    0  0.00000000000E+00  0.00000000000E+00  0.12453668087E+04  0.12453668087E+04  0.50400001928E-02 0. -1.
       -1   -1    0    0    0  501  0.00000000000E+00  0.00000000000E+00 -0.50942014242E+03  0.50942014245E+03  0.50400001928E-02 0.  1.
    10030    2    1    2    0    0  0.00000000000E+00  0.00000000000E+00  0.73594666627E+03  0.17547869511E+04  0.15930033736E+04 0.  0.
        3    1    3    3  502    0  0.39315963975E+03  0.62749317670E+03  0.44758740689E+02  0.74183929810E+03  0.10100000352E+00 0. -1.
       -3    1    3    3    0  502 -0.39315963975E+03 -0.62749317670E+03  0.69118792558E+03  0.10129476530E+04  0.10100000352E+00 0.  1.
</event>
<event>
 5   0  0.8694033E-05  0.1600509E+04  0.7818609E-02  0.8820235E-01
       -2   -1    0    0    0  501  0.00000000000E+00  0.00000000000E+00  0.53194795045E+03  0.53194795046E+03  0.25500000920E-02 0. -1.
        2   -1    0    0  501    0  0.00000000000E+00  0.00000000000E+00 -0.12038914572E+04  0.12038914572E+04  0.25500000920E-02 0.  1.
    10030    2    1    2    0    0  0.00000000000E+00  0.00000000000E+00 -0.67194350673E+03  0.17358394076E+04  0.16005094104E+04 0.  0.
        1    1    3    3  502    0  0.30259055909E+03 -0.11952539543E+02  0.46740682903E+03  0.55693182123E+03  0.50400001928E-02 0. -1.
       -1    1    3    3    0  502 -0.30259055909E+03  0.11952539543E+02 -0.11393503358E+04  0.11789075864E+04  0.50400001928E-02 0.  1.
</event>
<event>
 5   0  0.4373026E-05  0.1598553E+04  0.7818609E-02  0.8821438E-01
       -1   -1    0    0    0  501  0.00000000000E+00  0.00000000000E+00  0.55961651797E+03  0.55961651799E+03  0.50400001928E-02 0. -1.
        1   -1    0    0  501    0  0.00000000000E+00  0.00000000000E+00 -0.11415723467E+04  0.11415723467E+04  0.50400001928E-02 0.  1.
    10030    2    1    2    0    0  0.00000000000E+00  0.00000000000E+00 -0.58195582869E+03  0.17011888647E+04  0.15985527726E+04 0.  0.
        4    1    3    3  502    0 -0.31135716891E+03 -0.21117999559E+02  0.49210091538E+03  0.58271277689E+03  0.12699999809E+01 0. -1.
       -4    1    3    3    0  502  0.31135716891E+03  0.21117999559E+02 -0.10740567441E+04  0.11184760878E+04  0.12699999809E+01 0.  1.
</event>
<event>
 5   0  0.7849690E-05  0.1600238E+04  0.7818609E-02  0.8820402E-01
       -2   -1    0    0    0  501  0.00000000000E+00  0.00000000000E+00  0.92944924547E+03  0.92944924547E+03  0.25500000920E-02 0.  1.
        2   -1    0    0  501    0  0.00000000000E+00  0.00000000000E+00 -0.68878470585E+03  0.68878470586E+03  0.25500000920E-02 0. -1.
    10030    2    1    2    0    0  0.00000000000E+00  0.00000000000E+00  0.24066453961E+03  0.16182339513E+04  0.16002380137E+04 0.  0.
        3    1    3    3  502    0 -0.19998618739E+02  0.50376681118E+03 -0.50795130415E+03  0.71567833724E+03  0.10100000352E+00 0. -1.
       -3    1    3    3    0  502  0.19998618739E+02 -0.50376681118E+03  0.74861584376E+03  0.90255561409E+03  0.10100000352E+00 0.  1.
</event>
<event>
 5   0  0.4373026E-05  0.1598301E+04  0.7818609E-02  0.8821593E-01
        1   -1    0    0  501    0  0.00000000000E+00  0.00000000000E+00  0.67877408949E+03  0.67877408951E+03  0.50400001928E-02 0. -1.
       -1   -1    0    0    0  501  0.00000000000E+00  0.00000000000E+00 -0.94087476294E+03  0.94087476295E+03  0.50400001928E-02 0.  1.
    10030    2    1    2    0    0  0.00000000000E+00  0.00000000000E+00 -0.26210067345E+03  0.16196488525E+04  0.15983008610E+04 0.  0.
        4    1    3    3  502    0 -0.43077359997E+03 -0.57895134281E+03  0.21688571352E+03  0.75351946053E+03  0.12699999809E+01 0. -1.
       -4    1    3    3    0  502  0.43077359997E+03  0.57895134281E+03 -0.47898638697E+03  0.86612939193E+03  0.12699999809E+01 0.  1.
</event>
<event>
 5   0  0.3042125E-05  0.1599271E+04  0.7818609E-02  0.8820996E-01
       -3   -1    0    0    0  501  0.00000000000E+00  0.00000000000E+00  0.17269216795E+04  0.17269216825E+04  0.10100000352E+00 0.  1.
        3   -1    0    0  501    0  0.00000000000E+00  0.00000000000E+00 -0.37026391436E+03  0.37026392813E+03  0.10100000352E+00 0. -1.
    10030    2    1    2    0    0  0.00000000000E+00  0.00000000000E+00  0.13566577652E+04  0.20971856106E+04  0.15992708318E+04 0.  0.
        2    1    3    3  502    0 -0.57354352100E+03  0.41508438897E+03  0.11657687738E+04  0.13639149734E+04  0.25500000920E-02 0.  1.
       -2    1    3    3    0  502  0.57354352100E+03 -0.41508438897E+03  0.19088899131E+03  0.73327063725E+03  0.25500000920E-02 0. -1.
</event>
<event>
 5   0  0.4373026E-05  0.1599754E+04  0.7818609E-02  0.8820699E-01
        1   -1    0    0  501    0  0.00000000000E+00  0.00000000000E+00  0.15389328164E+04  0.15389328164E+04  0.50400001928E-02 0.  1.
       -1   -1    0    0    0  501  0.00000000000E+00  0.00000000000E+00 -0.41574464456E+03  0.41574464459E+03  0.50400001928E-02 0. -1.
    10030    2    1    2    0    0  0.00000000000E+00  0.00000000000E+00  0.11231881718E+04  0.19546774610E+04  0.15997538270E+04 0.  0.
        4    1    3    3  502    0  0.24379945342E+03  0.47367779449E+03  0.12906191428E+04  0.13962479046E+04  0.12699999809E+01 0.  1.
       -4    1    3    3    0  502 -0.24379945342E+03 -0.47367779449E+03 -0.16743097097E+03  0.55842955637E+03  0.12699999809E+01 0. -1.
</event>
<event>
 5   0  0.4314657E-05  0.1600316E+04  0.7818609E-02  0.8820354E-01
        1   -1    0    0  501    0  0.00000000000E+00  0.00000000000E+00  0.90449375021E+03  0.90449375022E+03  0.50400001928E-02 0. -1.
       -1   -1    0    0    0  501  0.00000000000E+00  0.00000000000E+00 -0.70785771987E+03  0.70785771988E+03  0.50400001928E-02 0.  1.
    10030    2    1    2    0    0  0.00000000000E+00  0.00000000000E+00  0.19663603034E+03  0.16123514701E+04  0.16003160734E+04 0.  0.
        5    1    3    3  502    0 -0.19873161833E+03  0.71755263156E+03 -0.19689543208E+03  0.77017266659E+03  0.46999998093E+01 0.  1.
       -5    1    3    3    0  502  0.19873161833E+03 -0.71755263156E+03  0.39353146242E+03  0.84217880352E+03  0.46999998093E+01 0. -1.
</event>
<event>
 5   0  0.7901257E-05  0.1607073E+04  0.7818609E-02  0.8816215E-01
        2   -1    0    0  501    0  0.00000000000E+00  0.00000000000E+00  0.24473421937E+04  0.24473421937E+04  0.25500000920E-02 0. -1.
       -2   -1    0    0    0  501  0.00000000000E+00  0.00000000000E+00 -0.26382519300E+03  0.26382519301E+03  0.25500000920E-02 0.  1.
    10030    2    1    2    0    0  0.00000000000E+00  0.00000000000E+00  0.21835170007E+04  0.27111673867E+04  0.16070725268E+04 0.  0.
        2    1    3    3  502    0 -0.14462072040E+02  0.69615526550E+03  0.17683138533E+04  0.19004670976E+04  0.25500000920E-02 0. -1.
       -2    1    3    3    0  502  0.14462072040E+02 -0.69615526550E+03  0.41520314745E+03  0.81070028918E+03  0.25500000920E-02 0.  1.
</event>
<event>
 5   0  0.8620155E-05  0.1600777E+04  0.7818609E-02  0.8820071E-01
        2   -1    0    0  501    0  0.00000000000E+00  0.00000000000E+00  0.75215885072E+03  0.75215885073E+03  0.25500000920E-02 0.  1.
       -2   -1    0    0    0  501  0.00000000000E+00  0.00000000000E+00 -0.85171121411E+03  0.85171121412E+03  0.25500000920E-02 0. -1.
    10030    2    1    2    0    0  0.00000000000E+00  0.00000000000E+00 -0.99552363390E+02  0.16038700648E+04  0.16007774711E+04 0.  0.
        4    1    3    3  502    0 -0.21160969795E+03  0.49558678674E+02  0.72202739778E+03  0.75402911280E+03  0.12699999809E+01 0.  1.
       -4    1    3    3    0  502  0.21160969795E+03 -0.49558678674E+02 -0.82157976117E+03  0.84984095204E+03  0.12699999809E+01 0. -1.
</event>
<event>
 5   0  0.8037548E-05  0.1593791E+04  0.7818609E-02  0.8824372E-01
        2   -1    0    0  501    0  0.00000000000E+00  0.00000000000E+00  0.15423665491E+04  0.15423665491E+04  0.25500000920E-02 0. -1.
       -2   -1    0    0    0  501  0.00000000000E+00  0.00000000000E+00 -0.41173238684E+03  0.41173238685E+03  0.25500000920E-02 0.  1.
    10030    2    1    2    0    0  0.00000000000E+00  0.00000000000E+00  0.11306341623E+04  0.19540989360E+04  0.15937907776E+04 0.  0.
        5    1    3    3  502    0 -0.31329518198E+03 -0.23894232105E+03  0.14145622410E+04  0.14684194658E+04  0.46999998093E+01 0. -1.
       -5    1    3    3    0  502  0.31329518198E+03  0.23894232105E+03 -0.28392807874E+03  0.48567947016E+03  0.46999998093E+01 0.  1.
</event>
<event>
 5   0  0.8037548E-05  0.1598730E+04  0.7818609E-02  0.8821329E-01
       -2   -1    0    0    0  501  0.00000000000E+00  0.00000000000E+00  0.56657034402E+03  0.56657034402E+03  0.25500000920E-02 0.  1.
        2   -1    0    0  501    0  0.00000000000E+00  0.00000000000E+00 -0.11278106122E+04  0.11278106122E+04  0.25500000920E-02 0. -1.
    10030    2    1    2    0    0  0.00000000000E+00  0.00000000000E+00 -0.56124026816E+03  0.16943809562E+04  0.15987295538E+04 0.  0.
        5    1    3    3  502    0  0.26247198906E+03 -0.36916099971E+03 -0.97865338466E+03  0.10784043426E+04  0.46999998093E+01 0. -1.
       -5    1    3    3    0  502 -0.26247198906E+03  0.36916099971E+03  0.41741311650E+03  0.61597661365E+03  0.46999998093E+01 0.  1.
</event>
<event>
 5   0  0.4373026E-05  0.1598374E+04  0.7818609E-02  0.8821547E-01
        1   -1    0    0  501    0  0.00000000000E+00  0.00000000000E+00  0.19184006621E+04  0.19184006621E+04  0.50400001928E-02 0. -1.
       -1   -1    0    0    0  501  0.00000000000E+00  0.00000000000E+00 -0.33293362640E+03  0.33293362644E+03  0.50400001928E-02 0.  1.
    10030    2    1    2    0    0  0.00000000000E+00  0.00000000000E+00  0.15854670357E+04  0.22513342885E+04  0.15983742858E+04 0.  0.
        4    1    3    3  502    0  0.26308580707E+03  0.73447824253E+02  0.18506115690E+04  0.18706612513E+04  0.12699999809E+01 0. -1.
       -4    1    3    3    0  502 -0.26308580707E+03 -0.73447824253E+02 -0.26514453338E+03  0.38067303720E+03  0.12699999809E+01 0.  1.
</event>
<event>
 5   0  0.4504463E-05  0.1599381E+04  0.7818609E-02  0.8820929E-01
        1   -1    0    0  501    0  0.00000000000E+00  0.00000000000E+00  0.23493280097E+04  0.23493280097E+04  0.50400001928E-02 0. -1.
       -1   -1    0    0    0  501  0.00000000000E+00  0.00000000000E+00 -0.27220742285E+03  0.27220742290E+03  0.50400001928E-02 0.  1.
    10030    2    1    2    0    0  0.00000000000E+00  0.00000000000E+00  0.20771205868E+04  0.26215354326E+04  0.15993805338E+04 0.  0.
        1    1    3    3  502    0  0.21549170007E+03  0.24577277244E+02 -0.22307793173E+03  0.31113418168E+03  0.50400001928E-02 0.  1.
       -1    1    3    3    0  502 -0.21549170007E+03 -0.24577277244E+02  0.23001985186E+04  0.23104012509E+04  0.50400001928E-02 0. -1.
</event>
<event>
 5   0  0.7849690E-05  0.1600866E+04  0.7818609E-02  0.8820016E-01
       -2   -1    0    0    0  501  0.00000000000E+00  0.00000000000E+00  0.33388494461E+03  0.33388494462E+03  0.25500000920E-02 0. -1.
        2   -1    0    0  501    0  0.00000000000E+00  0.00000000000E+00 -0.19189033994E+04  0.19189033994E+04  0.25500000920E-02 0.  1.
    10030    2    1    2    0    0  0.00000000000E+00  0.00000000000E+00 -0.15850184548E+04  0.22527883441E+04  0.16008659597E+04 0.  0.
        3    1    3    3  502    0 -0.51049177333E+02 -0.68606392840E+03 -0.13682769498E+04  0.15314932432E+04  0.10100000352E+00 0.  1.
       -3    1    3    3    0  502  0.51049177333E+02  0.68606392840E+03 -0.21674150504E+03  0.72129510089E+03  0.10100000352E+00 0. -1.
</event>
<event>
 5   0  0.8694033E-05  0.1600816E+04  0.7818609E-02  0.8820047E-01
       -2   -1    0    0    0  501  0.00000000000E+00  0.00000000000E+00  0.88479838446E+03  0.88479838446E+03  0.25500000920E-02 0.  1.
        2   -1    0    0  501    0  0.00000000000E+00  0.00000000000E+00 -0.72406627091E+03  0.72406627091E+03  0.25500000920E-02 0. -1.
    10030    2    1    2    0    0  0.00000000000E+00  0.00000000000E+00  0.16073211355E+03  0.16088646554E+04  0.16008156255E+04 0.  0.
        1    1    3    3  502    0 -0.31666844870E+03 -0.70362076815E+03  0.29425429713E+03  0.82580063161E+03  0.50400001928E-02 0.  1.
       -1    1    3    3    0  502  0.31666844870E+03  0.70362076815E+03 -0.13352218358E+03  0.78306402376E+03  0.50400001928E-02 0. -1.
</event>
<event>
 5   0  0.3042125E-05  0.1602679E+04  0.7818609E-02  0.8818904E-01
       -3   -1    0    0    0  501  0.00000000000E+00  0.00000000000E+00  0.26540355694E+04  0.26540355713E+04  0.10100000352E+00 0. -1.
        3   -1    0    0  501    0  0.00000000000E+00  0.00000000000E+00 -0.24195049931E+03  0.24195052039E+03  0.10100000352E+00 0.  1.
    10030    2    1    2    0    0  0.00000000000E+00  0.00000000000E+00  0.24120850701E+04  0.28959860917E+04  0.16026793372E+04 0.  0.
        5    1    3    3  502    0  0.52049848458E+03 -0.40068700740E+03  0.37669773440E+03  0.75722653377E+03  0.46999998093E+01 0.  1.
       -5    1    3    3    0  502 -0.52049848458E+03  0.40068700740E+03  0.20353873357E+04  0.21387595579E+04  0.46999998093E+01 0. -1.
</event>
<event>
 5   0  0.8037548E-05  0.1599652E+04  0.7818609E-02  0.8820762E-01
       -2   -1    0    0    0  501  0.00000000000E+00  0.00000000000E+00  0.83923010677E+03  0.83923010677E+03  0.25500000920E-02 0. -1.
        2   -1    0    0  501    0  0.00000000000E+00  0.00000000000E+00 -0.76227215267E+03  0.76227215267E+03  0.25500000920E-02 0.  1.
    10030    2    1    2    0    0  0.00000000000E+00  0.00000000000E+00  0.76957954097E+02  0.16015022594E+04  0.15996521373E+04 0.  0.
        5    1    3    3  502    0 -0.97847848775E+02 -0.63387669914E+03  0.51686609784E+03  0.82373935460E+03  0.46999998093E+01 0. -1.
       -5    1    3    3    0  502  0.97847848775E+02  0.63387669914E+03 -0.43990814375E+03  0.77776290484E+03  0.46999998093E+01 0.  1.
</event>
<event>
 5   0  0.4256406E-05  0.1600578E+04  0.7818609E-02  0.8820193E-01
        1   -1    0    0  501    0  0.00000000000E+00  0.00000000000E+00  0.11859253160E+04  0.11859253160E+04  0.50400001928E-02 0.  1.
       -1   -1    0    0    0  501  0.00000000000E+00  0.00000000000E+00 -0.54005304832E+03  0.54005304835E+03  0.50400001928E-02 0. -1.
    10030    2    1    2    0    0  0.00000000000E+00  0.00000000000E+00  0.64587226772E+03  0.17259783644E+04  0.16005781231E+04 0.  0.
        3    1    3    3  502    0  0.44216449843E+03 -0.15007937308E+03 -0.37793067375E+03  0.60072028953E+03  0.10100000352E+00 0. -1.
       -3    1    3    3    0  502 -0.44216449843E+03  0.15007937308E+03  0.10238029415E+04  0.11252580749E+04  0.10100000352E+00 0.  1.
</event>
<event>
 5   0  0.7901257E-05  0.1585636E+04  0.7818609E-02  0.8829422E-01
        2   -1    0    0  501    0  0.00000000000E+00  0.00000000000E+00  0.70720855762E+03  0.70720855762E+03  0.25500000920E-02 0. -1.
       -2   -1    0    0    0  501  0.00000000000E+00  0.00000000000E+00 -0.88879020006E+03  0.88879020006E+03  0.25500000920E-02 0.  1.
    10030    2    1    2    0    0  0.00000000000E+00  0.00000000000E+00 -0.18158164244E+03  0.15959987577E+04  0.15856355639E+04 0.  0.
        2    1    3    3  502    0  0.52375026247E+03 -0.23281807119E+03 -0.64213119233E+03  0.86072705307E+03  0.25500000920E-02 0.  1.
       -2    1    3    3    0  502 -0.52375026247E+03  0.23281807119E+03  0.46054954989E+03  0.73527170462E+03  0.25500000920E-02 0. -1.
</event>
<event>
 5   0  0.4504463E-05  0.1599967E+04  0.7818609E-02  0.8820568E-01
       -1   -1    0    0    0  501  0.00000000000E+00  0.00000000000E+00  0.14793978462E+04  0.14793978463E+04  0.50400001928E-02 0.  1.
        1   -1    0    0  501    0  0.00000000000E+00  0.00000000000E+00 -0.43259044910E+03  0.43259044913E+03  0.50400001928E-02 0. -1.
    10030    2    1    2    0    0  0.00000000000E+00  0.00000000000E+00  0.10468073971E+04  0.19119882954E+04  0.15999667231E+04 0.  0.
        1    1    3    3  502    0  0.71645336376E+03  0.18240723150E+03  0.88860926655E+03  0.11559430129E+04  0.50400001928E-02 0.  1.
       -1    1    3    3    0  502 -0.71645336376E+03 -0.18240723150E+03  0.15819813060E+03  0.75604528244E+03  0.50400001928E-02 0. -1.
</event>
<event>
 5   0  0.7849690E-05  0.1603183E+04  0.7818609E-02  0.8818595E-01
       -2   -1    0    0    0  501  0.00000000000E+00  0.00000000000E+00  0.56956997655E+03  0.56956997655E+03  0.25500000920E-02 0. -1.
        2   -1    0    0  501    0  0.00000000000E+00  0.00000000000E+00 -0.11281295742E+04  0.11281295742E+04  0.25500000920E-02 0.  1.
    10030    2    1    2    0    0  0.00000000000E+00  0.00000000000E+00 -0.55855959761E+03  0.16976995507E+04  0.16031827533E+04 0.  0.
        3    1    3    3  502    0  0.29256026237E+03  0.17930329576E+03  0.48786586927E+03  0.59645141931E+03  0.10100000352E+00 0. -1.
       -3    1    3    3    0  502 -0.29256026237E+03 -0.17930329576E+03 -0.10464254669E+04  0.11012481314E+04  0.10100000352E+00 0.  1.
</event>
<event>
 5   0  0.7901257E-05  0.1603692E+04  0.7818609E-02  0.8818283E-01
       -2   -1    0    0    0  501  0.00000000000E+00  0.00000000000E+00  0.89205637949E+03  0.89205637950E+03  0.25500000920E-02 0.  1.
        2   -1    0    0  501    0  0.00000000000E+00  0.00000000000E+00 -0.72075787284E+03  0.72075787284E+03  0.25500000920E-02 0. -1.
    10030    2    1    2    0    0  0.00000000000E+00  0.00000000000E+00  0.17129850666E+03  0.16128142523E+04  0.16036915645E+04 0.  0.
        2    1    3    3  502    0  0.44937096476E+03 -0.63073529895E+03 -0.12336800331E+03  0.78420720831E+03  0.25500000920E-02 0. -1.
       -2    1    3    3    0  502 -0.44937096476E+03  0.63073529895E+03  0.29466650996E+03  0.82860704403E+03  0.25500000920E-02 0.  1.
</event>
<event>
 5   0  0.4504463E-05  0.1599833E+04  0.7818609E-02  0.8820651E-01
       -1   -1    0    0    0  501  0.00000000000E+00  0.00000000000E+00  0.84341571283E+03  0.84341571285E+03  0.50400001928E-02 0.  1.
        1   -1    0    0  501    0  0.00000000000E+00  0.00000000000E+00 -0.75866046781E+03  0.75866046783E+03  0.50400001928E-02 0. -1.
    10030    2    1    2    0    0  0.00000000000E+00  0.00000000000E+00  0.84755245024E+02  0.16020761807E+04  0.15998326904E+04 0.  0.
        1    1    3    3  502    0 -0.34158055097E+03  0.10415716586E+03 -0.67440555029E+03  0.76311783775E+03  0.50400001928E-02 0. -1.
       -1    1    3    3    0  502  0.34158055097E+03 -0.10415716586E+03  0.75916079531E+03  0.83895834293E+03  0.50400001928E-02 0.  1.
</event>
<event>
 5   0  0.8037548E-05  0.1603648E+04  0.7818609E-02  0.8818310E-01
        2   -1    0    0  501    0  0.00000000000E+00  0.00000000000E+00  0.23637133125E+04  0.23637133125E+04  0.25500000920E-02 0.  1.
       -2   -1    0    0    0  501  0.00000000000E+00  0.00000000000E+00 -0.27199648834E+03  0.27199648836E+03  0.25500000920E-02 0. -1.
    10030    2    1    2    0    0  0.00000000000E+00  0.00000000000E+00  0.20917168242E+04  0.26357098009E+04  0.16036479919E+04 0.  0.
        5    1    3    3  502    0 -0.73707079461E+03 -0.93109373894E+00  0.52708990717E+03  0.90615676537E+03  0.46999998093E+01 0. -1.
       -5    1    3    3    0  502  0.73707079461E+03  0.93109373894E+00  0.15646269170E+04  0.17295530355E+04  0.46999998093E+01 0.  1.
</event>
<event>
 5   0  0.7901257E-05  0.1648576E+04  0.7818609E-02  0.8791249E-01
        2   -1    0    0  501    0  0.00000000000E+00  0.00000000000E+00  0.11731886138E+04  0.11731886138E+04  0.25500000920E-02 0.  1.
       -2   -1    0    0    0  501  0.00000000000E+00  0.00000000000E+00 -0.57914869793E+03  0.57914869793E+03  0.25500000920E-02 0. -1.
    10030    2    1    2    0    0  0.00000000000E+00  0.00000000000E+00  0.59403991585E+03  0.17523373117E+04  0.16485759407E+04 0.  0.
        2    1    3    3  502    0 -0.17156992199E+03 -0.35606816203E+03  0.10658936851E+04  0.11368157819E+04  0.25500000920E-02 0.  1.
       -2    1    3    3    0  502  0.17156992199E+03  0.35606816203E+03 -0.47185376920E+03  0.61552152981E+03  0.25500000920E-02 0. -1.
</event>
<event>
 5   0  0.8037548E-05  0.1622153E+04  0.7818609E-02  0.8807053E-01
       -2   -1    0    0    0  501  0.00000000000E+00  0.00000000000E+00  0.55048176496E+03  0.55048176496E+03  0.25500000920E-02 0.  1.
        2   -1    0    0  501    0  0.00000000000E+00  0.00000000000E+00 -0.11950352526E+04  0.11950352526E+04  0.25500000920E-02 0. -1.
    10030    2    1    2    0    0  0.00000000000E+00  0.00000000000E+00 -0.64455348764E+03  0.17455170176E+04  0.16221530323E+04 0.  0.
        5    1    3    3  502    0  0.67978170775E+03 -0.43498761256E+03 -0.40906820564E+03  0.90480731658E+03  0.46999998093E+01 0.  1.
       -5    1    3    3    0  502 -0.67978170775E+03  0.43498761256E+03 -0.23548528200E+03  0.84070970098E+03  0.46999998093E+01 0. -1.
</event>
<event>
 5   0  0.4504463E-05  0.1599269E+04  0.7818609E-02  0.8820997E-01
        1   -1    0    0  501    0  0.00000000000E+00  0.00000000000E+00  0.10744336032E+04  0.10744336032E+04  0.50400001928E-02 0.  1.
       -1   -1    0    0    0  501  0.00000000000E+00  0.00000000000E+00 -0.59511879136E+03  0.59511879138E+03  0.50400001928E-02 0. -1.
    10030    2    1    2    0    0  0.00000000000E+00  0.00000000000E+00  0.47931481179E+03  0.16695523945E+04  0.15992693673E+04 0.  0.
        1    1    3    3  502    0  0.94097796016E+02  0.51378069452E+03 -0.39241832303E+03  0.65331243486E+03  0.50400001928E-02 0. -1.
       -1    1    3    3    0  502 -0.94097796016E+02 -0.51378069452E+03  0.87173313482E+03  0.10162399597E+04  0.50400001928E-02 0.  1.
</event>
<event>
 5   0  0.8620155E-05  0.1600408E+04  0.7818609E-02  0.8820298E-01
        2   -1    0    0  501    0  0.00000000000E+00  0.00000000000E+00  0.15824643800E+04  0.15824643800E+04  0.25500000920E-02 0.  1.
       -2   -1    0    0    0  501  0.00000000000E+00  0.00000000000E+00 -0.40463861079E+03  0.40463861080E+03  0.25500000920E-02 0. -1.
    10030    2    1    2    0    0  0.00000000000E+00  0.00000000000E+00  0.11778257692E+04  0.19871029907E+04  0.16004076835E+04 0.  0.
        4    1    3    3  502    0  0.42866052400E+03 -0.59549922128E+03  0.98536878229E+03  0.12285448374E+04  0.12699999809E+01 0.  1.
       -4    1    3    3    0  502 -0.42866052400E+03  0.59549922128E+03  0.19245698688E+03  0.75855815340E+03  0.12699999809E+01 0. -1.
</event>
<event>
 5   0  0.7849690E-05  0.1600827E+04  0.7818609E-02  0.8820040E-01
        2   -1    0    0  501    0  0.00000000000E+00  0.00000000000E+00  0.11785816669E+04  0.11785816669E+04  0.25500000920E-02 0. -1.
       -2   -1    0    0    0  501  0.00000000000E+00  0.00000000000E+00 -0.54358722262E+03  0.54358722262E+03  0.25500000920E-02 0.  1.
    10030    2    1    2    0    0  0.00000000000E+00  0.00000000000E+00  0.63499444431E+03  0.17221688896E+04  0.16008272049E+04 0.  0.
        3    1    3    3  502    0 -0.50872714955E+03  0.30244031116E+03 -0.26222636099E+03  0.64733000015E+03  0.10100000352E+00 0.  1.
       -3    1    3    3    0  502  0.50872714955E+03 -0.30244031116E+03  0.89722080530E+03  0.10748388894E+04  0.10100000352E+00 0. -1.
</event>
<event>
 5   0  0.8037548E-05  0.1600686E+04  0.7818609E-02  0.8820127E-01
       -2   -1    0    0    0  501  0.00000000000E+00  0.00000000000E+00  0.41353125929E+03  0.41353125930E+03  0.25500000920E-02 0.  1.
        2   -1    0    0  501    0  0.00000000000E+00  0.00000000000E+00 -0.15489732435E+04  0.15489732435E+04  0.25500000920E-02 0. -1.
    10030    2    1    2    0    0  0.00000000000E+00  0.00000000000E+00 -0.11354419842E+04  0.19625045028E+04  0.16006859230E+04 0.  0.
        5    1    3    3  502    0  0.44587299329E+03  0.49947124882E+03 -0.11052978286E+04  0.12922769186E+04  0.46999998093E+01 0. -1.
       -5    1    3    3    0  502 -0.44587299329E+03 -0.49947124882E+03 -0.30144155682E+02  0.67022758423E+03  0.46999998093E+01 0.  1.
</event>
<event>
 5   0  0.7849690E-05  0.1599954E+04  0.7818609E-02  0.8820576E-01
        2   -1    0    0  501    0  0.00000000000E+00  0.00000000000E+00  0.88549285517E+03  0.88549285518E+03  0.25500000920E-02 0. -1.
       -2   -1    0    0    0  501  0.00000000000E+00  0.00000000000E+00 -0.72272009781E+03  0.72272009781E+03  0.25500000920E-02 0.  1.
    10030    2    1    2    0    0  0.00000000000E+00  0.00000000000E+00  0.16277275736E+03  0.16082129530E+04  0.15999543530E+04 0.  0.
        3    1    3    3  502    0  0.51137448398E+03 -0.19467534808E+03  0.66797481228E+03  0.86347710686E+03  0.10100000352E+00 0. -1.
       -3    1    3    3    0  502 -0.51137448398E+03  0.19467534808E+03 -0.50520205492E+03  0.74473584613E+03  0.10100000352E+00 0.  1.
</event>
<event>
 5   0  0.4256406E-05  0.1598877E+04  0.7818609E-02  0.8821238E-01
       -1   -1    0    0    0  501  0.00000000000E+00  0.00000000000E+00  0.40215703060E+03  0.40215703063E+03  0.50400001928E-02 0.  1.
        1   -1    0    0  501    0  0.00000000000E+00  0.00000000000E+00 -0.15891845917E+04  0.15891845917E+04  0.50400001928E-02 0. -1.
    10030    2    1    2    0    0  0.00000000000E+00  0.00000000000E+00 -0.11870275611E+04  0.19913416223E+04  0.15988768014E+04 0.  0.
        3    1    3    3  502    0  0.66882046109E+03  0.70056077370E+02 -0.55114903341E+02  0.67473426319E+03  0.10100000352E+00 0.  1.
       -3    1    3    3    0  502 -0.66882046109E+03 -0.70056077370E+02 -0.11319126578E+04  0.13166073591E+04  0.10100000352E+00 0. -1.
</event>
<event>
 5   0  0.4256406E-05  0.1605804E+04  0.7818609E-02  0.8816990E-01
        1   -1    0    0  501    0  0.00000000000E+00  0.00000000000E+00  0.14970324103E+04  0.14970324103E+04  0.50400001928E-02 0. -1.
       -1   -1    0    0    0  501  0.00000000000E+00  0.00000000000E+00 -0.43061961034E+03  0.43061961037E+03  0.50400001928E-02 0.  1.
    10030    2    1    2    0    0  0.00000000000E+00  0.00000000000E+00  0.10664127999E+04  0.19276520206E+04  0.16058038650E+04 0.  0.
        3    1    3    3  502    0 -0.25709878410E+03  0.50091480831E+03 -0.15391265906E+03  0.58369902072E+03  0.10100000352E+00 0.  1.
       -3    1    3    3    0  502  0.25709878410E+03 -0.50091480831E+03  0.12203254590E+04  0.13439529999E+04  0.10100000352E+00 0. -1.
</event>
<event>
 5   0  0.8620155E-05  0.1596032E+04  0.7818609E-02  0.8822990E-01
        2   -1    0    0  501    0  0.00000000000E+00  0.00000000000E+00  0.13290126944E+04  0.13290126944E+04  0.25500000920E-02 0.  1.
       -2   -1    0    0    0  501  0.00000000000E+00  0.00000000000E+00 -0.47917469991E+03  0.47917469991E+03  0.25500000920E-02 0. -1.
    10030    2    1    2    0    0  0.00000000000E+00  0.00000000000E+00  0.84983799446E+03  0.18081873943E+04  0.15960316526E+04 0.  0.
        4    1    3    3  502    0 -0.50539303692E+02 -0.32688477461E+03  0.12476922014E+04  0.12907925161E+04  0.12699999809E+01 0.  1.
       -4    1    3    3    0  502  0.50539303692E+02  0.32688477461E+03 -0.39785420699E+03  0.51739487822E+03  0.12699999809E+01 0. -1.
</event>
<event>
 5   0  0.4314657E-05  0.1598898E+04  0.7818609E-02  0.8821225E-01
        1   -1    0    0  501    0  0.00000000000E+00  0.00000000000E+00  0.23682521087E+04  0.23682521087E+04  0.50400001928E-02 0.  1.
       -1   -1    0    0    0  501  0.00000000000E+00  0.00000000000E+00 -0.26986935408E+03  0.26986935413E+03  0.50400001928E-02 0. -1.
    10030    2    1    2    0    0  0.00000000000E+00  0.00000000000E+00  0.20983827546E+04  0.26381214628E+04  0.15988979541E+04 0.  0.
        5    1    3    3  502    0 -0.77618364628E+03  0.15733770626E+03  0.12290325105E+04  0.14621077964E+04  0.46999998093E+01 0. -1.
       -5    1    3    3    0  502  0.77618364628E+03 -0.15733770626E+03  0.86935024413E+03  0.11760136664E+04  0.46999998093E+01 0.  1.
</event>
<event>
 5   0  0.3042125E-05  0.1631805E+04  0.7818609E-02  0.8801244E-01
       -3   -1    0    0    0  501  0.00000000000E+00  0.00000000000E+00  0.41165621511E+03  0.41165622750E+03  0.10100000352E+00 0.  1.
        3   -1    0    0  501    0  0.00000000000E+00  0.00000000000E+00 -0.16171182529E+04  0.16171182561E+04  0.10100000352E+00 0. -1.
    10030    2    1    2    0    0  0.00000000000E+00  0.00000000000E+00 -0.12054620378E+04  0.20287744836E+04  0.16318048843E+04 0.  0.
        3    1    3    3  502    0 -0.73308875356E+03  0.28996195079E+03 -0.86411282862E+03  0.11696957059E+04  0.10100000352E+00 0.  1.
       -3    1    3    3    0  502  0.73308875356E+03 -0.28996195079E+03 -0.34134920918E+03  0.85907877771E+03  0.10100000352E+00 0. -1.
</event>
<event>
 5   0  0.4256406E-05  0.1598435E+04  0.7818609E-02  0.8821510E-01
       -1   -1    0    0    0  501  0.00000000000E+00  0.00000000000E+00  0.60381013218E+03  0.60381013220E+03  0.50400001928E-02 0. -1.
        1   -1    0    0  501    0  0.00000000000E+00  0.00000000000E+00 -0.10578629831E+04  0.10578629831E+04  0.50400001928E-02 0.  1.
    10030    2    1    2    0    0  0.00000000000E+00  0.00000000000E+00 -0.45405285096E+03  0.16616731153E+04  0.15984347190E+04 0.  0.
        3    1    3    3  502    0 -0.63877369503E+03  0.44521662825E+03 -0.41443250269E+03  0.88204534408E+03  0.10100000352E+00 0. -1.
       -3    1    3    3    0  502  0.63877369503E+03 -0.44521662825E+03 -0.39620348269E+02  0.77962777126E+03  0.10100000352E+00 0.  1.
</event>
<event>
 5   0  0.3042125E-05  0.1596531E+04  0.7818609E-02  0.8822682E-01
        3   -1    0    0  501    0  0.00000000000E+00  0.00000000000E+00  0.50022637821E+03  0.50022638841E+03  0.10100000352E+00 0.  1.
       -3   -1    0    0    0  501  0.00000000000E+00  0.00000000000E+00 -0.12738789351E+04  0.12738789391E+04  0.10100000352E+00 0. -1.
    10030    2    1    2    0    0  0.00000000000E+00  0.00000000000E+00 -0.77365255686E+03  0.17741053275E+04  0.15965310627E+04 0.  0.
        4    1    3    3  502    0  0.35823390796E+03  0.45136629444E+03  0.22703196740E+03  0.61936111574E+03  0.12699999809E+01 0.  1.
       -4    1    3    3    0  502 -0.35823390796E+03 -0.45136629444E+03 -0.10006845243E+04  0.11547442117E+04  0.12699999809E+01 0. -1.
</event>
<event>
 5   0  0.4256406E-05  0.1604778E+04  0.7818609E-02  0.8817618E-01
       -1   -1    0    0    0  501  0.00000000000E+00  0.00000000000E+00  0.42486676927E+03  0.42486676930E+03  0.50400001928E-02 0.  1.
        1   -1    0    0  501    0  0.00000000000E+00  0.00000000000E+00 -0.15153641104E+04  0.15153641104E+04  0.50400001928E-02 0. -1.
    10030    2    1    2    0    0  0.00000000000E+00  0.00000000000E+00 -0.10904973411E+04  0.19402308797E+04  0.16047776842E+04 0.  0.
        3    1    3    3  502    0 -0.22845628268E+03  0.58860005586E+03 -0.11439165632E+04  0.13065938209E+04  0.10100000352E+00 0. -1.
       -3    1    3    3    0  502  0.22845628268E+03 -0.58860005586E+03  0.53419222109E+02  0.63363705885E+03  0.10100000352E+00 0.  1.
</event>
<event>
 5   0  0.8694033E-05  0.1601222E+04  0.7818609E-02  0.8819798E-01
        2   -1    0    0  501    0  0.00000000000E+00  0.00000000000E+00  0.10729308428E+04  0.10729308428E+04  0.25500000920E-02 0. -1.
       -2   -1    0    0    0  501  0.00000000000E+00  0.00000000000E+00 -0.59740812858E+03  0.59740812859E+03  0.25500000920E-02 0.  1.
    10030    2    1    2    0    0  0.00000000000E+00  0.00000000000E+00  0.47552271424E+03  0.16703389714E+04  0.16012215423E+04 0.  0.
        1    1    3    3  502    0  0.48948795709E+03 -0.85032258214E+02  0.89267376384E+03  0.10216141120E+04  0.50400001928E-02 0. -1.
       -1    1    3    3    0  502 -0.48948795709E+03  0.85032258214E+02 -0.41715104960E+03  0.64872485946E+03  0.50400001928E-02 0.  1.
</event>
<event>
 5   0  0.4211419E-05  0.1600268E+04  0.7818609E-02  0.8820384E-01
        1   -1    0    0  501    0  0.00000000000E+00  0.00000000000E+00  0.81985609418E+03  0.81985609420E+03  0.50400001928E-02 0. -1.
       -1   -1    0    0    0  501  0.00000000000E+00  0.00000000000E+00 -0.78088594591E+03  0.78088594593E+03  0.50400001928E-02 0.  1.
    10030    2    1    2    0    0  0.00000000000E+00  0.00000000000E+00  0.38970148274E+02  0.16007420401E+04  0.16002676047E+04 0.  0.
        2    1    3    3  502    0 -0.74237711506E+03  0.29518066748E+03 -0.24785184441E+02  0.79929325831E+03  0.25500000920E-02 0.  1.
       -2    1    3    3    0  502  0.74237711506E+03 -0.29518066748E+03  0.63755332715E+02  0.80144878181E+03  0.25500000920E-02 0. -1.
</event>
<event>
 5   0  0.4256406E-05  0.1602755E+04  0.7818609E-02  0.8818857E-01
        1   -1    0    0  501    0  0.00000000000E+00  0.00000000000E+00  0.61326325047E+03  0.61326325049E+03  0.50400001928E-02 0.  1.
       -1   -1    0    0    0  501  0.00000000000E+00  0.00000000000E+00 -0.10471942893E+04  0.10471942893E+04  0.50400001928E-02 0. -1.
    10030    2    1    2    0    0  0.00000000000E+00  0.00000000000E+00 -0.43393103883E+03  0.16604575398E+04  0.16027548456E+04 0.  0.
        3    1    3    3  502    0 -0.49044881711E+03  0.82616727928E+01 -0.87349791113E+03  0.10018018309E+04  0.10100000352E+00 0. -1.
       -3    1    3    3    0  502  0.49044881711E+03 -0.82616727928E+01  0.43956687230E+03  0.65865570890E+03  0.10100000352E+00 0.  1.
</event>
<event>
 5   0  0.4211419E-05  0.1597007E+04  0.7818609E-02  0.8822389E-01
        1   -1    0    0  501    0  0.00000000000E+00  0.00000000000E+00  0.86598699134E+03  0.86598699135E+03  0.50400001928E-02 0. -1.
       -1   -1    0    0    0  501  0.00000000000E+00  0.00000000000E+00 -0.73627918228E+03  0.73627918230E+03  0.50400001928E-02 0.  1.
    10030    2    1    2    0    0  0.00000000000E+00  0.00000000000E+00  0.12970780906E+03  0.16022661736E+04  0.15970074438E+04 0.  0.
        2    1    3    3  502    0 -0.75857010600E+03  0.24576795037E+03  0.10715555295E+03  0.80455752043E+03  0.25500000920E-02 0.  1.
       -2    1    3    3    0  502  0.75857010600E+03 -0.24576795037E+03  0.22552256109E+02  0.79770865321E+03  0.25500000920E-02 0. -1.
</event>
<event>
 5   0  0.4256406E-05  0.1595743E+04  0.7818609E-02  0.8823167E-01
       -1   -1    0    0    0  501  0.00000000000E+00  0.00000000000E+00  0.84637735322E+03  0.84637735324E+03  0.50400001928E-02 0. -1.
        1   -1    0    0  501    0  0.00000000000E+00  0.00000000000E+00 -0.75214573485E+03  0.75214573486E+03  0.50400001928E-02 0.  1.
    10030    2    1    2    0    0  0.00000000000E+00  0.00000000000E+00  0.94231618376E+02  0.15985230881E+04  0.15957432329E+04 0.  0.
        3    1    3    3  502    0  0.20458824870E+03  0.24462552756E+03  0.77975922305E+03  0.84245026938E+03  0.10100000352E+00 0. -1.
       -3    1    3    3    0  502 -0.20458824870E+03 -0.24462552756E+03 -0.68552760467E+03  0.75607281872E+03  0.10100000352E+00 0.  1.
</event>
<event>
 5   0  0.8037548E-05  0.1600550E+04  0.7818609E-02  0.8820210E-01
       -2   -1    0    0    0  501  0.00000000000E+00  0.00000000000E+00  0.38758373232E+03  0.38758373233E+03  0.25500000920E-02 0. -1.
        2   -1    0    0  501    0  0.00000000000E+00  0.00000000000E+00 -0.16523919722E+04  0.16523919722E+04  0.25500000920E-02 0.  1.
    10030    2    1    2    0    0  0.00000000000E+00  0.00000000000E+00 -0.12648082399E+04  0.20399757045E+04  0.16005502152E+04 0.  0.
        5    1    3    3  502    0  0.73494820250E+03  0.99800564405E+02 -0.10154242117E+04  0.12574646845E+04  0.46999998093E+01 0. -1.
       -5    1    3    3    0  502 -0.73494820250E+03 -0.99800564405E+02 -0.24938402819E+03  0.78251102007E+03  0.46999998093E+01 0.  1.
</event>
<event>
 5   0  0.8694033E-05  0.1603338E+04  0.7818609E-02  0.8818500E-01
       -2   -1    0    0    0  501  0.00000000000E+00  0.00000000000E+00  0.75966707527E+03  0.75966707527E+03  0.25500000920E-02 0. -1.
        2   -1    0    0  501    0  0.00000000000E+00  0.00000000000E+00 -0.84599363672E+03  0.84599363672E+03  0.25500000920E-02 0.  1.
    10030    2    1    2    0    0  0.00000000000E+00  0.00000000000E+00 -0.86326561452E+02  0.16056607120E+04  0.16033384068E+04 0.  0.
        1    1    3    3  502    0  0.64617447334E+03  0.11675759200E+03 -0.50372038943E+03  0.82759169645E+03  0.50400001928E-02 0. -1.
       -1    1    3    3    0  502 -0.64617447334E+03 -0.11675759200E+03  0.41739382798E+03  0.77806901554E+03  0.50400001928E-02 0.  1.
</event>
<event>
 5   0  0.4504463E-05  0.1601770E+04  0.7818609E-02  0.8819461E-01
       -1   -1    0    0    0  501  0.00000000000E+00  0.00000000000E+00  0.52158881257E+03  0.52158881259E+03  0.50400001928E-02 0. -1.
        1   -1    0    0  501    0  0.00000000000E+00  0.00000000000E+00 -0.12297371949E+04  0.12297371949E+04  0.50400001928E-02 0.  1.
    10030    2    1    2    0    0  0.00000000000E+00  0.00000000000E+00 -0.70814838234E+03  0.17513260075E+04  0.16017704746E+04 0.  0.
        1    1    3    3  502    0 -0.20944139439E+03 -0.74803794390E+03 -0.14096343929E+03  0.78949170637E+03  0.50400001928E-02 0. -1.
       -1    1    3    3    0  502  0.20944139439E+03  0.74803794390E+03 -0.56718494304E+03  0.96183430113E+03  0.50400001928E-02 0.  1.
</event>
<event>
 5   0  0.7901257E-05  0.1600260E+04  0.7818609E-02  0.8820388E-01
       -2   -1    0    0    0  501  0.00000000000E+00  0.00000000000E+00  0.34299302946E+03  0.34299302947E+03  0.25500000920E-02 0. -1.
        2   -1    0    0  501    0  0.00000000000E+00  0.00000000000E+00 -0.18665332881E+04  0.18665332881E+04  0.25500000920E-02 0.  1.
    10030    2    1    2    0    0  0.00000000000E+00  0.00000000000E+00 -0.15235402587E+04  0.22095263176E+04  0.16002598628E+04 0.  0.
        2    1    3    3  502    0 -0.12691196725E+03 -0.68321199372E+03 -0.13094216111E+04  0.14823866673E+04  0.25500000920E-02 0.  1.
       -2    1    3    3    0  502  0.12691196725E+03  0.68321199372E+03 -0.21411864760E+03  0.72713965031E+03  0.25500000920E-02 0. -1.
</event>
<event>
 5   0  0.8037548E-05  0.1599439E+04  0.7818609E-02  0.8820893E-01
        2   -1    0    0  501    0  0.00000000000E+00  0.00000000000E+00  0.17418697807E+04  0.17418697807E+04  0.25500000920E-02 0.  1.
       -2   -1    0    0    0  501  0.00000000000E+00  0.00000000000E+00 -0.36716376395E+03  0.36716376396E+03  0.25500000920E-02 0. -1.
    10030    2    1    2    0    0  0.00000000000E+00  0.00000000000E+00  0.13747060167E+04  0.21090335446E+04  0.15994392330E+04 0.  0.
        5    1    3    3  502    0 -0.48526735717E+03 -0.50993723293E+03  0.18696080058E+03  0.72835212666E+03  0.46999998093E+01 0. -1.
       -5    1    3    3    0  502  0.48526735717E+03  0.50993723293E+03  0.11877452162E+04  0.13806814180E+04  0.46999998093E+01 0.  1.
</event>
<event>
 5   0  0.4211419E-05  0.1599503E+04  0.7818609E-02  0.8820853E-01
        1   -1    0    0  501    0  0.00000000000E+00  0.00000000000E+00  0.19032129267E+04  0.19032129267E+04  0.50400001928E-02 0. -1.
       -1   -1    0    0    0  501  0.00000000000E+00  0.00000000000E+00 -0.33606472793E+03  0.33606472797E+03  0.50400001928E-02 0.  1.
    10030    2    1    2    0    0  0.00000000000E+00  0.00000000000E+00  0.15671481987E+04  0.22392776546E+04  0.15995033410E+04 0.  0.
        2    1    3    3  502    0  0.42464232635E+02 -0.11005019103E+03 -0.32381915547E+03  0.34463473571E+03  0.25500000920E-02 0.  1.
       -2    1    3    3    0  502 -0.42464232635E+02  0.11005019103E+03  0.18909673542E+04  0.18946429189E+04  0.25500000920E-02 0. -1.
</event>
<event>
 5   0  0.7901257E-05  0.1596395E+04  0.7818609E-02  0.8822766E-01
        2   -1    0    0  501    0  0.00000000000E+00  0.00000000000E+00  0.15947010767E+04  0.15947010767E+04  0.25500000920E-02 0. -1.
       -2   -1    0    0    0  501  0.00000000000E+00  0.00000000000E+00 -0.39952245915E+03  0.39952245916E+03  0.25500000920E-02 0.  1.
    10030    2    1    2    0    0  0.00000000000E+00  0.00000000000E+00  0.11951786176E+04  0.19942235359E+04  0.15963945575E+04 0.  0.
        2    1    3    3  502    0 -0.64451216744E+03 -0.39732997351E+03  0.91324989221E+03  0.11862935587E+04  0.25500000920E-02 0. -1.
       -2    1    3    3    0  502  0.64451216744E+03  0.39732997351E+03  0.28192872536E+03  0.80792997717E+03  0.25500000920E-02 0.  1.
</event>
<event>
 5   0  0.7849690E-05  0.1600037E+04  0.7818609E-02  0.8820525E-01
        2   -1    0    0  501    0  0.00000000000E+00  0.00000000000E+00  0.23561456260E+04  0.23561456260E+04  0.25500000920E-02 0. -1.
       -2   -1    0    0    0  501  0.00000000000E+00  0.00000000000E+00 -0.27164269343E+03  0.27164269344E+03  0.25500000920E-02 0.  1.
    10030    2    1    2    0    0  0.00000000000E+00  0.00000000000E+00  0.20845029326E+04  0.26277883194E+04  0.16000371795E+04 0.  0.
        3    1    3    3  502    0  0.74552958023E+03 -0.28665661971E+03  0.96801233712E+03  0.12550036923E+04  0.10100000352E+00 0. -1.
       -3    1    3    3    0  502 -0.74552958023E+03  0.28665661971E+03  0.11164905954E+04  0.13727846271E+04  0.10100000352E+00 0.  1.
</event>
<event>
 5   0  0.4314657E-05  0.1600243E+04  0.7818609E-02  0.8820399E-01
       -1   -1    0    0    0  501  0.00000000000E+00  0.00000000000E+00  0.39344155890E+03  0.39344155893E+03  0.50400001928E-02 0.  1.
        1   -1    0    0  501    0  0.00000000000E+00  0.00000000000E+00 -0.16271649564E+04  0.16271649564E+04  0.50400001928E-02 0. -1.
    10030    2    1    2    0    0  0.00000000000E+00  0.00000000000E+00 -0.12337233975E+04  0.20206065154E+04  0.16002428779E+04 0.  0.
        5    1    3    3  502    0 -0.77170407957E+02  0.38228179062E+03  0.26528391454E+03  0.47169087824E+03  0.46999998093E+01 0.  1.
       -5    1    3    3    0  502  0.77170407957E+02 -0.38228179062E+03 -0.14990073121E+04  0.15489156371E+04  0.46999998093E+01 0. -1.
</event>
<event>
 5   0  0.4314657E-05  0.1596718E+04  0.7818609E-02  0.8822567E-01
       -1   -1    0    0    0  501  0.00000000000E+00  0.00000000000E+00  0.77639072341E+03  0.77639072343E+03  0.50400001928E-02 0. -1.
        1   -1    0    0  501    0  0.00000000000E+00  0.00000000000E+00 -0.82094934183E+03  0.82094934184E+03  0.50400001928E-02 0.  1.
    10030    2    1    2    0    0  0.00000000000E+00  0.00000000000E+00 -0.44558618417E+02  0.15973400653E+04  0.15967184516E+04 0.  0.
        5    1    3    3  502    0  0.25941230585E+03 -0.67850509317E+03 -0.35360525365E+03  0.80791253938E+03  0.46999998093E+01 0.  1.
       -5    1    3    3    0  502 -0.25941230585E+03  0.67850509317E+03  0.30904663523E+03  0.78942752589E+03  0.46999998093E+01 0. -1.
</event>
<event>
 5   0  0.8694033E-05  0.1601074E+04  0.7818609E-02  0.8819889E-01
       -2   -1    0    0    0  501  0.00000000000E+00  0.00000000000E+00  0.72835881297E+03  0.72835881297E+03  0.25500000920E-02 0.  1.
        2   -1    0    0  501    0  0.00000000000E+00  0.00000000000E+00 -0.87986743926E+03  0.87986743927E+03  0.25500000920E-02 0. -1.
    10030    2    1    2    0    0  0.00000000000E+00  0.00000000000E+00 -0.15150862630E+03  0.16082262522E+04  0.16010736443E+04 0.  0.
        1    1    3    3  502    0  0.50149848665E+03 -0.14594995854E+03 -0.68514165295E+03  0.86152260977E+03  0.50400001928E-02 0. -1.
       -1    1    3    3    0  502 -0.50149848665E+03  0.14594995854E+03  0.53363302666E+03  0.74670364247E+03  0.50400001928E-02 0.  1.
</event>
<event>
 5   0  0.4373026E-05  0.1600179E+04  0.7818609E-02  0.8820438E-01
        1   -1    0    0  501    0  0.00000000000E+00  0.00000000000E+00  0.75878573985E+03  0.75878573987E+03  0.50400001928E-02 0.  1.
       -1   -1    0    0    0  501  0.00000000000E+00  0.00000000000E+00 -0.84364112726E+03  0.84364112727E+03  0.50400001928E-02 0. -1.
    10030    2    1    2    0    0  0.00000000000E+00  0.00000000000E+00 -0.84855387405E+02  0.16024268671E+04  0.16001785612E+04 0.  0.
        4    1    3    3  502    0  0.55479803834E+03 -0.45206151733E+03  0.31581894292E+03  0.78224273496E+03  0.12699999809E+01 0.  1.
       -4    1    3    3    0  502 -0.55479803834E+03  0.45206151733E+03 -0.40067433032E+03  0.82018413218E+03  0.12699999809E+01 0. -1.
</event>
<event>
 5   0  0.4211419E-05  0.1608096E+04  0.7818609E-02  0.8815590E-01
       -1   -1    0    0    0  501  0.00000000000E+00  0.00000000000E+00  0.67854677775E+03  0.67854677777E+03  0.50400001928E-02 0.  1.
        1   -1    0    0  501    0  0.00000000000E+00  0.00000000000E+00 -0.95276161161E+03  0.95276161162E+03  0.50400001928E-02 0. -1.
    10030    2    1    2    0    0  0.00000000000E+00  0.00000000000E+00 -0.27421483386E+03  0.16313083894E+04  0.16080961682E+04 0.  0.
        2    1    3    3  502    0 -0.42858983015E+03 -0.53210378572E+03 -0.56710043284E+03  0.88793388392E+03  0.25500000920E-02 0. -1.
       -2    1    3    3    0  502  0.42858983015E+03  0.53210378572E+03  0.29288559898E+03  0.74337450547E+03  0.25500000920E-02 0.  1.
</event>
<event>
 5   0  0.8620155E-05  0.1585046E+04  0.7818609E-02  0.8829788E-01
       -2   -1    0    0    0  501  0.00000000000E+00  0.00000000000E+00  0.11245458959E+04  0.11245458959E+04  0.25500000920E-02 0. -1.
        2   -1    0    0  501    0  0.00000000000E+00  0.00000000000E+00 -0.55853011402E+03  0.55853011402E+03  0.25500000920E-02 0.  1.
    10030    2    1    2    0    0  0.00000000000E+00  0.00000000000E+00  0.56601578193E+03  0.16830760100E+04  0.15850460529E+04 0.  0.
        4    1    3    3  502    0 -0.62302453757E+03  0.47105123308E+03  0.42563686109E+03  0.88950390051E+03  0.12699999809E+01 0. -1.
       -4    1    3    3    0  502  0.62302453757E+03 -0.47105123308E+03  0.14037892083E+03  0.79357210946E+03  0.12699999809E+01 0.  1.
</event>
<event>
 5   0  0.7901257E-05  0.1593127E+04  0.7818609E-02  0.8824781E-01
       -2   -1    0    0    0  501  0.00000000000E+00  0.00000000000E+00  0.73620027899E+03  0.73620027900E+03  0.25500000920E-02 0. -1.
        2   -1    0    0  501    0  0.00000000000E+00  0.00000000000E+00 -0.86187658863E+03  0.86187658863E+03  0.25500000920E-02 0.  1.
    10030    2    1    2    0    0  0.00000000000E+00  0.00000000000E+00 -0.12567630963E+03  0.15980768676E+04  0.15931274714E+04 0.  0.
        2    1    3    3  502    0 -0.27881984943E+03  0.66935185700E+02 -0.80831110800E+03  0.85766408042E+03  0.25500000920E-02 0.  1.
       -2    1    3    3    0  502  0.27881984943E+03 -0.66935185700E+02  0.68263479837E+03  0.74041278721E+03  0.25500000920E-02 0. -1.
</event>
<event>
 5   0  0.8037548E-05  0.1603915E+04  0.7818609E-02  0.8818147E-01
       -2   -1    0    0    0  501  0.00000000000E+00  0.00000000000E+00  0.45249824876E+03  0.45249824877E+03  0.25500000920E-02 0.  1.
        2   -1    0    0  501    0  0.00000000000E+00  0.00000000000E+00 -0.14212996393E+04  0.14212996393E+04  0.25500000920E-02 0. -1.
    10030    2    1    2    0    0  0.00000000000E+00  0.00000000000E+00 -0.96880139055E+03  0.18737978881E+04  0.16039147082E+04 0.  0.
        5    1    3    3  502    0  0.31749726193E+03  0.60671078574E+03  0.32168070236E+01  0.68478823494E+03  0.46999998093E+01 0.  1.
       -5    1    3    3    0  502 -0.31749726193E+03 -0.60671078574E+03 -0.97201819758E+03  0.11890096532E+04  0.46999998093E+01 0. -1.
</event>
<event>
 5   0  0.3042125E-05  0.1599740E+04  0.7818609E-02  0.8820708E-01
        4   -1    0    0  501    0  0.00000000000E+00  0.00000000000E+00  0.66729447418E+03  0.66729568271E+03  0.12699999809E+01 0.  1.
       -4   -1    0    0    0  501  0.00000000000E+00  0.00000000000E+00 -0.95878239290E+03  0.95878323402E+03  0.12699999809E+01 0. -1.
    10030    2    1    2    0    0  0.00000000000E+00  0.00000000000E+00 -0.29148791873E+03  0.16260789167E+04  0.15997398028E+04 0.  0.
        3    1    3    3  502    0  0.50413961151E+02  0.24532492841E+02  0.66529572978E+03  0.66765397396E+03  0.10100000352E+00 0.  1.
       -3    1    3    3    0  502 -0.50413961151E+02 -0.24532492841E+02 -0.95678364850E+03  0.95842494277E+03  0.10100000352E+00 0. -1.
</event>
<event>
 5   0  0.8620155E-05  0.1599981E+04  0.7818609E-02  0.8820560E-01
        2   -1    0    0  501    0  0.00000000000E+00  0.00000000000E+00  0.76214155663E+03  0.76214155664E+03  0.25500000920E-02 0.  1.
       -2   -1    0    0    0  501  0.00000000000E+00  0.00000000000E+00 -0.83971931552E+03  0.83971931552E+03  0.25500000920E-02 0. -1.
    10030    2    1    2    0    0  0.00000000000E+00  0.00000000000E+00 -0.77577758885E+02  0.16018608722E+04  0.15999812327E+04 0.  0.
        4    1    3    3  502    0  0.68404782861E+03 -0.13482107251E+03  0.35395403581E+03  0.78190998573E+03  0.12699999809E+01 0. -1.
       -4    1    3    3    0  502 -0.68404782861E+03  0.13482107251E+03 -0.43153179469E+03  0.81995088643E+03  0.12699999809E+01 0.  1.
</event>
<event>
 5   0  0.7849690E-05  0.1601670E+04  0.7818609E-02  0.8819523E-01
        2   -1    0    0  501    0  0.00000000000E+00  0.00000000000E+00  0.21224621056E+04  0.21224621056E+04  0.25500000920E-02 0.  1.
       -2   -1    0    0    0  501  0.00000000000E+00  0.00000000000E+00 -0.30216642345E+03  0.30216642346E+03  0.25500000920E-02 0. -1.
    10030    2    1    2    0    0  0.00000000000E+00  0.00000000000E+00  0.18202956822E+04  0.24246285291E+04  0.16016701076E+04 0.  0.
        3    1    3    3  502    0 -0.48549156983E+03  0.19927894550E+03  0.18258764100E+04  0.18997996835E+04  0.10100000352E+00 0.  1.
       -3    1    3    3    0  502  0.48549156983E+03 -0.19927894550E+03 -0.55807278066E+01  0.52482884565E+03  0.10100000352E+00 0. -1.
</event>
<event>
 5   0  0.4256406E-05  0.1593981E+04  0.7818609E-02  0.8824255E-01
        1   -1    0    0  501    0  0.00000000000E+00  0.00000000000E+00  0.95424987562E+03  0.95424987564E+03  0.50400001928E-02 0.  1.
       -1   -1    0    0    0  501  0.00000000000E+00  0.00000000000E+00 -0.66564689139E+03  0.66564689141E+03  0.50400001928E-02 0. -1.
    10030    2    1    2    0    0  0.00000000000E+00  0.00000000000E+00  0.28860298423E+03  0.16198967670E+04  0.15939805060E+04 0.  0.
        3    1    3    3  502    0 -0.42506627361E+02 -0.30920775305E+03 -0.60095458788E+03  0.67717255911E+03  0.10100000352E+00 0. -1.
       -3    1    3    3    0  502  0.42506627361E+02  0.30920775305E+03  0.88955757212E+03  0.94272420793E+03  0.10100000352E+00 0.  1.
</event>
<event>
 5   0  0.7849690E-05  0.1593530E+04  0.7818609E-02  0.8824532E-01
        2   -1    0    0  501    0  0.00000000000E+00  0.00000000000E+00  0.14759788828E+04  0.14759788828E+04  0.25500000920E-02 0. -1.
       -2   -1    0    0    0  501  0.00000000000E+00  0.00000000000E+00 -0.43011098012E+03  0.43011098013E+03  0.25500000920E-02 0.  1.
    10030    2    1    2    0    0  0.00000000000E+00  0.00000000000E+00  0.10458679026E+04  0.19060898629E+04  0.15935303247E+04 0.  0.
        3    1    3    3  502    0 -0.73089767683E+03 -0.14085039666E+03  0.86290893928E+03  0.11395885643E+04  0.10100000352E+00 0. -1.
       -3    1    3    3    0  502  0.73089767683E+03  0.14085039666E+03  0.18295896336E+03  0.76650129857E+03  0.10100000352E+00 0.  1.
</event>
<event>
 5   0  0.4211419E-05  0.1595393E+04  0.7818609E-02  0.8823384E-01
        1   -1    0    0  501    0  0.00000000000E+00  0.00000000000E+00  0.13284372333E+04  0.13284372333E+04  0.50400001928E-02 0.  1.
       -1   -1    0    0    0  501  0.00000000000E+00  0.00000000000E+00 -0.47899843963E+03  0.47899843966E+03  0.50400001928E-02 0. -1.
    10030    2    1    2    0    0  0.00000000000E+00  0.00000000000E+00  0.84943879369E+03  0.18074356730E+04  0.15953925685E+04 0.  0.
        2    1    3    3  502    0 -0.58122769393E+03 -0.20100909836E+03  0.10002654671E+04  0.11742066660E+04  0.25500000920E-02 0.  1.
       -2    1    3    3    0  502  0.58122769393E+03  0.20100909836E+03 -0.15082667344E+03  0.63322900695E+03  0.25500000920E-02 0. -1.
</event>
<event>
 5   0  0.4504463E-05  0.1599359E+04  0.7818609E-02  0.8820942E-01
        1   -1    0    0  501    0  0.00000000000E+00  0.00000000000E+00  0.90917635608E+03  0.90917635610E+03  0.50400001928E-02 0. -1.
       -1   -1    0    0    0  501  0.00000000000E+00  0.00000000000E+00 -0.70336986003E+03  0.70336986005E+03  0.50400001928E-02 0.  1.
    10030    2    1    2    0    0  0.00000000000E+00  0.00000000000E+00  0.20580649605E+03  0.16125462161E+04  0.15993589295E+04 0.  0.
        1    1    3    3  502    0 -0.28872027861E+03 -0.80246713938E+00  0.85479150266E+03  0.90223531093E+03  0.50400001928E-02 0. -1.
       -1    1    3    3    0  502  0.28872027861E+03  0.80246713938E+00 -0.64898500661E+03  0.71031090521E+03  0.50400001928E-02 0.  1.
</event>
<event>
 5   0  0.8620155E-05  0.1599847E+04  0.7818609E-02  0.8820642E-01
       -2   -1    0    0    0  501  0.00000000000E+00  0.00000000000E+00  0.49997095710E+03  0.49997095711E+03  0.25500000920E-02 0. -1.
        2   -1    0    0  501    0  0.00000000000E+00  0.00000000000E+00 -0.12798298687E+04  0.12798298687E+04  0.25500000920E-02 0.  1.
    10030    2    1    2    0    0  0.00000000000E+00  0.00000000000E+00 -0.77985891163E+03  0.17798008258E+04  0.15998471982E+04 0.  0.
        4    1    3    3  502    0 -0.14292993174E+03  0.16099269576E+03 -0.12469943403E+04  0.12654422591E+04  0.12699999809E+01 0.  1.
       -4    1    3    3    0  502  0.14292993174E+03 -0.16099269576E+03  0.46713542872E+03  0.51435856670E+03  0.12699999809E+01 0. -1.
</event>
<event>
 5   0  0.8620155E-05  0.1599133E+04  0.7818609E-02  0.8821081E-01
        2   -1    0    0  501    0  0.00000000000E+00  0.00000000000E+00  0.99000550365E+03  0.99000550365E+03  0.25500000920E-02 0.  1.
       -2   -1    0    0    0  501  0.00000000000E+00  0.00000000000E+00 -0.64576036404E+03  0.64576036405E+03  0.25500000920E-02 0. -1.
    10030    2    1    2    0    0  0.00000000000E+00  0.00000000000E+00  0.34424513961E+03  0.16357658677E+04  0.15991326580E+04 0.  0.
        4    1    3    3  502    0  0.49129205762E+03  0.61877928350E+03  0.46637900031E+02  0.79147482220E+03  0.12699999809E+01 0. -1.
       -4    1    3    3    0  502 -0.49129205762E+03 -0.61877928350E+03  0.29760723958E+03  0.84429104550E+03  0.12699999809E+01 0.  1.
</event>
<event>
 5   0  0.8620155E-05  0.1605016E+04  0.7818609E-02  0.8817473E-01
        2   -1    0    0  501    0  0.00000000000E+00  0.00000000000E+00  0.23926593425E+04  0.23926593425E+04  0.25500000920E-02 0.  1.
       -2   -1    0    0    0  501  0.00000000000E+00  0.00000000000E+00 -0.26916449338E+03  0.26916449339E+03  0.25500000920E-02 0. -1.
    10030    2    1    2    0    0  0.00000000000E+00  0.00000000000E+00  0.21234948491E+04  0.26618238359E+04  0.16050158127E+04 0.  0.
        4    1    3    3  502    0  0.69025984264E+03  0.40665030569E+03  0.98406216276E+03  0.12689377741E+04  0.12699999809E+01 0. -1.
       -4    1    3    3    0  502 -0.69025984264E+03 -0.40665030569E+03  0.11394326864E+04  0.13928860618E+04  0.12699999809E+01 0.  1.
</event>
<event>
 5   0  0.3042125E-05  0.1602134E+04  0.7818609E-02  0.8819238E-01
       -3   -1    0    0    0  501  0.00000000000E+00  0.00000000000E+00  0.62027746551E+03  0.62027747374E+03  0.10100000352E+00 0. -1.
        3   -1    0    0  501    0  0.00000000000E+00  0.00000000000E+00 -0.10345503861E+04  0.10345503910E+04  0.10100000352E+00 0.  1.
    10030    2    1    2    0    0  0.00000000000E+00  0.00000000000E+00 -0.41427292054E+03  0.16548278647E+04  0.16021339548E+04 0.  0.
        3    1    3    3  502    0  0.71080957910E+03 -0.22708738613E+03  0.93804022408E+02  0.75207588946E+03  0.10100000352E+00 0. -1.
       -3    1    3    3    0  502 -0.71080957910E+03  0.22708738613E+03 -0.50807694295E+03  0.90275197527E+03  0.10100000352E+00 0.  1.
</event>
<event>
 5   0  0.4504463E-05  0.1598179E+04  0.7818609E-02  0.8821667E-01
        1   -1    0    0  501    0  0.00000000000E+00  0.00000000000E+00  0.74144528615E+03  0.74144528616E+03  0.50400001928E-02 0.  1.
       -1   -1    0    0    0  501  0.00000000000E+00  0.00000000000E+00 -0.86121575811E+03  0.86121575812E+03  0.50400001928E-02 0. -1.
    10030    2    1    2    0    0  0.00000000000E+00  0.00000000000E+00 -0.11977047196E+03  0.16026610443E+04  0.15981794195E+04 0.  0.
        1    1    3    3  502    0  0.67891891191E+03 -0.13763278900E+03  0.33956667484E+03  0.77147858055E+03  0.50400001928E-02 0.  1.
       -1    1    3    3    0  502 -0.67891891191E+03  0.13763278900E+03 -0.45933714680E+03  0.83118246373E+03  0.50400001928E-02 0. -1.
</event>
<event>
 5   0  0.3042125E-05  0.1599062E+04  0.7818609E-02  0.8821125E-01
        3   -1    0    0  501    0  0.00000000000E+00  0.00000000000E+00  0.39063671779E+03  0.39063673085E+03  0.10100000352E+00 0.  1.
       -3   -1    0    0    0  501  0.00000000000E+00  0.00000000000E+00 -0.16364299841E+04  0.16364299872E+04  0.10100000352E+00 0. -1.
    10030    2    1    2    0    0  0.00000000000E+00  0.00000000000E+00 -0.12457932663E+04  0.20270667181E+04  0.15990617928E+04 0.  0.
        5    1    3    3  502    0  0.34626729801E+03 -0.56788696968E+03 -0.60491275531E+02  0.66789066202E+03  0.46999998093E+01 0.  1.
       -5    1    3    3    0  502 -0.34626729801E+03  0.56788696968E+03 -0.11853019908E+04  0.13591760560E+04  0.46999998093E+01 0. -1.
</event>
<event>
 5   0  0.7849690E-05  0.1600004E+04  0.7818609E-02  0.8820545E-01
       -2   -1    0    0    0  501  0.00000000000E+00  0.00000000000E+00  0.50959049886E+03  0.50959049887E+03  0.25500000920E-02 0. -1.
        2   -1    0    0  501    0  0.00000000000E+00  0.00000000000E+00 -0.12559174154E+04  0.12559174154E+04  0.25500000920E-02 0.  1.
    10030    2    1    2    0    0  0.00000000000E+00  0.00000000000E+00 -0.74632691653E+03  0.17655079143E+04  0.16000044778E+04 0.  0.
        3    1    3    3  502    0  0.34026264884E+02  0.70917896747E+03  0.33631665624E+02  0.71079089312E+03  0.10100000352E+00 0. -1.
       -3    1    3    3    0  502 -0.34026264884E+02 -0.70917896747E+03 -0.77995858216E+03  0.10547170211E+04  0.10100000352E+00 0.  1.
</event>
<event>
 5   0  0.7849690E-05  0.1598919E+04  0.7818609E-02  0.8821212E-01
        2   -1    0    0  501    0  0.00000000000E+00  0.00000000000E+00  0.70835228588E+03  0.70835228589E+03  0.25500000920E-02 0.  1.
       -2   -1    0    0    0  501  0.00000000000E+00  0.00000000000E+00 -0.90228474309E+03  0.90228474309E+03  0.25500000920E-02 0. -1.
    10030    2    1    2    0    0  0.00000000000E+00  0.00000000000E+00 -0.19393245720E+03  0.16106370290E+04  0.15989189602E+04 0.  0.
        3    1    3    3  502    0 -0.58220190057E+03 -0.43124844980E+03  0.24344706119E+03  0.76433026912E+03  0.10100000352E+00 0. -1.
       -3    1    3    3    0  502  0.58220190057E+03  0.43124844980E+03 -0.43737951839E+03  0.84630675987E+03  0.10100000352E+00 0.  1.
</event>
<event>
 5   0  0.3042125E-05  0.1599961E+04  0.7818609E-02  0.8820572E-01
       -4   -1    0    0    0  501  0.00000000000E+00  0.00000000000E+00  0.79389190455E+03  0.79389292037E+03  0.12699999809E+01 0. -1.
        4   -1    0    0  501    0  0.00000000000E+00  0.00000000000E+00 -0.80611382813E+03  0.80611482855E+03  0.12699999809E+01 0.  1.
    10030    2    1    2    0    0  0.00000000000E+00  0.00000000000E+00 -0.12221923578E+02  0.16000077489E+04  0.15999610686E+04 0.  0.
        5    1    3    3  502    0 -0.69759381038E+03 -0.36328470367E+03  0.13995446870E+03  0.79888812953E+03  0.46999998093E+01 0. -1.
       -5    1    3    3    0  502  0.69759381038E+03  0.36328470367E+03 -0.15217639228E+03  0.80111961938E+03  0.46999998093E+01 0.  1.
</event>
<event>
 5   0  0.4504463E-05  0.1601558E+04  0.7818609E-02  0.8819591E-01
        1   -1    0    0  501    0  0.00000000000E+00  0.00000000000E+00  0.11842625837E+04  0.11842625837E+04  0.50400001928E-02 0.  1.
       -1   -1    0    0    0  501  0.00000000000E+00  0.00000000000E+00 -0.54147361496E+03  0.54147361498E+03  0.50400001928E-02 0. -1.
    10030    2    1    2    0    0  0.00000000000E+00  0.00000000000E+00  0.64278896870E+03  0.17257361986E+04  0.16015579194E+04 0.  0.
        1    1    3    3  502    0 -0.77126799805E+03 -0.20219330669E+03  0.24140615274E+03  0.83307465973E+03  0.50400001928E-02 0.  1.
       -1    1    3    3    0  502  0.77126799805E+03  0.20219330669E+03  0.40138281597E+03  0.89266153892E+03  0.50400001928E-02 0. -1.
</event>
<event>
 5   0  0.4211419E-05  0.1601884E+04  0.7818609E-02  0.8819392E-01
        1   -1    0    0  501    0  0.00000000000E+00  0.00000000000E+00  0.18638917502E+04  0.18638917503E+04  0.50400001928E-02 0. -1.
       -1   -1    0    0    0  501  0.00000000000E+00  0.00000000000E+00 -0.34417660477E+03  0.34417660481E+03  0.50400001928E-02 0.  1.
    10030    2    1    2    0    0  0.00000000000E+00  0.00000000000E+00  0.15197151455E+04  0.22080683551E+04  0.16018838089E+04 0.  0.
        2    1    3    3  502    0  0.47455434962E+03 -0.40840704829E+02 -0.12774004098E+03  0.49314025590E+03  0.25500000920E-02 0.  1.
       -2    1    3    3    0  502 -0.47455434962E+03  0.40840704829E+02  0.16474551865E+04  0.17149280992E+04  0.25500000920E-02 0. -1.
</event>
<event>
 5   0  0.7849690E-05  0.1599897E+04  0.7818609E-02  0.8820611E-01
        2   -1    0    0  501    0  0.00000000000E+00  0.00000000000E+00  0.27490050355E+04  0.27490050355E+04  0.25500000920E-02 0.  1.
       -2   -1    0    0    0  501  0.00000000000E+00  0.00000000000E+00 -0.23278163792E+03  0.23278163793E+03  0.25500000920E-02 0. -1.
    10030    2    1    2    0    0  0.00000000000E+00  0.00000000000E+00  0.25162233976E+04  0.29817866735E+04  0.15998973653E+04 0.  0.
        3    1    3    3  502    0 -0.36064139284E+03  0.71404147746E+03  0.12593463776E+04  0.14919352381E+04  0.10100000352E+00 0.  1.
       -3    1    3    3    0  502  0.36064139284E+03 -0.71404147746E+03  0.12568770200E+04  0.14898514353E+04  0.10100000352E+00 0. -1.
</event>
<event>
 5   0  0.4211419E-05  0.1599210E+04  0.7818609E-02  0.8821033E-01
        1   -1    0    0  501    0  0.00000000000E+00  0.00000000000E+00  0.18376359609E+04  0.18376359609E+04  0.50400001928E-02 0.  1.
       -1   -1    0    0    0  501  0.00000000000E+00  0.00000000000E+00 -0.34792975757E+03  0.34792975761E+03  0.50400001928E-02 0. -1.
    10030    2    1    2    0    0  0.00000000000E+00  0.00000000000E+00  0.14897062033E+04  0.21855657185E+04  0.15992100980E+04 0.  0.
        2    1    3    3  502    0 -0.23473924518E+03 -0.47158489281E+03 -0.77269680016E+02  0.53241471412E+03  0.25500000920E-02 0. -1.
       -2    1    3    3    0  502  0.23473924518E+03  0.47158489281E+03  0.15669758833E+04  0.16531510044E+04  0.25500000920E-02 0.  1.
</event>
<event>
 5   0  0.7901257E-05  0.1605122E+04  0.7818609E-02  0.8817408E-01
        2   -1    0    0  501    0  0.00000000000E+00  0.00000000000E+00  0.12871547877E+04  0.12871547877E+04  0.25500000920E-02 0. -1.
       -2   -1    0    0    0  501  0.00000000000E+00  0.00000000000E+00 -0.50040917422E+03  0.50040917423E+03  0.25500000920E-02 0.  1.
    10030    2    1    2    0    0  0.00000000000E+00  0.00000000000E+00  0.78674561344E+03  0.17875639619E+04  0.16051218825E+04 0.  0.
        2    1    3    3  502    0  0.41235974817E+03  0.36583975053E+03  0.10429586411E+04  0.11796787749E+04  0.25500000920E-02 0. -1.
       -2    1    3    3    0  502 -0.41235974817E+03 -0.36583975053E+03 -0.25621302765E+03  0.60788518696E+03  0.25500000920E-02 0.  1.
</event>
<event>
 5   0  0.4256406E-05  0.1603993E+04  0.7818609E-02  0.8818099E-01
       -1   -1    0    0    0  501  0.00000000000E+00  0.00000000000E+00  0.24617688979E+03  0.24617688984E+03  0.50400001928E-02 0. -1.
        1   -1    0    0  501    0  0.00000000000E+00  0.00000000000E+00 -0.26127484656E+04  0.26127484656E+04  0.50400001928E-02 0.  1.
    10030    2    1    2    0    0  0.00000000000E+00  0.00000000000E+00 -0.23665715758E+04  0.28589253554E+04  0.16039928817E+04 0.  0.
        3    1    3    3  502    0  0.44023543307E+03  0.46094120662E+03 -0.31571457011E+03  0.71130143572E+03  0.10100000352E+00 0. -1.
       -3    1    3    3    0  502 -0.44023543307E+03 -0.46094120662E+03 -0.20508570057E+04  0.21476239197E+04  0.10100000352E+00 0.  1.
</event>
<event>
 5   0  0.4504463E-05  0.1600472E+04  0.7818609E-02  0.8820258E-01
       -1   -1    0    0    0  501  0.00000000000E+00  0.00000000000E+00  0.60950308898E+03  0.60950308900E+03  0.50400001928E-02 0. -1.
        1   -1    0    0  501    0  0.00000000000E+00  0.00000000000E+00 -0.10506552957E+04  0.10506552957E+04  0.50400001928E-02 0.  1.
    10030    2    1    2    0    0  0.00000000000E+00  0.00000000000E+00 -0.44115220670E+03  0.16601583847E+04  0.16004719906E+04 0.  0.
        1    1    3    3  502    0  0.65835609145E+03  0.36015938648E+03  0.67690813872E+02  0.75347831629E+03  0.50400001928E-02 0. -1.
       -1    1    3    3    0  502 -0.65835609145E+03 -0.36015938648E+03 -0.50884302058E+03  0.90668006840E+03  0.50400001928E-02 0.  1.
</event>
<event>
 5   0  0.8620155E-05  0.1597120E+04  0.7818609E-02  0.8822319E-01
        2   -1    0    0  501    0  0.00000000000E+00  0.00000000000E+00  0.11190404529E+04  0.11190404529E+04  0.25500000920E-02 0.  1.
       -2   -1    0    0    0  501  0.00000000000E+00  0.00000000000E+00 -0.56986137000E+03  0.56986137000E+03  0.25500000920E-02 0. -1.
    10030    2    1    2    0    0  0.00000000000E+00  0.00000000000E+00  0.54917908289E+03  0.16889018229E+04  0.15971198146E+04 0.  0.
        4    1    3    3  502    0  0.30234766877E+03 -0.27196471002E+03  0.10013375955E+04  0.10807670930E+04  0.12699999809E+01 0.  1.
       -4    1    3    3    0  502 -0.30234766877E+03  0.27196471002E+03 -0.45215851258E+03  0.60813472989E+03  0.12699999809E+01 0. -1.
</event>
<event>
 5   0  0.8037548E-05  0.1597870E+04  0.7818609E-02  0.8821858E-01
        2   -1    0    0  501    0  0.00000000000E+00  0.00000000000E+00  0.50141580178E+03  0.50141580178E+03  0.25500000920E-02 0.  1.
       -2   -1    0    0    0  501  0.00000000000E+00  0.00000000000E+00 -0.12729896381E+04  0.12729896381E+04  0.25500000920E-02 0. -1.
    10030    2    1    2    0    0  0.00000000000E+00  0.00000000000E+00 -0.77157383634E+03  0.17744054399E+04  0.15978699823E+04 0.  0.
        5    1    3    3  502    0 -0.77546789716E+03 -0.29938418207E+01 -0.17242523355E+03  0.79442556213E+03  0.46999998093E+01 0.  1.
       -5    1    3    3    0  502  0.77546789716E+03  0.29938418207E+01 -0.59914860279E+03  0.97997987777E+03  0.46999998093E+01 0. -1.
</event>
<event>
 5   0  0.4211419E-05  0.1597057E+04  0.7818609E-02  0.8822358E-01
        1   -1    0    0  501    0  0.00000000000E+00  0.00000000000E+00  0.50355766502E+03  0.50355766505E+03  0.50400001928E-02 0. -1.
       -1   -1    0    0    0  501  0.00000000000E+00  0.00000000000E+00 -0.12662851545E+04  0.12662851545E+04  0.50400001928E-02 0.  1.
    10030    2    1    2    0    0  0.00000000000E+00  0.00000000000E+00 -0.76272748948E+03  0.17698428196E+04  0.15970567876E+04 0.  0.
        2    1    3    3  502    0 -0.55867842848E+03 -0.18510614077E+03 -0.97943929513E+03  0.11426667067E+04  0.25500000920E-02 0.  1.
       -2    1    3    3    0  502  0.55867842848E+03  0.18510614077E+03  0.21671180565E+03  0.62717611284E+03  0.25500000920E-02 0. -1.
</event>
<event>
 5   0  0.4211419E-05  0.1602428E+04  0.7818609E-02  0.8819058E-01
        1   -1    0    0  501    0  0.00000000000E+00  0.00000000000E+00  0.60137115165E+03  0.60137115167E+03  0.50400001928E-02 0.  1.
       -1   -1    0    0    0  501  0.00000000000E+00  0.00000000000E+00 -0.10674672010E+04  0.10674672010E+04  0.50400001928E-02 0. -1.
    10030    2    1    2    0    0  0.00000000000E+00  0.00000000000E+00 -0.46609604937E+03  0.16688383527E+04  0.16024281326E+04 0.  0.
        2    1    3    3  502    0 -0.47457393626E+03 -0.60151308740E+03  0.10982353281E+02  0.76626302754E+03  0.25500000920E-02 0. -1.
       -2    1    3    3    0  502  0.47457393626E+03  0.60151308740E+03 -0.47707840265E+03  0.90257532515E+03  0.25500000920E-02 0.  1.
</event>
<event>
 5   0  0.4504463E-05  0.1600950E+04  0.7818609E-02  0.8819964E-01
       -1   -1    0    0    0  501  0.00000000000E+00  0.00000000000E+00  0.78583767392E+03  0.78583767394E+03  0.50400001928E-02 0. -1.
        1   -1    0    0  501    0  0.00000000000E+00  0.00000000000E+00 -0.81538535380E+03  0.81538535381E+03  0.50400001928E-02 0.  1.
    10030    2    1    2    0    0  0.00000000000E+00  0.00000000000E+00 -0.29547679873E+02  0.16012230277E+04  0.16009503800E+04 0.  0.
        1    1    3    3  502    0 -0.53476660209E+03  0.53180946636E+03 -0.28308041100E+03  0.80556262720E+03  0.50400001928E-02 0.  1.
       -1    1    3    3    0  502  0.53476660209E+03 -0.53180946636E+03  0.25353273113E+03  0.79566040055E+03  0.50400001928E-02 0. -1.
</event>
<event>
 5   0  0.4314657E-05  0.1598263E+04  0.7818609E-02  0.8821616E-01
        1   -1    0    0  501    0  0.00000000000E+00  0.00000000000E+00  0.89535390640E+03  0.89535390642E+03  0.50400001928E-02 0.  1.
       -1   -1    0    0    0  501  0.00000000000E+00  0.00000000000E+00 -0.71324956584E+03  0.71324956585E+03  0.50400001928E-02 0. -1.
    10030    2    1    2    0    0  0.00000000000E+00  0.00000000000E+00  0.18210434057E+03  0.16086034723E+04  0.15982625379E+04 0.  0.
        5    1    3    3  502    0 -0.69907656944E+02 -0.73913658621E+03  0.38856364774E+03  0.83798196395E+03  0.46999998093E+01 0.  1.
       -5    1    3    3    0  502  0.69907656944E+02  0.73913658621E+03 -0.20645930717E+03  0.77062150832E+03  0.46999998093E+01 0. -1.
</event>
<event>
 5   0  0.4256406E-05  0.1594320E+04  0.7818609E-02  0.8824045E-01
        1   -1    0    0  501    0  0.00000000000E+00  0.00000000000E+00  0.11422672679E+04  0.11422672680E+04  0.50400001928E-02 0. -1.
       -1   -1    0    0    0  501  0.00000000000E+00  0.00000000000E+00 -0.55631819871E+03  0.55631819874E+03  0.50400001928E-02 0.  1.
    10030    2    1    2    0    0  0.00000000000E+00  0.00000000000E+00  0.58594906924E+03  0.16985854667E+04  0.15943200042E+04 0.  0.
        3    1    3    3  502    0 -0.93011231888E+02  0.32269857972E+03  0.10632202064E+04  0.11149989597E+04  0.10100000352E+00 0. -1.
       -3    1    3    3    0  502  0.93011231888E+02 -0.32269857972E+03 -0.47727113715E+03  0.58358650702E+03  0.10100000352E+00 0.  1.
</event>
<event>
 5   0  0.8694033E-05  0.1593267E+04  0.7818609E-02  0.8824695E-01
        2   -1    0    0  501    0  0.00000000000E+00  0.00000000000E+00  0.61438449923E+03  0.61438449923E+03  0.25500000920E-02 0. -1.
       -2   -1    0    0    0  501  0.00000000000E+00  0.00000000000E+00 -0.10329436324E+04  0.10329436324E+04  0.25500000920E-02 0.  1.
    10030    2    1    2    0    0  0.00000000000E+00  0.00000000000E+00 -0.41855913321E+03  0.16473281317E+04  0.15932665268E+04 0.  0.
        1    1    3    3  502    0 -0.30407981962E+03 -0.67214624294E+03  0.10155300720E+03  0.74468659306E+03  0.50400001928E-02 0. -1.
       -1    1    3    3    0  502  0.30407981962E+03  0.67214624294E+03 -0.52011214041E+03  0.90264153861E+03  0.50400001928E-02 0.  1.
</event>
<event>
 5   0  0.4314657E-05  0.1599158E+04  0.7818609E-02  0.8821065E-01
        1   -1    0    0  501    0  0.00000000000E+00  0.00000000000E+00  0.17480424745E+04  0.17480424745E+04  0.50400001928E-02 0. -1.
       -1   -1    0    0    0  501  0.00000000000E+00  0.00000000000E+00 -0.36573856120E+03  0.36573856124E+03  0.50400001928E-02 0.  1.
    10030    2    1    2    0    0  0.00000000000E+00  0.00000000000E+00  0.13823039133E+04  0.21137810357E+04  0.15991579529E+04 0.  0.
        5    1    3    3  502    0  0.67838793037E+03 -0.10056095662E+02  0.12503772795E+04  0.14225950724E+04  0.46999998093E+01 0. -1.
       -5    1    3    3    0  502 -0.67838793037E+03  0.10056095662E+02  0.13192663381E+03  0.69118596328E+03  0.46999998093E+01 0.  1.
</event>
<event>
 5   0  0.4504463E-05  0.1600865E+04  0.7818609E-02  0.8820017E-01
        1   -1    0    0  501    0  0.00000000000E+00  0.00000000000E+00  0.21679311316E+04  0.21679311316E+04  0.50400001928E-02 0.  1.
       -1   -1    0    0    0  501  0.00000000000E+00  0.00000000000E+00 -0.29553149721E+03  0.29553149726E+03  0.50400001928E-02 0. -1.
    10030    2    1    2    0    0  0.00000000000E+00  0.00000000000E+00  0.18723996344E+04  0.24634626289E+04  0.16008646829E+04 0.  0.
        1    1    3    3  502    0  0.17928447703E+03 -0.36763075027E+03  0.19949754574E+04  0.20364730217E+04  0.50400001928E-02 0.  1.
       -1    1    3    3    0  502 -0.17928447703E+03  0.36763075027E+03 -0.12257582302E+03  0.42698960721E+03  0.50400001928E-02 0. -1.
</event>
<event>
 5   0  0.4504463E-05  0.1600942E+04  0.7818609E-02  0.8819969E-01
        1   -1    0    0  501    0  0.00000000000E+00  0.00000000000E+00  0.71927403600E+03  0.71927403602E+03  0.50400001928E-02 0.  1.
       -1   -1    0    0    0  501  0.00000000000E+00  0.00000000000E+00 -0.89083416614E+03  0.89083416616E+03  0.50400001928E-02 0. -1.
    10030    2    1    2    0    0  0.00000000000E+00  0.00000000000E+00 -0.17156013014E+03  0.16101082022E+04  0.16009420803E+04 0.  0.
        1    1    3    3  502    0 -0.71395072536E+03 -0.34132393964E+03 -0.20699487707E+03  0.81796977277E+03  0.50400001928E-02 0.  1.
       -1    1    3    3    0  502  0.71395072536E+03  0.34132393964E+03  0.35434746929E+02  0.79213842940E+03  0.50400001928E-02 0. -1.
</event>
<event>
 5   0  0.4211419E-05  0.1598155E+04  0.7818609E-02  0.8821682E-01
        1   -1    0    0  501    0  0.00000000000E+00  0.00000000000E+00  0.11647187829E+04  0.11647187829E+04  0.50400001928E-02 0. -1.
       -1   -1    0    0    0  501  0.00000000000E+00  0.00000000000E+00 -0.54822259600E+03  0.54822259602E+03  0.50400001928E-02 0.  1.
    10030    2    1    2    0    0  0.00000000000E+00  0.00000000000E+00  0.61649618687E+03  0.17129413789E+04  0.15981553802E+04 0.  0.
        2    1    3    3  502    0  0.39856466001E+03 -0.10294106078E+01  0.10505745121E+04  0.11236376878E+04  0.25500000920E-02 0. -1.
       -2    1    3    3    0  502 -0.39856466001E+03  0.10294106078E+01 -0.43407832525E+03  0.58930369111E+03  0.25500000920E-02 0.  1.
</event>
<event>
 5   0  0.4256406E-05  0.1599270E+04  0.7818609E-02  0.8820997E-01
       -1   -1    0    0    0  501  0.00000000000E+00  0.00000000000E+00  0.63895075930E+03  0.63895075932E+03  0.50400001928E-02 0. -1.
        1   -1    0    0  501    0  0.00000000000E+00  0.00000000000E+00 -0.10007284302E+04  0.10007284302E+04  0.50400001928E-02 0.  1.
    10030    2    1    2    0    0  0.00000000000E+00  0.00000000000E+00 -0.36177767091E+03  0.16396791895E+04  0.15992700715E+04 0.  0.
        3    1    3    3  502    0 -0.14658378341E+03  0.28519121340E+03  0.57014676826E+03  0.65413162384E+03  0.10100000352E+00 0. -1.
       -3    1    3    3    0  502  0.14658378341E+03 -0.28519121340E+03 -0.93192443916E+03  0.98554756570E+03  0.10100000352E+00 0.  1.
</event>
<event>
 5   0  0.8694033E-05  0.1597531E+04  0.7818609E-02  0.8822066E-01
       -2   -1    0    0    0  501  0.00000000000E+00  0.00000000000E+00  0.46885180100E+03  0.46885180101E+03  0.25500000920E-02 0. -1.
        2   -1    0    0  501    0  0.00000000000E+00  0.00000000000E+00 -0.13608278801E+04  0.13608278801E+04  0.25500000920E-02 0.  1.
    10030    2    1    2    0    0  0.00000000000E+00  0.00000000000E+00 -0.89197607909E+03  0.18296796811E+04  0.15975313486E+04 0.  0.
        1    1    3    3  502    0 -0.13459662510E+02  0.37957091215E+03  0.35881317894E+03  0.52249606436E+03  0.50400001928E-02 0. -1.
       -1    1    3    3    0  502  0.13459662510E+02 -0.37957091215E+03 -0.12507892580E+04  0.13071836168E+04  0.50400001928E-02 0.  1.
</event>
<event>
 5   0  0.7849690E-05  0.1601362E+04  0.7818609E-02  0.8819712E-01
        2   -1    0    0  501    0  0.00000000000E+00  0.00000000000E+00  0.44820168250E+03  0.44820168251E+03  0.25500000920E-02 0.  1.
       -2   -1    0    0    0  501  0.00000000000E+00  0.00000000000E+00 -0.14303611768E+04  0.14303611768E+04  0.25500000920E-02 0. -1.
    10030    2    1    2    0    0  0.00000000000E+00  0.00000000000E+00 -0.98215949427E+03  0.18785628593E+04  0.16013622776E+04 0.  0.
        3    1    3    3  502    0 -0.36879172290E+03  0.39589433945E+03 -0.11834596084E+04  0.13012748817E+04  0.10100000352E+00 0. -1.
       -3    1    3    3    0  502  0.36879172290E+03 -0.39589433945E+03  0.20130011412E+03  0.57728797756E+03  0.10100000352E+00 0.  1.
</event>
<event>
 5   0  0.4256406E-05  0.1596306E+04  0.7818609E-02  0.8822821E-01
       -1   -1    0    0    0  501  0.00000000000E+00  0.00000000000E+00  0.11498278953E+04  0.11498278953E+04  0.50400001928E-02 0. -1.
        1   -1    0    0  501    0  0.00000000000E+00  0.00000000000E+00 -0.55403766879E+03  0.55403766881E+03  0.50400001928E-02 0.  1.
    10030    2    1    2    0    0  0.00000000000E+00  0.00000000000E+00  0.59579022651E+03  0.17038655641E+04  0.15963056933E+04 0.  0.
        3    1    3    3  502    0  0.19196183576E+03 -0.17149051278E+02  0.11246187035E+04  0.11410130038E+04  0.10100000352E+00 0. -1.
       -3    1    3    3    0  502 -0.19196183576E+03  0.17149051278E+02 -0.52882847701E+03  0.56285256031E+03  0.10100000352E+00 0.  1.
</event>
<event>
 5   0  0.3042125E-05  0.1600319E+04  0.7818609E-02  0.8820352E-01
       -4   -1    0    0    0  501  0.00000000000E+00  0.00000000000E+00  0.12276834820E+04  0.12276841389E+04  0.12699999809E+01 0.  1.
        4   -1    0    0  501    0  0.00000000000E+00  0.00000000000E+00 -0.52151318568E+03  0.52151473204E+03  0.12699999809E+01 0. -1.
    10030    2    1    2    0    0  0.00000000000E+00  0.00000000000E+00  0.70617029636E+03  0.17491988710E+04  0.16003187816E+04 0.  0.
        2    1    3    3  502    0 -0.37918279605E+03  0.69751772390E+03  0.46208446710E+03  0.91860362656E+03  0.25500000920E-02 0.  1.
       -2    1    3    3    0  502  0.37918279605E+03 -0.69751772390E+03  0.24408582926E+03  0.83059524441E+03  0.25500000920E-02 0. -1.
</event>
<event>
 5   0  0.4373026E-05  0.1599493E+04  0.7818609E-02  0.8820859E-01
        1   -1    0    0  501    0  0.00000000000E+00  0.00000000000E+00  0.92755555699E+03  0.92755555701E+03  0.50400001928E-02 0.  1.
       -1   -1    0    0    0  501  0.00000000000E+00  0.00000000000E+00 -0.68954862770E+03  0.68954862772E+03  0.50400001928E-02 0. -1.
    10030    2    1    2    0    0  0.00000000000E+00  0.00000000000E+00  0.23800692929E+03  0.16171041847E+04  0.15994932466E+04 0.  0.
        4    1    3    3  502    0 -0.27375430684E+03 -0.68423300617E+03 -0.19502360261E+03  0.76233329045E+03  0.12699999809E+01 0. -1.
       -4    1    3    3    0  502  0.27375430684E+03  0.68423300617E+03  0.43303053191E+03  0.85477089428E+03  0.12699999809E+01 0.  1.
</event>
<event>
 5   0  0.4211419E-05  0.1608933E+04  0.7818609E-02  0.8815079E-01
       -1   -1    0    0    0  501  0.00000000000E+00  0.00000000000E+00  0.75797817805E+03  0.75797817807E+03  0.50400001928E-02 0. -1.
        1   -1    0    0  501    0  0.00000000000E+00  0.00000000000E+00 -0.85380562236E+03  0.85380562238E+03  0.50400001928E-02 0.  1.
    10030    2    1    2    0    0  0.00000000000E+00  0.00000000000E+00 -0.95827444310E+02  0.16117838004E+04  0.16089326028E+04 0.  0.
        2    1    3    3  502    0 -0.14059381441E+03  0.40723675147E+03 -0.72849798909E+03  0.84635554734E+03  0.25500000920E-02 0.  1.
       -2    1    3    3    0  502  0.14059381441E+03 -0.40723675147E+03  0.63267054478E+03  0.76542825310E+03  0.25500000920E-02 0. -1.
</event>
<event>
 5   0  0.4504463E-05  0.1598838E+04  0.7818609E-02  0.8821262E-01
        1   -1    0    0  501    0  0.00000000000E+00  0.00000000000E+00  0.11111664661E+04  0.11111664661E+04  0.50400001928E-02 0. -1.
       -1   -1    0    0    0  501  0.00000000000E+00  0.00000000000E+00 -0.57513497792E+03  0.57513497794E+03  0.50400001928E-02 0.  1.
    10030    2    1    2    0    0  0.00000000000E+00  0.00000000000E+00  0.53603148822E+03  0.16863014441E+04  0.15988379543E+04 0.  0.
        1    1    3    3  502    0 -0.17789824882E+02 -0.32713119984E+03  0.10371110908E+04  0.10876261832E+04  0.50400001928E-02 0. -1.
       -1    1    3    3    0  502  0.17789824882E+02  0.32713119984E+03 -0.50107960259E+03  0.59867526084E+03  0.50400001928E-02 0.  1.
</event>
<event>
 5   0  0.4314657E-05  0.1600861E+04  0.7818609E-02  0.8820019E-01
        1   -1    0    0  501    0  0.00000000000E+00  0.00000000000E+00  0.11574377798E+04  0.11574377798E+04  0.50400001928E-02 0.  1.
       -1   -1    0    0    0  501  0.00000000000E+00  0.00000000000E+00 -0.55354088341E+03  0.55354088343E+03  0.50400001928E-02 0. -1.
    10030    2    1    2    0    0  0.00000000000E+00  0.00000000000E+00  0.60389689635E+03  0.17109786632E+04  0.16008611821E+04 0.  0.
        5    1    3    3  502    0  0.23520175064E+03  0.73683505579E+03  0.81816643118E+02  0.77779291333E+03  0.46999998093E+01 0. -1.
       -5    1    3    3    0  502 -0.23520175064E+03 -0.73683505579E+03  0.52208025323E+03  0.93318574987E+03  0.46999998093E+01 0.  1.
</event>
<event>
 5   0  0.8037548E-05  0.1599795E+04  0.7818609E-02  0.8820674E-01
       -2   -1    0    0    0  501  0.00000000000E+00  0.00000000000E+00  0.83185109435E+03  0.83185109435E+03  0.25500000920E-02 0.  1.
        2   -1    0    0  501    0  0.00000000000E+00  0.00000000000E+00 -0.76917123553E+03  0.76917123554E+03  0.25500000920E-02 0. -1.
    10030    2    1    2    0    0  0.00000000000E+00  0.00000000000E+00  0.62679858813E+02  0.16010223299E+04  0.15997949044E+04 0.  0.
        5    1    3    3  502    0  0.37266773807E+03  0.12694864371E+03  0.72816190741E+03  0.82779167339E+03  0.46999998093E+01 0.  1.
       -5    1    3    3    0  502 -0.37266773807E+03 -0.12694864371E+03 -0.66548204860E+03  0.77323065649E+03  0.46999998093E+01 0. -1.
</event>
<event>
 5   0  0.8620155E-05  0.1599836E+04  0.7818609E-02  0.8820649E-01
        2   -1    0    0  501    0  0.00000000000E+00  0.00000000000E+00  0.76839642046E+03  0.76839642046E+03  0.25500000920E-02 0. -1.
       -2   -1    0    0    0  501  0.00000000000E+00  0.00000000000E+00 -0.83273227042E+03  0.83273227042E+03  0.25500000920E-02 0.  1.
    10030    2    1    2    0    0  0.00000000000E+00  0.00000000000E+00 -0.64335849960E+02  0.16011286909E+04  0.15998356113E+04 0.  0.
        4    1    3    3  502    0  0.35196502538E+03  0.40476512353E+03 -0.62607211671E+03  0.82442834287E+03  0.12699999809E+01 0.  1.
       -4    1    3    3    0  502 -0.35196502538E+03 -0.40476512353E+03  0.56173626675E+03  0.77670034801E+03  0.12699999809E+01 0. -1.
</event>
<event>
 5   0  0.4314657E-05  0.1600404E+04  0.7818609E-02  0.8820300E-01
        1   -1    0    0  501    0  0.00000000000E+00  0.00000000000E+00  0.70552939009E+03  0.70552939011E+03  0.50400001928E-02 0. -1.
       -1   -1    0    0    0  501  0.00000000000E+00  0.00000000000E+00 -0.90757883319E+03  0.90757883321E+03  0.50400001928E-02 0.  1.
    10030    2    1    2    0    0  0.00000000000E+00  0.00000000000E+00 -0.20204944310E+03  0.16131082233E+04  0.16004043747E+04 0.  0.
        5    1    3    3  502    0 -0.57190325570E+03  0.29400711827E+03 -0.58102749303E+03  0.86667673162E+03  0.46999998093E+01 0.  1.
       -5    1    3    3    0  502  0.57190325570E+03 -0.29400711827E+03  0.37897804993E+03  0.74643149170E+03  0.46999998093E+01 0. -1.
</event>
<event>
 5   0  0.3042125E-05  0.1599202E+04  0.7818609E-02  0.8821038E-01
       -3   -1    0    0    0  501  0.00000000000E+00  0.00000000000E+00  0.57379531926E+03  0.57379532815E+03  0.10100000352E+00 0. -1.
        3   -1    0    0  501    0  0.00000000000E+00  0.00000000000E+00 -0.11142679050E+04  0.11142679096E+04  0.10100000352E+00 0.  1.
    10030    2    1    2    0    0  0.00000000000E+00  0.00000000000E+00 -0.54047258571E+03  0.16880632377E+04  0.15992019505E+04 0.  0.
        2    1    3    3  502    0  0.12683369243E+03  0.76529539199E+03 -0.65560171413E+02  0.77849981286E+03  0.25500000920E-02 0. -1.
       -2    1    3    3    0  502 -0.12683369243E+03 -0.76529539199E+03 -0.47491241430E+03  0.90956342484E+03  0.25500000920E-02 0.  1.
</event>
<event>
 5   0  0.7849690E-05  0.1598556E+04  0.7818609E-02  0.8821436E-01
        2   -1    0    0  501    0  0.00000000000E+00  0.00000000000E+00  0.64912326999E+03  0.64912326999E+03  0.25500000920E-02 0.  1.
       -2   -1    0    0    0  501  0.00000000000E+00  0.00000000000E+00 -0.98416602877E+03  0.98416602877E+03  0.25500000920E-02 0. -1.
    10030    2    1    2    0    0  0.00000000000E+00  0.00000000000E+00 -0.33504275878E+03  0.16332892988E+04  0.15985556866E+04 0.  0.
        3    1    3    3  502    0  0.70860277900E+03  0.50258724618E+02  0.20677323939E+03  0.73986419061E+03  0.10100000352E+00 0. -1.
       -3    1    3    3    0  502 -0.70860277900E+03 -0.50258724618E+02 -0.54181599817E+03  0.89342510816E+03  0.10100000352E+00 0.  1.
</event>
<event>
 5   0  0.8620155E-05  0.1598672E+04  0.7818609E-02  0.8821364E-01
       -2   -1    0    0    0  501  0.00000000000E+00  0.00000000000E+00  0.52862974155E+03  0.52862974156E+03  0.25500000920E-02 0. -1.
        2   -1    0    0  501    0  0.00000000000E+00  0.00000000000E+00 -0.12086678981E+04  0.12086678981E+04  0.25500000920E-02 0.  1.
    10030    2    1    2    0    0  0.00000000000E+00  0.00000000000E+00 -0.68003815650E+03  0.17372976396E+04  0.15986716969E+04 0.  0.
        4    1    3    3  502    0 -0.27134435190E+03  0.64208367418E+03  0.85102492873E+02  0.70224158888E+03  0.12699999809E+01 0. -1.
       -4    1    3    3    0  502  0.27134435190E+03 -0.64208367418E+03 -0.76514064937E+03  0.10350560507E+04  0.12699999809E+01 0.  1.
</event>
<event>
 5   0  0.8620155E-05  0.1599733E+04  0.7818609E-02  0.8820712E-01
        2   -1    0    0  501    0  0.00000000000E+00  0.00000000000E+00  0.65097742766E+03  0.65097742767E+03  0.25500000920E-02 0. -1.
       -2   -1    0    0    0  501  0.00000000000E+00  0.00000000000E+00 -0.98280840246E+03  0.98280840246E+03  0.25500000920E-02 0.  1.
    10030    2    1    2    0    0  0.00000000000E+00  0.00000000000E+00 -0.33183097480E+03  0.16337858301E+04  0.15997325848E+04 0.  0.
        4    1    3    3  502    0 -0.22909369541E+03  0.31904388606E+03 -0.87753445809E+03  0.96142667975E+03  0.12699999809E+01 0.  1.
       -4    1    3    3    0  502  0.22909369541E+03 -0.31904388606E+03  0.54570348329E+03  0.67235915037E+03  0.12699999809E+01 0. -1.
</event>
<event>
 5   0  0.4373026E-05  0.1606790E+04  0.7818609E-02  0.8816387E-01
        1   -1    0    0  501    0  0.00000000000E+00  0.00000000000E+00  0.79014985731E+03  0.79014985733E+03  0.50400001928E-02 0. -1.
       -1   -1    0    0    0  501  0.00000000000E+00  0.00000000000E+00 -0.81686246240E+03  0.81686246242E+03  0.50400001928E-02 0.  1.
    10030    2    1    2    0    0  0.00000000000E+00  0.00000000000E+00 -0.26712605092E+02  0.16070123197E+04  0.16067902889E+04 0.  0.
        4    1    3    3  502    0  0.32224552854E+03 -0.73576019888E+03 -0.29386440310E+02  0.80377262126E+03  0.12699999809E+01 0. -1.
       -4    1    3    3    0  502 -0.32224552854E+03  0.73576019888E+03  0.26738352178E+01  0.80323969848E+03  0.12699999809E+01 0.  1.
</event>
<event>
 5   0  0.4256406E-05  0.1597475E+04  0.7818609E-02  0.8822101E-01
       -1   -1    0    0    0  501  0.00000000000E+00  0.00000000000E+00  0.50727730628E+03  0.50727730630E+03  0.50400001928E-02 0. -1.
        1   -1    0    0  501    0  0.00000000000E+00  0.00000000000E+00 -0.12576577703E+04  0.12576577703E+04  0.50400001928E-02 0.  1.
    10030    2    1    2    0    0  0.00000000000E+00  0.00000000000E+00 -0.75038046403E+03  0.17649350766E+04  0.15974745644E+04 0.  0.
        3    1    3    3  502    0 -0.64728218704E+03 -0.40669247330E+03 -0.63099612801E+03  0.99122606971E+03  0.10100000352E+00 0. -1.
       -3    1    3    3    0  502  0.64728218704E+03  0.40669247330E+03 -0.11938433602E+03  0.77370900692E+03  0.10100000352E+00 0.  1.
</event>
<event>
 5   0  0.4256406E-05  0.1590738E+04  0.7818609E-02  0.8826258E-01
        1   -1    0    0  501    0  0.00000000000E+00  0.00000000000E+00  0.14365731110E+04  0.14365731110E+04  0.50400001928E-02 0.  1.
       -1   -1    0    0    0  501  0.00000000000E+00  0.00000000000E+00 -0.44036176507E+03  0.44036176510E+03  0.50400001928E-02 0. -1.
    10030    2    1    2    0    0  0.00000000000E+00  0.00000000000E+00  0.99621134593E+03  0.18769348761E+04  0.15907380310E+04 0.  0.
        3    1    3    3  502    0 -0.69505757465E+03 -0.17084385212E+03  0.90738331431E+03  0.11556976868E+04  0.10100000352E+00 0.  1.
       -3    1    3    3    0  502  0.69505757465E+03  0.17084385212E+03  0.88828031616E+02  0.72123718934E+03  0.10100000352E+00 0. -1.
</event>
<event>
 5   0  0.8620155E-05  0.1606447E+04  0.7818609E-02  0.8816597E-01
        2   -1    0    0  501    0  0.00000000000E+00  0.00000000000E+00  0.44006881976E+03  0.44006881976E+03  0.25500000920E-02 0.  1.
       -2   -1    0    0    0  501  0.00000000000E+00  0.00000000000E+00 -0.14660616189E+04  0.14660616189E+04  0.25500000920E-02 0. -1.
    10030    2    1    2    0    0  0.00000000000E+00  0.00000000000E+00 -0.10259927991E+04  0.19061304387E+04  0.16064470191E+04 0.  0.
        4    1    3    3  502    0 -0.24381753302E+03 -0.59043102159E+03 -0.10907753372E+04  0.12640602160E+04  0.12699999809E+01 0. -1.
       -4    1    3    3    0  502  0.24381753302E+03  0.59043102159E+03  0.64782538033E+02  0.64207022264E+03  0.12699999809E+01 0.  1.
</event>
<event>
 5   0  0.4373026E-05  0.1599399E+04  0.7818609E-02  0.8820917E-01
       -1   -1    0    0    0  501  0.00000000000E+00  0.00000000000E+00  0.12646865770E+04  0.12646865770E+04  0.50400001928E-02 0.  1.
        1   -1    0    0  501    0  0.00000000000E+00  0.00000000000E+00 -0.50567435470E+03  0.50567435473E+03  0.50400001928E-02 0. -1.
    10030    2    1    2    0    0  0.00000000000E+00  0.00000000000E+00  0.75901222225E+03  0.17703609317E+04  0.15993993482E+04 0.  0.
        4    1    3    3  502    0 -0.71981763891E+02 -0.79749988748E+02  0.12566616407E+04  0.12612460217E+04  0.12699999809E+01 0.  1.
       -4    1    3    3    0  502  0.71981763891E+02  0.79749988748E+02 -0.49764941845E+03  0.50911491003E+03  0.12699999809E+01 0. -1.
</event>
<event>
 5   0  0.7849690E-05  0.1599222E+04  0.7818609E-02  0.8821026E-01
       -2   -1    0    0    0  501  0.00000000000E+00  0.00000000000E+00  0.71364509545E+03  0.71364509545E+03  0.25500000920E-02 0.  1.
        2   -1    0    0  501    0  0.00000000000E+00  0.00000000000E+00 -0.89593261990E+03  0.89593261991E+03  0.25500000920E-02 0. -1.
    10030    2    1    2    0    0  0.00000000000E+00  0.00000000000E+00 -0.18228752446E+03  0.16095777154E+04  0.15992222110E+04 0.  0.
        3    1    3    3  502    0 -0.37834851274E+03  0.66051301028E+03  0.15529450612E+03  0.77687928771E+03  0.10100000352E+00 0. -1.
       -3    1    3    3    0  502  0.37834851274E+03 -0.66051301028E+03 -0.33758203057E+03  0.83269842765E+03  0.10100000352E+00 0.  1.
</event>
<event>
 5   0  0.4314657E-05  0.1600576E+04  0.7818609E-02  0.8820194E-01
       -1   -1    0    0    0  501  0.00000000000E+00  0.00000000000E+00  0.63750745970E+03  0.63750745972E+03  0.50400001928E-02 0. -1.
        1   -1    0    0  501    0  0.00000000000E+00  0.00000000000E+00 -0.10046331713E+04  0.10046331713E+04  0.50400001928E-02 0.  1.
    10030    2    1    2    0    0  0.00000000000E+00  0.00000000000E+00 -0.36712571159E+03  0.16421406310E+04  0.16005763224E+04 0.  0.
        5    1    3    3  502    0  0.34573319025E+02 -0.77462612703E+03 -0.38668930027E+03  0.86648234604E+03  0.46999998093E+01 0. -1.
       -5    1    3    3    0  502 -0.34573319025E+02  0.77462612703E+03  0.19563588680E+02  0.77565828498E+03  0.46999998093E+01 0.  1.
</event>
<event>
 5   0  0.7849690E-05  0.1600491E+04  0.7818609E-02  0.8820246E-01
        2   -1    0    0  501    0  0.00000000000E+00  0.00000000000E+00  0.64175537108E+03  0.64175537109E+03  0.25500000920E-02 0.  1.
       -2   -1    0    0    0  501  0.00000000000E+00  0.00000000000E+00 -0.99787730141E+03  0.99787730142E+03  0.25500000920E-02 0. -1.
    10030    2    1    2    0    0  0.00000000000E+00  0.00000000000E+00 -0.35612193033E+03  0.16396326725E+04  0.16004913219E+04 0.  0.
        3    1    3    3  502    0  0.13938675772E+03  0.78591546794E+03 -0.23692321183E+03  0.83260099056E+03  0.10100000352E+00 0. -1.
       -3    1    3    3    0  502 -0.13938675772E+03 -0.78591546794E+03 -0.11919871850E+03  0.80703168195E+03  0.10100000352E+00 0.  1.
</event>
<event>
 5   0  0.8694033E-05  0.1607647E+04  0.7818609E-02  0.8815864E-01
        2   -1    0    0  501    0  0.00000000000E+00  0.00000000000E+00  0.97311045398E+03  0.97311045399E+03  0.25500000920E-02 0.  1.
       -2   -1    0    0    0  501  0.00000000000E+00  0.00000000000E+00 -0.66398670676E+03  0.66398670677E+03  0.25500000920E-02 0. -1.
    10030    2    1    2    0    0  0.00000000000E+00  0.00000000000E+00  0.30912374722E+03  0.16370971608E+04  0.16076472320E+04 0.  0.
        1    1    3    3  502    0 -0.69586492824E+03  0.15158182263E+03  0.53411938205E+03  0.89021826627E+03  0.50400001928E-02 0.  1.
       -1    1    3    3    0  502  0.69586492824E+03 -0.15158182263E+03 -0.22499563483E+03  0.74687889448E+03  0.50400001928E-02 0. -1.
</event>
<event>
 5   0  0.4314657E-05  0.1599309E+04  0.7818609E-02  0.8820972E-01
        1   -1    0    0  501    0  0.00000000000E+00  0.00000000000E+00  0.47334493247E+03  0.47334493250E+03  0.50400001928E-02 0.  1.
       -1   -1    0    0    0  501  0.00000000000E+00  0.00000000000E+00 -0.13509123227E+04  0.13509123227E+04  0.50400001928E-02 0. -1.
    10030    2    1    2    0    0  0.00000000000E+00  0.00000000000E+00 -0.87756739026E+03  0.18242572552E+04  0.15993092286E+04 0.  0.
        5    1    3    3  502    0  0.57233640582E+03  0.47085558150E+03 -0.78126750842E+03  0.10768820501E+04  0.46999998093E+01 0. -1.
       -5    1    3    3    0  502 -0.57233640582E+03 -0.47085558150E+03 -0.96299881841E+02  0.74737520516E+03  0.46999998093E+01 0.  1.
</event>
<event>
 5   0  0.4211419E-05  0.1600346E+04  0.7818609E-02  0.8820336E-01
        1   -1    0    0  501    0  0.00000000000E+00  0.00000000000E+00  0.12331371784E+04  0.12331371784E+04  0.50400001928E-02 0. -1.
       -1   -1    0    0    0  501  0.00000000000E+00  0.00000000000E+00 -0.51922586914E+03  0.51922586917E+03  0.50400001928E-02 0.  1.
    10030    2    1    2    0    0  0.00000000000E+00  0.00000000000E+00  0.71391130922E+03  0.17523630475E+04  0.16003458667E+04 0.  0.
        2    1    3    3  502    0  0.67175844670E+03  0.10471380462E+03  0.81900043306E+03  0.10644181983E+04  0.25500000920E-02 0. -1.
       -2    1    3    3    0  502 -0.67175844670E+03 -0.10471380462E+03 -0.10508912384E+03  0.68794484920E+03  0.25500000920E-02 0.  1.
</event>
<event>
 5   0  0.7901257E-05  0.1593131E+04  0.7818609E-02  0.8824779E-01
        2   -1    0    0  501    0  0.00000000000E+00  0.00000000000E+00  0.69810173738E+03  0.69810173739E+03  0.25500000920E-02 0. -1.
       -2   -1    0    0    0  501  0.00000000000E+00  0.00000000000E+00 -0.90891762504E+03  0.90891762505E+03  0.25500000920E-02 0.  1.
    10030    2    1    2    0    0  0.00000000000E+00  0.00000000000E+00 -0.21081588766E+03  0.16070193624E+04  0.15931314738E+04 0.  0.
        2    1    3    3  502    0 -0.35736258155E+03  0.55913872511E+03  0.33908384064E+03  0.74519928852E+03  0.25500000920E-02 0. -1.
       -2    1    3    3    0  502  0.35736258155E+03 -0.55913872511E+03 -0.54989972830E+03  0.86182007392E+03  0.25500000920E-02 0.  1.
</event>
<event>
 5   0  0.7901257E-05  0.1600096E+04  0.7818609E-02  0.8820489E-01
        2   -1    0    0  501    0  0.00000000000E+00  0.00000000000E+00  0.66946134565E+03  0.66946134566E+03  0.25500000920E-02 0.  1.
       -2   -1    0    0    0  501  0.00000000000E+00  0.00000000000E+00 -0.95610764690E+03  0.95610764690E+03  0.25500000920E-02 0. -1.
    10030    2    1    2    0    0  0.00000000000E+00  0.00000000000E+00 -0.28664630125E+03  0.16255689926E+04  0.16000963870E+04 0.  0.
        2    1    3    3  502    0  0.65310051194E+03 -0.38156369757E+03 -0.40813727099E+03  0.85948075369E+03  0.25500000920E-02 0.  1.
       -2    1    3    3    0  502 -0.65310051194E+03  0.38156369757E+03  0.12149096974E+03  0.76608823887E+03  0.25500000920E-02 0. -1.
</event>
<event>
 5   0  0.4256406E-05  0.1598230E+04  0.7818609E-02  0.8821636E-01
       -1   -1    0    0    0  501  0.00000000000E+00  0.00000000000E+00  0.76144376079E+03  0.76144376080E+03  0.50400001928E-02 0. -1.
        1   -1    0    0  501    0  0.00000000000E+00  0.00000000000E+00 -0.83864973911E+03  0.83864973912E+03  0.50400001928E-02 0.  1.
    10030    2    1    2    0    0  0.00000000000E+00  0.00000000000E+00 -0.77205978321E+02  0.16000934999E+04  0.15982297849E+04 0.  0.
        3    1    3    3  502    0  0.66454894021E+02 -0.70020281872E+03  0.34116026222E+03  0.78172282492E+03  0.10100000352E+00 0. -1.
       -3    1    3    3    0  502 -0.66454894021E+02  0.70020281872E+03 -0.41836624055E+03  0.81837067501E+03  0.10100000352E+00 0.  1.
</event>
<event>
 5   0  0.4211419E-05  0.1600953E+04  0.7818609E-02  0.8819963E-01
       -1   -1    0    0    0  501  0.00000000000E+00  0.00000000000E+00  0.94735425508E+03  0.94735425509E+03  0.50400001928E-02 0. -1.
        1   -1    0    0  501    0  0.00000000000E+00  0.00000000000E+00 -0.67637038088E+03  0.67637038090E+03  0.50400001928E-02 0.  1.
    10030    2    1    2    0    0  0.00000000000E+00  0.00000000000E+00  0.27098387419E+03  0.16237246360E+04  0.16009526643E+04 0.  0.
        2    1    3    3  502    0 -0.26739822358E+03 -0.43732309335E+03  0.75906162190E+03  0.91593004307E+03  0.25500000920E-02 0. -1.
       -2    1    3    3    0  502  0.26739822358E+03  0.43732309335E+03 -0.48807774771E+03  0.70779459292E+03  0.25500000920E-02 0.  1.
</event>
<event>
 5   0  0.8694033E-05  0.1600684E+04  0.7818609E-02  0.8820128E-01
        2   -1    0    0  501    0  0.00000000000E+00  0.00000000000E+00  0.53098587645E+03  0.53098587645E+03  0.25500000920E-02 0.  1.
       -2   -1    0    0    0  501  0.00000000000E+00  0.00000000000E+00 -0.12063365439E+04  0.12063365439E+04  0.25500000920E-02 0. -1.
    10030    2    1    2    0    0  0.00000000000E+00  0.00000000000E+00 -0.67535066744E+03  0.17373224203E+04  0.16006844374E+04 0.  0.
        1    1    3    3  502    0 -0.10150200720E+03  0.78348223956E+03 -0.19867865094E+03  0.81462892383E+03  0.50400001928E-02 0.  1.
       -1    1    3    3    0  502  0.10150200720E+03 -0.78348223956E+03 -0.47667201650E+03  0.92269349652E+03  0.50400001928E-02 0. -1.
</event>
<event>
 5   0  0.4373026E-05  0.1599497E+04  0.7818609E-02  0.8820857E-01
        1   -1    0    0  501    0  0.00000000000E+00  0.00000000000E+00  0.99914465448E+03  0.99914465449E+03  0.50400001928E-02 0.  1.
       -1   -1    0    0    0  501  0.00000000000E+00  0.00000000000E+00 -0.64014551669E+03  0.64014551671E+03  0.50400001928E-02 0. -1.
    10030    2    1    2    0    0  0.00000000000E+00  0.00000000000E+00  0.35899913779E+03  0.16392901712E+04  0.15994973850E+04 0.  0.
        4    1    3    3  502    0 -0.29358088083E+03  0.97020362021E+02  0.93540806257E+03  0.98518655120E+03  0.12699999809E+01 0.  1.
       -4    1    3    3    0  502  0.29358088083E+03 -0.97020362021E+02 -0.57640892478E+03  0.65410362001E+03  0.12699999809E+01 0. -1.
</event>
<event>
 5   0  0.8694033E-05  0.1600734E+04  0.7818609E-02  0.8820097E-01
       -2   -1    0    0    0  501  0.00000000000E+00  0.00000000000E+00  0.25686931341E+03  0.25686931342E+03  0.25500000920E-02 0.  1.
        2   -1    0    0  501    0  0.00000000000E+00  0.00000000000E+00 -0.24938269464E+04  0.24938269464E+04  0.25500000920E-02 0. -1.
    10030    2    1    2    0    0  0.00000000000E+00  0.00000000000E+00 -0.22369576330E+04  0.27506962598E+04  0.16007343508E+04 0.  0.
        1    1    3    3  502    0 -0.35724351190E+03 -0.66320711326E+03 -0.15831486444E+04  0.17532330798E+04  0.50400001928E-02 0. -1.
       -1    1    3    3    0  502  0.35724351190E+03  0.66320711326E+03 -0.65380898860E+03  0.99746318001E+03  0.50400001928E-02 0.  1.
</event>
<event>
 5   0  0.4504463E-05  0.1599472E+04  0.7818609E-02  0.8820872E-01
       -1   -1    0    0    0  501  0.00000000000E+00  0.00000000000E+00  0.82461903147E+03  0.82461903149E+03  0.50400001928E-02 0. -1.
        1   -1    0    0  501    0  0.00000000000E+00  0.00000000000E+00 -0.77560383261E+03  0.77560383263E+03  0.50400001928E-02 0.  1.
    10030    2    1    2    0    0  0.00000000000E+00  0.00000000000E+00  0.49015198857E+02  0.16002228641E+04  0.15994720145E+04 0.  0.
        1    1    3    3  502    0  0.56439837912E+03  0.41647136374E+03  0.40885425135E+03  0.81188405948E+03  0.50400001928E-02 0. -1.
       -1    1    3    3    0  502 -0.56439837912E+03 -0.41647136374E+03 -0.35983905249E+03  0.78833880464E+03  0.50400001928E-02 0.  1.
</event>
<event>
 5   0  0.8620155E-05  0.1581421E+04  0.7818609E-02  0.8832044E-01
        2   -1    0    0  501    0  0.00000000000E+00  0.00000000000E+00  0.54430994882E+03  0.54430994882E+03  0.25500000920E-02 0.  1.
       -2   -1    0    0    0  501  0.00000000000E+00  0.00000000000E+00 -0.11486522692E+04  0.11486522693E+04  0.25500000920E-02 0. -1.
    10030    2    1    2    0    0  0.00000000000E+00  0.00000000000E+00 -0.60434232043E+03  0.16929622181E+04  0.15814207004E+04 0.  0.
        4    1    3    3  502    0 -0.53943030089E+03  0.44908234412E+03  0.87598590834E+02  0.70734371231E+03  0.12699999809E+01 0.  1.
       -4    1    3    3    0  502  0.53943030089E+03 -0.44908234412E+03 -0.69194091127E+03  0.98561850577E+03  0.12699999809E+01 0. -1.
</event>
<event>
 5   0  0.3042125E-05  0.1599694E+04  0.7818609E-02  0.8820736E-01
       -3   -1    0    0    0  501  0.00000000000E+00  0.00000000000E+00  0.95496753829E+03  0.95496754363E+03  0.10100000352E+00 0.  1.
        3   -1    0    0  501    0  0.00000000000E+00  0.00000000000E+00 -0.66992315641E+03  0.66992316402E+03  0.10100000352E+00 0. -1.
    10030    2    1    2    0    0  0.00000000000E+00  0.00000000000E+00  0.28504438188E+03  0.16248907076E+04  0.15996935682E+04 0.  0.
        2    1    3    3  502    0  0.27720538257E+03 -0.47637067936E+03 -0.44624828957E+03  0.70916104252E+03  0.25500000920E-02 0. -1.
       -2    1    3    3    0  502 -0.27720538257E+03  0.47637067936E+03  0.73129267144E+03  0.91572966513E+03  0.25500000920E-02 0.  1.
</event>
<event>
 5   0  0.7849690E-05  0.1604143E+04  0.7818609E-02  0.8818007E-01
       -2   -1    0    0    0  501  0.00000000000E+00  0.00000000000E+00  0.89741165703E+03  0.89741165703E+03  0.25500000920E-02 0. -1.
        2   -1    0    0  501    0  0.00000000000E+00  0.00000000000E+00 -0.71686023493E+03  0.71686023494E+03  0.25500000920E-02 0.  1.
    10030    2    1    2    0    0  0.00000000000E+00  0.00000000000E+00  0.18055142210E+03  0.16142718920E+04  0.16041430501E+04 0.  0.
        3    1    3    3  502    0 -0.49003639608E+03  0.43594136855E+03  0.55485967155E+03  0.85909825492E+03  0.10100000352E+00 0. -1.
       -3    1    3    3    0  502  0.49003639608E+03 -0.43594136855E+03 -0.37430824945E+03  0.75517363705E+03  0.10100000352E+00 0.  1.
</event>
<event>
 5   0  0.7901257E-05  0.1605395E+04  0.7818609E-02  0.8817240E-01
       -2   -1    0    0    0  501  0.00000000000E+00  0.00000000000E+00  0.62921043186E+03  0.62921043186E+03  0.25500000920E-02 0. -1.
        2   -1    0    0  501    0  0.00000000000E+00  0.00000000000E+00 -0.10240189548E+04  0.10240189548E+04  0.25500000920E-02 0.  1.
    10030    2    1    2    0    0  0.00000000000E+00  0.00000000000E+00 -0.39480852298E+03  0.16532293867E+04  0.16053951648E+04 0.  0.
        2    1    3    3  502    0 -0.11176961945E+03  0.39748061747E+03  0.51146652760E+03  0.65732891155E+03  0.25500000920E-02 0. -1.
       -2    1    3    3    0  502  0.11176961945E+03 -0.39748061747E+03 -0.90627505058E+03  0.99590047515E+03  0.25500000920E-02 0.  1.
</event>
<event>
 5   0  0.8694033E-05  0.1606704E+04  0.7818609E-02  0.8816440E-01
       -2   -1    0    0    0  501  0.00000000000E+00  0.00000000000E+00  0.87964862948E+03  0.87964862948E+03  0.25500000920E-02 0. -1.
        2   -1    0    0  501    0  0.00000000000E+00  0.00000000000E+00 -0.73367272382E+03  0.73367272382E+03  0.25500000920E-02 0.  1.
    10030    2    1    2    0    0  0.00000000000E+00  0.00000000000E+00  0.14597590566E+03  0.16133213533E+04  0.16067037138E+04 0.  0.
        1    1    3    3  502    0  0.47670267107E+03 -0.44516105100E+03 -0.39794311557E+03  0.76405007767E+03  0.50400001928E-02 0.  1.
       -1    1    3    3    0  502 -0.47670267107E+03  0.44516105100E+03  0.54391902123E+03  0.84927127563E+03  0.50400001928E-02 0. -1.
</event>
<event>
 5   0  0.4211419E-05  0.1615975E+04  0.7818609E-02  0.8810793E-01
        1   -1    0    0  501    0  0.00000000000E+00  0.00000000000E+00  0.15721593476E+04  0.15721593476E+04  0.50400001928E-02 0.  1.
       -1   -1    0    0    0  501  0.00000000000E+00  0.00000000000E+00 -0.41525316718E+03  0.41525316722E+03  0.50400001928E-02 0. -1.
    10030    2    1    2    0    0  0.00000000000E+00  0.00000000000E+00  0.11569061804E+04  0.19874125148E+04  0.16159754310E+04 0.  0.
        2    1    3    3  502    0 -0.37321314018E+03 -0.69062266767E+03  0.34317979485E+03  0.85674972349E+03  0.25500000920E-02 0.  1.
       -2    1    3    3    0  502  0.37321314018E+03  0.69062266767E+03  0.81372638552E+03  0.11306627913E+04  0.25500000920E-02 0. -1.
</event>
<event>
 5   0  0.7901257E-05  0.1600291E+04  0.7818609E-02  0.8820369E-01
       -2   -1    0    0    0  501  0.00000000000E+00  0.00000000000E+00  0.72879323558E+03  0.72879323559E+03  0.25500000920E-02 0.  1.
        2   -1    0    0  501    0  0.00000000000E+00  0.00000000000E+00 -0.87848324043E+03  0.87848324044E+03  0.25500000920E-02 0. -1.
    10030    2    1    2    0    0  0.00000000000E+00  0.00000000000E+00 -0.14969000485E+03  0.16072764760E+04  0.16002907776E+04 0.  0.
        2    1    3    3  502    0  0.35539582132E+03  0.13859418825E+03  0.63158736229E+03  0.73784628144E+03  0.25500000920E-02 0.  1.
       -2    1    3    3    0  502 -0.35539582132E+03 -0.13859418825E+03 -0.78127736714E+03  0.86943019458E+03  0.25500000920E-02 0. -1.
</event>
<event>
 5   0  0.4256406E-05  0.1598835E+04  0.7818609E-02  0.8821264E-01
       -1   -1    0    0    0  501  0.00000000000E+00  0.00000000000E+00  0.83022356809E+03  0.83022356810E+03  0.50400001928E-02 0.  1.
        1   -1    0    0  501    0  0.00000000000E+00  0.00000000000E+00 -0.76975405240E+03  0.76975405242E+03  0.50400001928E-02 0. -1.
    10030    2    1    2    0    0  0.00000000000E+00  0.00000000000E+00  0.60469515684E+02  0.15999776205E+04  0.15988345205E+04 0.  0.
        3    1    3    3  502    0  0.49992790441E+03 -0.15097465246E+03  0.63593329917E+03  0.82288056635E+03  0.10100000352E+00 0.  1.
       -3    1    3    3    0  502 -0.49992790441E+03  0.15097465246E+03 -0.57546378349E+03  0.77709705417E+03  0.10100000352E+00 0. -1.
</event>
<event>
 5   0  0.4373026E-05  0.1559606E+04  0.7818609E-02  0.8845755E-01
        1   -1    0    0  501    0  0.00000000000E+00  0.00000000000E+00  0.10959209592E+04  0.10959209592E+04  0.50400001928E-02 0. -1.
       -1   -1    0    0    0  501  0.00000000000E+00  0.00000000000E+00 -0.55486940916E+03  0.55486940919E+03  0.50400001928E-02 0.  1.
    10030    2    1    2    0    0  0.00000000000E+00  0.00000000000E+00  0.54105155003E+03  0.16507903684E+04  0.15596063800E+04 0.  0.
        4    1    3    3  502    0 -0.57270788580E+02  0.58849853245E+03  0.80866070445E+03  0.10017705395E+04  0.12699999809E+01 0. -1.
       -4    1    3    3    0  502  0.57270788580E+02 -0.58849853245E+03 -0.26760915441E+03  0.64901982893E+03  0.12699999809E+01 0.  1.
</event>
<event>
 5   0  0.4211419E-05  0.1601112E+04  0.7818609E-02  0.8819865E-01
       -1   -1    0    0    0  501  0.00000000000E+00  0.00000000000E+00  0.60431501800E+03  0.60431501802E+03  0.50400001928E-02 0.  1.
        1   -1    0    0  501    0  0.00000000000E+00  0.00000000000E+00 -0.10605225310E+04  0.10605225310E+04  0.50400001928E-02 0. -1.
    10030    2    1    2    0    0  0.00000000000E+00  0.00000000000E+00 -0.45620751297E+03  0.16648375490E+04  0.16011117293E+04 0.  0.
        2    1    3    3  502    0  0.79106833719E+03 -0.11771317885E+03 -0.26478067599E+03  0.84246917626E+03  0.25500000920E-02 0. -1.
       -2    1    3    3    0  502 -0.79106833719E+03  0.11771317885E+03 -0.19142683699E+03  0.82236837275E+03  0.25500000920E-02 0.  1.
</event>
<event>
 5   0  0.4314657E-05  0.1604822E+04  0.7818609E-02  0.8817591E-01
       -1   -1    0    0    0  501  0.00000000000E+00  0.00000000000E+00  0.40246846027E+03  0.40246846030E+03  0.50400001928E-02 0.  1.
        1   -1    0    0  501    0  0.00000000000E+00  0.00000000000E+00 -0.15997857998E+04  0.15997857999E+04  0.50400001928E-02 0. -1.
    10030    2    1    2    0    0  0.00000000000E+00  0.00000000000E+00 -0.11973173396E+04  0.20022542602E+04  0.16048218938E+04 0.  0.
        5    1    3    3  502    0  0.61225858692E+03 -0.20808400859E+03 -0.59509774719E+01  0.64669702026E+03  0.46999998093E+01 0.  1.
       -5    1    3    3    0  502 -0.61225858692E+03  0.20808400859E+03 -0.11913663621E+04  0.13555572399E+04  0.46999998093E+01 0. -1.
</event>
<event>
 5   0  0.7849690E-05  0.1601071E+04  0.7818609E-02  0.8819890E-01
        2   -1    0    0  501    0  0.00000000000E+00  0.00000000000E+00  0.76056397180E+03  0.76056397181E+03  0.25500000920E-02 0. -1.
       -2   -1    0    0    0  501  0.00000000000E+00  0.00000000000E+00 -0.84260753569E+03  0.84260753569E+03  0.25500000920E-02 0.  1.
    10030    2    1    2    0    0  0.00000000000E+00  0.00000000000E+00 -0.82043563885E+02  0.16031715075E+04  0.16010708092E+04 0.  0.
        3    1    3    3  502    0 -0.40215436845E+03  0.67616904132E+03 -0.18928433541E+03  0.80917320663E+03  0.10100000352E+00 0.  1.
       -3    1    3    3    0  502  0.40215436845E+03 -0.67616904132E+03  0.10724077153E+03  0.79399830086E+03  0.10100000352E+00 0. -1.
</event>
<event>
 5   0  0.8620155E-05  0.1588294E+04  0.7818609E-02  0.8827772E-01
       -2   -1    0    0    0  501  0.00000000000E+00  0.00000000000E+00  0.57609872873E+03  0.57609872874E+03  0.25500000920E-02 0.  1.
        2   -1    0    0  501    0  0.00000000000E+00  0.00000000000E+00 -0.10947242516E+04  0.10947242516E+04  0.25500000920E-02 0. -1.
    10030    2    1    2    0    0  0.00000000000E+00  0.00000000000E+00 -0.51862552285E+03  0.16708229803E+04  0.15882937381E+04 0.  0.
        4    1    3    3  502    0 -0.62806890182E+03  0.15167872514E+03  0.22640468017E+03  0.68464419460E+03  0.12699999809E+01 0.  1.
       -4    1    3    3    0  502  0.62806890182E+03 -0.15167872514E+03 -0.74503020302E+03  0.98617878572E+03  0.12699999809E+01 0. -1.
</event>
<event>
 5   0  0.8037548E-05  0.1601209E+04  0.7818609E-02  0.8819806E-01
        2   -1    0    0  501    0  0.00000000000E+00  0.00000000000E+00  0.56317418704E+03  0.56317418705E+03  0.25500000920E-02 0.  1.
       -2   -1    0    0    0  501  0.00000000000E+00  0.00000000000E+00 -0.11381333456E+04  0.11381333456E+04  0.25500000920E-02 0. -1.
    10030    2    1    2    0    0  0.00000000000E+00  0.00000000000E+00 -0.57495915851E+03  0.17013075326E+04  0.16012086955E+04 0.  0.
        5    1    3    3  502    0  0.64600964017E+03  0.44184139520E+03 -0.46651551251E+03  0.91115919965E+03  0.46999998093E+01 0. -1.
       -5    1    3    3    0  502 -0.64600964017E+03 -0.44184139520E+03 -0.10844364600E+03  0.79014833295E+03  0.46999998093E+01 0.  1.
</event>
<event>
 5   0  0.4211419E-05  0.1600764E+04  0.7818609E-02  0.8820079E-01
        1   -1    0    0  501    0  0.00000000000E+00  0.00000000000E+00  0.16656232157E+04  0.16656232157E+04  0.50400001928E-02 0.  1.
       -1   -1    0    0    0  501  0.00000000000E+00  0.00000000000E+00 -0.38460762728E+03  0.38460762732E+03  0.50400001928E-02 0. -1.
    10030    2    1    2    0    0  0.00000000000E+00  0.00000000000E+00  0.12810155884E+04  0.20502308430E+04  0.16007640588E+04 0.  0.
        2    1    3    3  502    0 -0.33455298354E+03  0.50554881280E+03 -0.28823501769E+02  0.60690699055E+03  0.25500000920E-02 0.  1.
       -2    1    3    3    0  502  0.33455298354E+03 -0.50554881280E+03  0.13098390902E+04  0.14433238524E+04  0.25500000920E-02 0. -1.
</event>
<event>
 5   0  0.3042125E-05  0.1600427E+04  0.7818609E-02  0.8820286E-01
       -4   -1    0    0    0  501  0.00000000000E+00  0.00000000000E+00  0.54644467296E+03  0.54644614877E+03  0.12699999809E+01 0. -1.
        4   -1    0    0  501    0  0.00000000000E+00  0.00000000000E+00 -0.11718287897E+04  0.11718294779E+04  0.12699999809E+01 0.  1.
    10030    2    1    2    0    0  0.00000000000E+00  0.00000000000E+00 -0.62538411673E+03  0.17182756267E+04  0.16004267668E+04 0.  0.
        5    1    3    3  502    0 -0.55286251040E+03  0.57638352769E+03 -0.36577401711E+03  0.87845753909E+03  0.46999998093E+01 0.  1.
       -5    1    3    3    0  502  0.55286251040E+03 -0.57638352769E+03 -0.25961009962E+03  0.83981808757E+03  0.46999998093E+01 0. -1.
</event>
<event>
 5   0  0.3042125E-05  0.1600688E+04  0.7818609E-02  0.8820125E-01
        3   -1    0    0  501    0  0.00000000000E+00  0.00000000000E+00  0.98123410770E+03  0.98123411290E+03  0.10100000352E+00 0. -1.
       -3   -1    0    0    0  501  0.00000000000E+00  0.00000000000E+00 -0.65280090661E+03  0.65280091442E+03  0.10100000352E+00 0.  1.
    10030    2    1    2    0    0  0.00000000000E+00  0.00000000000E+00  0.32843320109E+03  0.16340350273E+04  0.16006880092E+04 0.  0.
        4    1    3    3  502    0 -0.56288862207E+02  0.66028288532E+03 -0.29391678132E+03  0.72493490183E+03  0.12699999809E+01 0.  1.
       -4    1    3    3    0  502  0.56288862207E+02 -0.66028288532E+03  0.62234998241E+03  0.90910012549E+03  0.12699999809E+01 0. -1.
</event>
<event>
 5   0  0.3042125E-05  0.1598521E+04  0.7818609E-02  0.8821457E-01
       -3   -1    0    0    0  501  0.00000000000E+00  0.00000000000E+00  0.72293988641E+03  0.72293989347E+03  0.10100000352E+00 0. -1.
        3   -1    0    0  501    0  0.00000000000E+00  0.00000000000E+00 -0.88363785889E+03  0.88363786466E+03  0.10100000352E+00 0.  1.
    10030    2    1    2    0    0  0.00000000000E+00  0.00000000000E+00 -0.16069797248E+03  0.16065777581E+04  0.15985206456E+04 0.  0.
        2    1    3    3  502    0 -0.48412827488E+03  0.54956156549E+03 -0.40199167743E+03  0.83546119570E+03  0.25500000920E-02 0.  1.
       -2    1    3    3    0  502  0.48412827488E+03 -0.54956156549E+03  0.24129370495E+03  0.77111656243E+03  0.25500000920E-02 0. -1.
</event>
<event>
 5   0  0.4373026E-05  0.1586075E+04  0.7818609E-02  0.8829148E-01
       -1   -1    0    0    0  501  0.00000000000E+00  0.00000000000E+00  0.76090080312E+03  0.76090080313E+03  0.50400001928E-02 0. -1.
        1   -1    0    0  501    0  0.00000000000E+00  0.00000000000E+00 -0.82653199449E+03  0.82653199450E+03  0.50400001928E-02 0.  1.
    10030    2    1    2    0    0  0.00000000000E+00  0.00000000000E+00 -0.65631191369E+02  0.15874327976E+04  0.15860754817E+04 0.  0.
        4    1    3    3  502    0  0.10644649235E+03  0.21831024798E+03 -0.78839013116E+03  0.82495504842E+03  0.12699999809E+01 0.  1.
       -4    1    3    3    0  502 -0.10644649235E+03 -0.21831024798E+03  0.72275893979E+03  0.76247774922E+03  0.12699999809E+01 0. -1.
</event>
<event>
 5   0  0.4504463E-05  0.1599436E+04  0.7818609E-02  0.8820894E-01
        1   -1    0    0  501    0  0.00000000000E+00  0.00000000000E+00  0.53828931506E+03  0.53828931509E+03  0.50400001928E-02 0.  1.
       -1   -1    0    0    0  501  0.00000000000E+00  0.00000000000E+00 -0.11881143400E+04  0.11881143401E+04  0.50400001928E-02 0. -1.
    10030    2    1    2    0    0  0.00000000000E+00  0.00000000000E+00 -0.64982502498E+03  0.17264036551E+04  0.15994364687E+04 0.  0.
        1    1    3    3  502    0 -0.61112566445E+03  0.30627740003E+03 -0.77291322610E+03  0.10318310320E+04  0.50400001928E-02 0. -1.
       -1    1    3    3    0  502  0.61112566445E+03 -0.30627740003E+03  0.12308820112E+03  0.69457262313E+03  0.50400001928E-02 0.  1.
</event>
<event>
 5   0  0.8620155E-05  0.1600039E+04  0.7818609E-02  0.8820524E-01
       -2   -1    0    0    0  501  0.00000000000E+00  0.00000000000E+00  0.78315760862E+03  0.78315760863E+03  0.25500000920E-02 0. -1.
        2   -1    0    0  501    0  0.00000000000E+00  0.00000000000E+00 -0.81724494050E+03  0.81724494051E+03  0.25500000920E-02 0.  1.
    10030    2    1    2    0    0  0.00000000000E+00  0.00000000000E+00 -0.34087331882E+02  0.16004025491E+04  0.16000394911E+04 0.  0.
        4    1    3    3  502    0 -0.58330522434E+03  0.40825331641E+03 -0.38197467431E+03  0.80797402174E+03  0.12699999809E+01 0.  1.
       -4    1    3    3    0  502  0.58330522434E+03 -0.40825331641E+03  0.34788734243E+03  0.79242852739E+03  0.12699999809E+01 0. -1.
</event>
<event>
 5   0  0.8037548E-05  0.1603346E+04  0.7818609E-02  0.8818495E-01
       -2   -1    0    0    0  501  0.00000000000E+00  0.00000000000E+00  0.22367186165E+03  0.22367186167E+03  0.25500000920E-02 0.  1.
        2   -1    0    0  501    0  0.00000000000E+00  0.00000000000E+00 -0.28733141002E+04  0.28733141002E+04  0.25500000920E-02 0. -1.
    10030    2    1    2    0    0  0.00000000000E+00  0.00000000000E+00 -0.26496422385E+04  0.30969859618E+04  0.16033458940E+04 0.  0.
        5    1    3    3  502    0  0.41144469375E+03 -0.61818393327E+03 -0.74143591507E+03  0.10493747746E+04  0.46999998093E+01 0.  1.
       -5    1    3    3    0  502 -0.41144469375E+03  0.61818393327E+03 -0.19082063235E+04  0.20476111873E+04  0.46999998093E+01 0. -1.
</event>
<event>
 5   0  0.4314657E-05  0.1597326E+04  0.7818609E-02  0.8822192E-01
        1   -1    0    0  501    0  0.00000000000E+00  0.00000000000E+00  0.11615993368E+04  0.11615993368E+04  0.50400001928E-02 0. -1.
       -1   -1    0    0    0  501  0.00000000000E+00  0.00000000000E+00 -0.54912453410E+03  0.54912453413E+03  0.50400001928E-02 0.  1.
    10030    2    1    2    0    0  0.00000000000E+00  0.00000000000E+00  0.61247480268E+03  0.17107238709E+04  0.15973261341E+04 0.  0.
        5    1    3    3  502    0 -0.45271845207E+03 -0.14433996107E+03  0.99372147050E+03  0.11014955616E+04  0.46999998093E+01 0. -1.
       -5    1    3    3    0  502  0.45271845207E+03  0.14433996107E+03 -0.38124666782E+03  0.60922830936E+03  0.46999998093E+01 0.  1.
</event>
<event>
 5   0  0.8694033E-05  0.1608813E+04  0.7818609E-02  0.8815152E-01
        2   -1    0    0  501    0  0.00000000000E+00  0.00000000000E+00  0.89012307889E+03  0.89012307889E+03  0.25500000920E-02 0. -1.
       -2   -1    0    0    0  501  0.00000000000E+00  0.00000000000E+00 -0.72694440091E+03  0.72694440091E+03  0.25500000920E-02 0.  1.
    10030    2    1    2    0    0  0.00000000000E+00  0.00000000000E+00  0.16317867798E+03  0.16170674798E+04  0.16088132127E+04 0.  0.
        1    1    3    3  502    0 -0.20179159807E+02  0.75580713208E+03  0.35762239063E+03  0.83638830318E+03  0.50400001928E-02 0. -1.
       -1    1    3    3    0  502  0.20179159807E+02 -0.75580713208E+03 -0.19444371265E+03  0.78067917662E+03  0.50400001928E-02 0.  1.
</event>
<event>
 5   0  0.7901257E-05  0.1603432E+04  0.7818609E-02  0.8818442E-01
       -2   -1    0    0    0  501  0.00000000000E+00  0.00000000000E+00  0.77189348702E+03  0.77189348703E+03  0.25500000920E-02 0.  1.
        2   -1    0    0  501    0  0.00000000000E+00  0.00000000000E+00 -0.83269090432E+03  0.83269090432E+03  0.25500000920E-02 0. -1.
    10030    2    1    2    0    0  0.00000000000E+00  0.00000000000E+00 -0.60797417297E+02  0.16045843914E+04  0.16034321760E+04 0.  0.
        2    1    3    3  502    0  0.70832602300E+02  0.41759685294E+03 -0.71158183229E+03  0.82810210312E+03  0.25500000920E-02 0. -1.
       -2    1    3    3    0  502 -0.70832602300E+02 -0.41759685294E+03  0.65078441500E+03  0.77648228823E+03  0.25500000920E-02 0.  1.
</event>
<event>
 5   0  0.7901257E-05  0.1605214E+04  0.7818609E-02  0.8817351E-01
        2   -1    0    0  501    0  0.00000000000E+00  0.00000000000E+00  0.20308773425E+04  0.20308773425E+04  0.25500000920E-02 0. -1.
       -2   -1    0    0    0  501  0.00000000000E+00  0.00000000000E+00 -0.31719203259E+03  0.31719203260E+03  0.25500000920E-02 0.  1.
    10030    2    1    2    0    0  0.00000000000E+00  0.00000000000E+00  0.17136853099E+04  0.23480693751E+04  0.16052141443E+04 0.  0.
        2    1    3    3  502    0 -0.59228912317E+03 -0.52431922065E+03  0.65809304601E+03  0.10289817820E+04  0.25500000920E-02 0.  1.
       -2    1    3    3    0  502  0.59228912317E+03  0.52431922065E+03  0.10555922639E+04  0.13190875931E+04  0.25500000920E-02 0. -1.
</event>
<event>
 5   0  0.4373026E-05  0.1601411E+04  0.7818609E-02  0.8819682E-01
        1   -1    0    0  501    0  0.00000000000E+00  0.00000000000E+00  0.15078516593E+04  0.15078516593E+04  0.50400001928E-02 0.  1.
       -1   -1    0    0    0  501  0.00000000000E+00  0.00000000000E+00 -0.42519378519E+03  0.42519378522E+03  0.50400001928E-02 0. -1.
    10030    2    1    2    0    0  0.00000000000E+00  0.00000000000E+00  0.10826578741E+04  0.19330454446E+04  0.16014108212E+04 0.  0.
        4    1    3    3  502    0  0.32862325361E+03  0.22668755645E+03  0.13791452989E+04  0.14357659487E+04  0.12699999809E+01 0.  1.
       -4    1    3    3    0  502 -0.32862325361E+03 -0.22668755645E+03 -0.29648742476E+03  0.49727949586E+03  0.12699999809E+01 0. -1.
</event>
<event>
 5   0  0.4504463E-05  0.1599019E+04  0.7818609E-02  0.8821151E-01
        1   -1    0    0  501    0  0.00000000000E+00  0.00000000000E+00  0.86957335033E+03  0.86957335035E+03  0.50400001928E-02 0.  1.
       -1   -1    0    0    0  501  0.00000000000E+00  0.00000000000E+00 -0.73509083627E+03  0.73509083629E+03  0.50400001928E-02 0. -1.
    10030    2    1    2    0    0  0.00000000000E+00  0.00000000000E+00  0.13448251407E+03  0.16046641866E+04  0.15990189509E+04 0.  0.
        1    1    3    3  502    0  0.31897411341E+03 -0.71019046689E+03  0.24981876782E+03  0.81763341484E+03  0.50400001928E-02 0. -1.
       -1    1    3    3    0  502 -0.31897411341E+03  0.71019046689E+03 -0.11533625375E+03  0.78703077179E+03  0.50400001928E-02 0.  1.
</event>
<event>
 5   0  0.8037548E-05  0.1603930E+04  0.7818609E-02  0.8818137E-01
       -2   -1    0    0    0  501  0.00000000000E+00  0.00000000000E+00  0.32304792499E+03  0.32304792500E+03  0.25500000920E-02 0.  1.
        2   -1    0    0  501    0  0.00000000000E+00  0.00000000000E+00 -0.19908749107E+04  0.19908749107E+04  0.25500000920E-02 0. -1.
    10030    2    1    2    0    0  0.00000000000E+00  0.00000000000E+00 -0.16678269857E+04  0.23139228357E+04  0.16039301841E+04 0.  0.
        5    1    3    3  502    0 -0.39475393205E+03 -0.48850406743E+03 -0.11452161928E+03  0.63843886320E+03  0.46999998093E+01 0.  1.
       -5    1    3    3    0  502  0.39475393205E+03  0.48850406743E+03 -0.15533053665E+04  0.16754839725E+04  0.46999998093E+01 0. -1.
</event>
<event>
 5   0  0.4314657E-05  0.1589531E+04  0.7818609E-02  0.8827006E-01
       -1   -1    0    0    0  501  0.00000000000E+00  0.00000000000E+00  0.97128801041E+03  0.97128801042E+03  0.50400001928E-02 0.  1.
        1   -1    0    0  501    0  0.00000000000E+00  0.00000000000E+00 -0.65032396098E+03  0.65032396100E+03  0.50400001928E-02 0. -1.
    10030    2    1    2    0    0  0.00000000000E+00  0.00000000000E+00  0.32096404942E+03  0.16216119714E+04  0.15895305800E+04 0.  0.
        5    1    3    3  502    0 -0.17998453727E+03  0.28223661493E+03 -0.57488366455E+03  0.66525578406E+03  0.46999998093E+01 0. -1.
       -5    1    3    3    0  502  0.17998453727E+03 -0.28223661493E+03  0.89584771398E+03  0.95635618736E+03  0.46999998093E+01 0.  1.
</event>
<event>
 5   0  0.7901257E-05  0.1600195E+04  0.7818609E-02  0.8820428E-01
       -2   -1    0    0    0  501  0.00000000000E+00  0.00000000000E+00  0.46795354470E+03  0.46795354471E+03  0.25500000920E-02 0. -1.
        2   -1    0    0  501    0  0.00000000000E+00  0.00000000000E+00 -0.13679913092E+04  0.13679913092E+04  0.25500000920E-02 0.  1.
    10030    2    1    2    0    0  0.00000000000E+00  0.00000000000E+00 -0.90003776452E+03  0.18359448539E+04  0.16001954659E+04 0.  0.
        2    1    3    3  502    0  0.77392336658E+03 -0.10026881480E+03 -0.65249879617E+03  0.10172344329E+04  0.25500000920E-02 0.  1.
       -2    1    3    3    0  502 -0.77392336658E+03  0.10026881480E+03 -0.24753896835E+03  0.81871042098E+03  0.25500000920E-02 0. -1.
</event>
<event>
 5   0  0.8620155E-05  0.1599772E+04  0.7818609E-02  0.8820688E-01
       -2   -1    0    0    0  501  0.00000000000E+00  0.00000000000E+00  0.41060575970E+03  0.41060575971E+03  0.25500000920E-02 0. -1.
        2   -1    0    0  501    0  0.00000000000E+00  0.00000000000E+00 -0.15582290603E+04  0.15582290603E+04  0.25500000920E-02 0.  1.
    10030    2    1    2    0    0  0.00000000000E+00  0.00000000000E+00 -0.11476233006E+04  0.19688348200E+04  0.15997722677E+04 0.  0.
        4    1    3    3  502    0 -0.36391522103E+02  0.79659430793E+03 -0.49666570107E+03  0.93944944826E+03  0.12699999809E+01 0.  1.
       -4    1    3    3    0  502  0.36391522103E+02 -0.79659430793E+03 -0.65095759956E+03  0.10293853718E+04  0.12699999809E+01 0. -1.
</event>
<event>
 5   0  0.4373026E-05  0.1631678E+04  0.7818609E-02  0.8801320E-01
       -1   -1    0    0    0  501  0.00000000000E+00  0.00000000000E+00  0.49566477936E+03  0.49566477939E+03  0.50400001928E-02 0. -1.
        1   -1    0    0  501    0  0.00000000000E+00  0.00000000000E+00 -0.13428286577E+04  0.13428286577E+04  0.50400001928E-02 0.  1.
    10030    2    1    2    0    0  0.00000000000E+00  0.00000000000E+00 -0.84716387837E+03  0.18384934371E+04  0.16316775054E+04 0.  0.
        4    1    3    3  502    0 -0.75256748198E+03  0.22652879592E+03 -0.67023003455E+03  0.10329002965E+04  0.12699999809E+01 0.  1.
       -4    1    3    3    0  502  0.75256748198E+03 -0.22652879592E+03 -0.17693384382E+03  0.80559314067E+03  0.12699999809E+01 0. -1.
</event>
<event>
 5   0  0.8037548E-05  0.1575770E+04  0.7818609E-02  0.8835573E-01
       -2   -1    0    0    0  501  0.00000000000E+00  0.00000000000E+00  0.47361340286E+03  0.47361340286E+03  0.25500000920E-02 0. -1.
        2   -1    0    0  501    0  0.00000000000E+00  0.00000000000E+00 -0.13106945857E+04  0.13106945857E+04  0.25500000920E-02 0.  1.
    10030    2    1    2    0    0  0.00000000000E+00  0.00000000000E+00 -0.83708118280E+03  0.17843079885E+04  0.15757696822E+04 0.  0.
        5    1    3    3  502    0 -0.70016001840E+03 -0.35451807083E+03 -0.33981792317E+03  0.85522244172E+03  0.46999998093E+01 0.  1.
       -5    1    3    3    0  502  0.70016001840E+03  0.35451807083E+03 -0.49726325963E+03  0.92908554681E+03  0.46999998093E+01 0. -1.
</event>
<event>
 5   0  0.7849690E-05  0.1602475E+04  0.7818609E-02  0.8819029E-01
        2   -1    0    0  501    0  0.00000000000E+00  0.00000000000E+00  0.83905437038E+03  0.83905437039E+03  0.25500000920E-02 0. -1.
       -2   -1    0    0    0  501  0.00000000000E+00  0.00000000000E+00 -0.76512541835E+03  0.76512541835E+03  0.25500000920E-02 0.  1.
    10030    2    1    2    0    0  0.00000000000E+00  0.00000000000E+00  0.73928952032E+02  0.16041797887E+04  0.16024753679E+04 0.  0.
        3    1    3    3  502    0  0.21644586248E+03  0.26546536526E+03 -0.68814090634E+03  0.76867326526E+03  0.10100000352E+00 0.  1.
       -3    1    3    3    0  502 -0.21644586248E+03 -0.26546536526E+03  0.76206985837E+03  0.83550652348E+03  0.10100000352E+00 0. -1.
</event>
<event>
 5   0  0.8620155E-05  0.1600434E+04  0.7818609E-02  0.8820282E-01
        2   -1    0    0  501    0  0.00000000000E+00  0.00000000000E+00  0.36881543568E+03  0.36881543569E+03  0.25500000920E-02 0. -1.
       -2   -1    0    0    0  501  0.00000000000E+00  0.00000000000E+00 -0.17362257932E+04  0.17362257932E+04  0.25500000920E-02 0.  1.
    10030    2    1    2    0    0  0.00000000000E+00  0.00000000000E+00 -0.13674103575E+04  0.21050412289E+04  0.16004335317E+04 0.  0.
        4    1    3    3  502    0  0.23157718810E+03  0.73143175739E+03 -0.98284386563E+03  0.12468376345E+04  0.12699999809E+01 0.  1.
       -4    1    3    3    0  502 -0.23157718810E+03 -0.73143175739E+03 -0.38456649187E+03  0.85820359434E+03  0.12699999809E+01 0. -1.
</event>
<event>
 5   0  0.4211419E-05  0.1599407E+04  0.7818609E-02  0.8820912E-01
       -1   -1    0    0    0  501  0.00000000000E+00  0.00000000000E+00  0.10846137070E+04  0.10846137070E+04  0.50400001928E-02 0.  1.
        1   -1    0    0  501    0  0.00000000000E+00  0.00000000000E+00 -0.58963464628E+03  0.58963464630E+03  0.50400001928E-02 0. -1.
    10030    2    1    2    0    0  0.00000000000E+00  0.00000000000E+00  0.49497906075E+03  0.16742483533E+04  0.15994071646E+04 0.  0.
        2    1    3    3  502    0  0.15265719534E+03  0.74024158851E+03 -0.26010060246E+02  0.75626605893E+03  0.25500000920E-02 0. -1.
       -2    1    3    3    0  502 -0.15265719534E+03 -0.74024158851E+03  0.52098912100E+03  0.91798229441E+03  0.25500000920E-02 0.  1.
</event>
<event>
 5   0  0.8037548E-05  0.1600580E+04  0.7818609E-02  0.8820192E-01
        2   -1    0    0  501    0  0.00000000000E+00  0.00000000000E+00  0.13245200056E+04  0.13245200056E+04  0.25500000920E-02 0. -1.
       -2   -1    0    0    0  501  0.00000000000E+00  0.00000000000E+00 -0.48354401187E+03  0.48354401188E+03  0.25500000920E-02 0.  1.
    10030    2    1    2    0    0  0.00000000000E+00  0.00000000000E+00  0.84097599372E+03  0.18080640175E+04  0.16005795417E+04 0.  0.
        5    1    3    3  502    0 -0.73996080751E+03  0.22651777301E+03  0.65085883347E+03  0.10111832718E+04  0.46999998093E+01 0.  1.
       -5    1    3    3    0  502  0.73996080751E+03 -0.22651777301E+03  0.19011716025E+03  0.79688074563E+03  0.46999998093E+01 0. -1.
</event>
<event>
 5   0  0.4256406E-05  0.1601844E+04  0.7818609E-02  0.8819416E-01
        1   -1    0    0  501    0  0.00000000000E+00  0.00000000000E+00  0.19904228579E+04  0.19904228579E+04  0.50400001928E-02 0.  1.
       -1   -1    0    0    0  501  0.00000000000E+00  0.00000000000E+00 -0.32228112927E+03  0.32228112931E+03  0.50400001928E-02 0. -1.
    10030    2    1    2    0    0  0.00000000000E+00  0.00000000000E+00  0.16681417287E+04  0.23127039872E+04  0.16018435959E+04 0.  0.
        3    1    3    3  502    0  0.77659452080E+03  0.15980319443E+03  0.99766803205E+03  0.12743538061E+04  0.10100000352E+00 0.  1.
       -3    1    3    3    0  502 -0.77659452080E+03 -0.15980319443E+03  0.67047369661E+03  0.10383501812E+04  0.10100000352E+00 0. -1.
</event>
<event>
 5   0  0.8620155E-05  0.1600389E+04  0.7818609E-02  0.8820309E-01
        2   -1    0    0  501    0  0.00000000000E+00  0.00000000000E+00  0.13381758085E+04  0.13381758085E+04  0.25500000920E-02 0.  1.
       -2   -1    0    0    0  501  0.00000000000E+00  0.00000000000E+00 -0.47849554688E+03  0.47849554689E+03  0.25500000920E-02 0. -1.
    10030    2    1    2    0    0  0.00000000000E+00  0.00000000000E+00  0.85968026157E+03  0.18166713553E+04  0.16003889094E+04 0.  0.
        4    1    3    3  502    0  0.31520480590E+02 -0.53700405502E+03  0.11023039379E+04  0.12265571655E+04  0.12699999809E+01 0.  1.
       -4    1    3    3    0  502 -0.31520480590E+02  0.53700405502E+03 -0.24262367636E+03  0.59011418983E+03  0.12699999809E+01 0. -1.
</event>
<event>
 5   0  0.4504463E-05  0.1583177E+04  0.7818609E-02  0.8830950E-01
        1   -1    0    0  501    0  0.00000000000E+00  0.00000000000E+00  0.11522439641E+04  0.11522439641E+04  0.50400001928E-02 0.  1.
       -1   -1    0    0    0  501  0.00000000000E+00  0.00000000000E+00 -0.54381900198E+03  0.54381900200E+03  0.50400001928E-02 0. -1.
    10030    2    1    2    0    0  0.00000000000E+00  0.00000000000E+00  0.60842496216E+03  0.16960629661E+04  0.15831767591E+04 0.  0.
        1    1    3    3  502    0 -0.28521235309E+03  0.56049871125E+03 -0.21080191637E+03  0.66328149352E+03  0.50400001928E-02 0. -1.
       -1    1    3    3    0  502  0.28521235309E+03 -0.56049871125E+03  0.81922687853E+03  0.10327814726E+04  0.50400001928E-02 0.  1.
</event>
<event>
 5   0  0.8037548E-05  0.1600197E+04  0.7818609E-02  0.8820427E-01
        2   -1    0    0  501    0  0.00000000000E+00  0.00000000000E+00  0.10366621537E+04  0.10366621537E+04  0.25500000920E-02 0. -1.
       -2   -1    0    0    0  501  0.00000000000E+00  0.00000000000E+00 -0.61751812269E+03  0.61751812269E+03  0.25500000920E-02 0.  1.
    10030    2    1    2    0    0  0.00000000000E+00  0.00000000000E+00  0.41914403099E+03  0.16541802764E+04  0.16001970716E+04 0.  0.
        5    1    3    3  502    0  0.22097957007E+03  0.60420496804E+03  0.70126501794E+03  0.95167763932E+03  0.46999998093E+01 0. -1.
       -5    1    3    3    0  502 -0.22097957007E+03 -0.60420496804E+03 -0.28212098696E+03  0.70250263705E+03  0.46999998093E+01 0.  1.
</event>
<event>
 5   0  0.4314657E-05  0.1606459E+04  0.7818609E-02  0.8816590E-01
       -1   -1    0    0    0  501  0.00000000000E+00  0.00000000000E+00  0.60346789431E+03  0.60346789433E+03  0.50400001928E-02 0.  1.
        1   -1    0    0  501    0  0.00000000000E+00  0.00000000000E+00 -0.10691164755E+04  0.10691164756E+04  0.50400001928E-02 0. -1.
    10030    2    1    2    0    0  0.00000000000E+00  0.00000000000E+00 -0.46564858123E+03  0.16725843699E+04  0.16064587991E+04 0.  0.
        5    1    3    3  502    0  0.30113356699E+03  0.74462945375E+03 -0.23382820012E+03  0.83657167400E+03  0.46999998093E+01 0.  1.
       -5    1    3    3    0  502 -0.30113356699E+03 -0.74462945375E+03 -0.23182038111E+03  0.83601269588E+03  0.46999998093E+01 0. -1.
</event>
<event>
 5   0  0.4314657E-05  0.1599891E+04  0.7818609E-02  0.8820615E-01
       -1   -1    0    0    0  501  0.00000000000E+00  0.00000000000E+00  0.32026130620E+03  0.32026130624E+03  0.50400001928E-02 0.  1.
        1   -1    0    0  501    0  0.00000000000E+00  0.00000000000E+00 -0.19980968470E+04  0.19980968470E+04  0.50400001928E-02 0. -1.
    10030    2    1    2    0    0  0.00000000000E+00  0.00000000000E+00 -0.16778355408E+04  0.23183581532E+04  0.15998913790E+04 0.  0.
        5    1    3    3  502    0 -0.19392713105E+03 -0.25296959654E+03 -0.19020763606E+04  0.19286051748E+04  0.46999998093E+01 0. -1.
       -5    1    3    3    0  502  0.19392713105E+03  0.25296959654E+03  0.22424081977E+03  0.38975297841E+03  0.46999998093E+01 0.  1.
</event>
<event>
 5   0  0.8037548E-05  0.1600696E+04  0.7818609E-02  0.8820121E-01
       -2   -1    0    0    0  501  0.00000000000E+00  0.00000000000E+00  0.65280219069E+03  0.65280219069E+03  0.25500000920E-02 0. -1.
        2   -1    0    0  501    0  0.00000000000E+00  0.00000000000E+00 -0.98124151374E+03  0.98124151374E+03  0.25500000920E-02 0.  1.
    10030    2    1    2    0    0  0.00000000000E+00  0.00000000000E+00 -0.32843932305E+03  0.16340437044E+04  0.16006956110E+04 0.  0.
        5    1    3    3  502    0 -0.43700588608E+03  0.66863919638E+03 -0.21507725839E+03  0.82724412145E+03  0.46999998093E+01 0. -1.
       -5    1    3    3    0  502  0.43700588608E+03 -0.66863919638E+03 -0.11336206467E+03  0.80679958299E+03  0.46999998093E+01 0.  1.
</event>
<event>
 5   0  0.4373026E-05  0.1588349E+04  0.7818609E-02  0.8827738E-01
       -1   -1    0    0    0  501  0.00000000000E+00  0.00000000000E+00  0.42104583819E+03  0.42104583822E+03  0.50400001928E-02 0.  1.
        1   -1    0    0  501    0  0.00000000000E+00  0.00000000000E+00 -0.14979686321E+04  0.14979686321E+04  0.50400001928E-02 0. -1.
    10030    2    1    2    0    0  0.00000000000E+00  0.00000000000E+00 -0.10769227939E+04  0.19190144703E+04  0.15883494053E+04 0.  0.
        4    1    3    3  502    0  0.15795738043E+03 -0.74556921730E+01  0.40183125814E+03  0.43182877892E+03  0.12699999809E+01 0.  1.
       -4    1    3    3    0  502 -0.15795738043E+03  0.74556921730E+01 -0.14787540520E+04  0.14871856914E+04  0.12699999809E+01 0. -1.
</event>
<event>
 5   0  0.4373026E-05  0.1599806E+04  0.7818609E-02  0.8820667E-01
       -1   -1    0    0    0  501  0.00000000000E+00  0.00000000000E+00  0.11860522952E+04  0.11860522952E+04  0.50400001928E-02 0. -1.
        1   -1    0    0  501    0  0.00000000000E+00  0.00000000000E+00 -0.53947466196E+03  0.53947466198E+03  0.50400001928E-02 0.  1.
    10030    2    1    2    0    0  0.00000000000E+00  0.00000000000E+00  0.64657763326E+03  0.17255269572E+04  0.15998064396E+04 0.  0.
        4    1    3    3  502    0 -0.43596042078E+03  0.37219883370E+03  0.92502904877E+03  0.10882434536E+04  0.12699999809E+01 0. -1.
       -4    1    3    3    0  502  0.43596042078E+03 -0.37219883370E+03 -0.27845141551E+03  0.63728350363E+03  0.12699999809E+01 0.  1.
</event>
<event>
 5   0  0.4314657E-05  0.1597227E+04  0.7818609E-02  0.8822253E-01
       -1   -1    0    0    0  501  0.00000000000E+00  0.00000000000E+00  0.14695907574E+04  0.14695907574E+04  0.50400001928E-02 0. -1.
        1   -1    0    0  501    0  0.00000000000E+00  0.00000000000E+00 -0.43398709270E+03  0.43398709273E+03  0.50400001928E-02 0.  1.
    10030    2    1    2    0    0  0.00000000000E+00  0.00000000000E+00  0.10356036647E+04  0.19035778502E+04  0.15972268722E+04 0.  0.
        5    1    3    3  502    0 -0.41318746805E+03  0.49162652666E+03 -0.47947376145E+02  0.64400432169E+03  0.46999998093E+01 0.  1.
       -5    1    3    3    0  502  0.41318746805E+03 -0.49162652666E+03  0.10835510409E+04  0.12595735285E+04  0.46999998093E+01 0. -1.
</event>
<event>
 5   0  0.4373026E-05  0.1598777E+04  0.7818609E-02  0.8821300E-01
       -1   -1    0    0    0  501  0.00000000000E+00  0.00000000000E+00  0.42735138979E+03  0.42735138982E+03  0.50400001928E-02 0.  1.
        1   -1    0    0  501    0  0.00000000000E+00  0.00000000000E+00 -0.14953072840E+04  0.14953072841E+04  0.50400001928E-02 0. -1.
    10030    2    1    2    0    0  0.00000000000E+00  0.00000000000E+00 -0.10679558943E+04  0.19226586739E+04  0.15987765898E+04 0.  0.
        4    1    3    3  502    0  0.58357130564E+03  0.38853356334E+03 -0.99584778246E+03  0.12178785725E+04  0.12699999809E+01 0. -1.
       -4    1    3    3    0  502 -0.58357130564E+03 -0.38853356334E+03 -0.72108111790E+02  0.70478010138E+03  0.12699999809E+01 0.  1.
</event>
<event>
 5   0  0.4373026E-05  0.1613572E+04  0.7818609E-02  0.8812253E-01
        1   -1    0    0  501    0  0.00000000000E+00  0.00000000000E+00  0.10620548540E+04  0.10620548540E+04  0.50400001928E-02 0. -1.
       -1   -1    0    0    0  501  0.00000000000E+00  0.00000000000E+00 -0.61287215985E+03  0.61287215987E+03  0.50400001928E-02 0.  1.
    10030    2    1    2    0    0  0.00000000000E+00  0.00000000000E+00  0.44918269415E+03  0.16749270139E+04  0.16135722510E+04 0.  0.
        4    1    3    3  502    0 -0.91069759577E+02 -0.59723037300E+03  0.77964260954E+03  0.98631740887E+03  0.12699999809E+01 0. -1.
       -4    1    3    3    0  502  0.91069759577E+02  0.59723037300E+03 -0.33045991538E+03  0.68860960502E+03  0.12699999809E+01 0.  1.
</event>
<event>
 5   0  0.4373026E-05  0.1601766E+04  0.7818609E-02  0.8819464E-01
       -1   -1    0    0    0  501  0.00000000000E+00  0.00000000000E+00  0.70741296748E+03  0.70741296750E+03  0.50400001928E-02 0. -1.
        1   -1    0    0  501    0  0.00000000000E+00  0.00000000000E+00 -0.90670368694E+03  0.90670368695E+03  0.50400001928E-02 0.  1.
    10030    2    1    2    0    0  0.00000000000E+00  0.00000000000E+00 -0.19929071945E+03  0.16141166545E+04  0.16017664572E+04 0.  0.
        4    1    3    3  502    0  0.18603827247E+02 -0.35237746266E+03 -0.82414380584E+03  0.89651023652E+03  0.12699999809E+01 0.  1.
       -4    1    3    3    0  502 -0.18603827247E+02  0.35237746266E+03  0.62485308639E+03  0.71760641793E+03  0.12699999809E+01 0. -1.
</event>
<event>
 5   0  0.4504463E-05  0.1602024E+04  0.7818609E-02  0.8819305E-01
       -1   -1    0    0    0  501  0.00000000000E+00  0.00000000000E+00  0.10397470643E+04  0.10397470643E+04  0.50400001928E-02 0. -1.
        1   -1    0    0  501    0  0.00000000000E+00  0.00000000000E+00 -0.61709295693E+03  0.61709295695E+03  0.50400001928E-02 0.  1.
    10030    2    1    2    0    0  0.00000000000E+00  0.00000000000E+00  0.42265410738E+03  0.16568400213E+04  0.16020244572E+04 0.  0.
        1    1    3    3  502    0 -0.35613252630E+03 -0.44548717860E+03 -0.37035086525E+03  0.68003600346E+03  0.50400001928E-02 0.  1.
       -1    1    3    3    0  502  0.35613252630E+03  0.44548717860E+03  0.79300497263E+03  0.97680401782E+03  0.50400001928E-02 0. -1.
</event>
<event>
 5   0  0.7901257E-05  0.1596509E+04  0.7818609E-02  0.8822695E-01
        2   -1    0    0  501    0  0.00000000000E+00  0.00000000000E+00  0.13013079830E+04  0.13013079830E+04  0.25500000920E-02 0.  1.
       -2   -1    0    0    0  501  0.00000000000E+00  0.00000000000E+00 -0.48966921054E+03  0.48966921055E+03  0.25500000920E-02 0. -1.
    10030    2    1    2    0    0  0.00000000000E+00  0.00000000000E+00  0.81163877244E+03  0.17909771935E+04  0.15965092580E+04 0.  0.
        2    1    3    3  502    0 -0.33180242503E+03 -0.50115953053E+03  0.99512300499E+03  0.11625504373E+04  0.25500000920E-02 0.  1.
       -2    1    3    3    0  502  0.33180242503E+03  0.50115953053E+03 -0.18348423254E+03  0.62842675619E+03  0.25500000920E-02 0. -1.
</event>
<event>
 5   0  0.4504463E-05  0.1600865E+04  0.7818609E-02  0.8820017E-01
       -1   -1    0    0    0  501  0.00000000000E+00  0.00000000000E+00  0.42341868971E+03  0.42341868974E+03  0.50400001928E-02 0. -1.
        1   -1    0    0  501    0  0.00000000000E+00  0.00000000000E+00 -0.15131413065E+04  0.15131413065E+04  0.50400001928E-02 0.  1.
    10030    2    1    2    0    0  0.00000000000E+00  0.00000000000E+00 -0.10897226168E+04  0.19365599963E+04  0.16008651528E+04 0.  0.
        1    1    3    3  502    0  0.20739759597E+03  0.17781173611E+03 -0.14550009419E+04  0.14804251137E+04  0.50400001928E-02 0.  1.
       -1    1    3    3    0  502 -0.20739759597E+03 -0.17781173611E+03  0.36527832508E+03  0.45613488258E+03  0.50400001928E-02 0. -1.
</event>
<event>
 5   0  0.4373026E-05  0.1601530E+04  0.7818609E-02  0.8819609E-01
       -1   -1    0    0    0  501  0.00000000000E+00  0.00000000000E+00  0.16230554972E+04  0.16230554972E+04  0.50400001928E-02 0.  1.
        1   -1    0    0  501    0  0.00000000000E+00  0.00000000000E+00 -0.39507232049E+03  0.39507232052E+03  0.50400001928E-02 0. -1.
    10030    2    1    2    0    0  0.00000000000E+00  0.00000000000E+00  0.12279831767E+04  0.20181278178E+04  0.16015296458E+04 0.  0.
        4    1    3    3  502    0  0.69363043062E+03  0.30242893098E+03  0.28385741685E+03  0.80818505219E+03  0.12699999809E+01 0. -1.
       -4    1    3    3    0  502 -0.69363043062E+03 -0.30242893098E+03  0.94412575990E+03  0.12099427656E+04  0.12699999809E+01 0.  1.
</event>
<event>
 5   0  0.8037548E-05  0.1615683E+04  0.7818609E-02  0.8810971E-01
       -2   -1    0    0    0  501  0.00000000000E+00  0.00000000000E+00  0.73532389169E+03  0.73532389170E+03  0.25500000920E-02 0. -1.
        2   -1    0    0  501    0  0.00000000000E+00  0.00000000000E+00 -0.88751123260E+03  0.88751123261E+03  0.25500000920E-02 0.  1.
    10030    2    1    2    0    0  0.00000000000E+00  0.00000000000E+00 -0.15218734091E+03  0.16228351243E+04  0.16156834015E+04 0.  0.
        5    1    3    3  502    0  0.36126957669E+03  0.65375124164E+03 -0.38515640446E+03  0.84040105835E+03  0.46999998093E+01 0.  1.
       -5    1    3    3    0  502 -0.36126957669E+03 -0.65375124164E+03  0.23296906354E+03  0.78243406595E+03  0.46999998093E+01 0. -1.
</event>
<event>
 5   0  0.3042125E-05  0.1601078E+04  0.7818609E-02  0.8819886E-01
       -4   -1    0    0    0  501  0.00000000000E+00  0.00000000000E+00  0.62442662809E+03  0.62442791960E+03  0.12699999809E+01 0. -1.
        4   -1    0    0  501    0  0.00000000000E+00  0.00000000000E+00 -0.10263188829E+04  0.10263196686E+04  0.12699999809E+01 0.  1.
    10030    2    1    2    0    0  0.00000000000E+00  0.00000000000E+00 -0.40189225478E+03  0.16507475882E+04  0.16010778293E+04 0.  0.
        4    1    3    3  502    0  0.41697274706E+02  0.27306281992E+03 -0.97562709356E+03  0.10139782073E+04  0.12699999809E+01 0.  1.
       -4    1    3    3    0  502 -0.41697274706E+02 -0.27306281992E+03  0.57373483878E+03  0.63676938091E+03  0.12699999809E+01 0. -1.
</event>
<event>
 5   0  0.4256406E-05  0.1602661E+04  0.7818609E-02  0.8818915E-01
       -1   -1    0    0    0  501  0.00000000000E+00  0.00000000000E+00  0.60856384695E+03  0.60856384697E+03  0.50400001928E-02 0.  1.
        1   -1    0    0  501    0  0.00000000000E+00  0.00000000000E+00 -0.10551575851E+04  0.10551575851E+04  0.50400001928E-02 0. -1.
    10030    2    1    2    0    0  0.00000000000E+00  0.00000000000E+00 -0.44659373811E+03  0.16637214320E+04  0.16026612357E+04 0.  0.
        3    1    3    3  502    0  0.60789594152E+03  0.38978827767E+03  0.13729639429E+03  0.73506645088E+03  0.10100000352E+00 0.  1.
       -3    1    3    3    0  502 -0.60789594152E+03 -0.38978827767E+03 -0.58389013240E+03  0.92865498116E+03  0.10100000352E+00 0. -1.
</event>
<event>
 5   0  0.4373026E-05  0.1632180E+04  0.7818609E-02  0.8801019E-01
       -1   -1    0    0    0  501  0.00000000000E+00  0.00000000000E+00  0.67967580359E+03  0.67967580361E+03  0.50400001928E-02 0.  1.
        1   -1    0    0  501    0  0.00000000000E+00  0.00000000000E+00 -0.97988352324E+03  0.97988352326E+03  0.50400001928E-02 0. -1.
    10030    2    1    2    0    0  0.00000000000E+00  0.00000000000E+00 -0.30020771965E+03  0.16595593269E+04  0.16321802855E+04 0.  0.
        4    1    3    3  502    0 -0.74358131695E+03  0.10847127322E+03  0.17354733084E+03  0.77123244289E+03  0.12699999809E+01 0.  1.
       -4    1    3    3    0  502  0.74358131695E+03 -0.10847127322E+03 -0.47375505049E+03  0.88832688397E+03  0.12699999809E+01 0. -1.
</event>
<event>
 5   0  0.4373026E-05  0.1598730E+04  0.7818609E-02  0.8821328E-01
        1   -1    0    0  501    0  0.00000000000E+00  0.00000000000E+00  0.10399572466E+04  0.10399572466E+04  0.50400001928E-02 0. -1.
       -1   -1    0    0    0  501  0.00000000000E+00  0.00000000000E+00 -0.61443348465E+03  0.61443348467E+03  0.50400001928E-02 0.  1.
    10030    2    1    2    0    0  0.00000000000E+00  0.00000000000E+00  0.42552376198E+03  0.16543907313E+04  0.15987301898E+04 0.  0.
        4    1    3    3  502    0  0.16646086080E+03  0.39880174777E+03 -0.48313201011E+03  0.64820537201E+03  0.12699999809E+01 0.  1.
       -4    1    3    3    0  502 -0.16646086080E+03 -0.39880174777E+03  0.90865577209E+03  0.10061853593E+04  0.12699999809E+01 0. -1.
</event>
<event>
 5   0  0.8620155E-05  0.1601068E+04  0.7818609E-02  0.8819892E-01
       -2   -1    0    0    0  501  0.00000000000E+00  0.00000000000E+00  0.71024851455E+03  0.71024851456E+03  0.25500000920E-02 0. -1.
        2   -1    0    0  501    0  0.00000000000E+00  0.00000000000E+00 -0.90229593841E+03  0.90229593842E+03  0.25500000920E-02 0.  1.
    10030    2    1    2    0    0  0.00000000000E+00  0.00000000000E+00 -0.19204742386E+03  0.16125444530E+04  0.16010675813E+04 0.  0.
        4    1    3    3  502    0 -0.10607442885E+03  0.34328501736E+03  0.62447573470E+03  0.72046370049E+03  0.12699999809E+01 0. -1.
       -4    1    3    3    0  502  0.10607442885E+03 -0.34328501736E+03 -0.81652315856E+03  0.89208075249E+03  0.12699999809E+01 0.  1.
</event>
<event>
 5   0  0.3042125E-05  0.1600986E+04  0.7818609E-02  0.8819942E-01
        3   -1    0    0  501    0  0.00000000000E+00  0.00000000000E+00  0.63210645072E+03  0.63210645879E+03  0.10100000352E+00 0.  1.
       -3   -1    0    0    0  501  0.00000000000E+00  0.00000000000E+00 -0.10137361996E+04  0.10137362046E+04  0.10100000352E+00 0. -1.
    10030    2    1    2    0    0  0.00000000000E+00  0.00000000000E+00 -0.38162974884E+03  0.16458426634E+04  0.16009861984E+04 0.  0.
        4    1    3    3  502    0  0.27587847267E+01 -0.76732095412E+03  0.43605992113E+02  0.76856499593E+03  0.12699999809E+01 0. -1.
       -4    1    3    3    0  502 -0.27587847267E+01  0.76732095412E+03 -0.42523574096E+03  0.87727766745E+03  0.12699999809E+01 0.  1.
</event>
<event>
 5   0  0.4256406E-05  0.1601759E+04  0.7818609E-02  0.8819468E-01
        1   -1    0    0  501    0  0.00000000000E+00  0.00000000000E+00  0.62714647302E+03  0.62714647304E+03  0.50400001928E-02 0.  1.
       -1   -1    0    0    0  501  0.00000000000E+00  0.00000000000E+00 -0.10227403970E+04  0.10227403970E+04  0.50400001928E-02 0. -1.
    10030    2    1    2    0    0  0.00000000000E+00  0.00000000000E+00 -0.39559392393E+03  0.16498868700E+04  0.16017590740E+04 0.  0.
        3    1    3    3  502    0 -0.41803872829E+03 -0.25594303733E+03  0.45459343551E+03  0.66851957227E+03  0.10100000352E+00 0.  1.
       -3    1    3    3    0  502  0.41803872829E+03  0.25594303733E+03 -0.85018735944E+03  0.98136729773E+03  0.10100000352E+00 0. -1.
</event>
<event>
 5   0  0.7901257E-05  0.1599542E+04  0.7818609E-02  0.8820830E-01
       -2   -1    0    0    0  501  0.00000000000E+00  0.00000000000E+00  0.50767151100E+03  0.50767151101E+03  0.25500000920E-02 0. -1.
        2   -1    0    0  501    0  0.00000000000E+00  0.00000000000E+00 -0.12599356616E+04  0.12599356616E+04  0.25500000920E-02 0.  1.
    10030    2    1    2    0    0  0.00000000000E+00  0.00000000000E+00 -0.75226415058E+03  0.17676071726E+04  0.15995417357E+04 0.  0.
        2    1    3    3  502    0 -0.37685614908E+03 -0.18304337618E+03 -0.11289669150E+04  0.12041975460E+04  0.25500000920E-02 0.  1.
       -2    1    3    3    0  502  0.37685614908E+03  0.18304337618E+03  0.37670276438E+03  0.56340962661E+03  0.25500000920E-02 0. -1.
</event>
<event>
 5   0  0.8037548E-05  0.1602917E+04  0.7818609E-02  0.8818758E-01
       -2   -1    0    0    0  501  0.00000000000E+00  0.00000000000E+00  0.30089055863E+03  0.30089055864E+03  0.25500000920E-02 0. -1.
        2   -1    0    0  501    0  0.00000000000E+00  0.00000000000E+00 -0.21347810626E+04  0.21347810626E+04  0.25500000920E-02 0.  1.
    10030    2    1    2    0    0  0.00000000000E+00  0.00000000000E+00 -0.18338905039E+04  0.24356716212E+04  0.16029166747E+04 0.  0.
        5    1    3    3  502    0  0.44170152469E+03 -0.35801975402E+02 -0.19316549144E+04  0.19818412693E+04  0.46999998093E+01 0.  1.
       -5    1    3    3    0  502 -0.44170152469E+03  0.35801975402E+02  0.97764410470E+02  0.45383035191E+03  0.46999998093E+01 0. -1.
</event>
<event>
 5   0  0.7849690E-05  0.1597647E+04  0.7818609E-02  0.8821995E-01
        2   -1    0    0  501    0  0.00000000000E+00  0.00000000000E+00  0.12924136897E+04  0.12924136897E+04  0.25500000920E-02 0.  1.
       -2   -1    0    0    0  501  0.00000000000E+00  0.00000000000E+00 -0.49374224682E+03  0.49374224683E+03  0.25500000920E-02 0. -1.
    10030    2    1    2    0    0  0.00000000000E+00  0.00000000000E+00  0.79867144284E+03  0.17861559365E+04  0.15976473190E+04 0.  0.
        3    1    3    3  502    0 -0.25829265536E+03  0.91352040155E+02  0.12382457473E+04  0.12681927424E+04  0.10100000352E+00 0.  1.
       -3    1    3    3    0  502  0.25829265536E+03 -0.91352040155E+02 -0.43957430446E+03  0.51796319405E+03  0.10100000352E+00 0. -1.
</event>
<event>
 5   0  0.4211419E-05  0.1600861E+04  0.7818609E-02  0.8820019E-01
       -1   -1    0    0    0  501  0.00000000000E+00  0.00000000000E+00  0.41733885077E+03  0.41733885080E+03  0.50400001928E-02 0.  1.
        1   -1    0    0  501    0  0.00000000000E+00  0.00000000000E+00 -0.15351772176E+04  0.15351772176E+04  0.50400001928E-02 0. -1.
    10030    2    1    2    0    0  0.00000000000E+00  0.00000000000E+00 -0.11178383668E+04  0.19525160684E+04  0.16008611379E+04 0.  0.
        2    1    3    3  502    0  0.15334528124E+03 -0.45538636206E+03 -0.13396937363E+04  0.14232606301E+04  0.25500000920E-02 0. -1.
       -2    1    3    3    0  502 -0.15334528124E+03  0.45538636206E+03  0.22185536947E+03  0.52925543833E+03  0.25500000920E-02 0.  1.
</event>
<event>
 5   0  0.7849690E-05  0.1598670E+04  0.7818609E-02  0.8821365E-01
        2   -1    0    0  501    0  0.00000000000E+00  0.00000000000E+00  0.53100865275E+03  0.53100865275E+03  0.25500000920E-02 0. -1.
       -2   -1    0    0    0  501  0.00000000000E+00  0.00000000000E+00 -0.12032511262E+04  0.12032511262E+04  0.25500000920E-02 0.  1.
    10030    2    1    2    0    0  0.00000000000E+00  0.00000000000E+00 -0.67224247348E+03  0.17342597790E+04  0.15986703969E+04 0.  0.
        3    1    3    3  502    0  0.13699158758E+03 -0.21832355637E+03 -0.11569353497E+04  0.11852979726E+04  0.10100000352E+00 0.  1.
       -3    1    3    3    0  502 -0.13699158758E+03  0.21832355637E+03  0.48469287624E+03  0.54896180633E+03  0.10100000352E+00 0. -1.
</event>
<event>
 5   0  0.4314657E-05  0.1610912E+04  0.7818609E-02  0.8813872E-01
        1   -1    0    0  501    0  0.00000000000E+00  0.00000000000E+00  0.13485975300E+04  0.13485975300E+04  0.50400001928E-02 0. -1.
       -1   -1    0    0    0  501  0.00000000000E+00  0.00000000000E+00 -0.48106238963E+03  0.48106238966E+03  0.50400001928E-02 0.  1.
    10030    2    1    2    0    0  0.00000000000E+00  0.00000000000E+00  0.86753514041E+03  0.18296599197E+04  0.16109122266E+04 0.  0.
        5    1    3    3  502    0 -0.80170990423E+03  0.63586002556E+02  0.38354157607E+03  0.89101525287E+03  0.46999998093E+01 0. -1.
       -5    1    3    3    0  502  0.80170990423E+03 -0.63586002556E+02  0.48399356433E+03  0.93864466684E+03  0.46999998093E+01 0.  1.
</event>
<event>
 5   0  0.4256406E-05  0.1598167E+04  0.7818609E-02  0.8821675E-01
       -1   -1    0    0    0  501  0.00000000000E+00  0.00000000000E+00  0.97904698150E+03  0.97904698152E+03  0.50400001928E-02 0. -1.
        1   -1    0    0  501    0  0.00000000000E+00  0.00000000000E+00 -0.65220035424E+03  0.65220035425E+03  0.50400001928E-02 0.  1.
    10030    2    1    2    0    0  0.00000000000E+00  0.00000000000E+00  0.32684662727E+03  0.16312473358E+04  0.15981674358E+04 0.  0.
        3    1    3    3  502    0 -0.10743660285E+03 -0.35103303692E+03  0.88788064209E+03  0.96078033985E+03  0.10100000352E+00 0. -1.
       -3    1    3    3    0  502  0.10743660285E+03  0.35103303692E+03 -0.56103401482E+03  0.67046699593E+03  0.10100000352E+00 0.  1.
</event>
<event>
 5   0  0.4373026E-05  0.1600656E+04  0.7818609E-02  0.8820145E-01
       -1   -1    0    0    0  501  0.00000000000E+00  0.00000000000E+00  0.36385944269E+03  0.36385944273E+03  0.50400001928E-02 0.  1.
        1   -1    0    0  501    0  0.00000000000E+00  0.00000000000E+00 -0.17603640453E+04  0.17603640453E+04  0.50400001928E-02 0. -1.
    10030    2    1    2    0    0  0.00000000000E+00  0.00000000000E+00 -0.13965046026E+04  0.21242234880E+04  0.16006562160E+04 0.  0.
        4    1    3    3  502    0  0.76764493979E+03  0.54696187591E+02 -0.40673489872E+03  0.87046270297E+03  0.12699999809E+01 0.  1.
       -4    1    3    3    0  502 -0.76764493979E+03 -0.54696187591E+02 -0.98976970385E+03  0.12537607850E+04  0.12699999809E+01 0. -1.
</event>
<event>
 5   0  0.8620155E-05  0.1602584E+04  0.7818609E-02  0.8818962E-01
        2   -1    0    0  501    0  0.00000000000E+00  0.00000000000E+00  0.47475350622E+03  0.47475350622E+03  0.25500000920E-02 0.  1.
       -2   -1    0    0    0  501  0.00000000000E+00  0.00000000000E+00 -0.13524262118E+04  0.13524262118E+04  0.25500000920E-02 0. -1.
    10030    2    1    2    0    0  0.00000000000E+00  0.00000000000E+00 -0.87767270561E+03  0.18271797181E+04  0.16025842705E+04 0.  0.
        4    1    3    3  502    0  0.34230455487E+03  0.71283997509E+03 -0.29125799016E+03  0.84270164833E+03  0.12699999809E+01 0. -1.
       -4    1    3    3    0  502 -0.34230455487E+03 -0.71283997509E+03 -0.58641471545E+03  0.98447806972E+03  0.12699999809E+01 0.  1.
</event>
<event>
 5   0  0.4373026E-05  0.1600804E+04  0.7818609E-02  0.8820054E-01
        1   -1    0    0  501    0  0.00000000000E+00  0.00000000000E+00  0.14045024534E+04  0.14045024534E+04  0.50400001928E-02 0. -1.
       -1   -1    0    0    0  501  0.00000000000E+00  0.00000000000E+00 -0.45613565009E+03  0.45613565012E+03  0.50400001928E-02 0.  1.
    10030    2    1    2    0    0  0.00000000000E+00  0.00000000000E+00  0.94836680331E+03  0.18606381035E+04  0.16008043474E+04 0.  0.
        4    1    3    3  502    0  0.24495549891E+03 -0.55270242436E+03 -0.13551549139E+03  0.61955566952E+03  0.12699999809E+01 0.  1.
       -4    1    3    3    0  502 -0.24495549891E+03  0.55270242436E+03  0.10838822947E+04  0.12410824340E+04  0.12699999809E+01 0. -1.
</event>
<event>
 5   0  0.8037548E-05  0.1598082E+04  0.7818609E-02  0.8821727E-01
        2   -1    0    0  501    0  0.00000000000E+00  0.00000000000E+00  0.69360330566E+03  0.69360330567E+03  0.25500000920E-02 0. -1.
       -2   -1    0    0    0  501  0.00000000000E+00  0.00000000000E+00 -0.92050639463E+03  0.92050639464E+03  0.25500000920E-02 0.  1.
    10030    2    1    2    0    0  0.00000000000E+00  0.00000000000E+00 -0.22690308897E+03  0.16141097003E+04  0.15980816978E+04 0.  0.
        5    1    3    3  502    0  0.39069098977E+03 -0.51727219720E+03 -0.58529234051E+03  0.87338375834E+03  0.46999998093E+01 0.  1.
       -5    1    3    3    0  502 -0.39069098977E+03  0.51727219720E+03  0.35838925154E+03  0.74072594196E+03  0.46999998093E+01 0. -1.
</event>
<event>
 5   0  0.4256406E-05  0.1604682E+04  0.7818609E-02  0.8817677E-01
        1   -1    0    0  501    0  0.00000000000E+00  0.00000000000E+00  0.77998801620E+03  0.77998801622E+03  0.50400001928E-02 0. -1.
       -1   -1    0    0    0  501  0.00000000000E+00  0.00000000000E+00 -0.82533475770E+03  0.82533475772E+03  0.50400001928E-02 0.  1.
    10030    2    1    2    0    0  0.00000000000E+00  0.00000000000E+00 -0.45346741499E+02  0.16053227739E+04  0.16046821746E+04 0.  0.
        3    1    3    3  502    0 -0.23711594703E+03 -0.38648535242E+02  0.74316050065E+03  0.78102831033E+03  0.10100000352E+00 0. -1.
       -3    1    3    3    0  502  0.23711594703E+03  0.38648535242E+02 -0.78850724215E+03  0.82429446361E+03  0.10100000352E+00 0.  1.
</event>
<event>
 5   0  0.7901257E-05  0.1614437E+04  0.7818609E-02  0.8811727E-01
       -2   -1    0    0    0  501  0.00000000000E+00  0.00000000000E+00  0.91715581538E+03  0.91715581539E+03  0.25500000920E-02 0.  1.
        2   -1    0    0  501    0  0.00000000000E+00  0.00000000000E+00 -0.71045928073E+03  0.71045928073E+03  0.25500000920E-02 0. -1.
    10030    2    1    2    0    0  0.00000000000E+00  0.00000000000E+00  0.20669653465E+03  0.16276150961E+04  0.16144371910E+04 0.  0.
        2    1    3    3  502    0  0.20267623045E+03 -0.48475987569E+03 -0.51446050543E+03  0.73534985084E+03  0.25500000920E-02 0. -1.
       -2    1    3    3    0  502 -0.20267623045E+03  0.48475987569E+03  0.72115704009E+03  0.89226524528E+03  0.25500000920E-02 0.  1.
</event>
<event>
 5   0  0.8620155E-05  0.1601715E+04  0.7818609E-02  0.8819495E-01
        2   -1    0    0  501    0  0.00000000000E+00  0.00000000000E+00  0.15863738746E+04  0.15863738746E+04  0.25500000920E-02 0.  1.
       -2   -1    0    0    0  501  0.00000000000E+00  0.00000000000E+00 -0.40430106722E+03  0.40430106723E+03  0.25500000920E-02 0. -1.
    10030    2    1    2    0    0  0.00000000000E+00  0.00000000000E+00  0.11820728074E+04  0.19906749419E+04  0.16017148941E+04 0.  0.
        4    1    3    3  502    0 -0.72948959078E+02 -0.16466998574E+03 -0.37880337204E+03  0.41944172706E+03  0.12699999809E+01 0. -1.
       -4    1    3    3    0  502  0.72948959078E+02  0.16466998574E+03  0.15608761794E+04  0.15712332148E+04  0.12699999809E+01 0.  1.
</event>
<event>
 5   0  0.7901257E-05  0.1596721E+04  0.7818609E-02  0.8822565E-01
        2   -1    0    0  501    0  0.00000000000E+00  0.00000000000E+00  0.57621082060E+03  0.57621082060E+03  0.25500000920E-02 0. -1.
       -2   -1    0    0    0  501  0.00000000000E+00  0.00000000000E+00 -0.11061562714E+04  0.11061562714E+04  0.25500000920E-02 0.  1.
    10030    2    1    2    0    0  0.00000000000E+00  0.00000000000E+00 -0.52994545083E+03  0.16823670920E+04  0.15967206554E+04 0.  0.
        2    1    3    3  502    0 -0.61306345417E+03 -0.35458782462E+03  0.12330415195E+03  0.71887637192E+03  0.25500000920E-02 0. -1.
       -2    1    3    3    0  502  0.61306345417E+03  0.35458782462E+03 -0.65324960279E+03  0.96349072012E+03  0.25500000920E-02 0.  1.
</event>
<event>
 5   0  0.4373026E-05  0.1600563E+04  0.7818609E-02  0.8820203E-01
       -1   -1    0    0    0  501  0.00000000000E+00  0.00000000000E+00  0.99053134037E+03  0.99053134038E+03  0.50400001928E-02 0. -1.
        1   -1    0    0  501    0  0.00000000000E+00  0.00000000000E+00 -0.64657225425E+03  0.64657225427E+03  0.50400001928E-02 0.  1.
    10030    2    1    2    0    0  0.00000000000E+00  0.00000000000E+00  0.34395908612E+03  0.16371035947E+04  0.16005625032E+04 0.  0.
        4    1    3    3  502    0  0.47767319093E+03 -0.24460949353E+03 -0.43524310368E+03  0.69097297621E+03  0.12699999809E+01 0.  1.
       -4    1    3    3    0  502 -0.47767319093E+03  0.24460949353E+03  0.77920218980E+03  0.94613061844E+03  0.12699999809E+01 0. -1.
</event>
<event>
 5   0  0.8037548E-05  0.1598045E+04  0.7818609E-02  0.8821750E-01
       -2   -1    0    0    0  501  0.00000000000E+00  0.00000000000E+00  0.55749568731E+03  0.55749568732E+03  0.25500000920E-02 0. -1.
        2   -1    0    0  501    0  0.00000000000E+00  0.00000000000E+00 -0.11451867963E+04  0.11451867963E+04  0.25500000920E-02 0.  1.
    10030    2    1    2    0    0  0.00000000000E+00  0.00000000000E+00 -0.58769110894E+03  0.17026824836E+04  0.15980446803E+04 0.  0.
        5    1    3    3  502    0  0.43759244201E+03 -0.53296162955E+03 -0.72385479259E+03  0.99976151888E+03  0.46999998093E+01 0.  1.
       -5    1    3    3    0  502 -0.43759244201E+03  0.53296162955E+03  0.13616368364E+03  0.70292096470E+03  0.46999998093E+01 0. -1.
</event>
<event>
 5   0  0.4211419E-05  0.1600486E+04  0.7818609E-02  0.8820250E-01
        1   -1    0    0  501    0  0.00000000000E+00  0.00000000000E+00  0.48136062704E+03  0.48136062707E+03  0.50400001928E-02 0. -1.
       -1   -1    0    0    0  501  0.00000000000E+00  0.00000000000E+00 -0.13303715289E+04  0.13303715289E+04  0.50400001928E-02 0.  1.
    10030    2    1    2    0    0  0.00000000000E+00  0.00000000000E+00 -0.84901090181E+03  0.18117321559E+04  0.16004855180E+04 0.  0.
        2    1    3    3  502    0  0.25176727241E+03  0.55926043782E+03  0.15737380662E+03  0.63318679060E+03  0.25500000920E-02 0. -1.
       -2    1    3    3    0  502 -0.25176727241E+03 -0.55926043782E+03 -0.10063847084E+04  0.11785453653E+04  0.25500000920E-02 0.  1.
</event>
<event>
 5   0  0.4504463E-05  0.1598593E+04  0.7818609E-02  0.8821413E-01
       -1   -1    0    0    0  501  0.00000000000E+00  0.00000000000E+00  0.34670446456E+03  0.34670446460E+03  0.50400001928E-02 0. -1.
        1   -1    0    0  501    0  0.00000000000E+00  0.00000000000E+00 -0.18427071715E+04  0.18427071715E+04  0.50400001928E-02 0.  1.
    10030    2    1    2    0    0  0.00000000000E+00  0.00000000000E+00 -0.14960027070E+04  0.21894116361E+04  0.15985928854E+04 0.  0.
        1    1    3    3  502    0  0.20101810494E+03 -0.13204784350E+03 -0.17919731930E+04  0.18080411599E+04  0.50400001928E-02 0.  1.
       -1    1    3    3    0  502 -0.20101810494E+03  0.13204784350E+03  0.29597048604E+03  0.38137047621E+03  0.50400001928E-02 0. -1.
</event>
<event>
 5   0  0.4314657E-05  0.1590898E+04  0.7818609E-02  0.8826160E-01
       -1   -1    0    0    0  501  0.00000000000E+00  0.00000000000E+00  0.28340310058E+03  0.28340310063E+03  0.50400001928E-02 0. -1.
        1   -1    0    0  501    0  0.00000000000E+00  0.00000000000E+00 -0.22326460206E+04  0.22326460206E+04  0.50400001928E-02 0.  1.
    10030    2    1    2    0    0  0.00000000000E+00  0.00000000000E+00 -0.19492429200E+04  0.25160491213E+04  0.15908976143E+04 0.  0.
        5    1    3    3  502    0 -0.21604481098E+03  0.32686180188E+03  0.12018290664E+03  0.40985365549E+03  0.46999998093E+01 0. -1.
       -5    1    3    3    0  502  0.21604481098E+03 -0.32686180188E+03 -0.20694258267E+04  0.21061954658E+04  0.46999998093E+01 0.  1.
</event>
<event>
 5   0  0.4373026E-05  0.1595018E+04  0.7818609E-02  0.8823615E-01
       -1   -1    0    0    0  501  0.00000000000E+00  0.00000000000E+00  0.92043354347E+03  0.92043354348E+03  0.50400001928E-02 0. -1.
        1   -1    0    0  501    0  0.00000000000E+00  0.00000000000E+00 -0.69100088649E+03  0.69100088650E+03  0.50400001928E-02 0.  1.
    10030    2    1    2    0    0  0.00000000000E+00  0.00000000000E+00  0.22943265698E+03  0.16114344300E+04  0.15950177360E+04 0.  0.
        4    1    3    3  502    0 -0.65369421514E+03 -0.34367706150E+03 -0.18936112009E+03  0.76242330513E+03  0.12699999809E+01 0. -1.
       -4    1    3    3    0  502  0.65369421514E+03  0.34367706150E+03  0.41879377708E+03  0.84901112485E+03  0.12699999809E+01 0.  1.
</event>
<event>
 5   0  0.8694033E-05  0.1602085E+04  0.7818609E-02  0.8819268E-01
       -2   -1    0    0    0  501  0.00000000000E+00  0.00000000000E+00  0.74703447793E+03  0.74703447793E+03  0.25500000920E-02 0. -1.
        2   -1    0    0  501    0  0.00000000000E+00  0.00000000000E+00 -0.85895460549E+03  0.85895460549E+03  0.25500000920E-02 0.  1.
    10030    2    1    2    0    0  0.00000000000E+00  0.00000000000E+00 -0.11192012756E+03  0.16059890834E+04  0.16020845237E+04 0.  0.
        1    1    3    3  502    0 -0.41460804865E+03 -0.61877556167E+03 -0.35144221677E+03  0.82358646266E+03  0.50400001928E-02 0.  1.
       -1    1    3    3    0  502  0.41460804865E+03  0.61877556167E+03  0.23952208921E+03  0.78240262076E+03  0.50400001928E-02 0. -1.
</event>
<event>
 5   0  0.4504463E-05  0.1599413E+04  0.7818609E-02  0.8820909E-01
        1   -1    0    0  501    0  0.00000000000E+00  0.00000000000E+00  0.32711269935E+04  0.32711269935E+04  0.50400001928E-02 0.  1.
       -1   -1    0    0    0  501  0.00000000000E+00  0.00000000000E+00 -0.19550774743E+03  0.19550774750E+03  0.50400001928E-02 0. -1.
    10030    2    1    2    0    0  0.00000000000E+00  0.00000000000E+00  0.30756192461E+04  0.34666347410E+04  0.15994132301E+04 0.  0.
        1    1    3    3  502    0 -0.47973870608E+03 -0.47091013465E+03  0.24766523726E+04  0.25662643191E+04  0.50400001928E-02 0.  1.
       -1    1    3    3    0  502  0.47973870608E+03  0.47091013465E+03  0.59896687352E+03  0.90037042190E+03  0.50400001928E-02 0. -1.
</event>
<event>
 5   0  0.7849690E-05  0.1599461E+04  0.7818609E-02  0.8820879E-01
       -2   -1    0    0    0  501  0.00000000000E+00  0.00000000000E+00  0.83964221203E+03  0.83964221203E+03  0.25500000920E-02 0. -1.
        2   -1    0    0  501    0  0.00000000000E+00  0.00000000000E+00 -0.76171610953E+03  0.76171610953E+03  0.25500000920E-02 0.  1.
    10030    2    1    2    0    0  0.00000000000E+00  0.00000000000E+00  0.77926102500E+02  0.16013583216E+04  0.15994611582E+04 0.  0.
        3    1    3    3  502    0 -0.10665074172E+03 -0.41569103640E+03  0.71459351589E+03  0.83355702961E+03  0.10100000352E+00 0. -1.
       -3    1    3    3    0  502  0.10665074172E+03  0.41569103640E+03 -0.63666741339E+03  0.76780129196E+03  0.10100000352E+00 0.  1.
</event>
<event>
 5   0  0.8694033E-05  0.1600331E+04  0.7818609E-02  0.8820345E-01
       -2   -1    0    0    0  501  0.00000000000E+00  0.00000000000E+00  0.42051786743E+03  0.42051786744E+03  0.25500000920E-02 0.  1.
        2   -1    0    0  501    0  0.00000000000E+00  0.00000000000E+00 -0.15225627012E+04  0.15225627012E+04  0.25500000920E-02 0. -1.
    10030    2    1    2    0    0  0.00000000000E+00  0.00000000000E+00 -0.11020448338E+04  0.19430805686E+04  0.16003309909E+04 0.  0.
        1    1    3    3  502    0  0.35357254622E+03  0.37559179313E+03  0.19169307947E+03  0.55029898896E+03  0.50400001928E-02 0.  1.
       -1    1    3    3    0  502 -0.35357254622E+03 -0.37559179313E+03 -0.12937379132E+04  0.13927815797E+04  0.50400001928E-02 0. -1.
</event>
<event>
 5   0  0.8694033E-05  0.1600471E+04  0.7818609E-02  0.8820258E-01
        2   -1    0    0  501    0  0.00000000000E+00  0.00000000000E+00  0.14329071241E+04  0.14329071241E+04  0.25500000920E-02 0. -1.
       -2   -1    0    0    0  501  0.00000000000E+00  0.00000000000E+00 -0.44690770100E+03  0.44690770101E+03  0.25500000920E-02 0.  1.
    10030    2    1    2    0    0  0.00000000000E+00  0.00000000000E+00  0.98599942311E+03  0.18798148251E+04  0.16004714663E+04 0.  0.
        1    1    3    3  502    0  0.40467730486E+03  0.19616709768E+03 -0.28444517294E+03  0.53212245557E+03  0.50400001928E-02 0.  1.
       -1    1    3    3    0  502 -0.40467730486E+03 -0.19616709768E+03  0.12704445961E+04  0.13476923696E+04  0.50400001928E-02 0. -1.
</event>
<event>
 5   0  0.8037548E-05  0.1599591E+04  0.7818609E-02  0.8820799E-01
       -2   -1    0    0    0  501  0.00000000000E+00  0.00000000000E+00  0.91351043077E+03  0.91351043077E+03  0.25500000920E-02 0. -1.
        2   -1    0    0  501    0  0.00000000000E+00  0.00000000000E+00 -0.70023568482E+03  0.70023568483E+03  0.25500000920E-02 0.  1.
    10030    2    1    2    0    0  0.00000000000E+00  0.00000000000E+00  0.21327474595E+03  0.16137461156E+04  0.15995907003E+04 0.  0.
        5    1    3    3  502    0  0.31762542714E+03 -0.61818858584E+02 -0.63123305547E+03  0.70935516038E+03  0.46999998093E+01 0.  1.
       -5    1    3    3    0  502 -0.31762542714E+03  0.61818858584E+02  0.84450780141E+03  0.90439095522E+03  0.46999998093E+01 0. -1.
</event>
<event>
 5   0  0.4314657E-05  0.1601343E+04  0.7818609E-02  0.8819723E-01
        1   -1    0    0  501    0  0.00000000000E+00  0.00000000000E+00  0.58421829534E+03  0.58421829536E+03  0.50400001928E-02 0. -1.
       -1   -1    0    0    0  501  0.00000000000E+00  0.00000000000E+00 -0.10973206751E+04  0.10973206751E+04  0.50400001928E-02 0.  1.
    10030    2    1    2    0    0  0.00000000000E+00  0.00000000000E+00 -0.51310237979E+03  0.16815389705E+04  0.16013429543E+04 0.  0.
        5    1    3    3  502    0  0.27673082959E+03 -0.26945913636E+03 -0.99300471146E+03  0.10654898522E+04  0.46999998093E+01 0. -1.
       -5    1    3    3    0  502 -0.27673082959E+03  0.26945913636E+03  0.47990233167E+03  0.61604911829E+03  0.46999998093E+01 0.  1.
</event>
<event>
 5   0  0.7849690E-05  0.1603164E+04  0.7818609E-02  0.8818607E-01
        2   -1    0    0  501    0  0.00000000000E+00  0.00000000000E+00  0.46263019418E+03  0.46263019418E+03  0.25500000920E-02 0.  1.
       -2   -1    0    0    0  501  0.00000000000E+00  0.00000000000E+00 -0.13888703900E+04  0.13888703900E+04  0.25500000920E-02 0. -1.
    10030    2    1    2    0    0  0.00000000000E+00  0.00000000000E+00 -0.92624019578E+03  0.18515005841E+04  0.16031635951E+04 0.  0.
        3    1    3    3  502    0 -0.76436773172E+03  0.16359574451E+03 -0.66813357788E+03  0.10283112783E+04  0.10100000352E+00 0. -1.
       -3    1    3    3    0  502  0.76436773172E+03 -0.16359574451E+03 -0.25810661790E+03  0.82318930588E+03  0.10100000352E+00 0.  1.
</event>
<event>
 5   0  0.4211419E-05  0.1602798E+04  0.7818609E-02  0.8818831E-01
        1   -1    0    0  501    0  0.00000000000E+00  0.00000000000E+00  0.19207997877E+04  0.19207997877E+04  0.50400001928E-02 0. -1.
       -1   -1    0    0    0  501  0.00000000000E+00  0.00000000000E+00 -0.33436109103E+03  0.33436109107E+03  0.50400001928E-02 0.  1.
    10030    2    1    2    0    0  0.00000000000E+00  0.00000000000E+00  0.15864386966E+04  0.22551608787E+04  0.16027984436E+04 0.  0.
        2    1    3    3  502    0  0.15513650368E+03 -0.69397892860E+03  0.13131805092E+04  0.14933576724E+04  0.25500000920E-02 0. -1.
       -2    1    3    3    0  502 -0.15513650368E+03  0.69397892860E+03  0.27325818744E+03  0.76180320630E+03  0.25500000920E-02 0.  1.
</event>
<event>
 5   0  0.4504463E-05  0.1598534E+04  0.7818609E-02  0.8821449E-01
        1   -1    0    0  501    0  0.00000000000E+00  0.00000000000E+00  0.77833218635E+03  0.77833218636E+03  0.50400001928E-02 0.  1.
       -1   -1    0    0    0  501  0.00000000000E+00  0.00000000000E+00 -0.82076510059E+03  0.82076510060E+03  0.50400001928E-02 0. -1.
    10030    2    1    2    0    0  0.00000000000E+00  0.00000000000E+00 -0.42432914241E+02  0.15990972870E+04  0.15985341976E+04 0.  0.
        1    1    3    3  502    0 -0.14046826433E+03  0.14375259239E+03  0.75263974902E+03  0.77901394913E+03  0.50400001928E-02 0.  1.
       -1    1    3    3    0  502  0.14046826433E+03 -0.14375259239E+03 -0.79507266326E+03  0.82008333784E+03  0.50400001928E-02 0. -1.
</event>
<event>
 5   0  0.4256406E-05  0.1601824E+04  0.7818609E-02  0.8819428E-01
       -1   -1    0    0    0  501  0.00000000000E+00  0.00000000000E+00  0.43790575017E+03  0.43790575020E+03  0.50400001928E-02 0. -1.
        1   -1    0    0  501    0  0.00000000000E+00  0.00000000000E+00 -0.14648361201E+04  0.14648361201E+04  0.50400001928E-02 0.  1.
    10030    2    1    2    0    0  0.00000000000E+00  0.00000000000E+00 -0.10269303700E+04  0.19027418703E+04  0.16018241603E+04 0.  0.
        3    1    3    3  502    0 -0.38053090863E+03 -0.46162695261E+03 -0.11460010733E+04  0.12927573964E+04  0.10100000352E+00 0.  1.
       -3    1    3    3    0  502  0.38053090863E+03  0.46162695261E+03  0.11907070335E+03  0.60998447390E+03  0.10100000352E+00 0. -1.
</event>
<event>
 5   0  0.4256406E-05  0.1601998E+04  0.7818609E-02  0.8819321E-01
        1   -1    0    0  501    0  0.00000000000E+00  0.00000000000E+00  0.85524674771E+03  0.85524674772E+03  0.50400001928E-02 0. -1.
       -1   -1    0    0    0  501  0.00000000000E+00  0.00000000000E+00 -0.75019259064E+03  0.75019259065E+03  0.50400001928E-02 0.  1.
    10030    2    1    2    0    0  0.00000000000E+00  0.00000000000E+00  0.10505415707E+03  0.16054393384E+04  0.16019984686E+04 0.  0.
        3    1    3    3  502    0 -0.30344076697E+03 -0.49169600071E+03 -0.50342433269E+03  0.76634021499E+03  0.10100000352E+00 0.  1.
       -3    1    3    3    0  502  0.30344076697E+03  0.49169600071E+03  0.60847848976E+03  0.83909912339E+03  0.10100000352E+00 0. -1.
</event>
<event>
 5   0  0.7901257E-05  0.1589698E+04  0.7818609E-02  0.8826902E-01
        2   -1    0    0  501    0  0.00000000000E+00  0.00000000000E+00  0.15991380413E+04  0.15991380413E+04  0.25500000920E-02 0. -1.
       -2   -1    0    0    0  501  0.00000000000E+00  0.00000000000E+00 -0.39507838041E+03  0.39507838041E+03  0.25500000920E-02 0.  1.
    10030    2    1    2    0    0  0.00000000000E+00  0.00000000000E+00  0.12040596609E+04  0.19942164217E+04  0.15896979177E+04 0.  0.
        2    1    3    3  502    0 -0.66096665289E+03 -0.26907291803E+03  0.10411055324E+04  0.12622115041E+04  0.25500000920E-02 0. -1.
       -2    1    3    3    0  502  0.66096665289E+03  0.26907291803E+03  0.16295412850E+03  0.73200491764E+03  0.25500000920E-02 0.  1.
</event>
<event>
 5   0  0.4314657E-05  0.1602590E+04  0.7818609E-02  0.8818959E-01
       -1   -1    0    0    0  501  0.00000000000E+00  0.00000000000E+00  0.58388864457E+03  0.58388864459E+03  0.50400001928E-02 0. -1.
        1   -1    0    0  501    0  0.00000000000E+00  0.00000000000E+00 -0.10996503790E+04  0.10996503790E+04  0.50400001928E-02 0.  1.
    10030    2    1    2    0    0  0.00000000000E+00  0.00000000000E+00 -0.51576173445E+03  0.16835390236E+04  0.16025896160E+04 0.  0.
        5    1    3    3  502    0  0.18417241466E+03 -0.52455626430E+03  0.34830396301E+03  0.65606134879E+03  0.46999998093E+01 0. -1.
       -5    1    3    3    0  502 -0.18417241466E+03  0.52455626430E+03 -0.86406569746E+03  0.10274776748E+04  0.46999998093E+01 0.  1.
</event>
<event>
 5   0  0.8037548E-05  0.1601475E+04  0.7818609E-02  0.8819642E-01
        2   -1    0    0  501    0  0.00000000000E+00  0.00000000000E+00  0.91227903995E+03  0.91227903995E+03  0.25500000920E-02 0.  1.
       -2   -1    0    0    0  501  0.00000000000E+00  0.00000000000E+00 -0.70283365967E+03  0.70283365968E+03  0.25500000920E-02 0. -1.
    10030    2    1    2    0    0  0.00000000000E+00  0.00000000000E+00  0.20944538028E+03  0.16151126996E+04  0.16014748406E+04 0.  0.
        5    1    3    3  502    0  0.28001416176E+03 -0.27435391492E+03  0.80886632484E+03  0.89886863494E+03  0.46999998093E+01 0.  1.
       -5    1    3    3    0  502 -0.28001416176E+03  0.27435391492E+03 -0.59942094457E+03  0.71624406469E+03  0.46999998093E+01 0. -1.
</event>
<event>
 5   0  0.4211419E-05  0.1601425E+04  0.7818609E-02  0.8819673E-01
        1   -1    0    0  501    0  0.00000000000E+00  0.00000000000E+00  0.11591897044E+04  0.11591897044E+04  0.50400001928E-02 0. -1.
       -1   -1    0    0    0  501  0.00000000000E+00  0.00000000000E+00 -0.55309337610E+03  0.55309337613E+03  0.50400001928E-02 0.  1.
    10030    2    1    2    0    0  0.00000000000E+00  0.00000000000E+00  0.60609632825E+03  0.17122830805E+04  0.16014245498E+04 0.  0.
        2    1    3    3  502    0 -0.15899071826E+03  0.78291702337E+03  0.24543853460E+03  0.83574947697E+03  0.25500000920E-02 0.  1.
       -2    1    3    3    0  502  0.15899071826E+03 -0.78291702337E+03  0.36065779366E+03  0.87653360353E+03  0.25500000920E-02 0. -1.
</event>
<event>
 5   0  0.3042125E-05  0.1600907E+04  0.7818609E-02  0.8819991E-01
       -4   -1    0    0    0  501  0.00000000000E+00  0.00000000000E+00  0.86544988221E+03  0.86545081403E+03  0.12699999809E+01 0.  1.
        4   -1    0    0  501    0  0.00000000000E+00  0.00000000000E+00 -0.74033676036E+03  0.74033784966E+03  0.12699999809E+01 0. -1.
    10030    2    1    2    0    0  0.00000000000E+00  0.00000000000E+00  0.12511312184E+03  0.16057886637E+04  0.16009072238E+04 0.  0.
        1    1    3    3  502    0  0.82199555127E+02  0.27359719721E+03  0.81257566538E+03  0.86133118205E+03  0.50400001928E-02 0.  1.
       -1    1    3    3    0  502 -0.82199555127E+02 -0.27359719721E+03 -0.68746254353E+03  0.74445748164E+03  0.50400001928E-02 0. -1.
</event>
<event>
 5   0  0.4504463E-05  0.1600149E+04  0.7818609E-02  0.8820456E-01
        1   -1    0    0  501    0  0.00000000000E+00  0.00000000000E+00  0.87110064119E+03  0.87110064120E+03  0.50400001928E-02 0. -1.
       -1   -1    0    0    0  501  0.00000000000E+00  0.00000000000E+00 -0.73483964110E+03  0.73483964112E+03  0.50400001928E-02 0.  1.
    10030    2    1    2    0    0  0.00000000000E+00  0.00000000000E+00  0.13626100008E+03  0.16059402823E+04  0.16001490963E+04 0.  0.
        1    1    3    3  502    0 -0.11898310767E+03 -0.42575387818E+03  0.73739921199E+03  0.85975632743E+03  0.50400001928E-02 0. -1.
       -1    1    3    3    0  502  0.11898310767E+03  0.42575387818E+03 -0.60113821190E+03  0.74618395489E+03  0.50400001928E-02 0.  1.
</event>
<event>
 5   0  0.4211419E-05  0.1593785E+04  0.7818609E-02  0.8824375E-01
        1   -1    0    0  501    0  0.00000000000E+00  0.00000000000E+00  0.12119590268E+04  0.12119590268E+04  0.50400001928E-02 0. -1.
       -1   -1    0    0    0  501  0.00000000000E+00  0.00000000000E+00 -0.52397639146E+03  0.52397639148E+03  0.50400001928E-02 0.  1.
    10030    2    1    2    0    0  0.00000000000E+00  0.00000000000E+00  0.68798263534E+03  0.17359354183E+04  0.15937853274E+04 0.  0.
        2    1    3    3  502    0 -0.22556184470E+03  0.39891352026E+03 -0.36609704560E+03  0.58654683465E+03  0.25500000920E-02 0.  1.
       -2    1    3    3    0  502  0.22556184470E+03 -0.39891352026E+03  0.10540796809E+04  0.11493885836E+04  0.25500000920E-02 0. -1.
</event>
<event>
 5   0  0.8694033E-05  0.1601226E+04  0.7818609E-02  0.8819795E-01
        2   -1    0    0  501    0  0.00000000000E+00  0.00000000000E+00  0.43092258644E+03  0.43092258645E+03  0.25500000920E-02 0. -1.
       -2   -1    0    0    0  501  0.00000000000E+00  0.00000000000E+00 -0.14874626012E+04  0.14874626012E+04  0.25500000920E-02 0.  1.
    10030    2    1    2    0    0  0.00000000000E+00  0.00000000000E+00 -0.10565400147E+04  0.19183851876E+04  0.16012260694E+04 0.  0.
        1    1    3    3  502    0  0.38361404279E+03  0.10711143601E+03 -0.13603473348E+04  0.14174545724E+04  0.50400001928E-02 0.  1.
       -1    1    3    3    0  502 -0.38361404279E+03 -0.10711143601E+03  0.30380732003E+03  0.50093061524E+03  0.50400001928E-02 0. -1.
</event>
<event>
 5   0  0.8694033E-05  0.1600687E+04  0.7818609E-02  0.8820126E-01
       -2   -1    0    0    0  501  0.00000000000E+00  0.00000000000E+00  0.80656342721E+03  0.80656342721E+03  0.25500000920E-02 0.  1.
        2   -1    0    0  501    0  0.00000000000E+00  0.00000000000E+00 -0.79417200702E+03  0.79417200702E+03  0.25500000920E-02 0. -1.
    10030    2    1    2    0    0  0.00000000000E+00  0.00000000000E+00  0.12391420192E+02  0.16007354342E+04  0.16006874720E+04 0.  0.
        1    1    3    3  502    0 -0.24487662099E+03 -0.62516651684E+03  0.44181450438E+03  0.80373987682E+03  0.50400001928E-02 0.  1.
       -1    1    3    3    0  502  0.24487662099E+03  0.62516651684E+03 -0.42942308419E+03  0.79699555742E+03  0.50400001928E-02 0. -1.
</event>
<event>
 5   0  0.3042125E-05  0.1599534E+04  0.7818609E-02  0.8820834E-01
        3   -1    0    0  501    0  0.00000000000E+00  0.00000000000E+00  0.14462350161E+04  0.14462350196E+04  0.10100000352E+00 0. -1.
       -3   -1    0    0    0  501  0.00000000000E+00  0.00000000000E+00 -0.44227065057E+03  0.44227066210E+03  0.10100000352E+00 0.  1.
    10030    2    1    2    0    0  0.00000000000E+00  0.00000000000E+00  0.10039643655E+04  0.18885056817E+04  0.15995340767E+04 0.  0.
        4    1    3    3  502    0  0.79072514376E+02  0.36200334626E+03  0.13387750721E+04  0.13891073363E+04  0.12699999809E+01 0. -1.
       -4    1    3    3    0  502 -0.79072514376E+02 -0.36200334626E+03 -0.33481070659E+03  0.49939834539E+03  0.12699999809E+01 0.  1.
</event>
<event>
 5   0  0.4373026E-05  0.1600787E+04  0.7818609E-02  0.8820065E-01
        1   -1    0    0  501    0  0.00000000000E+00  0.00000000000E+00  0.22209574148E+04  0.22209574148E+04  0.50400001928E-02 0.  1.
       -1   -1    0    0    0  501  0.00000000000E+00  0.00000000000E+00 -0.28844757234E+03  0.28844757238E+03  0.50400001928E-02 0. -1.
    10030    2    1    2    0    0  0.00000000000E+00  0.00000000000E+00  0.19325098425E+04  0.25094049872E+04  0.16007870247E+04 0.  0.
        4    1    3    3  502    0  0.27293983728E+03  0.66232452296E+03  0.15259109011E+04  0.16856973688E+04  0.12699999809E+01 0.  1.
       -4    1    3    3    0  502 -0.27293983728E+03 -0.66232452296E+03  0.40659894144E+03  0.82370761838E+03  0.12699999809E+01 0. -1.
</event>
<event>
 5   0  0.8037548E-05  0.1601214E+04  0.7818609E-02  0.8819802E-01
       -2   -1    0    0    0  501  0.00000000000E+00  0.00000000000E+00  0.35110683131E+03  0.35110683132E+03  0.25500000920E-02 0.  1.
        2   -1    0    0  501    0  0.00000000000E+00  0.00000000000E+00 -0.18255745869E+04  0.18255745869E+04  0.25500000920E-02 0. -1.
    10030    2    1    2    0    0  0.00000000000E+00  0.00000000000E+00 -0.14744677556E+04  0.21766814182E+04  0.16012141750E+04 0.  0.
        5    1    3    3  502    0 -0.28625433854E+03  0.71281390572E+03 -0.10439404903E+04  0.12961014805E+04  0.46999998093E+01 0. -1.
       -5    1    3    3    0  502  0.28625433854E+03 -0.71281390572E+03 -0.43052726527E+03  0.88057993769E+03  0.46999998093E+01 0.  1.
</event>
<event>
 5   0  0.4314657E-05  0.1598065E+04  0.7818609E-02  0.8821737E-01
       -1   -1    0    0    0  501  0.00000000000E+00  0.00000000000E+00  0.48993893964E+03  0.48993893966E+03  0.50400001928E-02 0.  1.
        1   -1    0    0  501    0  0.00000000000E+00  0.00000000000E+00 -0.13031282417E+04  0.13031282417E+04  0.50400001928E-02 0. -1.
    10030    2    1    2    0    0  0.00000000000E+00  0.00000000000E+00 -0.81318930204E+03  0.17930671813E+04  0.15980654166E+04 0.  0.
        5    1    3    3  502    0 -0.40870552663E+03 -0.66344173624E+03 -0.60489795613E+03  0.98646782624E+03  0.46999998093E+01 0. -1.
       -5    1    3    3    0  502  0.40870552663E+03  0.66344173624E+03 -0.20829134591E+03  0.80659935511E+03  0.46999998093E+01 0.  1.
</event>
<event>
 5   0  0.4211419E-05  0.1600203E+04  0.7818609E-02  0.8820424E-01
        1   -1    0    0  501    0  0.00000000000E+00  0.00000000000E+00  0.85700834597E+03  0.85700834598E+03  0.50400001928E-02 0. -1.
       -1   -1    0    0    0  501  0.00000000000E+00  0.00000000000E+00 -0.74697305909E+03  0.74697305911E+03  0.50400001928E-02 0.  1.
    10030    2    1    2    0    0  0.00000000000E+00  0.00000000000E+00  0.11003528688E+03  0.16039814051E+04  0.16002026695E+04 0.  0.
        2    1    3    3  502    0 -0.66367325607E+02  0.37488076362E+03 -0.65036419869E+03  0.75360055718E+03  0.25500000920E-02 0.  1.
       -2    1    3    3    0  502  0.66367325607E+02 -0.37488076362E+03  0.76039948556E+03  0.85038084791E+03  0.25500000920E-02 0. -1.
</event>
<event>
 5   0  0.8037548E-05  0.1616476E+04  0.7818609E-02  0.8810490E-01
        2   -1    0    0  501    0  0.00000000000E+00  0.00000000000E+00  0.13218316431E+04  0.13218316431E+04  0.25500000920E-02 0.  1.
       -2   -1    0    0    0  501  0.00000000000E+00  0.00000000000E+00 -0.49419943523E+03  0.49419943523E+03  0.25500000920E-02 0. -1.
    10030    2    1    2    0    0  0.00000000000E+00  0.00000000000E+00  0.82763220789E+03  0.18160310783E+04  0.16164757363E+04 0.  0.
        5    1    3    3  502    0  0.39604332308E+03  0.48720259916E+03  0.98557388010E+03  0.11685866033E+04  0.46999998093E+01 0.  1.
       -5    1    3    3    0  502 -0.39604332308E+03 -0.48720259916E+03 -0.15794167221E+03  0.64744447500E+03  0.46999998093E+01 0. -1.
</event>
<event>
 5   0  0.8694033E-05  0.1601341E+04  0.7818609E-02  0.8819725E-01
        2   -1    0    0  501    0  0.00000000000E+00  0.00000000000E+00  0.12601797773E+04  0.12601797773E+04  0.25500000920E-02 0. -1.
       -2   -1    0    0    0  501  0.00000000000E+00  0.00000000000E+00 -0.50871569463E+03  0.50871569464E+03  0.25500000920E-02 0.  1.
    10030    2    1    2    0    0  0.00000000000E+00  0.00000000000E+00  0.75146408267E+03  0.17688954719E+04  0.16013409765E+04 0.  0.
        1    1    3    3  502    0 -0.68489674500E+03  0.38264928315E+03  0.55236712589E+03  0.95948604314E+03  0.50400001928E-02 0.  1.
       -1    1    3    3    0  502  0.68489674500E+03 -0.38264928315E+03  0.19909695679E+03  0.80940942880E+03  0.50400001928E-02 0. -1.
</event>
<event>
 5   0  0.4211419E-05  0.1596649E+04  0.7818609E-02  0.8822609E-01
       -1   -1    0    0    0  501  0.00000000000E+00  0.00000000000E+00  0.73062833649E+03  0.73062833650E+03  0.50400001928E-02 0. -1.
        1   -1    0    0  501    0  0.00000000000E+00  0.00000000000E+00 -0.87229336785E+03  0.87229336786E+03  0.50400001928E-02 0.  1.
    10030    2    1    2    0    0  0.00000000000E+00  0.00000000000E+00 -0.14166503136E+03  0.16029217044E+04  0.15966493069E+04 0.  0.
        2    1    3    3  502    0 -0.26949495508E+03 -0.28716738879E+03 -0.76798810005E+03  0.86307494565E+03  0.25500000920E-02 0.  1.
       -2    1    3    3    0  502  0.26949495508E+03  0.28716738879E+03  0.62632306869E+03  0.73984675871E+03  0.25500000920E-02 0. -1.
</event>
<event>
 5   0  0.4314657E-05  0.1600647E+04  0.7818609E-02  0.8820151E-01
       -1   -1    0    0    0  501  0.00000000000E+00  0.00000000000E+00  0.33549019296E+03  0.33549019300E+03  0.50400001928E-02 0. -1.
        1   -1    0    0  501    0  0.00000000000E+00  0.00000000000E+00 -0.19091997097E+04  0.19091997097E+04  0.50400001928E-02 0.  1.
    10030    2    1    2    0    0  0.00000000000E+00  0.00000000000E+00 -0.15737095168E+04  0.22446899027E+04  0.16006470930E+04 0.  0.
        5    1    3    3  502    0  0.23475673612E+03  0.73525405660E+03 -0.49007517869E+03  0.91427841693E+03  0.46999998093E+01 0. -1.
       -5    1    3    3    0  502 -0.23475673612E+03 -0.73525405660E+03 -0.10836343381E+04  0.13304114858E+04  0.46999998093E+01 0.  1.
</event>
<event>
 5   0  0.4256406E-05  0.1593286E+04  0.7818609E-02  0.8824683E-01
       -1   -1    0    0    0  501  0.00000000000E+00  0.00000000000E+00  0.18756468778E+04  0.18756468778E+04  0.50400001928E-02 0.  1.
        1   -1    0    0  501    0  0.00000000000E+00  0.00000000000E+00 -0.33835812262E+03  0.33835812266E+03  0.50400001928E-02 0. -1.
    10030    2    1    2    0    0  0.00000000000E+00  0.00000000000E+00  0.15372887552E+04  0.22140050005E+04  0.15932863601E+04 0.  0.
        3    1    3    3  502    0 -0.55444030193E+03  0.49679391962E+03  0.37455070612E+03  0.83336455926E+03  0.10100000352E+00 0. -1.
       -3    1    3    3    0  502  0.55444030193E+03 -0.49679391962E+03  0.11627380491E+04  0.13806404412E+04  0.10100000352E+00 0.  1.
</event>
<event>
 5   0  0.4256406E-05  0.1603822E+04  0.7818609E-02  0.8818203E-01
        1   -1    0    0  501    0  0.00000000000E+00  0.00000000000E+00  0.10108474799E+04  0.10108474799E+04  0.50400001928E-02 0.  1.
       -1   -1    0    0    0  501  0.00000000000E+00  0.00000000000E+00 -0.63616048587E+03  0.63616048589E+03  0.50400001928E-02 0. -1.
    10030    2    1    2    0    0  0.00000000000E+00  0.00000000000E+00  0.37468699400E+03  0.16470079658E+04  0.16038219651E+04 0.  0.
        3    1    3    3  502    0  0.17380186824E+03 -0.38487597048E+03  0.88740690714E+03  0.98276529807E+03  0.10100000352E+00 0.  1.
       -3    1    3    3    0  502 -0.17380186824E+03  0.38487597048E+03 -0.51271991314E+03  0.66424266770E+03  0.10100000352E+00 0. -1.
</event>
<event>
 5   0  0.4314657E-05  0.1604401E+04  0.7818609E-02  0.8817849E-01
       -1   -1    0    0    0  501  0.00000000000E+00  0.00000000000E+00  0.77917515462E+03  0.77917515464E+03  0.50400001928E-02 0.  1.
        1   -1    0    0  501    0  0.00000000000E+00  0.00000000000E+00 -0.82590604504E+03  0.82590604505E+03  0.50400001928E-02 0. -1.
    10030    2    1    2    0    0  0.00000000000E+00  0.00000000000E+00 -0.46730890418E+02  0.16050811997E+04  0.16044007858E+04 0.  0.
        5    1    3    3  502    0  0.69309485891E+03 -0.30660921165E+03 -0.28637176043E+03  0.81019785687E+03  0.46999998093E+01 0. -1.
       -5    1    3    3    0  502 -0.69309485891E+03  0.30660921165E+03  0.23964087001E+03  0.79488334282E+03  0.46999998093E+01 0.  1.
</event>
<event>
 5   0  0.4373026E-05  0.1622824E+04  0.7818609E-02  0.8806648E-01
        1   -1    0    0  501    0  0.00000000000E+00  0.00000000000E+00  0.56445291115E+03  0.56445291117E+03  0.50400001928E-02 0. -1.
       -1   -1    0    0    0  501  0.00000000000E+00  0.00000000000E+00 -0.11664201119E+04  0.11664201119E+04  0.50400001928E-02 0.  1.
    10030    2    1    2    0    0  0.00000000000E+00  0.00000000000E+00 -0.60196720073E+03  0.17308730231E+04  0.16228237462E+04 0.  0.
        4    1    3    3  502    0 -0.24131812147E+03 -0.72549930162E+03 -0.11226800787E+02  0.76466419189E+03  0.12699999809E+01 0.  1.
       -4    1    3    3    0  502  0.24131812147E+03  0.72549930162E+03 -0.59074039995E+03  0.96620883117E+03  0.12699999809E+01 0. -1.
</event>
<event>
 5   0  0.4314657E-05  0.1599554E+04  0.7818609E-02  0.8820822E-01
        1   -1    0    0  501    0  0.00000000000E+00  0.00000000000E+00  0.14251575598E+04  0.14251575598E+04  0.50400001928E-02 0.  1.
       -1   -1    0    0    0  501  0.00000000000E+00  0.00000000000E+00 -0.44882263795E+03  0.44882263798E+03  0.50400001928E-02 0. -1.
    10030    2    1    2    0    0  0.00000000000E+00  0.00000000000E+00  0.97633492181E+03  0.18739801978E+04  0.15995536571E+04 0.  0.
        5    1    3    3  502    0  0.36493987181E+03 -0.13025315395E+03  0.13078221920E+04  0.13640263817E+04  0.46999998093E+01 0.  1.
       -5    1    3    3    0  502 -0.36493987181E+03  0.13025315395E+03 -0.33148727021E+03  0.50995381601E+03  0.46999998093E+01 0. -1.
</event>
<event>
 5   0  0.8620155E-05  0.1601961E+04  0.7818609E-02  0.8819344E-01
       -2   -1    0    0    0  501  0.00000000000E+00  0.00000000000E+00  0.90521207167E+03  0.90521207167E+03  0.25500000920E-02 0.  1.
        2   -1    0    0  501    0  0.00000000000E+00  0.00000000000E+00 -0.70875073792E+03  0.70875073792E+03  0.25500000920E-02 0. -1.
    10030    2    1    2    0    0  0.00000000000E+00  0.00000000000E+00  0.19646133375E+03  0.16139628096E+04  0.16019609530E+04 0.  0.
        4    1    3    3  502    0  0.25145513363E+03  0.70237910761E+03 -0.19550467910E+03  0.77122615846E+03  0.12699999809E+01 0. -1.
       -4    1    3    3    0  502 -0.25145513363E+03 -0.70237910761E+03  0.39196601285E+03  0.84273665113E+03  0.12699999809E+01 0.  1.
</event>
<event>
 5   0  0.4314657E-05  0.1599220E+04  0.7818609E-02  0.8821027E-01
        1   -1    0    0  501    0  0.00000000000E+00  0.00000000000E+00  0.12205379890E+04  0.12205379890E+04  0.50400001928E-02 0. -1.
       -1   -1    0    0    0  501  0.00000000000E+00  0.00000000000E+00 -0.52384774785E+03  0.52384774788E+03  0.50400001928E-02 0.  1.
    10030    2    1    2    0    0  0.00000000000E+00  0.00000000000E+00  0.69669024113E+03  0.17443857369E+04  0.15992199057E+04 0.  0.
        5    1    3    3  502    0  0.16232936426E+03 -0.41917674202E+03 -0.37296348052E+03  0.58410941728E+03  0.46999998093E+01 0.  1.
       -5    1    3    3    0  502 -0.16232936426E+03  0.41917674202E+03  0.10696537217E+04  0.11602763196E+04  0.46999998093E+01 0. -1.
</event>
<event>
 5   0  0.7849690E-05  0.1600102E+04  0.7818609E-02  0.8820485E-01
        2   -1    0    0  501    0  0.00000000000E+00  0.00000000000E+00  0.17677178626E+04  0.17677178626E+04  0.25500000920E-02 0.  1.
       -2   -1    0    0    0  501  0.00000000000E+00  0.00000000000E+00 -0.36209509955E+03  0.36209509956E+03  0.25500000920E-02 0. -1.
    10030    2    1    2    0    0  0.00000000000E+00  0.00000000000E+00  0.14056227631E+04  0.21298129622E+04  0.16001024660E+04 0.  0.
        3    1    3    3  502    0  0.37532140272E+03  0.47953698408E+03  0.13934958106E+04  0.15207407599E+04  0.10100000352E+00 0.  1.
       -3    1    3    3    0  502 -0.37532140272E+03 -0.47953698408E+03  0.12126952489E+02  0.60907220230E+03  0.10100000352E+00 0. -1.
</event>
<event>
 5   0  0.7849690E-05  0.1598576E+04  0.7818609E-02  0.8821423E-01
       -2   -1    0    0    0  501  0.00000000000E+00  0.00000000000E+00  0.44141355469E+03  0.44141355469E+03  0.25500000920E-02 0. -1.
        2   -1    0    0  501    0  0.00000000000E+00  0.00000000000E+00 -0.14473080042E+04  0.14473080042E+04  0.25500000920E-02 0.  1.
    10030    2    1    2    0    0  0.00000000000E+00  0.00000000000E+00 -0.10058944495E+04  0.18887215589E+04  0.15985760800E+04 0.  0.
        3    1    3    3  502    0  0.78355900504E+03 -0.50873601164E+01 -0.31661876251E+03  0.84512605367E+03  0.10100000352E+00 0. -1.
       -3    1    3    3    0  502 -0.78355900504E+03  0.50873601164E+01 -0.68927568698E+03  0.10435955052E+04  0.10100000352E+00 0.  1.
</event>
<event>
 5   0  0.3042125E-05  0.1598978E+04  0.7818609E-02  0.8821176E-01
        4   -1    0    0  501    0  0.00000000000E+00  0.00000000000E+00  0.92704920073E+03  0.92705007064E+03  0.12699999809E+01 0. -1.
       -4   -1    0    0    0  501  0.00000000000E+00  0.00000000000E+00 -0.68947900481E+03  0.68948017446E+03  0.12699999809E+01 0.  1.
    10030    2    1    2    0    0  0.00000000000E+00  0.00000000000E+00  0.23757019592E+03  0.16165302451E+04  0.15989779346E+04 0.  0.
        3    1    3    3  502    0 -0.44684952363E+03  0.64357365675E+03  0.27965774989E+03  0.83190745622E+03  0.10100000352E+00 0. -1.
       -3    1    3    3    0  502  0.44684952363E+03 -0.64357365675E+03 -0.42087553976E+02  0.78462278888E+03  0.10100000352E+00 0.  1.
</event>
<event>
 5   0  0.8037548E-05  0.1601841E+04  0.7818609E-02  0.8819418E-01
        2   -1    0    0  501    0  0.00000000000E+00  0.00000000000E+00  0.62702604051E+03  0.62702604051E+03  0.25500000920E-02 0.  1.
       -2   -1    0    0    0  501  0.00000000000E+00  0.00000000000E+00 -0.10230411442E+04  0.10230411442E+04  0.25500000920E-02 0. -1.
    10030    2    1    2    0    0  0.00000000000E+00  0.00000000000E+00 -0.39601510373E+03  0.16500671848E+04  0.16018407386E+04 0.  0.
        5    1    3    3  502    0 -0.18947686072E+03  0.49861981987E+03  0.41741398262E+03  0.67733280475E+03  0.46999998093E+01 0.  1.
       -5    1    3    3    0  502  0.18947686072E+03 -0.49861981987E+03 -0.81342908635E+03  0.97273438000E+03  0.46999998093E+01 0. -1.
</event>
<event>
 5   0  0.4314657E-05  0.1647973E+04  0.7818609E-02  0.8791607E-01
       -1   -1    0    0    0  501  0.00000000000E+00  0.00000000000E+00  0.34603089821E+03  0.34603089824E+03  0.50400001928E-02 0.  1.
        1   -1    0    0  501    0  0.00000000000E+00  0.00000000000E+00 -0.19621180841E+04  0.19621180841E+04  0.50400001928E-02 0. -1.
    10030    2    1    2    0    0  0.00000000000E+00  0.00000000000E+00 -0.16160871859E+04  0.23081489823E+04  0.16479726734E+04 0.  0.
        5    1    3    3  502    0 -0.45736852186E+03  0.95406143171E+02  0.14255269659E+03  0.48849939432E+03  0.46999998093E+01 0.  1.
       -5    1    3    3    0  502  0.45736852186E+03 -0.95406143171E+02 -0.17586398825E+04  0.18196495880E+04  0.46999998093E+01 0. -1.
</event>
<event>
 5   0  0.4211419E-05  0.1600880E+04  0.7818609E-02  0.8820008E-01
        1   -1    0    0  501    0  0.00000000000E+00  0.00000000000E+00  0.12224889268E+04  0.12224889269E+04  0.50400001928E-02 0.  1.
       -1   -1    0    0    0  501  0.00000000000E+00  0.00000000000E+00 -0.52409790250E+03  0.52409790252E+03  0.50400001928E-02 0. -1.
    10030    2    1    2    0    0  0.00000000000E+00  0.00000000000E+00  0.69839102435E+03  0.17465868294E+04  0.16008796112E+04 0.  0.
        2    1    3    3  502    0  0.14215355281E+03  0.42888455973E+03 -0.37166400191E+03  0.58505019312E+03  0.25500000920E-02 0. -1.
       -2    1    3    3    0  502 -0.14215355281E+03 -0.42888455973E+03  0.10700550263E+04  0.11615366363E+04  0.25500000920E-02 0.  1.
</event>
<event>
 5   0  0.8037548E-05  0.1604226E+04  0.7818609E-02  0.8817956E-01
        2   -1    0    0  501    0  0.00000000000E+00  0.00000000000E+00  0.10441334803E+04  0.10441334803E+04  0.25500000920E-02 0. -1.
       -2   -1    0    0    0  501  0.00000000000E+00  0.00000000000E+00 -0.61619053359E+03  0.61619053360E+03  0.25500000920E-02 0.  1.
    10030    2    1    2    0    0  0.00000000000E+00  0.00000000000E+00  0.42794294670E+03  0.16603240139E+04  0.16042258773E+04 0.  0.
        5    1    3    3  502    0  0.29218974805E+03 -0.24989444549E+03  0.94253449610E+03  0.10179466828E+04  0.46999998093E+01 0. -1.
       -5    1    3    3    0  502 -0.29218974805E+03  0.24989444549E+03 -0.51459154940E+03  0.64237733106E+03  0.46999998093E+01 0.  1.
</event>
<event>
 5   0  0.8694033E-05  0.1599045E+04  0.7818609E-02  0.8821135E-01
       -2   -1    0    0    0  501  0.00000000000E+00  0.00000000000E+00  0.30025821217E+03  0.30025821218E+03  0.25500000920E-02 0.  1.
        2   -1    0    0  501    0  0.00000000000E+00  0.00000000000E+00 -0.21289557276E+04  0.21289557276E+04  0.25500000920E-02 0. -1.
    10030    2    1    2    0    0  0.00000000000E+00  0.00000000000E+00 -0.18286975154E+04  0.24292139398E+04  0.15990452659E+04 0.  0.
        1    1    3    3  502    0  0.47108162162E+03 -0.47347618242E+01 -0.18957061186E+04  0.19533668371E+04  0.50400001928E-02 0. -1.
       -1    1    3    3    0  502 -0.47108162162E+03  0.47347618242E+01  0.67008603176E+02  0.47584710267E+03  0.50400001928E-02 0.  1.
</event>
<event>
 5   0  0.4211419E-05  0.1600985E+04  0.7818609E-02  0.8819943E-01
        1   -1    0    0  501    0  0.00000000000E+00  0.00000000000E+00  0.10036837484E+04  0.10036837484E+04  0.50400001928E-02 0.  1.
       -1   -1    0    0    0  501  0.00000000000E+00  0.00000000000E+00 -0.63843612840E+03  0.63843612842E+03  0.50400001928E-02 0. -1.
    10030    2    1    2    0    0  0.00000000000E+00  0.00000000000E+00  0.36524761995E+03  0.16421198768E+04  0.16009846551E+04 0.  0.
        2    1    3    3  502    0 -0.96105657459E+02 -0.55746387805E+03 -0.39830803568E+03  0.69184648877E+03  0.25500000920E-02 0. -1.
       -2    1    3    3    0  502  0.96105657459E+02  0.55746387805E+03  0.76355565563E+03  0.95027338802E+03  0.25500000920E-02 0.  1.
</event>
<event>
 5   0  0.8694033E-05  0.1600884E+04  0.7818609E-02  0.8820005E-01
        2   -1    0    0  501    0  0.00000000000E+00  0.00000000000E+00  0.42886271002E+03  0.42886271002E+03  0.25500000920E-02 0.  1.
       -2   -1    0    0    0  501  0.00000000000E+00  0.00000000000E+00 -0.14939688692E+04  0.14939688692E+04  0.25500000920E-02 0. -1.
    10030    2    1    2    0    0  0.00000000000E+00  0.00000000000E+00 -0.10651061592E+04  0.19228315793E+04  0.16008841781E+04 0.  0.
        1    1    3    3  502    0 -0.46820506669E+03  0.34848093463E+03  0.12537742814E+03  0.59697105942E+03  0.50400001928E-02 0.  1.
       -1    1    3    3    0  502  0.46820506669E+03 -0.34848093463E+03 -0.11904835874E+04  0.13258605198E+04  0.50400001928E-02 0. -1.
</event>
<event>
 5   0  0.4373026E-05  0.1604831E+04  0.7818609E-02  0.8817586E-01
       -1   -1    0    0    0  501  0.00000000000E+00  0.00000000000E+00  0.83409122407E+03  0.83409122409E+03  0.50400001928E-02 0. -1.
        1   -1    0    0  501    0  0.00000000000E+00  0.00000000000E+00 -0.77194266481E+03  0.77194266483E+03  0.50400001928E-02 0.  1.
    10030    2    1    2    0    0  0.00000000000E+00  0.00000000000E+00  0.62148559261E+02  0.16060338889E+04  0.16048309596E+04 0.  0.
        4    1    3    3  502    0 -0.31606464836E+03 -0.69263997461E+03  0.28468482060E+03  0.81283089038E+03  0.12699999809E+01 0.  1.
       -4    1    3    3    0  502  0.31606464836E+03  0.69263997461E+03 -0.22253626134E+03  0.79320299854E+03  0.12699999809E+01 0. -1.
</event>
<event>
 5   0  0.7849690E-05  0.1601209E+04  0.7818609E-02  0.8819806E-01
       -2   -1    0    0    0  501  0.00000000000E+00  0.00000000000E+00  0.51747231249E+03  0.51747231250E+03  0.25500000920E-02 0.  1.
        2   -1    0    0  501    0  0.00000000000E+00  0.00000000000E+00 -0.12386502070E+04  0.12386502070E+04  0.25500000920E-02 0. -1.
    10030    2    1    2    0    0  0.00000000000E+00  0.00000000000E+00 -0.72117789448E+03  0.17561225195E+04  0.16012085273E+04 0.  0.
        3    1    3    3  502    0 -0.39868653382E+03  0.13332482799E+03  0.38668274507E+03  0.57118299829E+03  0.10100000352E+00 0.  1.
       -3    1    3    3    0  502  0.39868653382E+03 -0.13332482799E+03 -0.11078606395E+04  0.11849395212E+04  0.10100000352E+00 0. -1.
</event>
<event>
 5   0  0.4373026E-05  0.1601325E+04  0.7818609E-02  0.8819734E-01
        1   -1    0    0  501    0  0.00000000000E+00  0.00000000000E+00  0.43307359112E+03  0.43307359115E+03  0.50400001928E-02 0. -1.
       -1   -1    0    0    0  501  0.00000000000E+00  0.00000000000E+00 -0.14802583836E+04  0.14802583836E+04  0.50400001928E-02 0.  1.
    10030    2    1    2    0    0  0.00000000000E+00  0.00000000000E+00 -0.10471847925E+04  0.19133319748E+04  0.16013254685E+04 0.  0.
        4    1    3    3  502    0  0.67409840765E+03  0.27935024694E+03 -0.91737232605E+03  0.11721854892E+04  0.12699999809E+01 0.  1.
       -4    1    3    3    0  502 -0.67409840765E+03 -0.27935024694E+03 -0.12981246642E+03  0.74114648552E+03  0.12699999809E+01 0. -1.
</event>
<event>
 5   0  0.7849690E-05  0.1599830E+04  0.7818609E-02  0.8820653E-01
        2   -1    0    0  501    0  0.00000000000E+00  0.00000000000E+00  0.16870614903E+04  0.16870614903E+04  0.25500000920E-02 0. -1.
       -2   -1    0    0    0  501  0.00000000000E+00  0.00000000000E+00 -0.37927707547E+03  0.37927707548E+03  0.25500000920E-02 0.  1.
    10030    2    1    2    0    0  0.00000000000E+00  0.00000000000E+00  0.13077844148E+04  0.20663385658E+04  0.15998296762E+04 0.  0.
        3    1    3    3  502    0 -0.41962023990E+03 -0.56555504696E+03  0.11439005994E+04  0.13432952946E+04  0.10100000352E+00 0. -1.
       -3    1    3    3    0  502  0.41962023990E+03  0.56555504696E+03  0.16388381541E+03  0.72304327120E+03  0.10100000352E+00 0.  1.
</event>
<event>
 5   0  0.8620155E-05  0.1599931E+04  0.7818609E-02  0.8820590E-01
        2   -1    0    0  501    0  0.00000000000E+00  0.00000000000E+00  0.79594991368E+03  0.79594991368E+03  0.25500000920E-02 0. -1.
       -2   -1    0    0    0  501  0.00000000000E+00  0.00000000000E+00 -0.80400173930E+03  0.80400173931E+03  0.25500000920E-02 0.  1.
    10030    2    1    2    0    0  0.00000000000E+00  0.00000000000E+00 -0.80518256281E+01  0.15999516530E+04  0.15999313923E+04 0.  0.
        4    1    3    3  502    0 -0.43023494553E+03 -0.30572377055E+03 -0.60517774259E+03  0.80300114898E+03  0.12699999809E+01 0.  1.
       -4    1    3    3    0  502  0.43023494553E+03  0.30572377055E+03  0.59712591696E+03  0.79695050401E+03  0.12699999809E+01 0. -1.
</event>
<event>
 5   0  0.7901257E-05  0.1601838E+04  0.7818609E-02  0.8819419E-01
       -2   -1    0    0    0  501  0.00000000000E+00  0.00000000000E+00  0.31934035560E+03  0.31934035561E+03  0.25500000920E-02 0. -1.
        2   -1    0    0  501    0  0.00000000000E+00  0.00000000000E+00 -0.20087391699E+04  0.20087391699E+04  0.25500000920E-02 0.  1.
    10030    2    1    2    0    0  0.00000000000E+00  0.00000000000E+00 -0.16893988143E+04  0.23280795255E+04  0.16018382950E+04 0.  0.
        2    1    3    3  502    0 -0.11884947094E+03 -0.53306917759E+03  0.67176796954E+01  0.54619874777E+03  0.25500000920E-02 0. -1.
       -2    1    3    3    0  502  0.11884947094E+03  0.53306917759E+03 -0.16961164940E+04  0.17818807778E+04  0.25500000920E-02 0.  1.
</event>
<event>
 5   0  0.7901257E-05  0.1599885E+04  0.7818609E-02  0.8820619E-01
       -2   -1    0    0    0  501  0.00000000000E+00  0.00000000000E+00  0.44433620126E+03  0.44433620127E+03  0.25500000920E-02 0.  1.
        2   -1    0    0  501    0  0.00000000000E+00  0.00000000000E+00 -0.14401441178E+04  0.14401441178E+04  0.25500000920E-02 0. -1.
    10030    2    1    2    0    0  0.00000000000E+00  0.00000000000E+00 -0.99580791655E+03  0.18844803191E+04  0.15998852041E+04 0.  0.
        2    1    3    3  502    0  0.86628309671E+02 -0.73296799025E+03 -0.86126111233E+03  0.11342474344E+04  0.25500000920E-02 0. -1.
       -2    1    3    3    0  502 -0.86628309671E+02  0.73296799025E+03 -0.13454680422E+03  0.75023288471E+03  0.25500000920E-02 0.  1.
</event>
<event>
 5   0  0.4373026E-05  0.1601385E+04  0.7818609E-02  0.8819698E-01
       -1   -1    0    0    0  501  0.00000000000E+00  0.00000000000E+00  0.84792967317E+03  0.84792967318E+03  0.50400001928E-02 0. -1.
        1   -1    0    0  501    0  0.00000000000E+00  0.00000000000E+00 -0.75608680602E+03  0.75608680604E+03  0.50400001928E-02 0.  1.
    10030    2    1    2    0    0  0.00000000000E+00  0.00000000000E+00  0.91842867146E+02  0.16040164792E+04  0.16013849485E+04 0.  0.
        4    1    3    3  502    0 -0.63393377488E+03  0.29136408590E+03 -0.34758769659E+03  0.77947667137E+03  0.12699999809E+01 0. -1.
       -4    1    3    3    0  502  0.63393377488E+03 -0.29136408590E+03  0.43943056374E+03  0.82453980785E+03  0.12699999809E+01 0.  1.
</event>
<event>
 5   0  0.7901257E-05  0.1600045E+04  0.7818609E-02  0.8820521E-01
       -2   -1    0    0    0  501  0.00000000000E+00  0.00000000000E+00  0.87835632482E+03  0.87835632483E+03  0.25500000920E-02 0. -1.
        2   -1    0    0  501    0  0.00000000000E+00  0.00000000000E+00 -0.72867434531E+03  0.72867434531E+03  0.25500000920E-02 0.  1.
    10030    2    1    2    0    0  0.00000000000E+00  0.00000000000E+00  0.14968197951E+03  0.16070306701E+04  0.16000446493E+04 0.  0.
        2    1    3    3  502    0  0.53681465355E+03 -0.19062454973E+03  0.63901234983E+03  0.85606335891E+03  0.25500000920E-02 0. -1.
       -2    1    3    3    0  502 -0.53681465355E+03  0.19062454973E+03 -0.48933037031E+03  0.75096731123E+03  0.25500000920E-02 0.  1.
</event>
<event>
 5   0  0.8037548E-05  0.1602041E+04  0.7818609E-02  0.8819295E-01
       -2   -1    0    0    0  501  0.00000000000E+00  0.00000000000E+00  0.37394379810E+03  0.37394379811E+03  0.25500000920E-02 0.  1.
        2   -1    0    0  501    0  0.00000000000E+00  0.00000000000E+00 -0.17158559598E+04  0.17158559598E+04  0.25500000920E-02 0. -1.
    10030    2    1    2    0    0  0.00000000000E+00  0.00000000000E+00 -0.13419121617E+04  0.20897997579E+04  0.16020408167E+04 0.  0.
        5    1    3    3  502    0  0.62233210535E+03 -0.37674220738E+03 -0.11082515355E+04  0.13256981165E+04  0.46999998093E+01 0. -1.
       -5    1    3    3    0  502 -0.62233210535E+03  0.37674220738E+03 -0.23366062622E+03  0.76410164142E+03  0.46999998093E+01 0.  1.
</event>
<event>
 5   0  0.8037548E-05  0.1599763E+04  0.7818609E-02  0.8820694E-01
       -2   -1    0    0    0  501  0.00000000000E+00  0.00000000000E+00  0.57860261330E+03  0.57860261330E+03  0.25500000920E-02 0.  1.
        2   -1    0    0  501    0  0.00000000000E+00  0.00000000000E+00 -0.11057858016E+04  0.11057858016E+04  0.25500000920E-02 0. -1.
    10030    2    1    2    0    0  0.00000000000E+00  0.00000000000E+00 -0.52718318827E+03  0.16843884149E+04  0.15997631757E+04 0.  0.
        5    1    3    3  502    0 -0.58198599275E+02 -0.65376986893E+03 -0.74492444856E+03  0.99284270785E+03  0.46999998093E+01 0. -1.
       -5    1    3    3    0  502  0.58198599275E+02  0.65376986893E+03  0.21774126029E+03  0.69154570703E+03  0.46999998093E+01 0.  1.
</event>
<event>
 5   0  0.7849690E-05  0.1600267E+04  0.7818609E-02  0.8820384E-01
        2   -1    0    0  501    0  0.00000000000E+00  0.00000000000E+00  0.11745398383E+04  0.11745398383E+04  0.25500000920E-02 0.  1.
       -2   -1    0    0    0  501  0.00000000000E+00  0.00000000000E+00 -0.54507614094E+03  0.54507614094E+03  0.25500000920E-02 0. -1.
    10030    2    1    2    0    0  0.00000000000E+00  0.00000000000E+00  0.62946369740E+03  0.17196159793E+04  0.16002670308E+04 0.  0.
        3    1    3    3  502    0  0.55363706690E+02  0.17766136338E+03  0.11509633904E+04  0.11659097033E+04  0.10100000352E+00 0.  1.
       -3    1    3    3    0  502 -0.55363706690E+02 -0.17766136338E+03 -0.52149969299E+03  0.55370627597E+03  0.10100000352E+00 0. -1.
</event>
<event>
 5   0  0.4314657E-05  0.1598486E+04  0.7818609E-02  0.8821479E-01
        1   -1    0    0  501    0  0.00000000000E+00  0.00000000000E+00  0.89399546753E+03  0.89399546754E+03  0.50400001928E-02 0. -1.
       -1   -1    0    0    0  501  0.00000000000E+00  0.00000000000E+00 -0.71453318767E+03  0.71453318769E+03  0.50400001928E-02 0.  1.
    10030    2    1    2    0    0  0.00000000000E+00  0.00000000000E+00  0.17946227985E+03  0.16085286552E+04  0.15984860728E+04 0.  0.
        5    1    3    3  502    0  0.22433289093E+03 -0.17190780794E+03 -0.66255496016E+03  0.72033235775E+03  0.46999998093E+01 0.  1.
       -5    1    3    3    0  502 -0.22433289093E+03  0.17190780794E+03  0.84201724001E+03  0.88819629748E+03  0.46999998093E+01 0. -1.
</event>
<event>
 5   0  0.4504463E-05  0.1610750E+04  0.7818609E-02  0.8813971E-01
        1   -1    0    0  501    0  0.00000000000E+00  0.00000000000E+00  0.81866877771E+03  0.81866877773E+03  0.50400001928E-02 0.  1.
       -1   -1    0    0    0  501  0.00000000000E+00  0.00000000000E+00 -0.79229671934E+03  0.79229671935E+03  0.50400001928E-02 0. -1.
    10030    2    1    2    0    0  0.00000000000E+00  0.00000000000E+00  0.26372058379E+02  0.16109654971E+04  0.16107496228E+04 0.  0.
        1    1    3    3  502    0  0.30454869171E+03  0.13791255665E+02  0.75873109174E+03  0.81768757723E+03  0.50400001928E-02 0.  1.
       -1    1    3    3    0  502 -0.30454869171E+03 -0.13791255665E+02 -0.73235903336E+03  0.79327791985E+03  0.50400001928E-02 0. -1.
</event>
<event>
 5   0  0.7849690E-05  0.1584127E+04  0.7818609E-02  0.8830359E-01
        2   -1    0    0  501    0  0.00000000000E+00  0.00000000000E+00  0.17812442604E+04  0.17812442604E+04  0.25500000920E-02 0.  1.
       -2   -1    0    0    0  501  0.00000000000E+00  0.00000000000E+00 -0.35220577791E+03  0.35220577792E+03  0.25500000920E-02 0. -1.
    10030    2    1    2    0    0  0.00000000000E+00  0.00000000000E+00  0.14290384825E+04  0.21334500383E+04  0.15841269146E+04 0.  0.
        3    1    3    3  502    0 -0.44067637306E+03  0.12000758164E+03  0.15860420194E+04  0.16504928909E+04  0.10100000352E+00 0.  1.
       -3    1    3    3    0  502  0.44067637306E+03 -0.12000758164E+03 -0.15700353691E+03  0.48295714741E+03  0.10100000352E+00 0. -1.
</event>
<event>
 5   0  0.4211419E-05  0.1607176E+04  0.7818609E-02  0.8816151E-01
       -1   -1    0    0    0  501  0.00000000000E+00  0.00000000000E+00  0.39369935493E+03  0.39369935497E+03  0.50400001928E-02 0. -1.
        1   -1    0    0  501    0  0.00000000000E+00  0.00000000000E+00 -0.16402211224E+04  0.16402211224E+04  0.50400001928E-02 0.  1.
    10030    2    1    2    0    0  0.00000000000E+00  0.00000000000E+00 -0.12465217674E+04  0.20339204773E+04  0.16071764033E+04 0.  0.
        2    1    3    3  502    0 -0.16123635807E+02  0.80043359748E+03 -0.71093971680E+03  0.10706956601E+04  0.25500000920E-02 0.  1.
       -2    1    3    3    0  502  0.16123635807E+02 -0.80043359748E+03 -0.53558205062E+03  0.96322481724E+03  0.25500000920E-02 0. -1.
</event>
<event>
 5   0  0.8620155E-05  0.1600540E+04  0.7818609E-02  0.8820216E-01
        2   -1    0    0  501    0  0.00000000000E+00  0.00000000000E+00  0.64537598984E+03  0.64537598984E+03  0.25500000920E-02 0. -1.
       -2   -1    0    0    0  501  0.00000000000E+00  0.00000000000E+00 -0.99233947134E+03  0.99233947135E+03  0.25500000920E-02 0.  1.
    10030    2    1    2    0    0  0.00000000000E+00  0.00000000000E+00 -0.34696348151E+03  0.16377154612E+04  0.16005399946E+04 0.  0.
        4    1    3    3  502    0 -0.43811289040E+03  0.70209103803E+02  0.50798904158E+03  0.67448254407E+03  0.12699999809E+01 0. -1.
       -4    1    3    3    0  502  0.43811289040E+03 -0.70209103803E+02 -0.85495252309E+03  0.96323291712E+03  0.12699999809E+01 0.  1.
</event>
<event>
 5   0  0.4373026E-05  0.1599902E+04  0.7818609E-02  0.8820608E-01
       -1   -1    0    0    0  501  0.00000000000E+00  0.00000000000E+00  0.73398651794E+03  0.73398651796E+03  0.50400001928E-02 0. -1.
        1   -1    0    0  501    0  0.00000000000E+00  0.00000000000E+00 -0.87184334439E+03  0.87184334440E+03  0.50400001928E-02 0.  1.
    10030    2    1    2    0    0  0.00000000000E+00  0.00000000000E+00 -0.13785682645E+03  0.16058298624E+04  0.15999015727E+04 0.  0.
        4    1    3    3  502    0  0.13904927431E+03 -0.38920200211E+03  0.61852315171E+03  0.74389878427E+03  0.12699999809E+01 0. -1.
       -4    1    3    3    0  502 -0.13904927431E+03  0.38920200211E+03 -0.75637997816E+03  0.86193107810E+03  0.12699999809E+01 0.  1.
</event>
<event>
 5   0  0.8620155E-05  0.1599676E+04  0.7818609E-02  0.8820747E-01
        2   -1    0    0  501    0  0.00000000000E+00  0.00000000000E+00  0.96441996432E+03  0.96441996432E+03  0.25500000920E-02 0.  1.
       -2   -1    0    0    0  501  0.00000000000E+00  0.00000000000E+00 -0.66334278061E+03  0.66334278062E+03  0.25500000920E-02 0. -1.
    10030    2    1    2    0    0  0.00000000000E+00  0.00000000000E+00  0.30107718370E+03  0.16277627449E+04  0.15996762433E+04 0.  0.
        4    1    3    3  502    0  0.58062546968E+03  0.51313706703E+03 -0.51194155503E+02  0.77656811682E+03  0.12699999809E+01 0.  1.
       -4    1    3    3    0  502 -0.58062546968E+03 -0.51313706703E+03  0.35227133921E+03  0.85119462812E+03  0.12699999809E+01 0. -1.
</event>
<event>
 5   0  0.8694033E-05  0.1599002E+04  0.7818609E-02  0.8821162E-01
       -2   -1    0    0    0  501  0.00000000000E+00  0.00000000000E+00  0.98980166662E+03  0.98980166662E+03  0.25500000920E-02 0.  1.
        2   -1    0    0  501    0  0.00000000000E+00  0.00000000000E+00 -0.64578751958E+03  0.64578751958E+03  0.25500000920E-02 0. -1.
    10030    2    1    2    0    0  0.00000000000E+00  0.00000000000E+00  0.34401414704E+03  0.16355891862E+04  0.15990016425E+04 0.  0.
        1    1    3    3  502    0  0.46626397563E+03  0.50406441575E+03 -0.24689821977E+03  0.72968607027E+03  0.50400001928E-02 0. -1.
       -1    1    3    3    0  502 -0.46626397563E+03 -0.50406441575E+03  0.59091236682E+03  0.90590311594E+03  0.50400001928E-02 0.  1.
</event>
<event>
 5   0  0.7901257E-05  0.1599906E+04  0.7818609E-02  0.8820606E-01
        2   -1    0    0  501    0  0.00000000000E+00  0.00000000000E+00  0.16326249872E+04  0.16326249872E+04  0.25500000920E-02 0.  1.
       -2   -1    0    0    0  501  0.00000000000E+00  0.00000000000E+00 -0.39196081889E+03  0.39196081890E+03  0.25500000920E-02 0. -1.
    10030    2    1    2    0    0  0.00000000000E+00  0.00000000000E+00  0.12406641683E+04  0.20245858061E+04  0.15999062809E+04 0.  0.
        2    1    3    3  502    0  0.58183920523E+03  0.19466348900E+03  0.12699040156E+04  0.14103499366E+04  0.25500000920E-02 0.  1.
       -2    1    3    3    0  502 -0.58183920523E+03 -0.19466348900E+03 -0.29239847354E+02  0.61423586949E+03  0.25500000920E-02 0. -1.
</event>
<event>
 5   0  0.4256406E-05  0.1596660E+04  0.7818609E-02  0.8822602E-01
        1   -1    0    0  501    0  0.00000000000E+00  0.00000000000E+00  0.88426832610E+03  0.88426832611E+03  0.50400001928E-02 0. -1.
       -1   -1    0    0    0  501  0.00000000000E+00  0.00000000000E+00 -0.72074372711E+03  0.72074372713E+03  0.50400001928E-02 0.  1.
    10030    2    1    2    0    0  0.00000000000E+00  0.00000000000E+00  0.16352459899E+03  0.16050120532E+04  0.15966600755E+04 0.  0.
        3    1    3    3  502    0  0.35140519529E+03  0.71534128001E+03  0.12817829395E+03  0.80723506081E+03  0.10100000352E+00 0.  1.
       -3    1    3    3    0  502 -0.35140519529E+03 -0.71534128001E+03  0.35346305045E+02  0.79777699243E+03  0.10100000352E+00 0. -1.
</event>
<event>
 5   0  0.3042125E-05  0.1601116E+04  0.7818609E-02  0.8819863E-01
        3   -1    0    0  501    0  0.00000000000E+00  0.00000000000E+00  0.62938945164E+03  0.62938945974E+03  0.10100000352E+00 0.  1.
       -3   -1    0    0    0  501  0.00000000000E+00  0.00000000000E+00 -0.10182777057E+04  0.10182777107E+04  0.10100000352E+00 0. -1.
    10030    2    1    2    0    0  0.00000000000E+00  0.00000000000E+00 -0.38888825405E+03  0.16476671704E+04  0.16011161827E+04 0.  0.
        5    1    3    3  502    0  0.62489231211E+03 -0.49227040108E+03 -0.10211021127E+03  0.80204060668E+03  0.46999998093E+01 0.  1.
       -5    1    3    3    0  502 -0.62489231211E+03  0.49227040108E+03 -0.28677804277E+03  0.84562656376E+03  0.46999998093E+01 0. -1.
</event>
<event>
 5   0  0.4504463E-05  0.1598811E+04  0.7818609E-02  0.8821279E-01
       -1   -1    0    0    0  501  0.00000000000E+00  0.00000000000E+00  0.37545153480E+03  0.37545153483E+03  0.50400001928E-02 0. -1.
        1   -1    0    0  501    0  0.00000000000E+00  0.00000000000E+00 -0.17020810424E+04  0.17020810424E+04  0.50400001928E-02 0.  1.
    10030    2    1    2    0    0  0.00000000000E+00  0.00000000000E+00 -0.13266295076E+04  0.20775325773E+04  0.15988107327E+04 0.  0.
        1    1    3    3  502    0  0.32657364630E+03  0.56612356596E+03 -0.65152458481E+02  0.65680368549E+03  0.50400001928E-02 0. -1.
       -1    1    3    3    0  502 -0.32657364630E+03 -0.56612356596E+03 -0.12614770491E+04  0.14207288918E+04  0.50400001928E-02 0.  1.
</event>
<event>
 5   0  0.4211419E-05  0.1596976E+04  0.7818609E-02  0.8822408E-01
        1   -1    0    0  501    0  0.00000000000E+00  0.00000000000E+00  0.10025369987E+04  0.10025369987E+04  0.50400001928E-02 0. -1.
       -1   -1    0    0    0  501  0.00000000000E+00  0.00000000000E+00 -0.63596982389E+03  0.63596982391E+03  0.50400001928E-02 0.  1.
    10030    2    1    2    0    0  0.00000000000E+00  0.00000000000E+00  0.36656717477E+03  0.16385068226E+04  0.15969762409E+04 0.  0.
        2    1    3    3  502    0 -0.43780368869E+03  0.27213757331E+03  0.80893879576E+03  0.95922515810E+03  0.25500000920E-02 0. -1.
       -2    1    3    3    0  502  0.43780368869E+03 -0.27213757331E+03 -0.44237162099E+03  0.67928166448E+03  0.25500000920E-02 0.  1.
</event>
<event>
 5   0  0.7901257E-05  0.1594441E+04  0.7818609E-02  0.8823970E-01
        2   -1    0    0  501    0  0.00000000000E+00  0.00000000000E+00  0.64344632078E+03  0.64344632078E+03  0.25500000920E-02 0. -1.
       -2   -1    0    0    0  501  0.00000000000E+00  0.00000000000E+00 -0.98774496317E+03  0.98774496318E+03  0.25500000920E-02 0.  1.
    10030    2    1    2    0    0  0.00000000000E+00  0.00000000000E+00 -0.34429864240E+03  0.16311912840E+04  0.15944414225E+04 0.  0.
        2    1    3    3  502    0  0.57996211305E+03 -0.34391993590E+03 -0.60730462293E+03  0.90744469800E+03  0.25500000920E-02 0.  1.
       -2    1    3    3    0  502 -0.57996211305E+03  0.34391993590E+03  0.26300598053E+03  0.72374658596E+03  0.25500000920E-02 0. -1.
</event>
<event>
 5   0  0.8037548E-05  0.1600184E+04  0.7818609E-02  0.8820435E-01
        2   -1    0    0  501    0  0.00000000000E+00  0.00000000000E+00  0.19788644813E+04  0.19788644813E+04  0.25500000920E-02 0. -1.
       -2   -1    0    0    0  501  0.00000000000E+00  0.00000000000E+00 -0.32349201701E+03  0.32349201702E+03  0.25500000920E-02 0.  1.
    10030    2    1    2    0    0  0.00000000000E+00  0.00000000000E+00  0.16553724643E+04  0.23023564983E+04  0.16001835675E+04 0.  0.
        5    1    3    3  502    0 -0.37912920760E+03 -0.69158524366E+03  0.10212348454E+04  0.12903378646E+04  0.46999998093E+01 0.  1.
       -5    1    3    3    0  502  0.37912920760E+03  0.69158524366E+03  0.63413761883E+03  0.10120186337E+04  0.46999998093E+01 0. -1.
</event>
<event>
 5   0  0.4504463E-05  0.1598643E+04  0.7818609E-02  0.8821382E-01
       -1   -1    0    0    0  501  0.00000000000E+00  0.00000000000E+00  0.28531641591E+03  0.28531641596E+03  0.50400001928E-02 0. -1.
        1   -1    0    0  501    0  0.00000000000E+00  0.00000000000E+00 -0.22393213255E+04  0.22393213255E+04  0.50400001928E-02 0.  1.
    10030    2    1    2    0    0  0.00000000000E+00  0.00000000000E+00 -0.19540049096E+04  0.25246377415E+04  0.15986433433E+04 0.  0.
        1    1    3    3  502    0 -0.47243895967E+03  0.17817030205E+02 -0.19948442297E+04  0.20501023189E+04  0.50400001928E-02 0.  1.
       -1    1    3    3    0  502  0.47243895967E+03 -0.17817030205E+02  0.40839320111E+02  0.47453542257E+03  0.50400001928E-02 0. -1.
</event>
<event>
 5   0  0.8694033E-05  0.1599709E+04  0.7818609E-02  0.8820727E-01
       -2   -1    0    0    0  501  0.00000000000E+00  0.00000000000E+00  0.13978143409E+04  0.13978143409E+04  0.25500000920E-02 0.  1.
        2   -1    0    0  501    0  0.00000000000E+00  0.00000000000E+00 -0.45769133891E+03  0.45769133891E+03  0.25500000920E-02 0. -1.
    10030    2    1    2    0    0  0.00000000000E+00  0.00000000000E+00  0.94012300195E+03  0.18555056798E+04  0.15997093701E+04 0.  0.
        1    1    3    3  502    0 -0.54144125491E+02 -0.67073473252E+03 -0.31454646669E+02  0.67365129151E+03  0.50400001928E-02 0. -1.
       -1    1    3    3    0  502  0.54144125491E+02  0.67073473252E+03  0.97157764862E+03  0.11818543883E+04  0.50400001928E-02 0.  1.
</event>
<event>
 5   0  0.4504463E-05  0.1605533E+04  0.7818609E-02  0.8817156E-01
       -1   -1    0    0    0  501  0.00000000000E+00  0.00000000000E+00  0.14533924042E+04  0.14533924042E+04  0.50400001928E-02 0.  1.
        1   -1    0    0  501    0  0.00000000000E+00  0.00000000000E+00 -0.44340000270E+03  0.44340000273E+03  0.50400001928E-02 0. -1.
    10030    2    1    2    0    0  0.00000000000E+00  0.00000000000E+00  0.10099924015E+04  0.18967924070E+04  0.16055331775E+04 0.  0.
        1    1    3    3  502    0 -0.15445811425E+03  0.70064916094E+03  0.93041465143E+03  0.11749204141E+04  0.50400001928E-02 0.  1.
       -1    1    3    3    0  502  0.15445811425E+03 -0.70064916094E+03  0.79577750099E+02  0.72187199289E+03  0.50400001928E-02 0. -1.
</event>
<event>
 5   0  0.8037548E-05  0.1604134E+04  0.7818609E-02  0.8818012E-01
       -2   -1    0    0    0  501  0.00000000000E+00  0.00000000000E+00  0.73439929232E+03  0.73439929232E+03  0.25500000920E-02 0.  1.
        2   -1    0    0  501    0  0.00000000000E+00  0.00000000000E+00 -0.87597012271E+03  0.87597012271E+03  0.25500000920E-02 0. -1.
    10030    2    1    2    0    0  0.00000000000E+00  0.00000000000E+00 -0.14157083039E+03  0.16103694150E+04  0.16041344560E+04 0.  0.
        5    1    3    3  502    0  0.14214756658E+02  0.80022598491E+03 -0.12320005544E+03  0.80979258449E+03  0.46999998093E+01 0.  1.
       -5    1    3    3    0  502 -0.14214756658E+02 -0.80022598491E+03 -0.18370774954E+02  0.80057683055E+03  0.46999998093E+01 0. -1.
</event>
<event>
 5   0  0.8694033E-05  0.1599837E+04  0.7818609E-02  0.8820648E-01
        2   -1    0    0  501    0  0.00000000000E+00  0.00000000000E+00  0.17333387182E+04  0.17333387182E+04  0.25500000920E-02 0.  1.
       -2   -1    0    0    0  501  0.00000000000E+00  0.00000000000E+00 -0.36915460971E+03  0.36915460972E+03  0.25500000920E-02 0. -1.
    10030    2    1    2    0    0  0.00000000000E+00  0.00000000000E+00  0.13641841085E+04  0.21024933280E+04  0.15998374643E+04 0.  0.
        1    1    3    3  502    0 -0.71939851947E+03  0.21846202865E+02  0.22333087271E+03  0.75358354887E+03  0.50400001928E-02 0. -1.
       -1    1    3    3    0  502  0.71939851947E+03 -0.21846202865E+02  0.11408532358E+04  0.13489097791E+04  0.50400001928E-02 0.  1.
</event>
<event>
 5   0  0.8037548E-05  0.1600288E+04  0.7818609E-02  0.8820371E-01
       -2   -1    0    0    0  501  0.00000000000E+00  0.00000000000E+00  0.78159503109E+03  0.78159503110E+03  0.25500000920E-02 0. -1.
        2   -1    0    0  501    0  0.00000000000E+00  0.00000000000E+00 -0.81913354830E+03  0.81913354830E+03  0.25500000920E-02 0.  1.
    10030    2    1    2    0    0  0.00000000000E+00  0.00000000000E+00 -0.37538517205E+02  0.16007285794E+04  0.16002883630E+04 0.  0.
        5    1    3    3  502    0 -0.47758387951E+03 -0.55651641198E+03 -0.33887563802E+03  0.80787107066E+03  0.46999998093E+01 0.  1.
       -5    1    3    3    0  502  0.47758387951E+03  0.55651641198E+03  0.30133712082E+03  0.79285750873E+03  0.46999998093E+01 0. -1.
</event>
<event>
 5   0  0.8037548E-05  0.1600297E+04  0.7818609E-02  0.8820365E-01
        2   -1    0    0  501    0  0.00000000000E+00  0.00000000000E+00  0.13890978120E+04  0.13890978120E+04  0.25500000920E-02 0. -1.
       -2   -1    0    0    0  501  0.00000000000E+00  0.00000000000E+00 -0.46090183192E+03  0.46090183193E+03  0.25500000920E-02 0.  1.
    10030    2    1    2    0    0  0.00000000000E+00  0.00000000000E+00  0.92819598005E+03  0.18499996439E+04  0.16002971302E+04 0.  0.
        5    1    3    3  502    0  0.70523664291E+03  0.20548304711E+02  0.27804340248E+02  0.70609923287E+03  0.46999998093E+01 0. -1.
       -5    1    3    3    0  502 -0.70523664291E+03 -0.20548304711E+02  0.90039163980E+03  0.11439004110E+04  0.46999998093E+01 0.  1.
</event>
<event>
 5   0  0.3042125E-05  0.1599154E+04  0.7818609E-02  0.8821068E-01
       -4   -1    0    0    0  501  0.00000000000E+00  0.00000000000E+00  0.70303732148E+03  0.70303846857E+03  0.12699999809E+01 0. -1.
        4   -1    0    0  501    0  0.00000000000E+00  0.00000000000E+00 -0.90937106561E+03  0.90937195243E+03  0.12699999809E+01 0.  1.
    10030    2    1    2    0    0  0.00000000000E+00  0.00000000000E+00 -0.20633374413E+03  0.16124104210E+04  0.15991540738E+04 0.  0.
        3    1    3    3  502    0 -0.37327852455E+03  0.70386182045E+03 -0.35041193216E+02  0.79748743852E+03  0.10100000352E+00 0. -1.
       -3    1    3    3    0  502  0.37327852455E+03 -0.70386182045E+03 -0.17129255091E+03  0.81492298248E+03  0.10100000352E+00 0.  1.
</event>
<event>
 5   0  0.7849690E-05  0.1611820E+04  0.7818609E-02  0.8813319E-01
        2   -1    0    0  501    0  0.00000000000E+00  0.00000000000E+00  0.25733436742E+04  0.25733436742E+04  0.25500000920E-02 0.  1.
       -2   -1    0    0    0  501  0.00000000000E+00  0.00000000000E+00 -0.25239171624E+03  0.25239171626E+03  0.25500000920E-02 0. -1.
    10030    2    1    2    0    0  0.00000000000E+00  0.00000000000E+00  0.23209519579E+04  0.28257353904E+04  0.16118196257E+04 0.  0.
        3    1    3    3  502    0 -0.26246531697E+03 -0.73302137564E+03  0.79574731303E+03  0.11132933918E+04  0.10100000352E+00 0.  1.
       -3    1    3    3    0  502  0.26246531697E+03  0.73302137564E+03  0.15252046449E+04  0.17124419986E+04  0.10100000352E+00 0. -1.
</event>
<event>
 5   0  0.4211419E-05  0.1590576E+04  0.7818609E-02  0.8826359E-01
        1   -1    0    0  501    0  0.00000000000E+00  0.00000000000E+00  0.96730469053E+03  0.96730469054E+03  0.50400001928E-02 0.  1.
       -1   -1    0    0    0  501  0.00000000000E+00  0.00000000000E+00 -0.65386118541E+03  0.65386118543E+03  0.50400001928E-02 0. -1.
    10030    2    1    2    0    0  0.00000000000E+00  0.00000000000E+00  0.31344350512E+03  0.16211658760E+04  0.15905759858E+04 0.  0.
        2    1    3    3  502    0 -0.71078845989E+03 -0.35659223470E+03  0.14629091720E+03  0.80856619335E+03  0.25500000920E-02 0. -1.
       -2    1    3    3    0  502  0.71078845989E+03  0.35659223470E+03  0.16715258792E+03  0.81259968263E+03  0.25500000920E-02 0.  1.
</event>
<event>
 5   0  0.8620155E-05  0.1597432E+04  0.7818609E-02  0.8822127E-01
        2   -1    0    0  501    0  0.00000000000E+00  0.00000000000E+00  0.18666489444E+04  0.18666489444E+04  0.25500000920E-02 0. -1.
       -2   -1    0    0    0  501  0.00000000000E+00  0.00000000000E+00 -0.34176070524E+03  0.34176070525E+03  0.25500000920E-02 0.  1.
    10030    2    1    2    0    0  0.00000000000E+00  0.00000000000E+00  0.15248882392E+04  0.22084096497E+04  0.15974320138E+04 0.  0.
        4    1    3    3  502    0  0.16804189652E+03 -0.13315919393E+03  0.18261201544E+04  0.18386641567E+04  0.12699999809E+01 0. -1.
       -4    1    3    3    0  502 -0.16804189652E+03  0.13315919393E+03 -0.30123191523E+03  0.36974549296E+03  0.12699999809E+01 0.  1.
</event>
<event>
 5   0  0.4256406E-05  0.1595974E+04  0.7818609E-02  0.8823025E-01
       -1   -1    0    0    0  501  0.00000000000E+00  0.00000000000E+00  0.10929122081E+04  0.10929122081E+04  0.50400001928E-02 0.  1.
        1   -1    0    0  501    0  0.00000000000E+00  0.00000000000E+00 -0.58264796978E+03  0.58264796980E+03  0.50400001928E-02 0. -1.
    10030    2    1    2    0    0  0.00000000000E+00  0.00000000000E+00  0.51026423827E+03  0.16755601779E+04  0.15959737832E+04 0.  0.
        3    1    3    3  502    0 -0.73969326187E+02 -0.68970270306E+03 -0.15902914656E+03  0.71165410101E+03  0.10100000352E+00 0. -1.
       -3    1    3    3    0  502  0.73969326187E+02  0.68970270306E+03  0.66929338483E+03  0.96390607686E+03  0.10100000352E+00 0.  1.
</event>
<event>
 5   0  0.7849690E-05  0.1598771E+04  0.7818609E-02  0.8821304E-01
       -2   -1    0    0    0  501  0.00000000000E+00  0.00000000000E+00  0.47507592705E+03  0.47507592706E+03  0.25500000920E-02 0. -1.
        2   -1    0    0  501    0  0.00000000000E+00  0.00000000000E+00 -0.13450836736E+04  0.13450836736E+04  0.25500000920E-02 0.  1.
    10030    2    1    2    0    0  0.00000000000E+00  0.00000000000E+00 -0.87000774654E+03  0.18201596006E+04  0.15987706192E+04 0.  0.
        3    1    3    3  502    0  0.29559333856E+03  0.15952173263E+03 -0.12608447293E+04  0.13048187792E+04  0.10100000352E+00 0.  1.
       -3    1    3    3    0  502 -0.29559333856E+03 -0.15952173263E+03  0.39083698274E+03  0.51534082146E+03  0.10100000352E+00 0. -1.
</event>
<event>
 5   0  0.4373026E-05  0.1615673E+04  0.7818609E-02  0.8810977E-01
       -1   -1    0    0    0  501  0.00000000000E+00  0.00000000000E+00  0.48644158931E+03  0.48644158934E+03  0.50400001928E-02 0. -1.
        1   -1    0    0  501    0  0.00000000000E+00  0.00000000000E+00 -0.13415793316E+04  0.13415793316E+04  0.50400001928E-02 0.  1.
    10030    2    1    2    0    0  0.00000000000E+00  0.00000000000E+00 -0.85513774228E+03  0.18280209209E+04  0.16156732124E+04 0.  0.
        4    1    3    3  502    0  0.78172131458E+03 -0.52957873392E+02 -0.20497425909E+03  0.80988197276E+03  0.12699999809E+01 0. -1.
       -4    1    3    3    0  502 -0.78172131458E+03  0.52957873392E+02 -0.65016348319E+03  0.10181389482E+04  0.12699999809E+01 0.  1.
</event>
<event>
 5   0  0.8694033E-05  0.1616879E+04  0.7818609E-02  0.8810245E-01
       -2   -1    0    0    0  501  0.00000000000E+00  0.00000000000E+00  0.39217245729E+03  0.39217245730E+03  0.25500000920E-02 0.  1.
        2   -1    0    0  501    0  0.00000000000E+00  0.00000000000E+00 -0.16665490797E+04  0.16665490797E+04  0.25500000920E-02 0. -1.
    10030    2    1    2    0    0  0.00000000000E+00  0.00000000000E+00 -0.12743766224E+04  0.20587215370E+04  0.16168792754E+04 0.  0.
        1    1    3    3  502    0 -0.17285663893E+02 -0.79862504448E+03 -0.47880121644E+03  0.93131700336E+03  0.50400001928E-02 0.  1.
       -1    1    3    3    0  502  0.17285663893E+02  0.79862504448E+03 -0.79557540594E+03  0.11274045336E+04  0.50400001928E-02 0. -1.
</event>
<event>
 5   0  0.4314657E-05  0.1604922E+04  0.7818609E-02  0.8817530E-01
        1   -1    0    0  501    0  0.00000000000E+00  0.00000000000E+00  0.10612916235E+04  0.10612916235E+04  0.50400001928E-02 0.  1.
       -1   -1    0    0    0  501  0.00000000000E+00  0.00000000000E+00 -0.60675447793E+03  0.60675447795E+03  0.50400001928E-02 0. -1.
    10030    2    1    2    0    0  0.00000000000E+00  0.00000000000E+00  0.45453714557E+03  0.16680461015E+04  0.16049217364E+04 0.  0.
        5    1    3    3  502    0  0.20120940403E+03  0.30001444580E+03 -0.51745266324E+03  0.63108893244E+03  0.46999998093E+01 0. -1.
       -5    1    3    3    0  502 -0.20120940403E+03 -0.30001444580E+03  0.97198980880E+03  0.10369571690E+04  0.46999998093E+01 0.  1.
</event>
<event>
 5   0  0.4373026E-05  0.1599826E+04  0.7818609E-02  0.8820655E-01
        1   -1    0    0  501    0  0.00000000000E+00  0.00000000000E+00  0.91205391812E+03  0.91205391814E+03  0.50400001928E-02 0. -1.
       -1   -1    0    0    0  501  0.00000000000E+00  0.00000000000E+00 -0.70156066833E+03  0.70156066835E+03  0.50400001928E-02 0.  1.
    10030    2    1    2    0    0  0.00000000000E+00  0.00000000000E+00  0.21049324979E+03  0.16136145865E+04  0.15998264361E+04 0.  0.
        4    1    3    3  502    0 -0.31646746069E+03 -0.62506380384E+03  0.49458269351E+03  0.85759551432E+03  0.12699999809E+01 0. -1.
       -4    1    3    3    0  502  0.31646746069E+03  0.62506380384E+03 -0.28408944372E+03  0.75601907217E+03  0.12699999809E+01 0.  1.
</event>
<event>
 5   0  0.7849690E-05  0.1595610E+04  0.7818609E-02  0.8823250E-01
       -2   -1    0    0    0  501  0.00000000000E+00  0.00000000000E+00  0.71600313856E+03  0.71600313856E+03  0.25500000920E-02 0.  1.
        2   -1    0    0  501    0  0.00000000000E+00  0.00000000000E+00 -0.88895224068E+03  0.88895224069E+03  0.25500000920E-02 0. -1.
    10030    2    1    2    0    0  0.00000000000E+00  0.00000000000E+00 -0.17294910212E+03  0.16049553793E+04  0.15956097197E+04 0.  0.
        3    1    3    3  502    0 -0.76612430883E+02 -0.24123043444E+03 -0.84749768863E+03  0.88448512113E+03  0.10100000352E+00 0. -1.
       -3    1    3    3    0  502  0.76612430883E+02  0.24123043444E+03  0.67454858651E+03  0.72047025812E+03  0.10100000352E+00 0.  1.
</event>
<event>
 5   0  0.4314657E-05  0.1605593E+04  0.7818609E-02  0.8817120E-01
       -1   -1    0    0    0  501  0.00000000000E+00  0.00000000000E+00  0.67152404057E+03  0.67152404059E+03  0.50400001928E-02 0.  1.
        1   -1    0    0  501    0  0.00000000000E+00  0.00000000000E+00 -0.95973011990E+03  0.95973011991E+03  0.50400001928E-02 0. -1.
    10030    2    1    2    0    0  0.00000000000E+00  0.00000000000E+00 -0.28820607933E+03  0.16312541605E+04  0.16055925361E+04 0.  0.
        5    1    3    3  502    0  0.14538310497E+03 -0.67790847951E+03 -0.55524801376E+03  0.88826718986E+03  0.46999998093E+01 0. -1.
       -5    1    3    3    0  502 -0.14538310497E+03  0.67790847951E+03  0.26704193443E+03  0.74298697064E+03  0.46999998093E+01 0.  1.
</event>
<event>
 5   0  0.4256406E-05  0.1599809E+04  0.7818609E-02  0.8820665E-01
       -1   -1    0    0    0  501  0.00000000000E+00  0.00000000000E+00  0.54916555728E+03  0.54916555730E+03  0.50400001928E-02 0. -1.
        1   -1    0    0  501    0  0.00000000000E+00  0.00000000000E+00 -0.11651269238E+04  0.11651269239E+04  0.50400001928E-02 0.  1.
    10030    2    1    2    0    0  0.00000000000E+00  0.00000000000E+00 -0.61596136657E+03  0.17142924812E+04  0.15998094592E+04 0.  0.
        3    1    3    3  502    0  0.21648886254E+03  0.69569712198E+03 -0.66173465588E+03  0.98425336074E+03  0.10100000352E+00 0.  1.
       -3    1    3    3    0  502 -0.21648886254E+03 -0.69569712198E+03  0.45773289309E+02  0.73003912042E+03  0.10100000352E+00 0. -1.
</event>
<event>
 5   0  0.4211419E-05  0.1591316E+04  0.7818609E-02  0.8825900E-01
        1   -1    0    0  501    0  0.00000000000E+00  0.00000000000E+00  0.11189152442E+04  0.11189152442E+04  0.50400001928E-02 0.  1.
       -1   -1    0    0    0  501  0.00000000000E+00  0.00000000000E+00 -0.56579087778E+03  0.56579087780E+03  0.50400001928E-02 0. -1.
    10030    2    1    2    0    0  0.00000000000E+00  0.00000000000E+00  0.55312436642E+03  0.16847061220E+04  0.15913164842E+04 0.  0.
        2    1    3    3  502    0 -0.36267246562E+03  0.18745344207E+02  0.10260567726E+04  0.10884278597E+04  0.25500000920E-02 0.  1.
       -2    1    3    3    0  502  0.36267246562E+03 -0.18745344207E+02 -0.47293240617E+03  0.59627826228E+03  0.25500000920E-02 0. -1.
</event>
<event>
 5   0  0.7901257E-05  0.1600758E+04  0.7818609E-02  0.8820083E-01
        2   -1    0    0  501    0  0.00000000000E+00  0.00000000000E+00  0.81186517688E+03  0.81186517688E+03  0.25500000920E-02 0.  1.
       -2   -1    0    0    0  501  0.00000000000E+00  0.00000000000E+00 -0.78905503107E+03  0.78905503108E+03  0.25500000920E-02 0. -1.
    10030    2    1    2    0    0  0.00000000000E+00  0.00000000000E+00  0.22810145804E+02  0.16009202080E+04  0.16007576986E+04 0.  0.
        2    1    3    3  502    0  0.60207602238E+03 -0.45658828254E+02 -0.51403006523E+03  0.79297362711E+03  0.25500000920E-02 0. -1.
       -2    1    3    3    0  502 -0.60207602238E+03  0.45658828254E+02  0.53684021104E+03  0.80794658085E+03  0.25500000920E-02 0.  1.
</event>
<event>
 5   0  0.4211419E-05  0.1601863E+04  0.7818609E-02  0.8819405E-01
        1   -1    0    0  501    0  0.00000000000E+00  0.00000000000E+00  0.13153949433E+04  0.13153949433E+04  0.50400001928E-02 0. -1.
       -1   -1    0    0    0  501  0.00000000000E+00  0.00000000000E+00 -0.48767933262E+03  0.48767933265E+03  0.50400001928E-02 0.  1.
    10030    2    1    2    0    0  0.00000000000E+00  0.00000000000E+00  0.82771561065E+03  0.18030742759E+04  0.16018625760E+04 0.  0.
        2    1    3    3  502    0 -0.40497950646E+03  0.12940927292E+03  0.11778946924E+04  0.12522743577E+04  0.25500000920E-02 0. -1.
       -2    1    3    3    0  502  0.40497950646E+03 -0.12940927292E+03 -0.35017908178E+03  0.55079991820E+03  0.25500000920E-02 0.  1.
</event>
<event>
 5   0  0.4211419E-05  0.1599132E+04  0.7818609E-02  0.8821082E-01
        1   -1    0    0  501    0  0.00000000000E+00  0.00000000000E+00  0.13036561014E+04  0.13036561014E+04  0.50400001928E-02 0. -1.
       -1   -1    0    0    0  501  0.00000000000E+00  0.00000000000E+00 -0.49039428216E+03  0.49039428218E+03  0.50400001928E-02 0.  1.
    10030    2    1    2    0    0  0.00000000000E+00  0.00000000000E+00  0.81326181924E+03  0.17940503836E+04  0.15991316369E+04 0.  0.
        2    1    3    3  502    0  0.34163721241E+03  0.47641122910E+03 -0.20335343409E+03  0.62051290339E+03  0.25500000920E-02 0.  1.
       -2    1    3    3    0  502 -0.34163721241E+03 -0.47641122910E+03  0.10166152533E+04  0.11735374802E+04  0.25500000920E-02 0. -1.
</event>
<event>
 5   0  0.4256406E-05  0.1600921E+04  0.7818609E-02  0.8819983E-01
        1   -1    0    0  501    0  0.00000000000E+00  0.00000000000E+00  0.89396631779E+03  0.89396631780E+03  0.50400001928E-02 0. -1.
       -1   -1    0    0    0  501  0.00000000000E+00  0.00000000000E+00 -0.71673478896E+03  0.71673478898E+03  0.50400001928E-02 0.  1.
    10030    2    1    2    0    0  0.00000000000E+00  0.00000000000E+00  0.17723152883E+03  0.16107011068E+04  0.16009206853E+04 0.  0.
        3    1    3    3  502    0  0.98747213606E+02  0.12662623718E+03  0.87759502171E+03  0.89216492224E+03  0.10100000352E+00 0. -1.
       -3    1    3    3    0  502 -0.98747213606E+02 -0.12662623718E+03 -0.70036349288E+03  0.71853618454E+03  0.10100000352E+00 0.  1.
</event>
<event>
 5   0  0.8694033E-05  0.1603110E+04  0.7818609E-02  0.8818639E-01
       -2   -1    0    0    0  501  0.00000000000E+00  0.00000000000E+00  0.77680356900E+03  0.77680356900E+03  0.25500000920E-02 0.  1.
        2   -1    0    0  501    0  0.00000000000E+00  0.00000000000E+00 -0.82709558808E+03  0.82709558809E+03  0.25500000920E-02 0. -1.
    10030    2    1    2    0    0  0.00000000000E+00  0.00000000000E+00 -0.50292019085E+02  0.16038991571E+04  0.16031104824E+04 0.  0.
        1    1    3    3  502    0  0.54080853062E+03 -0.57128725769E+03  0.12870807926E+03  0.79712531467E+03  0.50400001928E-02 0.  1.
       -1    1    3    3    0  502 -0.54080853062E+03  0.57128725769E+03 -0.17900009835E+03  0.80677384243E+03  0.50400001928E-02 0. -1.
</event>
<event>
 5   0  0.8620155E-05  0.1590460E+04  0.7818609E-02  0.8826430E-01
       -2   -1    0    0    0  501  0.00000000000E+00  0.00000000000E+00  0.51909369737E+03  0.51909369737E+03  0.25500000920E-02 0.  1.
        2   -1    0    0  501    0  0.00000000000E+00  0.00000000000E+00 -0.12182597828E+04  0.12182597828E+04  0.25500000920E-02 0. -1.
    10030    2    1    2    0    0  0.00000000000E+00  0.00000000000E+00 -0.69916608539E+03  0.17373534801E+04  0.15904602793E+04 0.  0.
        4    1    3    3  502    0  0.54027201412E+03  0.57417711973E+03 -0.46318914826E+03  0.91439543635E+03  0.12699999809E+01 0.  1.
       -4    1    3    3    0  502 -0.54027201412E+03 -0.57417711973E+03 -0.23597693713E+03  0.82295804377E+03  0.12699999809E+01 0. -1.
</event>
<event>
 5   0  0.4504463E-05  0.1599854E+04  0.7818609E-02  0.8820638E-01
       -1   -1    0    0    0  501  0.00000000000E+00  0.00000000000E+00  0.27330813724E+03  0.27330813728E+03  0.50400001928E-02 0. -1.
        1   -1    0    0  501    0  0.00000000000E+00  0.00000000000E+00 -0.23412516470E+04  0.23412516470E+04  0.50400001928E-02 0.  1.
    10030    2    1    2    0    0  0.00000000000E+00  0.00000000000E+00 -0.20679435098E+04  0.26145597843E+04  0.15998539015E+04 0.  0.
        1    1    3    3  502    0  0.68894623541E+03  0.83864414825E+02 -0.16839900344E+04  0.18214012713E+04  0.50400001928E-02 0.  1.
       -1    1    3    3    0  502 -0.68894623541E+03 -0.83864414825E+02 -0.38395347538E+03  0.79315851294E+03  0.50400001928E-02 0. -1.
</event>
<event>
 5   0  0.8694033E-05  0.1600022E+04  0.7818609E-02  0.8820534E-01
        2   -1    0    0  501    0  0.00000000000E+00  0.00000000000E+00  0.87116553867E+03  0.87116553868E+03  0.25500000920E-02 0. -1.
       -2   -1    0    0    0  501  0.00000000000E+00  0.00000000000E+00 -0.73466832569E+03  0.73466832570E+03  0.25500000920E-02 0.  1.
    10030    2    1    2    0    0  0.00000000000E+00  0.00000000000E+00  0.13649721298E+03  0.16058338644E+04  0.16000221595E+04 0.  0.
        1    1    3    3  502    0 -0.64617766737E+03  0.47059844169E+03  0.36364415346E+02  0.80020674944E+03  0.50400001928E-02 0.  1.
       -1    1    3    3    0  502  0.64617766737E+03 -0.47059844169E+03  0.10013279763E+03  0.80562711493E+03  0.50400001928E-02 0. -1.
</event>
<event>
 5   0  0.8620155E-05  0.1602623E+04  0.7818609E-02  0.8818938E-01
       -2   -1    0    0    0  501  0.00000000000E+00  0.00000000000E+00  0.76370070296E+03  0.76370070296E+03  0.25500000920E-02 0. -1.
        2   -1    0    0  501    0  0.00000000000E+00  0.00000000000E+00 -0.84077494893E+03  0.84077494893E+03  0.25500000920E-02 0.  1.
    10030    2    1    2    0    0  0.00000000000E+00  0.00000000000E+00 -0.77074245970E+02  0.16044756519E+04  0.16026233738E+04 0.  0.
        4    1    3    3  502    0  0.61829869139E+03 -0.16104968623E+03 -0.52269561606E+03  0.82549536229E+03  0.12699999809E+01 0.  1.
       -4    1    3    3    0  502 -0.61829869139E+03  0.16104968623E+03  0.44562137009E+03  0.77898028961E+03  0.12699999809E+01 0. -1.
</event>
<event>
 5   0  0.8037548E-05  0.1591073E+04  0.7818609E-02  0.8826051E-01
       -2   -1    0    0    0  501  0.00000000000E+00  0.00000000000E+00  0.10216124832E+04  0.10216124832E+04  0.25500000920E-02 0. -1.
        2   -1    0    0  501    0  0.00000000000E+00  0.00000000000E+00 -0.61948973630E+03  0.61948973630E+03  0.25500000920E-02 0.  1.
    10030    2    1    2    0    0  0.00000000000E+00  0.00000000000E+00  0.40212274686E+03  0.16411022195E+04  0.15910731571E+04 0.  0.
        5    1    3    3  502    0  0.38067348775E+03 -0.57791483927E+03  0.60577451654E+03  0.91971882693E+03  0.46999998093E+01 0. -1.
       -5    1    3    3    0  502 -0.38067348775E+03  0.57791483927E+03 -0.20365176969E+03  0.72138339253E+03  0.46999998093E+01 0.  1.
</event>
<event>
 5   0  0.8694033E-05  0.1600641E+04  0.7818609E-02  0.8820154E-01
        2   -1    0    0  501    0  0.00000000000E+00  0.00000000000E+00  0.85769327254E+03  0.85769327255E+03  0.25500000920E-02 0. -1.
       -2   -1    0    0    0  501  0.00000000000E+00  0.00000000000E+00 -0.74678565181E+03  0.74678565182E+03  0.25500000920E-02 0.  1.
    10030    2    1    2    0    0  0.00000000000E+00  0.00000000000E+00  0.11090762073E+03  0.16044789244E+04  0.16006411585E+04 0.  0.
        1    1    3    3  502    0 -0.18031525821E+03 -0.25010060952E+03  0.79576985257E+03  0.85341289275E+03  0.50400001928E-02 0. -1.
       -1    1    3    3    0  502  0.18031525821E+03  0.25010060952E+03 -0.68486223184E+03  0.75106603162E+03  0.50400001928E-02 0.  1.
</event>
<event>
 5   0  0.8037548E-05  0.1601810E+04  0.7818609E-02  0.8819437E-01
        2   -1    0    0  501    0  0.00000000000E+00  0.00000000000E+00  0.96288349515E+03  0.96288349516E+03  0.25500000920E-02 0.  1.
       -2   -1    0    0    0  501  0.00000000000E+00  0.00000000000E+00 -0.66617509182E+03  0.66617509183E+03  0.25500000920E-02 0. -1.
    10030    2    1    2    0    0  0.00000000000E+00  0.00000000000E+00  0.29670840333E+03  0.16290585870E+04  0.16018102270E+04 0.  0.
        5    1    3    3  502    0 -0.17100481402E+03  0.60090251525E+03 -0.36126920992E+03  0.72170909049E+03  0.46999998093E+01 0. -1.
       -5    1    3    3    0  502  0.17100481402E+03 -0.60090251525E+03  0.65797761325E+03  0.90734949650E+03  0.46999998093E+01 0.  1.
</event>
<event>
 5   0  0.8694033E-05  0.1595121E+04  0.7818609E-02  0.8823551E-01
        2   -1    0    0  501    0  0.00000000000E+00  0.00000000000E+00  0.10308831880E+04  0.10308831881E+04  0.25500000920E-02 0.  1.
       -2   -1    0    0    0  501  0.00000000000E+00  0.00000000000E+00 -0.61704663235E+03  0.61704663235E+03  0.25500000920E-02 0. -1.
    10030    2    1    2    0    0  0.00000000000E+00  0.00000000000E+00  0.41383655570E+03  0.16479298204E+04  0.15951213114E+04 0.  0.
        1    1    3    3  502    0 -0.29368018457E+03 -0.41986953271E+03  0.83835205309E+03  0.98253378581E+03  0.50400001928E-02 0.  1.
       -1    1    3    3    0  502  0.29368018457E+03  0.41986953271E+03 -0.42451549739E+03  0.66539603459E+03  0.50400001928E-02 0. -1.
</event>
<event>
 5   0  0.4373026E-05  0.1598282E+04  0.7818609E-02  0.8821604E-01
       -1   -1    0    0    0  501  0.00000000000E+00  0.00000000000E+00  0.86147762144E+03  0.86147762146E+03  0.50400001928E-02 0. -1.
        1   -1    0    0  501    0  0.00000000000E+00  0.00000000000E+00 -0.74131504946E+03  0.74131504947E+03  0.50400001928E-02 0.  1.
    10030    2    1    2    0    0  0.00000000000E+00  0.00000000000E+00  0.12016257199E+03  0.16027926709E+04  0.15982819846E+04 0.  0.
        4    1    3    3  502    0  0.78011993054E+03  0.17300941239E+03  0.49788310544E+02  0.80062466336E+03  0.12699999809E+01 0.  1.
       -4    1    3    3    0  502 -0.78011993054E+03 -0.17300941239E+03  0.70374261443E+02  0.80216800758E+03  0.12699999809E+01 0. -1.
</event>
<event>
 5   0  0.4256406E-05  0.1598991E+04  0.7818609E-02  0.8821168E-01
       -1   -1    0    0    0  501  0.00000000000E+00  0.00000000000E+00  0.35531776256E+03  0.35531776259E+03  0.50400001928E-02 0.  1.
        1   -1    0    0  501    0  0.00000000000E+00  0.00000000000E+00 -0.17989325752E+04  0.17989325752E+04  0.50400001928E-02 0. -1.
    10030    2    1    2    0    0  0.00000000000E+00  0.00000000000E+00 -0.14436148127E+04  0.21542503378E+04  0.15989905536E+04 0.  0.
        3    1    3    3  502    0  0.69759937040E+03  0.35120436659E+03 -0.49157511938E+03  0.92284099220E+03  0.10100000352E+00 0. -1.
       -3    1    3    3    0  502 -0.69759937040E+03 -0.35120436659E+03 -0.95203969328E+03  0.12314093456E+04  0.10100000352E+00 0.  1.
</event>
<event>
 5   0  0.8694033E-05  0.1612991E+04  0.7818609E-02  0.8812607E-01
        2   -1    0    0  501    0  0.00000000000E+00  0.00000000000E+00  0.20599973308E+04  0.20599973308E+04  0.25500000920E-02 0.  1.
       -2   -1    0    0    0  501  0.00000000000E+00  0.00000000000E+00 -0.31574556919E+03  0.31574556920E+03  0.25500000920E-02 0. -1.
    10030    2    1    2    0    0  0.00000000000E+00  0.00000000000E+00  0.17442517616E+04  0.23757429000E+04  0.16129910474E+04 0.  0.
        1    1    3    3  502    0  0.29578924329E+03 -0.47143515925E+03  0.12422051103E+02  0.55668365631E+03  0.50400001928E-02 0. -1.
       -1    1    3    3    0  502 -0.29578924329E+03  0.47143515925E+03  0.17318297105E+04  0.18190592437E+04  0.50400001928E-02 0.  1.
</event>
<event>
 5   0  0.4211419E-05  0.1596691E+04  0.7818609E-02  0.8822583E-01
        1   -1    0    0  501    0  0.00000000000E+00  0.00000000000E+00  0.23345265041E+04  0.23345265041E+04  0.50400001928E-02 0.  1.
       -1   -1    0    0    0  501  0.00000000000E+00  0.00000000000E+00 -0.27301278654E+03  0.27301278658E+03  0.50400001928E-02 0. -1.
    10030    2    1    2    0    0  0.00000000000E+00  0.00000000000E+00  0.20615137176E+04  0.26075392907E+04  0.15966910612E+04 0.  0.
        2    1    3    3  502    0  0.48445143565E+03 -0.19627400814E+03  0.45286629374E+02  0.52465946916E+03  0.25500000920E-02 0. -1.
       -2    1    3    3    0  502 -0.48445143565E+03  0.19627400814E+03  0.20162270882E+04  0.20828798215E+04  0.25500000920E-02 0.  1.
</event>
<event>
 5   0  0.7901257E-05  0.1600044E+04  0.7818609E-02  0.8820521E-01
        2   -1    0    0  501    0  0.00000000000E+00  0.00000000000E+00  0.10658164072E+04  0.10658164072E+04  0.25500000920E-02 0.  1.
       -2   -1    0    0    0  501  0.00000000000E+00  0.00000000000E+00 -0.60051176306E+03  0.60051176307E+03  0.25500000920E-02 0. -1.
    10030    2    1    2    0    0  0.00000000000E+00  0.00000000000E+00  0.46530464418E+03  0.16663281703E+04  0.16000441117E+04 0.  0.
        2    1    3    3  502    0 -0.85461975825E+02 -0.33921348277E+03 -0.51664347744E+03  0.62393110116E+03  0.25500000920E-02 0. -1.
       -2    1    3    3    0  502  0.85461975825E+02  0.33921348277E+03  0.98194812162E+03  0.10423970691E+04  0.25500000920E-02 0.  1.
</event>
<event>
 5   0  0.4373026E-05  0.1600906E+04  0.7818609E-02  0.8819991E-01
       -1   -1    0    0    0  501  0.00000000000E+00  0.00000000000E+00  0.46225967817E+03  0.46225967820E+03  0.50400001928E-02 0.  1.
        1   -1    0    0  501    0  0.00000000000E+00  0.00000000000E+00 -0.13860720355E+04  0.13860720355E+04  0.50400001928E-02 0. -1.
    10030    2    1    2    0    0  0.00000000000E+00  0.00000000000E+00 -0.92381235734E+03  0.18483317137E+04  0.16009062597E+04 0.  0.
        4    1    3    3  502    0 -0.77827589744E+03  0.18628664696E+03 -0.44165988090E+03  0.91404658015E+03  0.12699999809E+01 0.  1.
       -4    1    3    3    0  502  0.77827589744E+03 -0.18628664696E+03 -0.48215247644E+03  0.93428513357E+03  0.12699999809E+01 0. -1.
</event>
<event>
 5   0  0.8037548E-05  0.1599187E+04  0.7818609E-02  0.8821048E-01
        2   -1    0    0  501    0  0.00000000000E+00  0.00000000000E+00  0.12607298970E+04  0.12607298970E+04  0.25500000920E-02 0.  1.
       -2   -1    0    0    0  501  0.00000000000E+00  0.00000000000E+00 -0.50712675362E+03  0.50712675363E+03  0.25500000920E-02 0. -1.
    10030    2    1    2    0    0  0.00000000000E+00  0.00000000000E+00  0.75360314341E+03  0.17678566507E+04  0.15991871184E+04 0.  0.
        5    1    3    3  502    0 -0.17670609030E+03  0.25470748016E+03  0.11915778354E+04  0.12312517088E+04  0.46999998093E+01 0.  1.
       -5    1    3    3    0  502  0.17670609030E+03 -0.25470748016E+03 -0.43797469195E+03  0.53660494182E+03  0.46999998093E+01 0. -1.
</event>
<event>
 5   0  0.4373026E-05  0.1599703E+04  0.7818609E-02  0.8820730E-01
        1   -1    0    0  501    0  0.00000000000E+00  0.00000000000E+00  0.10922166765E+04  0.10922166765E+04  0.50400001928E-02 0.  1.
       -1   -1    0    0    0  501  0.00000000000E+00  0.00000000000E+00 -0.58574699256E+03  0.58574699258E+03  0.50400001928E-02 0. -1.
    10030    2    1    2    0    0  0.00000000000E+00  0.00000000000E+00  0.50646968390E+03  0.16779636691E+04  0.15997032643E+04 0.  0.
        4    1    3    3  502    0  0.51438931090E+03  0.61239546668E+03  0.26548747973E+03  0.84268012055E+03  0.12699999809E+01 0.  1.
       -4    1    3    3    0  502 -0.51438931090E+03 -0.61239546668E+03  0.24098220417E+03  0.83528354850E+03  0.12699999809E+01 0. -1.
</event>
<event>
 5   0  0.8694033E-05  0.1598663E+04  0.7818609E-02  0.8821370E-01
        2   -1    0    0  501    0  0.00000000000E+00  0.00000000000E+00  0.18734329015E+04  0.18734329015E+04  0.25500000920E-02 0. -1.
       -2   -1    0    0    0  501  0.00000000000E+00  0.00000000000E+00 -0.34104800539E+03  0.34104800540E+03  0.25500000920E-02 0.  1.
    10030    2    1    2    0    0  0.00000000000E+00  0.00000000000E+00  0.15323848961E+04  0.22144809069E+04  0.15986626339E+04 0.  0.
        1    1    3    3  502    0  0.69380201457E+02  0.82165608636E+02 -0.33098158443E+03  0.34801380555E+03  0.50400001928E-02 0.  1.
       -1    1    3    3    0  502 -0.69380201457E+02 -0.82165608636E+02  0.18633664805E+04  0.18664671013E+04  0.50400001928E-02 0. -1.
</event>
<event>
 5   0  0.4211419E-05  0.1599601E+04  0.7818609E-02  0.8820793E-01
        1   -1    0    0  501    0  0.00000000000E+00  0.00000000000E+00  0.36210844021E+03  0.36210844024E+03  0.50400001928E-02 0.  1.
       -1   -1    0    0    0  501  0.00000000000E+00  0.00000000000E+00 -0.17665443982E+04  0.17665443983E+04  0.50400001928E-02 0. -1.
    10030    2    1    2    0    0  0.00000000000E+00  0.00000000000E+00 -0.14044359580E+04  0.21286528385E+04  0.15996007460E+04 0.  0.
        2    1    3    3  502    0  0.51469852559E+03  0.38775238694E+03 -0.71814850829E+02  0.64840100141E+03  0.25500000920E-02 0.  1.
       -2    1    3    3    0  502 -0.51469852559E+03 -0.38775238694E+03 -0.13326211072E+04  0.14802518371E+04  0.25500000920E-02 0. -1.
</event>
<event>
 5   0  0.4211419E-05  0.1598032E+04  0.7818609E-02  0.8821758E-01
       -1   -1    0    0    0  501  0.00000000000E+00  0.00000000000E+00  0.37769096294E+03  0.37769096297E+03  0.50400001928E-02 0.  1.
        1   -1    0    0  501    0  0.00000000000E+00  0.00000000000E+00 -0.16903411836E+04  0.16903411836E+04  0.50400001928E-02 0. -1.
    10030    2    1    2    0    0  0.00000000000E+00  0.00000000000E+00 -0.13126502207E+04  0.20680321466E+04  0.15980320264E+04 0.  0.
        2    1    3    3  502    0 -0.15882209598E+02  0.46846324862E+03  0.18107277411E+03  0.50249120333E+03  0.25500000920E-02 0.  1.
       -2    1    3    3    0  502  0.15882209598E+02 -0.46846324862E+03 -0.14937229948E+04  0.15655409433E+04  0.25500000920E-02 0. -1.
</event>
<event>
 5   0  0.4256406E-05  0.1603153E+04  0.7818609E-02  0.8818614E-01
        1   -1    0    0  501    0  0.00000000000E+00  0.00000000000E+00  0.55823990970E+03  0.55823990972E+03  0.50400001928E-02 0. -1.
       -1   -1    0    0    0  501  0.00000000000E+00  0.00000000000E+00 -0.11509830168E+04  0.11509830168E+04  0.50400001928E-02 0.  1.
    10030    2    1    2    0    0  0.00000000000E+00  0.00000000000E+00 -0.59274310712E+03  0.17092229266E+04  0.16031527131E+04 0.  0.
        3    1    3    3  502    0  0.43888579483E+03 -0.65006479985E+03 -0.12014901118E+03  0.79349907372E+03  0.10100000352E+00 0. -1.
       -3    1    3    3    0  502 -0.43888579483E+03  0.65006479985E+03 -0.47259409595E+03  0.91572385283E+03  0.10100000352E+00 0.  1.
</event>
<event>
 5   0  0.4314657E-05  0.1597160E+04  0.7818609E-02  0.8822295E-01
       -1   -1    0    0    0  501  0.00000000000E+00  0.00000000000E+00  0.10706154574E+04  0.10706154574E+04  0.50400001928E-02 0.  1.
        1   -1    0    0  501    0  0.00000000000E+00  0.00000000000E+00 -0.59566674263E+03  0.59566674265E+03  0.50400001928E-02 0. -1.
    10030    2    1    2    0    0  0.00000000000E+00  0.00000000000E+00  0.47494871478E+03  0.16662822001E+04  0.15971600072E+04 0.  0.
        5    1    3    3  502    0  0.48580448945E+02 -0.79286380627E+03  0.32296498539E+03  0.85750891954E+03  0.46999998093E+01 0. -1.
       -5    1    3    3    0  502 -0.48580448945E+02  0.79286380627E+03  0.15198372939E+03  0.80877328053E+03  0.46999998093E+01 0.  1.
</event>
<event>
 5   0  0.4373026E-05  0.1604237E+04  0.7818609E-02  0.8817949E-01
       -1   -1    0    0    0  501  0.00000000000E+00  0.00000000000E+00  0.42667236314E+03  0.42667236317E+03  0.50400001928E-02 0. -1.
        1   -1    0    0  501    0  0.00000000000E+00  0.00000000000E+00 -0.15079344519E+04  0.15079344519E+04  0.50400001928E-02 0.  1.
    10030    2    1    2    0    0  0.00000000000E+00  0.00000000000E+00 -0.10812620887E+04  0.19346068150E+04  0.16042368355E+04 0.  0.
        4    1    3    3  502    0 -0.58893485833E+03  0.12874522337E+03  0.97459201078E+02  0.61067135898E+03  0.12699999809E+01 0. -1.
       -4    1    3    3    0  502  0.58893485833E+03 -0.12874522337E+03 -0.11787212898E+04  0.13239354561E+04  0.12699999809E+01 0.  1.
</event>
<event>
 5   0  0.8620155E-05  0.1600497E+04  0.7818609E-02  0.8820243E-01
       -2   -1    0    0    0  501  0.00000000000E+00  0.00000000000E+00  0.44553147000E+03  0.44553147001E+03  0.25500000920E-02 0. -1.
        2   -1    0    0  501    0  0.00000000000E+00  0.00000000000E+00 -0.14373791611E+04  0.14373791611E+04  0.25500000920E-02 0.  1.
    10030    2    1    2    0    0  0.00000000000E+00  0.00000000000E+00 -0.99184769108E+03  0.18829106311E+04  0.16004969860E+04 0.  0.
        4    1    3    3  502    0  0.59942911755E+03 -0.49752011692E+03 -0.28042236485E+03  0.82793710468E+03  0.12699999809E+01 0. -1.
       -4    1    3    3    0  502 -0.59942911755E+03  0.49752011692E+03 -0.71142532623E+03  0.10549735264E+04  0.12699999809E+01 0.  1.
</event>
<event>
 5   0  0.8694033E-05  0.1587085E+04  0.7818609E-02  0.8828522E-01
        2   -1    0    0  501    0  0.00000000000E+00  0.00000000000E+00  0.13801587987E+04  0.13801587987E+04  0.25500000920E-02 0.  1.
       -2   -1    0    0    0  501  0.00000000000E+00  0.00000000000E+00 -0.45625897223E+03  0.45625897223E+03  0.25500000920E-02 0. -1.
    10030    2    1    2    0    0  0.00000000000E+00  0.00000000000E+00  0.92389982652E+03  0.18364177710E+04  0.15870851710E+04 0.  0.
        1    1    3    3  502    0 -0.35953359931E+02 -0.91289592287E+02 -0.44921356958E+03  0.45980350681E+03  0.50400001928E-02 0. -1.
       -1    1    3    3    0  502  0.35953359931E+02  0.91289592287E+02  0.13731133961E+04  0.13766142642E+04  0.50400001928E-02 0.  1.
</event>
<event>
 5   0  0.8037548E-05  0.1596715E+04  0.7818609E-02  0.8822569E-01
       -2   -1    0    0    0  501  0.00000000000E+00  0.00000000000E+00  0.41362982998E+03  0.41362982998E+03  0.25500000920E-02 0. -1.
        2   -1    0    0  501    0  0.00000000000E+00  0.00000000000E+00 -0.15409306140E+04  0.15409306140E+04  0.25500000920E-02 0.  1.
    10030    2    1    2    0    0  0.00000000000E+00  0.00000000000E+00 -0.11273007840E+04  0.19545604440E+04  0.15967152130E+04 0.  0.
        5    1    3    3  502    0 -0.14866313429E+03  0.26458861348E+03 -0.14675442901E+04  0.14986047495E+04  0.46999998093E+01 0.  1.
       -5    1    3    3    0  502  0.14866313429E+03 -0.26458861348E+03  0.34024350608E+03  0.45595569446E+03  0.46999998093E+01 0. -1.
</event>
<event>
 5   0  0.7901257E-05  0.1600086E+04  0.7818609E-02  0.8820495E-01
        2   -1    0    0  501    0  0.00000000000E+00  0.00000000000E+00  0.16786169926E+04  0.16786169926E+04  0.25500000920E-02 0. -1.
       -2   -1    0    0    0  501  0.00000000000E+00  0.00000000000E+00 -0.38130720756E+03  0.38130720757E+03  0.25500000920E-02 0.  1.
    10030    2    1    2    0    0  0.00000000000E+00  0.00000000000E+00  0.12973097850E+04  0.20599242002E+04  0.16000859452E+04 0.  0.
        2    1    3    3  502    0 -0.28047899166E+03 -0.74892453491E+03  0.61951522248E+03  0.10116103670E+04  0.25500000920E-02 0. -1.
       -2    1    3    3    0  502  0.28047899166E+03  0.74892453491E+03  0.67779456256E+03  0.10483138332E+04  0.25500000920E-02 0.  1.
</event>
<event>
 5   0  0.4211419E-05  0.1601813E+04  0.7818609E-02  0.8819435E-01
       -1   -1    0    0    0  501  0.00000000000E+00  0.00000000000E+00  0.50413252476E+03  0.50413252479E+03  0.50400001928E-02 0.  1.
        1   -1    0    0  501    0  0.00000000000E+00  0.00000000000E+00 -0.12723861659E+04  0.12723861659E+04  0.50400001928E-02 0. -1.
    10030    2    1    2    0    0  0.00000000000E+00  0.00000000000E+00 -0.76825364116E+03  0.17765186907E+04  0.16018130357E+04 0.  0.
        2    1    3    3  502    0  0.30894327329E+03 -0.62049343230E+02 -0.12007463549E+04  0.12414056049E+04  0.25500000920E-02 0. -1.
       -2    1    3    3    0  502 -0.30894327329E+03  0.62049343230E+02  0.43249271376E+03  0.53511308578E+03  0.25500000920E-02 0.  1.
</event>
<event>
 5   0  0.4504463E-05  0.1597059E+04  0.7818609E-02  0.8822357E-01
        1   -1    0    0  501    0  0.00000000000E+00  0.00000000000E+00  0.99799253932E+03  0.99799253933E+03  0.50400001928E-02 0.  1.
       -1   -1    0    0    0  501  0.00000000000E+00  0.00000000000E+00 -0.63893169885E+03  0.63893169887E+03  0.50400001928E-02 0. -1.
    10030    2    1    2    0    0  0.00000000000E+00  0.00000000000E+00  0.35906084047E+03  0.16369242382E+04  0.15970586321E+04 0.  0.
        1    1    3    3  502    0  0.31692248210E+03 -0.54370275213E+03  0.68332450236E+03  0.92896981538E+03  0.50400001928E-02 0. -1.
       -1    1    3    3    0  502 -0.31692248210E+03  0.54370275213E+03 -0.32426366190E+03  0.70795442282E+03  0.50400001928E-02 0.  1.
</event>
<event>
 5   0  0.8037548E-05  0.1600665E+04  0.7818609E-02  0.8820139E-01
       -2   -1    0    0    0  501  0.00000000000E+00  0.00000000000E+00  0.38108388576E+03  0.38108388577E+03  0.25500000920E-02 0. -1.
        2   -1    0    0  501    0  0.00000000000E+00  0.00000000000E+00 -0.16808170992E+04  0.16808170992E+04  0.25500000920E-02 0.  1.
    10030    2    1    2    0    0  0.00000000000E+00  0.00000000000E+00 -0.12997332134E+04  0.20619009849E+04  0.16006652510E+04 0.  0.
        5    1    3    3  502    0 -0.30595659126E+03 -0.10333401023E+03 -0.15931451480E+04  0.16255524926E+04  0.46999998093E+01 0.  1.
       -5    1    3    3    0  502  0.30595659126E+03  0.10333401023E+03  0.29341193463E+03  0.43634849236E+03  0.46999998093E+01 0. -1.
</event>
<event>
 5   0  0.8694033E-05  0.1599663E+04  0.7818609E-02  0.8820755E-01
        2   -1    0    0  501    0  0.00000000000E+00  0.00000000000E+00  0.16100874393E+04  0.16100874393E+04  0.25500000920E-02 0. -1.
       -2   -1    0    0    0  501  0.00000000000E+00  0.00000000000E+00 -0.39732659671E+03  0.39732659672E+03  0.25500000920E-02 0.  1.
    10030    2    1    2    0    0  0.00000000000E+00  0.00000000000E+00  0.12127608426E+04  0.20074140361E+04  0.15996631679E+04 0.  0.
        1    1    3    3  502    0 -0.44287245025E+02 -0.52073157993E+03  0.13661978933E+04  0.14627437992E+04  0.50400001928E-02 0. -1.
       -1    1    3    3    0  502  0.44287245025E+02  0.52073157993E+03 -0.15343705065E+03  0.54467023688E+03  0.50400001928E-02 0.  1.
</event>
<event>
 5   0  0.4314657E-05  0.1601008E+04  0.7818609E-02  0.8819929E-01
       -1   -1    0    0    0  501  0.00000000000E+00  0.00000000000E+00  0.46623620506E+03  0.46623620509E+03  0.50400001928E-02 0.  1.
        1   -1    0    0  501    0  0.00000000000E+00  0.00000000000E+00 -0.13744246869E+04  0.13744246869E+04  0.50400001928E-02 0. -1.
    10030    2    1    2    0    0  0.00000000000E+00  0.00000000000E+00 -0.90818848182E+03  0.18406608920E+04  0.16010078703E+04 0.  0.
        5    1    3    3  502    0 -0.67324325929E+03  0.39054806273E+02  0.41743908389E+02  0.67568217970E+03  0.46999998093E+01 0.  1.
       -5    1    3    3    0  502  0.67324325929E+03 -0.39054806273E+02 -0.94993239020E+03  0.11649787123E+04  0.46999998093E+01 0. -1.
</event>
<event>
 5   0  0.4256406E-05  0.1601039E+04  0.7818609E-02  0.8819910E-01
       -1   -1    0    0    0  501  0.00000000000E+00  0.00000000000E+00  0.66728730860E+03  0.66728730862E+03  0.50400001928E-02 0. -1.
        1   -1    0    0  501    0  0.00000000000E+00  0.00000000000E+00 -0.96035322444E+03  0.96035322446E+03  0.50400001928E-02 0.  1.
    10030    2    1    2    0    0  0.00000000000E+00  0.00000000000E+00 -0.29306591585E+03  0.16276405331E+04  0.16010390607E+04 0.  0.
        3    1    3    3  502    0  0.53515263179E+02 -0.67047606728E+03  0.29476404714E+03  0.73436223614E+03  0.10100000352E+00 0. -1.
       -3    1    3    3    0  502 -0.53515263179E+02  0.67047606728E+03 -0.58782996298E+03  0.89327829693E+03  0.10100000352E+00 0.  1.
</event>
<event>
 5   0  0.8037548E-05  0.1598188E+04  0.7818609E-02  0.8821662E-01
       -2   -1    0    0    0  501  0.00000000000E+00  0.00000000000E+00  0.36647028261E+03  0.36647028262E+03  0.25500000920E-02 0. -1.
        2   -1    0    0  501    0  0.00000000000E+00  0.00000000000E+00 -0.17424357951E+04  0.17424357951E+04  0.25500000920E-02 0.  1.
    10030    2    1    2    0    0  0.00000000000E+00  0.00000000000E+00 -0.13759655125E+04  0.21089060777E+04  0.15981876464E+04 0.  0.
        5    1    3    3  502    0  0.68854129615E+03  0.40136548177E+03 -0.61165916349E+03  0.10046553582E+04  0.46999998093E+01 0. -1.
       -5    1    3    3    0  502 -0.68854129615E+03 -0.40136548177E+03 -0.76430634896E+03  0.11042507195E+04  0.46999998093E+01 0.  1.
</event>
<event>
 5   0  0.4256406E-05  0.1601144E+04  0.7818609E-02  0.8819845E-01
        1   -1    0    0  501    0  0.00000000000E+00  0.00000000000E+00  0.83617957714E+03  0.83617957716E+03  0.50400001928E-02 0.  1.
       -1   -1    0    0    0  501  0.00000000000E+00  0.00000000000E+00 -0.76648099355E+03  0.76648099357E+03  0.50400001928E-02 0. -1.
    10030    2    1    2    0    0  0.00000000000E+00  0.00000000000E+00  0.69698583591E+02  0.16026605707E+04  0.16011442822E+04 0.  0.
        3    1    3    3  502    0  0.29885520296E+02 -0.61221709286E+03 -0.48062658771E+03  0.77891260109E+03  0.10100000352E+00 0. -1.
       -3    1    3    3    0  502 -0.29885520296E+02  0.61221709286E+03  0.55032517130E+03  0.82374796964E+03  0.10100000352E+00 0.  1.
</event>
<event>
 5   0  0.8037548E-05  0.1599391E+04  0.7818609E-02  0.8820922E-01
        2   -1    0    0  501    0  0.00000000000E+00  0.00000000000E+00  0.16838838064E+04  0.16838838064E+04  0.25500000920E-02 0. -1.
       -2   -1    0    0    0  501  0.00000000000E+00  0.00000000000E+00 -0.37978442406E+03  0.37978442407E+03  0.25500000920E-02 0.  1.
    10030    2    1    2    0    0  0.00000000000E+00  0.00000000000E+00  0.13040993823E+04  0.20636682304E+04  0.15993909361E+04 0.  0.
        5    1    3    3  502    0 -0.17718972365E+02  0.24802399864E+03  0.16327170694E+04  0.16515498735E+04  0.46999998093E+01 0. -1.
       -5    1    3    3    0  502  0.17718972365E+02 -0.24802399864E+03 -0.32861768709E+03  0.41211835697E+03  0.46999998093E+01 0.  1.
</event>
<event>
 5   0  0.4211419E-05  0.1598198E+04  0.7818609E-02  0.8821656E-01
       -1   -1    0    0    0  501  0.00000000000E+00  0.00000000000E+00  0.79841882469E+03  0.79841882471E+03  0.50400001928E-02 0. -1.
        1   -1    0    0  501    0  0.00000000000E+00  0.00000000000E+00 -0.79977951751E+03  0.79977951753E+03  0.50400001928E-02 0.  1.
    10030    2    1    2    0    0  0.00000000000E+00  0.00000000000E+00 -0.13606928243E+01  0.15981983422E+04  0.15981977630E+04 0.  0.
        2    1    3    3  502    0 -0.30393091523E+03  0.14444192208E+03  0.72411061180E+03  0.79848209010E+03  0.25500000920E-02 0. -1.
       -2    1    3    3    0  502  0.30393091523E+03 -0.14444192208E+03 -0.72547130462E+03  0.79971625213E+03  0.25500000920E-02 0.  1.
</event>
<event>
 5   0  0.8694033E-05  0.1599463E+04  0.7818609E-02  0.8820878E-01
        2   -1    0    0  501    0  0.00000000000E+00  0.00000000000E+00  0.10034687643E+04  0.10034687643E+04  0.25500000920E-02 0.  1.
       -2   -1    0    0    0  501  0.00000000000E+00  0.00000000000E+00 -0.63735937866E+03  0.63735937867E+03  0.25500000920E-02 0. -1.
    10030    2    1    2    0    0  0.00000000000E+00  0.00000000000E+00  0.36610938562E+03  0.16408281430E+04  0.15994626949E+04 0.  0.
        1    1    3    3  502    0  0.12021063027E+02 -0.74161424021E+03  0.48984413367E+03  0.88886639184E+03  0.50400001928E-02 0.  1.
       -1    1    3    3    0  502 -0.12021063027E+02  0.74161424021E+03 -0.12373474805E+03  0.75196175111E+03  0.50400001928E-02 0. -1.
</event>
<event>
 5   0  0.4211419E-05  0.1605279E+04  0.7818609E-02  0.8817311E-01
       -1   -1    0    0    0  501  0.00000000000E+00  0.00000000000E+00  0.58805417160E+03  0.58805417162E+03  0.50400001928E-02 0. -1.
        1   -1    0    0  501    0  0.00000000000E+00  0.00000000000E+00 -0.10955289129E+04  0.10955289130E+04  0.50400001928E-02 0.  1.
    10030    2    1    2    0    0  0.00000000000E+00  0.00000000000E+00 -0.50747474135E+03  0.16835830846E+04  0.16052792248E+04 0.  0.
        2    1    3    3  502    0  0.59126444124E+03  0.32780309963E+03 -0.70748651557E+03  0.97856306967E+03  0.25500000920E-02 0.  1.
       -2    1    3    3    0  502 -0.59126444124E+03 -0.32780309963E+03  0.20001177422E+03  0.70502001492E+03  0.25500000920E-02 0. -1.
</event>
<event>
 5   0  0.8620155E-05  0.1600393E+04  0.7818609E-02  0.8820307E-01
        2   -1    0    0  501    0  0.00000000000E+00  0.00000000000E+00  0.60093148640E+03  0.60093148641E+03  0.25500000920E-02 0. -1.
       -2   -1    0    0    0  501  0.00000000000E+00  0.00000000000E+00 -0.10655365389E+04  0.10655365389E+04  0.25500000920E-02 0.  1.
    10030    2    1    2    0    0  0.00000000000E+00  0.00000000000E+00 -0.46460505251E+03  0.16664680253E+04  0.16003930219E+04 0.  0.
        4    1    3    3  502    0  0.64310565927E+03  0.47604651069E+03 -0.24310754654E+03  0.83624641190E+03  0.12699999809E+01 0.  1.
       -4    1    3    3    0  502 -0.64310565927E+03 -0.47604651069E+03 -0.22149750596E+03  0.83022161342E+03  0.12699999809E+01 0. -1.
</event>
<event>
 5   0  0.4373026E-05  0.1600546E+04  0.7818609E-02  0.8820213E-01
        1   -1    0    0  501    0  0.00000000000E+00  0.00000000000E+00  0.98031460489E+03  0.98031460491E+03  0.50400001928E-02 0.  1.
       -1   -1    0    0    0  501  0.00000000000E+00  0.00000000000E+00 -0.65329742313E+03  0.65329742315E+03  0.50400001928E-02 0. -1.
    10030    2    1    2    0    0  0.00000000000E+00  0.00000000000E+00  0.32701718176E+03  0.16336120281E+04  0.16005461634E+04 0.  0.
        4    1    3    3  502    0 -0.44147535229E+03 -0.57853497204E+03 -0.17628382299E+03  0.74878621762E+03  0.12699999809E+01 0. -1.
       -4    1    3    3    0  502  0.44147535229E+03  0.57853497204E+03  0.50330100475E+03  0.88482581044E+03  0.12699999809E+01 0.  1.
</event>
<event>
 5   0  0.3042125E-05  0.1601109E+04  0.7818609E-02  0.8819867E-01
        4   -1    0    0  501    0  0.00000000000E+00  0.00000000000E+00  0.98661091148E+03  0.98661172888E+03  0.12699999809E+01 0.  1.
       -4   -1    0    0    0  501  0.00000000000E+00  0.00000000000E+00 -0.64958311878E+03  0.64958436027E+03  0.12699999809E+01 0. -1.
    10030    2    1    2    0    0  0.00000000000E+00  0.00000000000E+00  0.33702779270E+03  0.16361960891E+04  0.16011089623E+04 0.  0.
        5    1    3    3  502    0  0.54000298759E+03 -0.25264313615E+03 -0.37745388411E+03  0.70563822563E+03  0.46999998093E+01 0. -1.
       -5    1    3    3    0  502 -0.54000298759E+03  0.25264313615E+03  0.71448167681E+03  0.93055786351E+03  0.46999998093E+01 0.  1.
</event>
<event>
 5   0  0.4314657E-05  0.1600691E+04  0.7818609E-02  0.8820124E-01
       -1   -1    0    0    0  501  0.00000000000E+00  0.00000000000E+00  0.87488265373E+03  0.87488265374E+03  0.50400001928E-02 0. -1.
        1   -1    0    0  501    0  0.00000000000E+00  0.00000000000E+00 -0.73215822331E+03  0.73215822333E+03  0.50400001928E-02 0.  1.
    10030    2    1    2    0    0  0.00000000000E+00  0.00000000000E+00  0.14272443041E+03  0.16070408771E+04  0.16006905127E+04 0.  0.
        5    1    3    3  502    0 -0.61179853680E+03  0.51191478598E+03  0.64819878891E+01  0.79775829918E+03  0.46999998093E+01 0.  1.
       -5    1    3    3    0  502  0.61179853680E+03 -0.51191478598E+03  0.13624244252E+03  0.80928257789E+03  0.46999998093E+01 0. -1.
</event>
<event>
 5   0  0.4211419E-05  0.1601376E+04  0.7818609E-02  0.8819703E-01
       -1   -1    0    0    0  501  0.00000000000E+00  0.00000000000E+00  0.61215313531E+03  0.61215313533E+03  0.50400001928E-02 0.  1.
        1   -1    0    0  501    0  0.00000000000E+00  0.00000000000E+00 -0.10472891036E+04  0.10472891036E+04  0.50400001928E-02 0. -1.
    10030    2    1    2    0    0  0.00000000000E+00  0.00000000000E+00 -0.43513596831E+03  0.16594422390E+04  0.16013760438E+04 0.  0.
        2    1    3    3  502    0 -0.60069150428E+03  0.51700734792E+03 -0.99532411570E+02  0.79877004330E+03  0.25500000920E-02 0.  1.
       -2    1    3    3    0  502  0.60069150428E+03 -0.51700734792E+03 -0.33560355674E+03  0.86067219568E+03  0.25500000920E-02 0. -1.
</event>
<event>
 5   0  0.4256406E-05  0.1600178E+04  0.7818609E-02  0.8820439E-01
       -1   -1    0    0    0  501  0.00000000000E+00  0.00000000000E+00  0.92729041476E+03  0.92729041477E+03  0.50400001928E-02 0.  1.
        1   -1    0    0  501    0  0.00000000000E+00  0.00000000000E+00 -0.69033638641E+03  0.69033638643E+03  0.50400001928E-02 0. -1.
    10030    2    1    2    0    0  0.00000000000E+00  0.00000000000E+00  0.23695402835E+03  0.16176268012E+04  0.16001778827E+04 0.  0.
        3    1    3    3  502    0  0.22750413237E+02  0.35528144314E+03  0.84280943737E+03  0.91491542946E+03  0.10100000352E+00 0.  1.
       -3    1    3    3    0  502 -0.22750413237E+02 -0.35528144314E+03 -0.60585540902E+03  0.70271137175E+03  0.10100000352E+00 0. -1.
</event>
<event>
 5   0  0.4314657E-05  0.1598297E+04  0.7818609E-02  0.8821595E-01
       -1   -1    0    0    0  501  0.00000000000E+00  0.00000000000E+00  0.23925070990E+04  0.23925070990E+04  0.50400001928E-02 0. -1.
        1   -1    0    0  501    0  0.00000000000E+00  0.00000000000E+00 -0.26693266717E+03  0.26693266722E+03  0.50400001928E-02 0.  1.
    10030    2    1    2    0    0  0.00000000000E+00  0.00000000000E+00  0.21255744318E+04  0.26594397662E+04  0.15982969702E+04 0.  0.
        5    1    3    3  502    0 -0.16502747175E+03  0.75356434308E+03  0.14099168758E+04  0.16071655087E+04  0.46999998093E+01 0. -1.
       -5    1    3    3    0  502  0.16502747175E+03 -0.75356434308E+03  0.71565755602E+03  0.10522742575E+04  0.46999998093E+01 0.  1.
</event>
<event>
 5   0  0.4314657E-05  0.1593729E+04  0.7818609E-02  0.8824410E-01
        1   -1    0    0  501    0  0.00000000000E+00  0.00000000000E+00  0.11195653088E+04  0.11195653088E+04  0.50400001928E-02 0. -1.
       -1   -1    0    0    0  501  0.00000000000E+00  0.00000000000E+00 -0.56717785808E+03  0.56717785810E+03  0.50400001928E-02 0.  1.
    10030    2    1    2    0    0  0.00000000000E+00  0.00000000000E+00  0.55238745068E+03  0.16867431669E+04  0.15937285262E+04 0.  0.
        5    1    3    3  502    0  0.35037344347E+03 -0.65671337284E+03  0.57729111046E+03  0.94197723973E+03  0.46999998093E+01 0.  1.
       -5    1    3    3    0  502 -0.35037344347E+03  0.65671337284E+03 -0.24903659786E+02  0.74476592713E+03  0.46999998093E+01 0. -1.
</event>
<event>
 5   0  0.4314657E-05  0.1598090E+04  0.7818609E-02  0.8821722E-01
        1   -1    0    0  501    0  0.00000000000E+00  0.00000000000E+00  0.86623659621E+03  0.86623659622E+03  0.50400001928E-02 0. -1.
       -1   -1    0    0    0  501  0.00000000000E+00  0.00000000000E+00 -0.73706531209E+03  0.73706531211E+03  0.50400001928E-02 0.  1.
    10030    2    1    2    0    0  0.00000000000E+00  0.00000000000E+00  0.12917128411E+03  0.16033019083E+04  0.15980900440E+04 0.  0.
        5    1    3    3  502    0 -0.58923612501E+03  0.15086635709E+03 -0.45526540193E+03  0.75976874436E+03  0.46999998093E+01 0.  1.
       -5    1    3    3    0  502  0.58923612501E+03 -0.15086635709E+03  0.58443668604E+03  0.84353316397E+03  0.46999998093E+01 0. -1.
</event>
<event>
 5   0  0.8620155E-05  0.1598095E+04  0.7818609E-02  0.8821719E-01
        2   -1    0    0  501    0  0.00000000000E+00  0.00000000000E+00  0.49220054027E+03  0.49220054028E+03  0.25500000920E-02 0.  1.
       -2   -1    0    0    0  501  0.00000000000E+00  0.00000000000E+00 -0.12971886208E+04  0.12971886208E+04  0.25500000920E-02 0. -1.
    10030    2    1    2    0    0  0.00000000000E+00  0.00000000000E+00 -0.80498808057E+03  0.17893891611E+04  0.15980950410E+04 0.  0.
        4    1    3    3  502    0 -0.34831301638E+03 -0.15092104359E+03 -0.11897772324E+04  0.12488677249E+04  0.12699999809E+01 0. -1.
       -4    1    3    3    0  502  0.34831301638E+03  0.15092104359E+03  0.38478915179E+03  0.54052143622E+03  0.12699999809E+01 0.  1.
</event>
<event>
 5   0  0.4373026E-05  0.1600921E+04  0.7818609E-02  0.8819983E-01
       -1   -1    0    0    0  501  0.00000000000E+00  0.00000000000E+00  0.71309792219E+03  0.71309792221E+03  0.50400001928E-02 0.  1.
        1   -1    0    0  501    0  0.00000000000E+00  0.00000000000E+00 -0.89852578057E+03  0.89852578058E+03  0.50400001928E-02 0. -1.
    10030    2    1    2    0    0  0.00000000000E+00  0.00000000000E+00 -0.18542785838E+03  0.16116237028E+04  0.16009208190E+04 0.  0.
        4    1    3    3  502    0 -0.12131094825E+03  0.44771170471E+03  0.56400706077E+03  0.73025180192E+03  0.12699999809E+01 0.  1.
       -4    1    3    3    0  502  0.12131094825E+03 -0.44771170471E+03 -0.74943491915E+03  0.88137190087E+03  0.12699999809E+01 0. -1.
</event>
<event>
 5   0  0.7849690E-05  0.1598991E+04  0.7818609E-02  0.8821168E-01
       -2   -1    0    0    0  501  0.00000000000E+00  0.00000000000E+00  0.43908339232E+03  0.43908339233E+03  0.25500000920E-02 0.  1.
        2   -1    0    0  501    0  0.00000000000E+00  0.00000000000E+00 -0.14557444075E+04  0.14557444075E+04  0.25500000920E-02 0. -1.
    10030    2    1    2    0    0  0.00000000000E+00  0.00000000000E+00 -0.10166610152E+04  0.18948277998E+04  0.15989911730E+04 0.  0.
        3    1    3    3  502    0  0.42960973588E+01  0.65121300823E+03 -0.10579222463E+04  0.12422947831E+04  0.10100000352E+00 0. -1.
       -3    1    3    3    0  502 -0.42960973588E+01 -0.65121300823E+03  0.41261231184E+02  0.65253301674E+03  0.10100000352E+00 0.  1.
</event>
<event>
 5   0  0.8694033E-05  0.1594477E+04  0.7818609E-02  0.8823948E-01
       -2   -1    0    0    0  501  0.00000000000E+00  0.00000000000E+00  0.12788922156E+04  0.12788922156E+04  0.25500000920E-02 0.  1.
        2   -1    0    0  501    0  0.00000000000E+00  0.00000000000E+00 -0.49698421042E+03  0.49698421043E+03  0.25500000920E-02 0. -1.
    10030    2    1    2    0    0  0.00000000000E+00  0.00000000000E+00  0.78190800516E+03  0.17758764260E+04  0.15944770152E+04 0.  0.
        1    1    3    3  502    0 -0.58514008112E+03  0.51312440547E+03  0.19835381322E+03  0.80313747594E+03  0.50400001928E-02 0. -1.
       -1    1    3    3    0  502  0.58514008112E+03 -0.51312440547E+03  0.58355419193E+03  0.97273895006E+03  0.50400001928E-02 0.  1.
</event>
<event>
 5   0  0.4373026E-05  0.1601218E+04  0.7818609E-02  0.8819800E-01
        1   -1    0    0  501    0  0.00000000000E+00  0.00000000000E+00  0.13862573392E+04  0.13862573392E+04  0.50400001928E-02 0.  1.
       -1   -1    0    0    0  501  0.00000000000E+00  0.00000000000E+00 -0.46237773318E+03  0.46237773320E+03  0.50400001928E-02 0. -1.
    10030    2    1    2    0    0  0.00000000000E+00  0.00000000000E+00  0.92387960605E+03  0.18486350724E+04  0.16012176943E+04 0.  0.
        4    1    3    3  502    0  0.13723498658E+02 -0.38957316554E+03 -0.34541220829E+03  0.52083278724E+03  0.12699999809E+01 0. -1.
       -4    1    3    3    0  502 -0.13723498658E+02  0.38957316554E+03  0.12692918143E+04  0.13278022852E+04  0.12699999809E+01 0.  1.
</event>
<event>
 5   0  0.8694033E-05  0.1600978E+04  0.7818609E-02  0.8819947E-01
       -2   -1    0    0    0  501  0.00000000000E+00  0.00000000000E+00  0.24935873736E+03  0.24935873738E+03  0.25500000920E-02 0.  1.
        2   -1    0    0  501    0  0.00000000000E+00  0.00000000000E+00 -0.25697217784E+04  0.25697217784E+04  0.25500000920E-02 0. -1.
    10030    2    1    2    0    0  0.00000000000E+00  0.00000000000E+00 -0.23203630410E+04  0.28190805158E+04  0.16009779237E+04 0.  0.
        1    1    3    3  502    0  0.74574772478E+03  0.11731096359E+03 -0.16289810834E+04  0.17954054978E+04  0.50400001928E-02 0. -1.
       -1    1    3    3    0  502 -0.74574772478E+03 -0.11731096359E+03 -0.69138195762E+03  0.10236750180E+04  0.50400001928E-02 0.  1.
</event>
<event>
 5   0  0.7849690E-05  0.1603319E+04  0.7818609E-02  0.8818511E-01
        2   -1    0    0  501    0  0.00000000000E+00  0.00000000000E+00  0.57772855920E+03  0.57772855921E+03  0.25500000920E-02 0.  1.
       -2   -1    0    0    0  501  0.00000000000E+00  0.00000000000E+00 -0.11123880287E+04  0.11123880287E+04  0.25500000920E-02 0. -1.
    10030    2    1    2    0    0  0.00000000000E+00  0.00000000000E+00 -0.53465946950E+03  0.16901165879E+04  0.16033194730E+04 0.  0.
        3    1    3    3  502    0 -0.33412024283E+03  0.54613842912E+02 -0.10333314219E+04  0.10873788881E+04  0.10100000352E+00 0. -1.
       -3    1    3    3    0  502  0.33412024283E+03 -0.54613842912E+02  0.49867195241E+03  0.60273769985E+03  0.10100000352E+00 0.  1.
</event>
<event>
 5   0  0.4211419E-05  0.1601949E+04  0.7818609E-02  0.8819351E-01
        1   -1    0    0  501    0  0.00000000000E+00  0.00000000000E+00  0.12593400051E+04  0.12593400051E+04  0.50400001928E-02 0.  1.
       -1   -1    0    0    0  501  0.00000000000E+00  0.00000000000E+00 -0.50944176896E+03  0.50944176899E+03  0.50400001928E-02 0. -1.
    10030    2    1    2    0    0  0.00000000000E+00  0.00000000000E+00  0.74989823615E+03  0.17687817741E+04  0.16019493125E+04 0.  0.
        2    1    3    3  502    0  0.36502287119E+03  0.50922273488E+03  0.92592764250E+03  0.11179854603E+04  0.25500000920E-02 0.  1.
       -2    1    3    3    0  502 -0.36502287119E+03 -0.50922273488E+03 -0.17602940635E+03  0.65079631385E+03  0.25500000920E-02 0. -1.
</event>
<event>
 5   0  0.7849690E-05  0.1600402E+04  0.7818609E-02  0.8820301E-01
       -2   -1    0    0    0  501  0.00000000000E+00  0.00000000000E+00  0.11581435065E+04  0.11581435065E+04  0.25500000920E-02 0.  1.
        2   -1    0    0  501    0  0.00000000000E+00  0.00000000000E+00 -0.55288611246E+03  0.55288611246E+03  0.25500000920E-02 0. -1.
    10030    2    1    2    0    0  0.00000000000E+00  0.00000000000E+00  0.60525739401E+03  0.17110296189E+04  0.16004017758E+04 0.  0.
        3    1    3    3  502    0 -0.16330195837E+03 -0.66992108276E+03  0.73672462115E+03  0.10090713376E+04  0.10100000352E+00 0.  1.
       -3    1    3    3    0  502  0.16330195837E+03  0.66992108276E+03 -0.13146722713E+03  0.70195828134E+03  0.10100000352E+00 0. -1.
</event>
<event>
 5   0  0.4373026E-05  0.1602229E+04  0.7818609E-02  0.8819180E-01
        1   -1    0    0  501    0  0.00000000000E+00  0.00000000000E+00  0.12029313869E+04  0.12029313870E+04  0.50400001928E-02 0. -1.
       -1   -1    0    0    0  501  0.00000000000E+00  0.00000000000E+00 -0.53351695322E+03  0.53351695324E+03  0.50400001928E-02 0.  1.
    10030    2    1    2    0    0  0.00000000000E+00  0.00000000000E+00  0.66941443373E+03  0.17364483402E+04  0.16022288083E+04 0.  0.
        4    1    3    3  502    0  0.41106036866E+03 -0.23474462037E+03  0.10351508859E+04  0.11382506899E+04  0.12699999809E+01 0. -1.
       -4    1    3    3    0  502 -0.41106036866E+03  0.23474462037E+03 -0.36573645220E+03  0.59819765032E+03  0.12699999809E+01 0.  1.
</event>
<event>
 5   0  0.4211419E-05  0.1600976E+04  0.7818609E-02  0.8819949E-01
       -1   -1    0    0    0  501  0.00000000000E+00  0.00000000000E+00  0.10936681645E+04  0.10936681645E+04  0.50400001928E-02 0. -1.
        1   -1    0    0  501    0  0.00000000000E+00  0.00000000000E+00 -0.58590086695E+03  0.58590086697E+03  0.50400001928E-02 0.  1.
    10030    2    1    2    0    0  0.00000000000E+00  0.00000000000E+00  0.50776729758E+03  0.16795690315E+04  0.16009761095E+04 0.  0.
        2    1    3    3  502    0 -0.74698370519E+03 -0.12385443879E+03  0.52635764634E+03  0.92215885275E+03  0.25500000920E-02 0.  1.
       -2    1    3    3    0  502  0.74698370519E+03  0.12385443879E+03 -0.18590348761E+02  0.75741017877E+03  0.25500000920E-02 0. -1.
</event>
<event>
 5   0  0.4373026E-05  0.1596065E+04  0.7818609E-02  0.8822969E-01
       -1   -1    0    0    0  501  0.00000000000E+00  0.00000000000E+00  0.31625640035E+03  0.31625640039E+03  0.50400001928E-02 0.  1.
        1   -1    0    0  501    0  0.00000000000E+00  0.00000000000E+00 -0.20137332586E+04  0.20137332586E+04  0.50400001928E-02 0. -1.
    10030    2    1    2    0    0  0.00000000000E+00  0.00000000000E+00 -0.16974768582E+04  0.23299896590E+04  0.15960652013E+04 0.  0.
        4    1    3    3  502    0 -0.37447399056E+03 -0.66690370379E+03 -0.11811932207E+04  0.14071994732E+04  0.12699999809E+01 0. -1.
       -4    1    3    3    0  502  0.37447399056E+03  0.66690370379E+03 -0.51628363752E+03  0.92279018580E+03  0.12699999809E+01 0.  1.
</event>
<event>
 5   0  0.8694033E-05  0.1601413E+04  0.7818609E-02  0.8819680E-01
       -2   -1    0    0    0  501  0.00000000000E+00  0.00000000000E+00  0.25819584213E+03  0.25819584214E+03  0.25500000920E-02 0.  1.
        2   -1    0    0  501    0  0.00000000000E+00  0.00000000000E+00 -0.24831197613E+04  0.24831197613E+04  0.25500000920E-02 0. -1.
    10030    2    1    2    0    0  0.00000000000E+00  0.00000000000E+00 -0.22249239192E+04  0.27413156035E+04  0.16014133731E+04 0.  0.
        1    1    3    3  502    0  0.61706654918E+01 -0.34930586660E+03  0.12084766638E+03  0.36967123779E+03  0.50400001928E-02 0.  1.
       -1    1    3    3    0  502 -0.61706654918E+01  0.34930586660E+03 -0.23457715856E+04  0.23716443657E+04  0.50400001928E-02 0. -1.
</event>
<event>
 5   0  0.4504463E-05  0.1569115E+04  0.7818609E-02  0.8839750E-01
        1   -1    0    0  501    0  0.00000000000E+00  0.00000000000E+00  0.12017392931E+04  0.12017392931E+04  0.50400001928E-02 0.  1.
       -1   -1    0    0    0  501  0.00000000000E+00  0.00000000000E+00 -0.51219934500E+03  0.51219934503E+03  0.50400001928E-02 0. -1.
    10030    2    1    2    0    0  0.00000000000E+00  0.00000000000E+00  0.68953994811E+03  0.17139386382E+04  0.15691145004E+04 0.  0.
        1    1    3    3  502    0  0.65780700458E+03 -0.30868118500E+03  0.21597876394E+02  0.72695295414E+03  0.50400001928E-02 0.  1.
       -1    1    3    3    0  502 -0.65780700458E+03  0.30868118500E+03  0.66794207172E+03  0.98698568401E+03  0.50400001928E-02 0. -1.
</event>
<event>
 5   0  0.4211419E-05  0.1610596E+04  0.7818609E-02  0.8814065E-01
       -1   -1    0    0    0  501  0.00000000000E+00  0.00000000000E+00  0.24985503631E+03  0.24985503636E+03  0.50400001928E-02 0.  1.
        1   -1    0    0  501    0  0.00000000000E+00  0.00000000000E+00 -0.25955232452E+04  0.25955232452E+04  0.50400001928E-02 0. -1.
    10030    2    1    2    0    0  0.00000000000E+00  0.00000000000E+00 -0.23456682089E+04  0.28453782816E+04  0.16105956100E+04 0.  0.
        2    1    3    3  502    0  0.56098702470E+03 -0.32099291004E+03 -0.32417097830E+03  0.72306964627E+03  0.25500000920E-02 0.  1.
       -2    1    3    3    0  502 -0.56098702470E+03  0.32099291004E+03 -0.20214972306E+04  0.21223086353E+04  0.25500000920E-02 0. -1.
</event>
<event>
 5   0  0.7901257E-05  0.1605308E+04  0.7818609E-02  0.8817294E-01
        2   -1    0    0  501    0  0.00000000000E+00  0.00000000000E+00  0.11885951428E+04  0.11885951429E+04  0.25500000920E-02 0.  1.
       -2   -1    0    0    0  501  0.00000000000E+00  0.00000000000E+00 -0.54202955428E+03  0.54202955428E+03  0.25500000920E-02 0. -1.
    10030    2    1    2    0    0  0.00000000000E+00  0.00000000000E+00  0.64656558857E+03  0.17306246971E+04  0.16053083137E+04 0.  0.
        2    1    3    3  502    0 -0.57114938036E+03 -0.21393963218E+03  0.88581302268E+03  0.10754750076E+04  0.25500000920E-02 0.  1.
       -2    1    3    3    0  502  0.57114938036E+03  0.21393963218E+03 -0.23924743412E+03  0.65514968949E+03  0.25500000920E-02 0. -1.
</event>
<event>
 5   0  0.7901257E-05  0.1596343E+04  0.7818609E-02  0.8822798E-01
        2   -1    0    0  501    0  0.00000000000E+00  0.00000000000E+00  0.93714630674E+03  0.93714630674E+03  0.25500000920E-02 0.  1.
       -2   -1    0    0    0  501  0.00000000000E+00  0.00000000000E+00 -0.67980564699E+03  0.67980564700E+03  0.25500000920E-02 0. -1.
    10030    2    1    2    0    0  0.00000000000E+00  0.00000000000E+00  0.25734065974E+03  0.16169519537E+04  0.15963425088E+04 0.  0.
        2    1    3    3  502    0 -0.49446724009E+03  0.22797279331E+03 -0.46248062934E+03  0.71439329402E+03  0.25500000920E-02 0. -1.
       -2    1    3    3    0  502  0.49446724009E+03 -0.22797279331E+03  0.71982128908E+03  0.90255865972E+03  0.25500000920E-02 0.  1.
</event>
<event>
 5   0  0.8037548E-05  0.1595624E+04  0.7818609E-02  0.8823241E-01
       -2   -1    0    0    0  501  0.00000000000E+00  0.00000000000E+00  0.49806959363E+03  0.49806959364E+03  0.25500000920E-02 0.  1.
        2   -1    0    0  501    0  0.00000000000E+00  0.00000000000E+00 -0.12779421868E+04  0.12779421868E+04  0.25500000920E-02 0. -1.
    10030    2    1    2    0    0  0.00000000000E+00  0.00000000000E+00 -0.77987259319E+03  0.17760117805E+04  0.15956241985E+04 0.  0.
        5    1    3    3  502    0  0.41862764499E+03  0.67816214208E+03 -0.34935859411E+03  0.87018763114E+03  0.46999998093E+01 0.  1.
       -5    1    3    3    0  502 -0.41862764499E+03 -0.67816214208E+03 -0.43051399909E+03  0.90582414933E+03  0.46999998093E+01 0. -1.
</event>
<event>
 5   0  0.8694033E-05  0.1601416E+04  0.7818609E-02  0.8819679E-01
        2   -1    0    0  501    0  0.00000000000E+00  0.00000000000E+00  0.72455243828E+03  0.72455243829E+03  0.25500000920E-02 0. -1.
       -2   -1    0    0    0  501  0.00000000000E+00  0.00000000000E+00 -0.88486768394E+03  0.88486768394E+03  0.25500000920E-02 0.  1.
    10030    2    1    2    0    0  0.00000000000E+00  0.00000000000E+00 -0.16031524566E+03  0.16094201222E+04  0.16014156712E+04 0.  0.
        1    1    3    3  502    0  0.10613366580E+03  0.51552290050E+03 -0.68658467709E+03  0.86511660185E+03  0.50400001928E-02 0.  1.
       -1    1    3    3    0  502 -0.10613366580E+03 -0.51552290050E+03  0.52626943143E+03  0.74430352038E+03  0.50400001928E-02 0. -1.
</event>
<event>
 5   0  0.4256406E-05  0.1598880E+04  0.7818609E-02  0.8821237E-01
        1   -1    0    0  501    0  0.00000000000E+00  0.00000000000E+00  0.11019162234E+04  0.11019162234E+04  0.50400001928E-02 0.  1.
       -1   -1    0    0    0  501  0.00000000000E+00  0.00000000000E+00 -0.57999333823E+03  0.57999333825E+03  0.50400001928E-02 0. -1.
    10030    2    1    2    0    0  0.00000000000E+00  0.00000000000E+00  0.52192288513E+03  0.16819095616E+04  0.15988796939E+04 0.  0.
        3    1    3    3  502    0 -0.54853059696E+03 -0.45494739780E+02 -0.34892983606E+03  0.65169596273E+03  0.10100000352E+00 0. -1.
       -3    1    3    3    0  502  0.54853059696E+03  0.45494739780E+02  0.87085272119E+03  0.10302135989E+04  0.10100000352E+00 0.  1.
</event>
<event>
 5   0  0.8620155E-05  0.1609760E+04  0.7818609E-02  0.8814574E-01
       -2   -1    0    0    0  501  0.00000000000E+00  0.00000000000E+00  0.50660642497E+03  0.50660642498E+03  0.25500000920E-02 0. -1.
        2   -1    0    0  501    0  0.00000000000E+00  0.00000000000E+00 -0.12787675216E+04  0.12787675216E+04  0.25500000920E-02 0.  1.
    10030    2    1    2    0    0  0.00000000000E+00  0.00000000000E+00 -0.77216109659E+03  0.17853739465E+04  0.16097600349E+04 0.  0.
        4    1    3    3  502    0 -0.61080676647E+03 -0.25397976404E+03  0.12245968255E+03  0.67274706485E+03  0.12699999809E+01 0. -1.
       -4    1    3    3    0  502  0.61080676647E+03  0.25397976404E+03 -0.89462077914E+03  0.11126268817E+04  0.12699999809E+01 0.  1.
</event>
<event>
 5   0  0.8037548E-05  0.1601232E+04  0.7818609E-02  0.8819792E-01
       -2   -1    0    0    0  501  0.00000000000E+00  0.00000000000E+00  0.41941364584E+03  0.41941364585E+03  0.25500000920E-02 0. -1.
        2   -1    0    0  501    0  0.00000000000E+00  0.00000000000E+00 -0.15282906655E+04  0.15282906655E+04  0.25500000920E-02 0.  1.
    10030    2    1    2    0    0  0.00000000000E+00  0.00000000000E+00 -0.11088770197E+04  0.19477043114E+04  0.16012319756E+04 0.  0.
        5    1    3    3  502    0  0.38022430318E+03  0.69824972171E+03 -0.66880834441E+03  0.10389657772E+04  0.46999998093E+01 0. -1.
       -5    1    3    3    0  502 -0.38022430318E+03 -0.69824972171E+03 -0.44006867529E+03  0.90873853422E+03  0.46999998093E+01 0.  1.
</event>
<event>
 5   0  0.7849690E-05  0.1604267E+04  0.7818609E-02  0.8817931E-01
       -2   -1    0    0    0  501  0.00000000000E+00  0.00000000000E+00  0.73833330392E+03  0.73833330393E+03  0.25500000920E-02 0. -1.
        2   -1    0    0  501    0  0.00000000000E+00  0.00000000000E+00 -0.87144647117E+03  0.87144647117E+03  0.25500000920E-02 0.  1.
    10030    2    1    2    0    0  0.00000000000E+00  0.00000000000E+00 -0.13311316724E+03  0.16097797751E+04  0.16042667512E+04 0.  0.
        3    1    3    3  502    0  0.32430737174E+03  0.63356491660E+03  0.30463105790E+03  0.77419627134E+03  0.10100000352E+00 0. -1.
       -3    1    3    3    0  502 -0.32430737174E+03 -0.63356491660E+03 -0.43774422514E+03  0.83558350376E+03  0.10100000352E+00 0.  1.
</event>
<event>
 5   0  0.4504463E-05  0.1563961E+04  0.7818609E-02  0.8842999E-01
        1   -1    0    0  501    0  0.00000000000E+00  0.00000000000E+00  0.13309051279E+04  0.13309051279E+04  0.50400001928E-02 0.  1.
       -1   -1    0    0    0  501  0.00000000000E+00  0.00000000000E+00 -0.45945683307E+03  0.45945683310E+03  0.50400001928E-02 0. -1.
    10030    2    1    2    0    0  0.00000000000E+00  0.00000000000E+00  0.87144829480E+03  0.17903619610E+04  0.15639609397E+04 0.  0.
        1    1    3    3  502    0 -0.50022841203E+03  0.59978420362E+03  0.48041238032E+03  0.91693271853E+03  0.50400001928E-02 0.  1.
       -1    1    3    3    0  502  0.50022841203E+03 -0.59978420362E+03  0.39103591448E+03  0.87342924245E+03  0.50400001928E-02 0. -1.
</event>
<event>
 5   0  0.3042125E-05  0.1599698E+04  0.7818609E-02  0.8820734E-01
       -4   -1    0    0    0  501  0.00000000000E+00  0.00000000000E+00  0.11264455290E+04  0.11264462449E+04  0.12699999809E+01 0. -1.
        4   -1    0    0  501    0  0.00000000000E+00  0.00000000000E+00 -0.56794271949E+03  0.56794413944E+03  0.12699999809E+01 0.  1.
    10030    2    1    2    0    0  0.00000000000E+00  0.00000000000E+00  0.55850280949E+03  0.16943903843E+04  0.15996979047E+04 0.  0.
        5    1    3    3  502    0  0.12514606171E+03 -0.73396514371E+03  0.58872803339E+03  0.94920448600E+03  0.46999998093E+01 0.  1.
       -5    1    3    3    0  502 -0.12514606171E+03  0.73396514371E+03 -0.30225223905E+02  0.74518589835E+03  0.46999998093E+01 0. -1.
</event>
<event>
 5   0  0.4211419E-05  0.1600146E+04  0.7818609E-02  0.8820458E-01
       -1   -1    0    0    0  501  0.00000000000E+00  0.00000000000E+00  0.14085494062E+04  0.14085494062E+04  0.50400001928E-02 0.  1.
        1   -1    0    0  501    0  0.00000000000E+00  0.00000000000E+00 -0.45445122113E+03  0.45445122116E+03  0.50400001928E-02 0. -1.
    10030    2    1    2    0    0  0.00000000000E+00  0.00000000000E+00  0.95409818507E+03  0.18630006274E+04  0.16001462405E+04 0.  0.
        2    1    3    3  502    0  0.79558743932E+03  0.21995059584E+02  0.38193578852E+03  0.88278995396E+03  0.25500000920E-02 0. -1.
       -2    1    3    3    0  502 -0.79558743932E+03 -0.21995059584E+02  0.57216239655E+03  0.98021067342E+03  0.25500000920E-02 0.  1.
</event>
<event>
 5   0  0.7901257E-05  0.1599538E+04  0.7818609E-02  0.8820832E-01
        2   -1    0    0  501    0  0.00000000000E+00  0.00000000000E+00  0.47889573029E+03  0.47889573029E+03  0.25500000920E-02 0.  1.
       -2   -1    0    0    0  501  0.00000000000E+00  0.00000000000E+00 -0.13356365471E+04  0.13356365471E+04  0.25500000920E-02 0. -1.
    10030    2    1    2    0    0  0.00000000000E+00  0.00000000000E+00 -0.85674081677E+03  0.18145322774E+04  0.15995382329E+04 0.  0.
        2    1    3    3  502    0  0.54614335033E+03  0.13273682253E+02 -0.10909881469E+04  0.12201245373E+04  0.25500000920E-02 0. -1.
       -2    1    3    3    0  502 -0.54614335033E+03 -0.13273682253E+02  0.23424733016E+03  0.59440774006E+03  0.25500000920E-02 0.  1.
</event>
<event>
 5   0  0.8620155E-05  0.1617733E+04  0.7818609E-02  0.8809728E-01
        2   -1    0    0  501    0  0.00000000000E+00  0.00000000000E+00  0.48371094429E+03  0.48371094430E+03  0.25500000920E-02 0. -1.
       -2   -1    0    0    0  501  0.00000000000E+00  0.00000000000E+00 -0.13525942569E+04  0.13525942569E+04  0.25500000920E-02 0.  1.
    10030    2    1    2    0    0  0.00000000000E+00  0.00000000000E+00 -0.86888331264E+03  0.18363052012E+04  0.16177325431E+04 0.  0.
        4    1    3    3  502    0 -0.58472329050E+03  0.47625056756E+03 -0.10243958341E+03  0.76105940025E+03  0.12699999809E+01 0. -1.
       -4    1    3    3    0  502  0.58472329050E+03 -0.47625056756E+03 -0.76644372923E+03  0.10752458010E+04  0.12699999809E+01 0.  1.
</event>
<event>
 5   0  0.8037548E-05  0.1601048E+04  0.7818609E-02  0.8819905E-01
        2   -1    0    0  501    0  0.00000000000E+00  0.00000000000E+00  0.11349204987E+04  0.11349204987E+04  0.25500000920E-02 0.  1.
       -2   -1    0    0    0  501  0.00000000000E+00  0.00000000000E+00 -0.56465499491E+03  0.56465499492E+03  0.25500000920E-02 0. -1.
    10030    2    1    2    0    0  0.00000000000E+00  0.00000000000E+00  0.57026550378E+03  0.16995754936E+04  0.16010478174E+04 0.  0.
        5    1    3    3  502    0 -0.63846137234E+03  0.35420314205E+03 -0.63278109064E+02  0.73288402827E+03  0.46999998093E+01 0. -1.
       -5    1    3    3    0  502  0.63846137234E+03 -0.35420314205E+03  0.63354361285E+03  0.96669146535E+03  0.46999998093E+01 0.  1.
</event>
<event>
 5   0  0.4373026E-05  0.1602396E+04  0.7818609E-02  0.8819078E-01
       -1   -1    0    0    0  501  0.00000000000E+00  0.00000000000E+00  0.10930183809E+04  0.10930183809E+04  0.50400001928E-02 0.  1.
        1   -1    0    0  501    0  0.00000000000E+00  0.00000000000E+00 -0.58728937406E+03  0.58728937408E+03  0.50400001928E-02 0. -1.
    10030    2    1    2    0    0  0.00000000000E+00  0.00000000000E+00  0.50572900680E+03  0.16803077549E+04  0.16023958072E+04 0.  0.
        4    1    3    3  502    0  0.96926219822E+02  0.51207649546E+03  0.89097451514E+03  0.10322084231E+04  0.12699999809E+01 0.  1.
       -4    1    3    3    0  502 -0.96926219822E+02 -0.51207649546E+03 -0.38524550834E+03  0.64809933180E+03  0.12699999809E+01 0. -1.
</event>
<event>
 5   0  0.4373026E-05  0.1599645E+04  0.7818609E-02  0.8820766E-01
        1   -1    0    0  501    0  0.00000000000E+00  0.00000000000E+00  0.11486384807E+04  0.11486384807E+04  0.50400001928E-02 0. -1.
       -1   -1    0    0    0  501  0.00000000000E+00  0.00000000000E+00 -0.55693443953E+03  0.55693443956E+03  0.50400001928E-02 0.  1.
    10030    2    1    2    0    0  0.00000000000E+00  0.00000000000E+00  0.59170404116E+03  0.17055729203E+04  0.15996453713E+04 0.  0.
        4    1    3    3  502    0  0.76178998957E+02  0.65392830035E+03  0.78011902651E+03  0.10207902675E+04  0.12699999809E+01 0. -1.
       -4    1    3    3    0  502 -0.76178998957E+02 -0.65392830035E+03 -0.18841498535E+03  0.68478265273E+03  0.12699999809E+01 0.  1.
</event>
<event>
 5   0  0.7901257E-05  0.1597668E+04  0.7818609E-02  0.8821982E-01
       -2   -1    0    0    0  501  0.00000000000E+00  0.00000000000E+00  0.36533056447E+03  0.36533056448E+03  0.25500000920E-02 0.  1.
        2   -1    0    0  501    0  0.00000000000E+00  0.00000000000E+00 -0.17467360301E+04  0.17467360301E+04  0.25500000920E-02 0. -1.
    10030    2    1    2    0    0  0.00000000000E+00  0.00000000000E+00 -0.13814054656E+04  0.21120665945E+04  0.15976683759E+04 0.  0.
        2    1    3    3  502    0  0.47263517076E+03  0.61746988846E+03 -0.93260119007E+03  0.12142479349E+04  0.25500000920E-02 0. -1.
       -2    1    3    3    0  502 -0.47263517076E+03 -0.61746988846E+03 -0.44880427553E+03  0.89781865961E+03  0.25500000920E-02 0.  1.
</event>
<event>
 5   0  0.8694033E-05  0.1600472E+04  0.7818609E-02  0.8820258E-01
       -2   -1    0    0    0  501  0.00000000000E+00  0.00000000000E+00  0.50302660173E+03  0.50302660173E+03  0.25500000920E-02 0. -1.
        2   -1    0    0  501    0  0.00000000000E+00  0.00000000000E+00 -0.12730487557E+04  0.12730487557E+04  0.25500000920E-02 0.  1.
    10030    2    1    2    0    0  0.00000000000E+00  0.00000000000E+00 -0.77002215400E+03  0.17760753575E+04  0.16004716673E+04 0.  0.
        1    1    3    3  502    0  0.53977662959E+03  0.41527479504E+03 -0.85131195080E+03  0.10902036520E+04  0.50400001928E-02 0.  1.
       -1    1    3    3    0  502 -0.53977662959E+03 -0.41527479504E+03  0.81289796800E+02  0.68587170545E+03  0.50400001928E-02 0. -1.
</event>
<event>
 5   0  0.8694033E-05  0.1602059E+04  0.7818609E-02  0.8819284E-01
        2   -1    0    0  501    0  0.00000000000E+00  0.00000000000E+00  0.73038583630E+03  0.73038583630E+03  0.25500000920E-02 0. -1.
       -2   -1    0    0    0  501  0.00000000000E+00  0.00000000000E+00 -0.87850594676E+03  0.87850594676E+03  0.25500000920E-02 0.  1.
    10030    2    1    2    0    0  0.00000000000E+00  0.00000000000E+00 -0.14812011046E+03  0.16088917831E+04  0.16020590509E+04 0.  0.
        1    1    3    3  502    0  0.45503366664E+03 -0.61194167673E+03 -0.32029969654E+03  0.82711555972E+03  0.50400001928E-02 0.  1.
       -1    1    3    3    0  502 -0.45503366664E+03  0.61194167673E+03  0.17217958608E+03  0.78177622334E+03  0.50400001928E-02 0. -1.
</event>
<event>
 5   0  0.4211419E-05  0.1601948E+04  0.7818609E-02  0.8819352E-01
        1   -1    0    0  501    0  0.00000000000E+00  0.00000000000E+00  0.10170217000E+04  0.10170217001E+04  0.50400001928E-02 0.  1.
       -1   -1    0    0    0  501  0.00000000000E+00  0.00000000000E+00 -0.63082134192E+03  0.63082134194E+03  0.50400001928E-02 0. -1.
    10030    2    1    2    0    0  0.00000000000E+00  0.00000000000E+00  0.38620035813E+03  0.16478430420E+04  0.16019475567E+04 0.  0.
        2    1    3    3  502    0  0.37784886334E+03  0.59197981240E+03  0.58929614807E+03  0.91677686050E+03  0.25500000920E-02 0. -1.
       -2    1    3    3    0  502 -0.37784886334E+03 -0.59197981240E+03 -0.20309578994E+03  0.73106618149E+03  0.25500000920E-02 0.  1.
</event>
<event>
 5   0  0.8037548E-05  0.1600997E+04  0.7818609E-02  0.8819936E-01
        2   -1    0    0  501    0  0.00000000000E+00  0.00000000000E+00  0.15383837814E+04  0.15383837814E+04  0.25500000920E-02 0. -1.
       -2   -1    0    0    0  501  0.00000000000E+00  0.00000000000E+00 -0.41653943548E+03  0.41653943549E+03  0.25500000920E-02 0.  1.
    10030    2    1    2    0    0  0.00000000000E+00  0.00000000000E+00  0.11218443459E+04  0.19549232169E+04  0.16009965795E+04 0.  0.
        5    1    3    3  502    0  0.59510339143E+02  0.85327441362E+02 -0.40823325594E+03  0.42130598615E+03  0.46999998093E+01 0.  1.
       -5    1    3    3    0  502 -0.59510339143E+02 -0.85327441362E+02  0.15300776018E+04  0.15336172307E+04  0.46999998093E+01 0. -1.
</event>
<event>
 5   0  0.4373026E-05  0.1600714E+04  0.7818609E-02  0.8820110E-01
        1   -1    0    0  501    0  0.00000000000E+00  0.00000000000E+00  0.22789405133E+04  0.22789405133E+04  0.50400001928E-02 0. -1.
       -1   -1    0    0    0  501  0.00000000000E+00  0.00000000000E+00 -0.28108284567E+03  0.28108284572E+03  0.50400001928E-02 0.  1.
    10030    2    1    2    0    0  0.00000000000E+00  0.00000000000E+00  0.19978576677E+04  0.25600233591E+04  0.16007136967E+04 0.  0.
        4    1    3    3  502    0  0.32020182131E+03  0.67184728074E+02 -0.16924710222E+03  0.36836013433E+03  0.12699999809E+01 0.  1.
       -4    1    3    3    0  502 -0.32020182131E+03 -0.67184728074E+02  0.21671047699E+04  0.21916632247E+04  0.12699999809E+01 0. -1.
</event>
<event>
 5   0  0.4504463E-05  0.1600701E+04  0.7818609E-02  0.8820118E-01
        1   -1    0    0  501    0  0.00000000000E+00  0.00000000000E+00  0.87161243288E+03  0.87161243290E+03  0.50400001928E-02 0.  1.
       -1   -1    0    0    0  501  0.00000000000E+00  0.00000000000E+00 -0.73491470223E+03  0.73491470225E+03  0.50400001928E-02 0. -1.
    10030    2    1    2    0    0  0.00000000000E+00  0.00000000000E+00  0.13669773065E+03  0.16065271351E+04  0.16007008360E+04 0.  0.
        1    1    3    3  502    0  0.71721291290E+03 -0.54944697960E+01 -0.28810049037E+03  0.77293366093E+03  0.50400001928E-02 0. -1.
       -1    1    3    3    0  502 -0.71721291290E+03  0.54944697960E+01  0.42479822102E+03  0.83359347421E+03  0.50400001928E-02 0.  1.
</event>
<event>
 5   0  0.4504463E-05  0.1598680E+04  0.7818609E-02  0.8821359E-01
        1   -1    0    0  501    0  0.00000000000E+00  0.00000000000E+00  0.13251307133E+04  0.13251307133E+04  0.50400001928E-02 0.  1.
       -1   -1    0    0    0  501  0.00000000000E+00  0.00000000000E+00 -0.48217464835E+03  0.48217464838E+03  0.50400001928E-02 0. -1.
    10030    2    1    2    0    0  0.00000000000E+00  0.00000000000E+00  0.84295606495E+03  0.18073053617E+04  0.15986800002E+04 0.  0.
        1    1    3    3  502    0 -0.12303301778E+03  0.72771884554E+03  0.74445197135E+02  0.74179102786E+03  0.50400001928E-02 0. -1.
       -1    1    3    3    0  502  0.12303301778E+03 -0.72771884554E+03  0.76851086781E+03  0.10655143338E+04  0.50400001928E-02 0.  1.
</event>
<event>
 5   0  0.4211419E-05  0.1600784E+04  0.7818609E-02  0.8820067E-01
        1   -1    0    0  501    0  0.00000000000E+00  0.00000000000E+00  0.12463811799E+04  0.12463811799E+04  0.50400001928E-02 0. -1.
       -1   -1    0    0    0  501  0.00000000000E+00  0.00000000000E+00 -0.51398990708E+03  0.51398990711E+03  0.50400001928E-02 0.  1.
    10030    2    1    2    0    0  0.00000000000E+00  0.00000000000E+00  0.73239127277E+03  0.17603710870E+04  0.16007839915E+04 0.  0.
        2    1    3    3  502    0 -0.64860627143E+03  0.46879353021E+03  0.38052871492E+03  0.88614873029E+03  0.25500000920E-02 0. -1.
       -2    1    3    3    0  502  0.64860627143E+03 -0.46879353021E+03  0.35186255786E+03  0.87422235669E+03  0.25500000920E-02 0.  1.
</event>
<event>
 5   0  0.4504463E-05  0.1599720E+04  0.7818609E-02  0.8820720E-01
       -1   -1    0    0    0  501  0.00000000000E+00  0.00000000000E+00  0.11956631771E+04  0.11956631771E+04  0.50400001928E-02 0.  1.
        1   -1    0    0  501    0  0.00000000000E+00  0.00000000000E+00 -0.53508062188E+03  0.53508062190E+03  0.50400001928E-02 0. -1.
    10030    2    1    2    0    0  0.00000000000E+00  0.00000000000E+00  0.66058255518E+03  0.17307437990E+04  0.15997202210E+04 0.  0.
        1    1    3    3  502    0 -0.11408237142E+03  0.38814758967E+02  0.11857858827E+04  0.11918932555E+04  0.50400001928E-02 0.  1.
       -1    1    3    3    0  502  0.11408237142E+03 -0.38814758967E+02 -0.52520332747E+03  0.53885054347E+03  0.50400001928E-02 0. -1.
</event>
<event>
 5   0  0.7849690E-05  0.1600074E+04  0.7818609E-02  0.8820502E-01
       -2   -1    0    0    0  501  0.00000000000E+00  0.00000000000E+00  0.13633708895E+04  0.13633708895E+04  0.25500000920E-02 0.  1.
        2   -1    0    0  501    0  0.00000000000E+00  0.00000000000E+00 -0.46946832809E+03  0.46946832809E+03  0.25500000920E-02 0. -1.
    10030    2    1    2    0    0  0.00000000000E+00  0.00000000000E+00  0.89390256141E+03  0.18328392176E+04  0.16000743134E+04 0.  0.
        3    1    3    3  502    0 -0.72495706872E+03 -0.30205297912E+03  0.62165232270E+03  0.10016238686E+04  0.10100000352E+00 0.  1.
       -3    1    3    3    0  502  0.72495706872E+03  0.30205297912E+03  0.27225023871E+03  0.83121534897E+03  0.10100000352E+00 0. -1.
</event>
<event>
 5   0  0.4256406E-05  0.1602123E+04  0.7818609E-02  0.8819245E-01
       -1   -1    0    0    0  501  0.00000000000E+00  0.00000000000E+00  0.82484326056E+03  0.82484326058E+03  0.50400001928E-02 0. -1.
        1   -1    0    0  501    0  0.00000000000E+00  0.00000000000E+00 -0.77796516757E+03  0.77796516759E+03  0.50400001928E-02 0.  1.
    10030    2    1    2    0    0  0.00000000000E+00  0.00000000000E+00  0.46878092991E+02  0.16028084282E+04  0.16021227487E+04 0.  0.
        3    1    3    3  502    0  0.26140684001E+03  0.20818128846E+03 -0.70490160923E+03  0.78010209189E+03  0.10100000352E+00 0.  1.
       -3    1    3    3    0  502 -0.26140684001E+03 -0.20818128846E+03  0.75177970222E+03  0.82270633627E+03  0.10100000352E+00 0. -1.
</event>
<event>
 5   0  0.8620155E-05  0.1600004E+04  0.7818609E-02  0.8820546E-01
       -2   -1    0    0    0  501  0.00000000000E+00  0.00000000000E+00  0.72923493430E+03  0.72923493431E+03  0.25500000920E-02 0.  1.
        2   -1    0    0  501    0  0.00000000000E+00  0.00000000000E+00 -0.87763636210E+03  0.87763636211E+03  0.25500000920E-02 0. -1.
    10030    2    1    2    0    0  0.00000000000E+00  0.00000000000E+00 -0.14840142780E+03  0.16068712964E+04  0.16000038686E+04 0.  0.
        4    1    3    3  502    0  0.36513628130E+02 -0.66820479064E+03  0.36605350592E+03  0.76277629051E+03  0.12699999809E+01 0.  1.
       -4    1    3    3    0  502 -0.36513628130E+02  0.66820479064E+03 -0.51445493372E+03  0.84409500591E+03  0.12699999809E+01 0. -1.
</event>
<event>
 5   0  0.7849690E-05  0.1598022E+04  0.7818609E-02  0.8821764E-01
       -2   -1    0    0    0  501  0.00000000000E+00  0.00000000000E+00  0.62677980306E+03  0.62677980307E+03  0.25500000920E-02 0. -1.
        2   -1    0    0  501    0  0.00000000000E+00  0.00000000000E+00 -0.10185688703E+04  0.10185688703E+04  0.25500000920E-02 0.  1.
    10030    2    1    2    0    0  0.00000000000E+00  0.00000000000E+00 -0.39178906721E+03  0.16453486733E+04  0.15980217720E+04 0.  0.
        3    1    3    3  502    0  0.24509466048E+03  0.24275572698E+03  0.54615549625E+03  0.64597799642E+03  0.10100000352E+00 0. -1.
       -3    1    3    3    0  502 -0.24509466048E+03 -0.24275572698E+03 -0.93794456346E+03  0.99937067693E+03  0.10100000352E+00 0.  1.
</event>
<event>
 5   0  0.7901257E-05  0.1600351E+04  0.7818609E-02  0.8820333E-01
        2   -1    0    0  501    0  0.00000000000E+00  0.00000000000E+00  0.86889225796E+03  0.86889225796E+03  0.25500000920E-02 0. -1.
       -2   -1    0    0    0  501  0.00000000000E+00  0.00000000000E+00 -0.73689304182E+03  0.73689304183E+03  0.25500000920E-02 0.  1.
    10030    2    1    2    0    0  0.00000000000E+00  0.00000000000E+00  0.13199921613E+03  0.16057852998E+04  0.16003507853E+04 0.  0.
        2    1    3    3  502    0 -0.55104127961E+03  0.72176297424E+02 -0.51165036672E+03  0.75540850374E+03  0.25500000920E-02 0.  1.
       -2    1    3    3    0  502  0.55104127961E+03 -0.72176297424E+02  0.64364958285E+03  0.85037679605E+03  0.25500000920E-02 0. -1.
</event>
<event>
 5   0  0.4314657E-05  0.1598845E+04  0.7818609E-02  0.8821258E-01
        1   -1    0    0  501    0  0.00000000000E+00  0.00000000000E+00  0.85744436411E+03  0.85744436413E+03  0.50400001928E-02 0.  1.
       -1   -1    0    0    0  501  0.00000000000E+00  0.00000000000E+00 -0.74532669184E+03  0.74532669186E+03  0.50400001928E-02 0. -1.
    10030    2    1    2    0    0  0.00000000000E+00  0.00000000000E+00  0.11211767227E+03  0.16027710560E+04  0.15988447972E+04 0.  0.
        5    1    3    3  502    0 -0.42653463787E+03  0.28185121926E+03  0.67212651794E+03  0.84448093715E+03  0.46999998093E+01 0.  1.
       -5    1    3    3    0  502  0.42653463787E+03 -0.28185121926E+03 -0.56000884567E+03  0.75829011883E+03  0.46999998093E+01 0. -1.
</event>
<event>
 5   0  0.4504463E-05  0.1603780E+04  0.7818609E-02  0.8818229E-01
        1   -1    0    0  501    0  0.00000000000E+00  0.00000000000E+00  0.59552380298E+03  0.59552380300E+03  0.50400001928E-02 0. -1.
       -1   -1    0    0    0  501  0.00000000000E+00  0.00000000000E+00 -0.10797674786E+04  0.10797674786E+04  0.50400001928E-02 0.  1.
    10030    2    1    2    0    0  0.00000000000E+00  0.00000000000E+00 -0.48424367561E+03  0.16752912816E+04  0.16037795799E+04 0.  0.
        1    1    3    3  502    0 -0.73252241033E+03  0.32009926250E+03 -0.30797751510E+03  0.85668125304E+03  0.50400001928E-02 0.  1.
       -1    1    3    3    0  502  0.73252241033E+03 -0.32009926250E+03 -0.17626616051E+03  0.81861002856E+03  0.50400001928E-02 0. -1.
</event>
<event>
 5   0  0.8620155E-05  0.1598691E+04  0.7818609E-02  0.8821352E-01
        2   -1    0    0  501    0  0.00000000000E+00  0.00000000000E+00  0.11916728936E+04  0.11916728936E+04  0.25500000920E-02 0. -1.
       -2   -1    0    0    0  501  0.00000000000E+00  0.00000000000E+00 -0.53618199063E+03  0.53618199064E+03  0.25500000920E-02 0.  1.
    10030    2    1    2    0    0  0.00000000000E+00  0.00000000000E+00  0.65549090292E+03  0.17278548842E+04  0.15986913952E+04 0.  0.
        4    1    3    3  502    0  0.22421654169E+03 -0.32750159508E+03 -0.42215808908E+03  0.57943888152E+03  0.12699999809E+01 0.  1.
       -4    1    3    3    0  502 -0.22421654169E+03  0.32750159508E+03  0.10776489920E+04  0.11484160027E+04  0.12699999809E+01 0. -1.
</event>
<event>
 5   0  0.8620155E-05  0.1598883E+04  0.7818609E-02  0.8821235E-01
       -2   -1    0    0    0  501  0.00000000000E+00  0.00000000000E+00  0.60855292597E+03  0.60855292598E+03  0.25500000920E-02 0.  1.
        2   -1    0    0  501    0  0.00000000000E+00  0.00000000000E+00 -0.10502069951E+04  0.10502069951E+04  0.25500000920E-02 0. -1.
    10030    2    1    2    0    0  0.00000000000E+00  0.00000000000E+00 -0.44165406917E+03  0.16587599211E+04  0.15988827847E+04 0.  0.
        4    1    3    3  502    0  0.55022923573E+03  0.42684096666E+03  0.18650827611E+03  0.72092466502E+03  0.12699999809E+01 0. -1.
       -4    1    3    3    0  502 -0.55022923573E+03 -0.42684096666E+03 -0.62816234528E+03  0.93783525610E+03  0.12699999809E+01 0.  1.
</event>
<event>
 5   0  0.8037548E-05  0.1603530E+04  0.7818609E-02  0.8818383E-01
        2   -1    0    0  501    0  0.00000000000E+00  0.00000000000E+00  0.13887793479E+04  0.13887793479E+04  0.25500000920E-02 0. -1.
       -2   -1    0    0    0  501  0.00000000000E+00  0.00000000000E+00 -0.46287186417E+03  0.46287186418E+03  0.25500000920E-02 0.  1.
    10030    2    1    2    0    0  0.00000000000E+00  0.00000000000E+00  0.92590748374E+03  0.18516512121E+04  0.16035297137E+04 0.  0.
        5    1    3    3  502    0 -0.48653056801E+03  0.58556583225E+03  0.75326204940E+03  0.10709925969E+04  0.46999998093E+01 0.  1.
       -5    1    3    3    0  502  0.48653056801E+03 -0.58556583225E+03  0.17264543434E+03  0.78065861521E+03  0.46999998093E+01 0. -1.
</event>
<event>
 5   0  0.7849690E-05  0.1600568E+04  0.7818609E-02  0.8820199E-01
       -2   -1    0    0    0  501  0.00000000000E+00  0.00000000000E+00  0.15880328218E+04  0.15880328218E+04  0.25500000920E-02 0.  1.
        2   -1    0    0  501    0  0.00000000000E+00  0.00000000000E+00 -0.40330030491E+03  0.40330030492E+03  0.25500000920E-02 0. -1.
    10030    2    1    2    0    0  0.00000000000E+00  0.00000000000E+00  0.11847325169E+04  0.19913331267E+04  0.16005675509E+04 0.  0.
        3    1    3    3  502    0  0.49049711399E+03  0.17098078993E+03 -0.16506202874E+03  0.54503883614E+03  0.10100000352E+00 0. -1.
       -3    1    3    3    0  502 -0.49049711399E+03 -0.17098078993E+03  0.13497945456E+04  0.14462942906E+04  0.10100000352E+00 0.  1.
</event>
<event>
 5   0  0.8620155E-05  0.1603121E+04  0.7818609E-02  0.8818633E-01
       -2   -1    0    0    0  501  0.00000000000E+00  0.00000000000E+00  0.75527208115E+03  0.75527208116E+03  0.25500000920E-02 0.  1.
        2   -1    0    0  501    0  0.00000000000E+00  0.00000000000E+00 -0.85068594822E+03  0.85068594823E+03  0.25500000920E-02 0. -1.
    10030    2    1    2    0    0  0.00000000000E+00  0.00000000000E+00 -0.95413867068E+02  0.16059580294E+04  0.16031211389E+04 0.  0.
        4    1    3    3  502    0  0.12008606402E+03  0.55592304411E+03 -0.61353088221E+03  0.83659598975E+03  0.12699999809E+01 0. -1.
       -4    1    3    3    0  502 -0.12008606402E+03 -0.55592304411E+03  0.51811701514E+03  0.76936203963E+03  0.12699999809E+01 0.  1.
</event>
<event>
 5   0  0.4314657E-05  0.1601395E+04  0.7818609E-02  0.8819691E-01
       -1   -1    0    0    0  501  0.00000000000E+00  0.00000000000E+00  0.65503599920E+03  0.65503599922E+03  0.50400001928E-02 0.  1.
        1   -1    0    0  501    0  0.00000000000E+00  0.00000000000E+00 -0.97874994951E+03  0.97874994952E+03  0.50400001928E-02 0. -1.
    10030    2    1    2    0    0  0.00000000000E+00  0.00000000000E+00 -0.32371395031E+03  0.16337859487E+04  0.16013949559E+04 0.  0.
        5    1    3    3  502    0  0.42035565680E+02  0.78675387276E+02  0.64993683973E+03  0.65604633295E+03  0.46999998093E+01 0.  1.
       -5    1    3    3    0  502 -0.42035565680E+02 -0.78675387276E+02 -0.97365079004E+03  0.97773961579E+03  0.46999998093E+01 0. -1.
</event>
<event>
 5   0  0.4211419E-05  0.1599267E+04  0.7818609E-02  0.8820999E-01
       -1   -1    0    0    0  501  0.00000000000E+00  0.00000000000E+00  0.10210669163E+04  0.10210669163E+04  0.50400001928E-02 0.  1.
        1   -1    0    0  501    0  0.00000000000E+00  0.00000000000E+00 -0.62622111020E+03  0.62622111022E+03  0.50400001928E-02 0. -1.
    10030    2    1    2    0    0  0.00000000000E+00  0.00000000000E+00  0.39484580613E+03  0.16472880266E+04  0.15992669045E+04 0.  0.
        2    1    3    3  502    0  0.65517907244E+03 -0.40424764099E+03  0.42010388260E+03  0.87701940936E+03  0.25500000920E-02 0.  1.
       -2    1    3    3    0  502 -0.65517907244E+03  0.40424764099E+03 -0.25258076467E+02  0.77026861720E+03  0.25500000920E-02 0. -1.
</event>
<event>
 5   0  0.8620155E-05  0.1600837E+04  0.7818609E-02  0.8820034E-01
        2   -1    0    0  501    0  0.00000000000E+00  0.00000000000E+00  0.15656268744E+04  0.15656268744E+04  0.25500000920E-02 0. -1.
       -2   -1    0    0    0  501  0.00000000000E+00  0.00000000000E+00 -0.40920970354E+03  0.40920970355E+03  0.25500000920E-02 0.  1.
    10030    2    1    2    0    0  0.00000000000E+00  0.00000000000E+00  0.11564171708E+04  0.19748365779E+04  0.16008369175E+04 0.  0.
        4    1    3    3  502    0 -0.50286523698E+03  0.36487730075E+03 -0.44326396997E+02  0.62287665997E+03  0.12699999809E+01 0. -1.
       -4    1    3    3    0  502  0.50286523698E+03 -0.36487730075E+03  0.12007435678E+04  0.13519599179E+04  0.12699999809E+01 0.  1.
</event>
<event>
 5   0  0.7849690E-05  0.1598193E+04  0.7818609E-02  0.8821659E-01
        2   -1    0    0  501    0  0.00000000000E+00  0.00000000000E+00  0.50591399636E+03  0.50591399637E+03  0.25500000920E-02 0. -1.
       -2   -1    0    0    0  501  0.00000000000E+00  0.00000000000E+00 -0.12621816017E+04  0.12621816017E+04  0.25500000920E-02 0.  1.
    10030    2    1    2    0    0  0.00000000000E+00  0.00000000000E+00 -0.75626760529E+03  0.17680955980E+04  0.15981931526E+04 0.  0.
        3    1    3    3  502    0  0.60656503909E+03  0.48767132205E+03 -0.57852807495E+03  0.96976244962E+03  0.10100000352E+00 0.  1.
       -3    1    3    3    0  502 -0.60656503909E+03 -0.48767132205E+03 -0.17773953035E+03  0.79833314841E+03  0.10100000352E+00 0. -1.
</event>
<event>
 5   0  0.3042125E-05  0.1597069E+04  0.7818609E-02  0.8822351E-01
        3   -1    0    0  501    0  0.00000000000E+00  0.00000000000E+00  0.94285437572E+03  0.94285438113E+03  0.10100000352E+00 0.  1.
       -3   -1    0    0    0  501  0.00000000000E+00  0.00000000000E+00 -0.67630513964E+03  0.67630514718E+03  0.10100000352E+00 0. -1.
    10030    2    1    2    0    0  0.00000000000E+00  0.00000000000E+00  0.26654923608E+03  0.16191595283E+04  0.15970689036E+04 0.  0.
        4    1    3    3  502    0  0.64684224155E+03 -0.37214507544E+03  0.42138635824E+03  0.85700928726E+03  0.12699999809E+01 0.  1.
       -4    1    3    3    0  502 -0.64684224155E+03  0.37214507544E+03 -0.15483712216E+03  0.76215024105E+03  0.12699999809E+01 0. -1.
</event>
<event>
 5   0  0.7901257E-05  0.1613317E+04  0.7818609E-02  0.8812409E-01
        2   -1    0    0  501    0  0.00000000000E+00  0.00000000000E+00  0.11056659077E+04  0.11056659077E+04  0.25500000920E-02 0. -1.
       -2   -1    0    0    0  501  0.00000000000E+00  0.00000000000E+00 -0.58851208812E+03  0.58851208813E+03  0.25500000920E-02 0.  1.
    10030    2    1    2    0    0  0.00000000000E+00  0.00000000000E+00  0.51715381959E+03  0.16941779958E+04  0.16133167725E+04 0.  0.
        2    1    3    3  502    0  0.27232082543E+03 -0.74017594292E+03  0.80741159963E+02  0.79280400690E+03  0.25500000920E-02 0. -1.
       -2    1    3    3    0  502 -0.27232082543E+03  0.74017594292E+03  0.43641265963E+03  0.90137398894E+03  0.25500000920E-02 0.  1.
</event>
<event>
 5   0  0.8620155E-05  0.1596738E+04  0.7818609E-02  0.8822554E-01
        2   -1    0    0  501    0  0.00000000000E+00  0.00000000000E+00  0.76518696001E+03  0.76518696001E+03  0.25500000920E-02 0.  1.
       -2   -1    0    0    0  501  0.00000000000E+00  0.00000000000E+00 -0.83299028475E+03  0.83299028476E+03  0.25500000920E-02 0. -1.
    10030    2    1    2    0    0  0.00000000000E+00  0.00000000000E+00 -0.67803324745E+02  0.15981772448E+04  0.15967383051E+04 0.  0.
        4    1    3    3  502    0 -0.18293629176E+02 -0.58545988222E+03 -0.57687902771E+03  0.82212465969E+03  0.12699999809E+01 0. -1.
       -4    1    3    3    0  502  0.18293629176E+02  0.58545988222E+03  0.50907570297E+03  0.77605258508E+03  0.12699999809E+01 0.  1.
</event>
<event>
 5   0  0.4504463E-05  0.1599467E+04  0.7818609E-02  0.8820876E-01
        1   -1    0    0  501    0  0.00000000000E+00  0.00000000000E+00  0.10214544122E+04  0.10214544122E+04  0.50400001928E-02 0. -1.
       -1   -1    0    0    0  501  0.00000000000E+00  0.00000000000E+00 -0.62614019949E+03  0.62614019951E+03  0.50400001928E-02 0.  1.
    10030    2    1    2    0    0  0.00000000000E+00  0.00000000000E+00  0.39531421270E+03  0.16475946117E+04  0.15994669980E+04 0.  0.
        1    1    3    3  502    0  0.47652595728E+03 -0.14263126196E+02  0.85907842505E+03  0.98249486775E+03  0.50400001928E-02 0. -1.
       -1    1    3    3    0  502 -0.47652595728E+03  0.14263126196E+02 -0.46376421235E+03  0.66509974396E+03  0.50400001928E-02 0.  1.
</event>
<event>
 5   0  0.7901257E-05  0.1597260E+04  0.7818609E-02  0.8822233E-01
       -2   -1    0    0    0  501  0.00000000000E+00  0.00000000000E+00  0.56622771148E+03  0.56622771149E+03  0.25500000920E-02 0. -1.
        2   -1    0    0  501    0  0.00000000000E+00  0.00000000000E+00 -0.11264194593E+04  0.11264194593E+04  0.25500000920E-02 0.  1.
    10030    2    1    2    0    0  0.00000000000E+00  0.00000000000E+00 -0.56019174779E+03  0.16926471708E+04  0.15972600447E+04 0.  0.
        2    1    3    3  502    0 -0.63319913868E+03  0.21281098499E+03 -0.74393371569E+03  0.99983350510E+03  0.25500000920E-02 0.  1.
       -2    1    3    3    0  502  0.63319913868E+03 -0.21281098499E+03  0.18374196790E+03  0.69281366567E+03  0.25500000920E-02 0. -1.
</event>
<event>
 5   0  0.4314657E-05  0.1594862E+04  0.7818609E-02  0.8823711E-01
        1   -1    0    0  501    0  0.00000000000E+00  0.00000000000E+00  0.15557623391E+04  0.15557623391E+04  0.50400001928E-02 0.  1.
       -1   -1    0    0    0  501  0.00000000000E+00  0.00000000000E+00 -0.40873608554E+03  0.40873608557E+03  0.50400001928E-02 0. -1.
    10030    2    1    2    0    0  0.00000000000E+00  0.00000000000E+00  0.11470262535E+04  0.19644984246E+04  0.15948620110E+04 0.  0.
        5    1    3    3  502    0  0.45482822921E+03 -0.57322595385E+03  0.96384415108E+03  0.12101546801E+04  0.46999998093E+01 0.  1.
       -5    1    3    3    0  502 -0.45482822921E+03  0.57322595385E+03  0.18318210245E+03  0.75434374453E+03  0.46999998093E+01 0. -1.
</event>
<event>
 5   0  0.4256406E-05  0.1595844E+04  0.7818609E-02  0.8823106E-01
       -1   -1    0    0    0  501  0.00000000000E+00  0.00000000000E+00  0.69103857948E+03  0.69103857949E+03  0.50400001928E-02 0. -1.
        1   -1    0    0  501    0  0.00000000000E+00  0.00000000000E+00 -0.92133660150E+03  0.92133660151E+03  0.50400001928E-02 0.  1.
    10030    2    1    2    0    0  0.00000000000E+00  0.00000000000E+00 -0.23029802202E+03  0.16123751810E+04  0.15958435216E+04 0.  0.
        3    1    3    3  502    0 -0.72220013685E+03  0.23685615540E+03 -0.36057532648E+03  0.84124220786E+03  0.10100000352E+00 0.  1.
       -3    1    3    3    0  502  0.72220013685E+03 -0.23685615540E+03  0.13027730446E+03  0.77113297315E+03  0.10100000352E+00 0. -1.
</event>
<event>
 5   0  0.8037548E-05  0.1599706E+04  0.7818609E-02  0.8820729E-01
       -2   -1    0    0    0  501  0.00000000000E+00  0.00000000000E+00  0.37284707128E+03  0.37284707129E+03  0.25500000920E-02 0.  1.
        2   -1    0    0  501    0  0.00000000000E+00  0.00000000000E+00 -0.17158896842E+04  0.17158896842E+04  0.25500000920E-02 0. -1.
    10030    2    1    2    0    0  0.00000000000E+00  0.00000000000E+00 -0.13430426129E+04  0.20887367555E+04  0.15997055272E+04 0.  0.
        5    1    3    3  502    0  0.16239382593E+03  0.69391990691E+03 -0.11456287242E+04  0.13492160152E+04  0.46999998093E+01 0. -1.
       -5    1    3    3    0  502 -0.16239382593E+03 -0.69391990691E+03 -0.19741388874E+03  0.73952074032E+03  0.46999998093E+01 0.  1.
</event>
<event>
 5   0  0.4314657E-05  0.1607398E+04  0.7818609E-02  0.8816016E-01
       -1   -1    0    0    0  501  0.00000000000E+00  0.00000000000E+00  0.10944618284E+04  0.10944618284E+04  0.50400001928E-02 0. -1.
        1   -1    0    0  501    0  0.00000000000E+00  0.00000000000E+00 -0.59018260510E+03  0.59018260512E+03  0.50400001928E-02 0.  1.
    10030    2    1    2    0    0  0.00000000000E+00  0.00000000000E+00  0.50427922328E+03  0.16846444335E+04  0.16073983117E+04 0.  0.
        5    1    3    3  502    0 -0.14644494502E+03  0.13934102762E+03  0.10673688171E+04  0.10863518424E+04  0.46999998093E+01 0. -1.
       -5    1    3    3    0  502  0.14644494502E+03 -0.13934102762E+03 -0.56308959379E+03  0.59829259107E+03  0.46999998093E+01 0.  1.
</event>
<event>
 5   0  0.7849690E-05  0.1604934E+04  0.7818609E-02  0.8817523E-01
       -2   -1    0    0    0  501  0.00000000000E+00  0.00000000000E+00  0.41490955603E+03  0.41490955604E+03  0.25500000920E-02 0.  1.
        2   -1    0    0  501    0  0.00000000000E+00  0.00000000000E+00 -0.15520327022E+04  0.15520327022E+04  0.25500000920E-02 0. -1.
    10030    2    1    2    0    0  0.00000000000E+00  0.00000000000E+00 -0.11371231461E+04  0.19669422582E+04  0.16049338920E+04 0.  0.
        3    1    3    3  502    0  0.35591069160E+03  0.59974356392E+03 -0.82046139311E+02  0.70220818995E+03  0.10100000352E+00 0.  1.
       -3    1    3    3    0  502 -0.35591069160E+03 -0.59974356392E+03 -0.10550770068E+04  0.12647340682E+04  0.10100000352E+00 0. -1.
</event>
<event>
 5   0  0.4504463E-05  0.1600653E+04  0.7818609E-02  0.8820147E-01
        1   -1    0    0  501    0  0.00000000000E+00  0.00000000000E+00  0.34852822132E+03  0.34852822135E+03  0.50400001928E-02 0.  1.
       -1   -1    0    0    0  501  0.00000000000E+00  0.00000000000E+00 -0.18377932050E+04  0.18377932050E+04  0.50400001928E-02 0. -1.
    10030    2    1    2    0    0  0.00000000000E+00  0.00000000000E+00 -0.14892649836E+04  0.21863214263E+04  0.16006533627E+04 0.  0.
        1    1    3    3  502    0 -0.30691049380E+03  0.36818849645E+03  0.13078244351E+03  0.49685095118E+03  0.50400001928E-02 0.  1.
       -1    1    3    3    0  502  0.30691049380E+03 -0.36818849645E+03 -0.16200474271E+04  0.16894704751E+04  0.50400001928E-02 0. -1.
</event>
<event>
 5   0  0.4314657E-05  0.1601070E+04  0.7818609E-02  0.8819891E-01
        1   -1    0    0  501    0  0.00000000000E+00  0.00000000000E+00  0.82131502745E+03  0.82131502746E+03  0.50400001928E-02 0.  1.
       -1   -1    0    0    0  501  0.00000000000E+00  0.00000000000E+00 -0.78028118568E+03  0.78028118570E+03  0.50400001928E-02 0. -1.
    10030    2    1    2    0    0  0.00000000000E+00  0.00000000000E+00  0.41033841768E+02  0.16015962132E+04  0.16010704712E+04 0.  0.
        5    1    3    3  502    0 -0.29190141758E+03 -0.66429901649E+02  0.76319940180E+03  0.81982607078E+03  0.46999998093E+01 0.  1.
       -5    1    3    3    0  502  0.29190141758E+03  0.66429901649E+02 -0.72216556004E+03  0.78177014238E+03  0.46999998093E+01 0. -1.
</event>
<event>
 5   0  0.7849690E-05  0.1592106E+04  0.7818609E-02  0.8825413E-01
       -2   -1    0    0    0  501  0.00000000000E+00  0.00000000000E+00  0.62181958449E+03  0.62181958449E+03  0.25500000920E-02 0.  1.
        2   -1    0    0  501    0  0.00000000000E+00  0.00000000000E+00 -0.10191059014E+04  0.10191059014E+04  0.25500000920E-02 0. -1.
    10030    2    1    2    0    0  0.00000000000E+00  0.00000000000E+00 -0.39728631687E+03  0.16409254858E+04  0.15921055344E+04 0.  0.
        3    1    3    3  502    0  0.25433475645E+03  0.49194746437E+03 -0.78801840965E+03  0.96315704856E+03  0.10100000352E+00 0. -1.
       -3    1    3    3    0  502 -0.25433475645E+03 -0.49194746437E+03  0.39073209279E+03  0.67776843728E+03  0.10100000352E+00 0.  1.
</event>
<event>
 5   0  0.8037548E-05  0.1595993E+04  0.7818609E-02  0.8823013E-01
       -2   -1    0    0    0  501  0.00000000000E+00  0.00000000000E+00  0.50292203091E+03  0.50292203091E+03  0.25500000920E-02 0.  1.
        2   -1    0    0  501    0  0.00000000000E+00  0.00000000000E+00 -0.12661971688E+04  0.12661971688E+04  0.25500000920E-02 0. -1.
    10030    2    1    2    0    0  0.00000000000E+00  0.00000000000E+00 -0.76327513793E+03  0.17691191998E+04  0.15959930472E+04 0.  0.
        5    1    3    3  502    0  0.58844061275E+02  0.29061123550E+03 -0.12028517410E+04  0.12388671901E+04  0.46999998093E+01 0. -1.
       -5    1    3    3    0  502 -0.58844061275E+02 -0.29061123550E+03  0.43957660312E+03  0.53025200966E+03  0.46999998093E+01 0.  1.
</event>
<event>
 5   0  0.8037548E-05  0.1603255E+04  0.7818609E-02  0.8818551E-01
        2   -1    0    0  501    0  0.00000000000E+00  0.00000000000E+00  0.79110613612E+03  0.79110613613E+03  0.25500000920E-02 0.  1.
       -2   -1    0    0    0  501  0.00000000000E+00  0.00000000000E+00 -0.81228894225E+03  0.81228894225E+03  0.25500000920E-02 0. -1.
    10030    2    1    2    0    0  0.00000000000E+00  0.00000000000E+00 -0.21182806124E+02  0.16033950784E+04  0.16032551469E+04 0.  0.
        5    1    3    3  502    0  0.62637614095E+03 -0.39563838167E+02  0.48812266252E+03  0.79510891764E+03  0.46999998093E+01 0.  1.
       -5    1    3    3    0  502 -0.62637614095E+03  0.39563838167E+02 -0.50930546864E+03  0.80828616074E+03  0.46999998093E+01 0. -1.
</event>
<event>
 5   0  0.4373026E-05  0.1600138E+04  0.7818609E-02  0.8820463E-01
       -1   -1    0    0    0  501  0.00000000000E+00  0.00000000000E+00  0.99963567705E+03  0.99963567707E+03  0.50400001928E-02 0.  1.
        1   -1    0    0  501    0  0.00000000000E+00  0.00000000000E+00 -0.64034370677E+03  0.64034370679E+03  0.50400001928E-02 0. -1.
    10030    2    1    2    0    0  0.00000000000E+00  0.00000000000E+00  0.35929197028E+03  0.16399793839E+04  0.16001380127E+04 0.  0.
        4    1    3    3  502    0 -0.10961547231E+03  0.66565102385E+03 -0.26118195875E+03  0.72341168487E+03  0.12699999809E+01 0. -1.
       -4    1    3    3    0  502  0.10961547231E+03 -0.66565102385E+03  0.62047392903E+03  0.91656769899E+03  0.12699999809E+01 0.  1.
</event>
<event>
 5   0  0.4314657E-05  0.1598564E+04  0.7818609E-02  0.8821431E-01
        1   -1    0    0  501    0  0.00000000000E+00  0.00000000000E+00  0.83979580050E+03  0.83979580051E+03  0.50400001928E-02 0. -1.
       -1   -1    0    0    0  501  0.00000000000E+00  0.00000000000E+00 -0.76072228255E+03  0.76072228257E+03  0.50400001928E-02 0.  1.
    10030    2    1    2    0    0  0.00000000000E+00  0.00000000000E+00  0.79073517948E+02  0.16005180831E+04  0.15985635780E+04 0.  0.
        5    1    3    3  502    0  0.78461318716E+03  0.14901509995E+03  0.71292012579E+02  0.80182790830E+03  0.46999998093E+01 0.  1.
       -5    1    3    3    0  502 -0.78461318716E+03 -0.14901509995E+03  0.77815053688E+01  0.79869017478E+03  0.46999998093E+01 0. -1.
</event>
<event>
 5   0  0.4373026E-05  0.1600448E+04  0.7818609E-02  0.8820273E-01
       -1   -1    0    0    0  501  0.00000000000E+00  0.00000000000E+00  0.67327575367E+03  0.67327575369E+03  0.50400001928E-02 0. -1.
        1   -1    0    0  501    0  0.00000000000E+00  0.00000000000E+00 -0.95110879976E+03  0.95110879977E+03  0.50400001928E-02 0.  1.
    10030    2    1    2    0    0  0.00000000000E+00  0.00000000000E+00 -0.27783304608E+03  0.16243845535E+04  0.16004480548E+04 0.  0.
        4    1    3    3  502    0 -0.13706982042E+03 -0.42057683476E+03 -0.81573617011E+03  0.92795480586E+03  0.12699999809E+01 0.  1.
       -4    1    3    3    0  502  0.13706982042E+03  0.42057683476E+03  0.53790312402E+03  0.69642974760E+03  0.12699999809E+01 0. -1.
</event>
<event>
 5   0  0.4256406E-05  0.1600112E+04  0.7818609E-02  0.8820479E-01
        1   -1    0    0  501    0  0.00000000000E+00  0.00000000000E+00  0.13077427708E+04  0.13077427708E+04  0.50400001928E-02 0. -1.
       -1   -1    0    0    0  501  0.00000000000E+00  0.00000000000E+00 -0.48946142785E+03  0.48946142788E+03  0.50400001928E-02 0.  1.
    10030    2    1    2    0    0  0.00000000000E+00  0.00000000000E+00  0.81828134298E+03  0.17972041987E+04  0.16001120510E+04 0.  0.
        3    1    3    3  502    0  0.72306885801E+03 -0.33793463203E+03  0.47128422104E+03  0.92689655094E+03  0.10100000352E+00 0. -1.
       -3    1    3    3    0  502 -0.72306885801E+03  0.33793463203E+03  0.34699712193E+03  0.87030764778E+03  0.10100000352E+00 0.  1.
</event>
<event>
 5   0  0.4373026E-05  0.1599030E+04  0.7818609E-02  0.8821144E-01
        1   -1    0    0  501    0  0.00000000000E+00  0.00000000000E+00  0.48873229967E+03  0.48873229970E+03  0.50400001928E-02 0.  1.
       -1   -1    0    0    0  501  0.00000000000E+00  0.00000000000E+00 -0.13079237267E+04  0.13079237268E+04  0.50400001928E-02 0. -1.
    10030    2    1    2    0    0  0.00000000000E+00  0.00000000000E+00 -0.81919142707E+03  0.17966560265E+04  0.15990304197E+04 0.  0.
        4    1    3    3  502    0 -0.51867304907E+03  0.60619049739E+03 -0.46834895683E+03  0.92511675437E+03  0.12699999809E+01 0. -1.
       -4    1    3    3    0  502  0.51867304907E+03 -0.60619049739E+03 -0.35084247024E+03  0.87153927208E+03  0.12699999809E+01 0.  1.
</event>
<event>
 5   0  0.7849690E-05  0.1607769E+04  0.7818609E-02  0.8815789E-01
        2   -1    0    0  501    0  0.00000000000E+00  0.00000000000E+00  0.42023293893E+03  0.42023293894E+03  0.25500000920E-02 0.  1.
       -2   -1    0    0    0  501  0.00000000000E+00  0.00000000000E+00 -0.15377913410E+04  0.15377913410E+04  0.25500000920E-02 0. -1.
    10030    2    1    2    0    0  0.00000000000E+00  0.00000000000E+00 -0.11175584021E+04  0.19580242800E+04  0.16077693550E+04 0.  0.
        3    1    3    3  502    0 -0.36677370956E+03  0.15880291194E+02 -0.14297392251E+04  0.14761197105E+04  0.10100000352E+00 0. -1.
       -3    1    3    3    0  502  0.36677370956E+03 -0.15880291194E+02  0.31218082298E+03  0.48190456951E+03  0.10100000352E+00 0.  1.
</event>
<event>
 5   0  0.8037548E-05  0.1598018E+04  0.7818609E-02  0.8821767E-01
       -2   -1    0    0    0  501  0.00000000000E+00  0.00000000000E+00  0.37593837038E+03  0.37593837039E+03  0.25500000920E-02 0.  1.
        2   -1    0    0  501    0  0.00000000000E+00  0.00000000000E+00 -0.16981912439E+04  0.16981912439E+04  0.25500000920E-02 0. -1.
    10030    2    1    2    0    0  0.00000000000E+00  0.00000000000E+00 -0.13222528735E+04  0.20741296143E+04  0.15980178332E+04 0.  0.
        5    1    3    3  502    0 -0.52548104653E+03 -0.52807261666E+03 -0.10359637949E+04  0.12760227635E+04  0.46999998093E+01 0. -1.
       -5    1    3    3    0  502  0.52548104653E+03  0.52807261666E+03 -0.28628907868E+03  0.79810685081E+03  0.46999998093E+01 0.  1.
</event>
<event>
 5   0  0.8037548E-05  0.1628232E+04  0.7818609E-02  0.8803389E-01
        2   -1    0    0  501    0  0.00000000000E+00  0.00000000000E+00  0.11267463272E+04  0.11267463272E+04  0.25500000920E-02 0. -1.
       -2   -1    0    0    0  501  0.00000000000E+00  0.00000000000E+00 -0.58822915270E+03  0.58822915270E+03  0.25500000920E-02 0.  1.
    10030    2    1    2    0    0  0.00000000000E+00  0.00000000000E+00  0.53851717449E+03  0.17149754799E+04  0.16282322161E+04 0.  0.
        5    1    3    3  502    0 -0.63183969217E+02  0.57099437977E+03  0.87682193480E+03  0.10482679004E+04  0.46999998093E+01 0. -1.
       -5    1    3    3    0  502  0.63183969217E+02 -0.57099437977E+03 -0.33830476031E+03  0.66670757948E+03  0.46999998093E+01 0.  1.
</event>
<event>
 5   0  0.4504463E-05  0.1602700E+04  0.7818609E-02  0.8818891E-01
       -1   -1    0    0    0  501  0.00000000000E+00  0.00000000000E+00  0.60814841236E+03  0.60814841238E+03  0.50400001928E-02 0. -1.
        1   -1    0    0  501    0  0.00000000000E+00  0.00000000000E+00 -0.10559289433E+04  0.10559289433E+04  0.50400001928E-02 0.  1.
    10030    2    1    2    0    0  0.00000000000E+00  0.00000000000E+00 -0.44778053095E+03  0.16640773557E+04  0.16026996106E+04 0.  0.
        1    1    3    3  502    0 -0.67268284608E+03  0.19793848424E+03  0.17888266385E+03  0.72365797336E+03  0.50400001928E-02 0. -1.
       -1    1    3    3    0  502  0.67268284608E+03 -0.19793848424E+03 -0.62666319480E+03  0.94041938235E+03  0.50400001928E-02 0.  1.
</event>
<event>
 5   0  0.8694033E-05  0.1599316E+04  0.7818609E-02  0.8820968E-01
        2   -1    0    0  501    0  0.00000000000E+00  0.00000000000E+00  0.32455328050E+03  0.32455328051E+03  0.25500000920E-02 0. -1.
       -2   -1    0    0    0  501  0.00000000000E+00  0.00000000000E+00 -0.19702560411E+04  0.19702560411E+04  0.25500000920E-02 0.  1.
    10030    2    1    2    0    0  0.00000000000E+00  0.00000000000E+00 -0.16457027606E+04  0.22948093216E+04  0.15993161809E+04 0.  0.
        1    1    3    3  502    0 -0.50083860551E+03  0.60271449409E+03 -0.10513021451E+04  0.13112361612E+04  0.50400001928E-02 0.  1.
       -1    1    3    3    0  502  0.50083860551E+03 -0.60271449409E+03 -0.59440061556E+03  0.98357316046E+03  0.50400001928E-02 0. -1.
</event>
<event>
 5   0  0.8694033E-05  0.1607793E+04  0.7818609E-02  0.8815775E-01
       -2   -1    0    0    0  501  0.00000000000E+00  0.00000000000E+00  0.45395641376E+03  0.45395641376E+03  0.25500000920E-02 0.  1.
        2   -1    0    0  501    0  0.00000000000E+00  0.00000000000E+00 -0.14235944373E+04  0.14235944373E+04  0.25500000920E-02 0. -1.
    10030    2    1    2    0    0  0.00000000000E+00  0.00000000000E+00 -0.96963802354E+03  0.18775508511E+04  0.16077933019E+04 0.  0.
        1    1    3    3  502    0  0.55544807299E+03 -0.54998494630E+03 -0.70405053197E+03  0.10519948453E+04  0.50400001928E-02 0. -1.
       -1    1    3    3    0  502 -0.55544807299E+03  0.54998494630E+03 -0.26558749157E+03  0.82555600576E+03  0.50400001928E-02 0.  1.
</event>
<event>
 5   0  0.4256406E-05  0.1640324E+04  0.7818609E-02  0.8796152E-01
       -1   -1    0    0    0  501  0.00000000000E+00  0.00000000000E+00  0.46882599466E+03  0.46882599469E+03  0.50400001928E-02 0.  1.
        1   -1    0    0  501    0  0.00000000000E+00  0.00000000000E+00 -0.14347866969E+04  0.14347866969E+04  0.50400001928E-02 0. -1.
    10030    2    1    2    0    0  0.00000000000E+00  0.00000000000E+00 -0.96596070220E+03  0.19036126916E+04  0.16403235051E+04 0.  0.
        3    1    3    3  502    0 -0.64255102956E+03 -0.37528312349E+03 -0.82720217711E+02  0.74870013556E+03  0.10100000352E+00 0.  1.
       -3    1    3    3    0  502  0.64255102956E+03  0.37528312349E+03 -0.88324048448E+03  0.11549125560E+04  0.10100000352E+00 0. -1.
</event>
<event>
 5   0  0.8620155E-05  0.1600574E+04  0.7818609E-02  0.8820195E-01
        2   -1    0    0  501    0  0.00000000000E+00  0.00000000000E+00  0.12361175863E+04  0.12361175863E+04  0.25500000920E-02 0.  1.
       -2   -1    0    0    0  501  0.00000000000E+00  0.00000000000E+00 -0.51812177100E+03  0.51812177101E+03  0.25500000920E-02 0. -1.
    10030    2    1    2    0    0  0.00000000000E+00  0.00000000000E+00  0.71799581526E+03  0.17542393573E+04  0.16005741882E+04 0.  0.
        4    1    3    3  502    0  0.59759499468E+02  0.41925881020E+03  0.11032407844E+04  0.11817321985E+04  0.12699999809E+01 0.  1.
       -4    1    3    3    0  502 -0.59759499468E+02 -0.41925881020E+03 -0.38524496913E+03  0.57250715878E+03  0.12699999809E+01 0. -1.
</event>
<event>
 5   0  0.4211419E-05  0.1599780E+04  0.7818609E-02  0.8820683E-01
        1   -1    0    0  501    0  0.00000000000E+00  0.00000000000E+00  0.11855183838E+04  0.11855183838E+04  0.50400001928E-02 0.  1.
       -1   -1    0    0    0  501  0.00000000000E+00  0.00000000000E+00 -0.53969955936E+03  0.53969955938E+03  0.50400001928E-02 0. -1.
    10030    2    1    2    0    0  0.00000000000E+00  0.00000000000E+00  0.64581882440E+03  0.17252179431E+04  0.15997796715E+04 0.  0.
        2    1    3    3  502    0 -0.39755626696E+03 -0.15531651494E+03  0.10524514292E+04  0.11357060429E+04  0.25500000920E-02 0.  1.
       -2    1    3    3    0  502  0.39755626696E+03  0.15531651494E+03 -0.40663260477E+03  0.58951190020E+03  0.25500000920E-02 0. -1.
</event>
<event>
 5   0  0.7901257E-05  0.1603330E+04  0.7818609E-02  0.8818505E-01
        2   -1    0    0  501    0  0.00000000000E+00  0.00000000000E+00  0.95049730554E+03  0.95049730554E+03  0.25500000920E-02 0.  1.
       -2   -1    0    0    0  501  0.00000000000E+00  0.00000000000E+00 -0.67613735268E+03  0.67613735268E+03  0.25500000920E-02 0. -1.
    10030    2    1    2    0    0  0.00000000000E+00  0.00000000000E+00  0.27435995286E+03  0.16266346582E+04  0.16033299497E+04 0.  0.
        2    1    3    3  502    0 -0.50585378686E+03 -0.14147980135E+03  0.75159152159E+03  0.91694841905E+03  0.25500000920E-02 0.  1.
       -2    1    3    3    0  502  0.50585378686E+03  0.14147980135E+03 -0.47723156873E+03  0.70968623917E+03  0.25500000920E-02 0. -1.
</event>
<event>
 5   0  0.4504463E-05  0.1601298E+04  0.7818609E-02  0.8819751E-01
        1   -1    0    0  501    0  0.00000000000E+00  0.00000000000E+00  0.88188413107E+03  0.88188413108E+03  0.50400001928E-02 0. -1.
       -1   -1    0    0    0  501  0.00000000000E+00  0.00000000000E+00 -0.72689730430E+03  0.72689730432E+03  0.50400001928E-02 0.  1.
    10030    2    1    2    0    0  0.00000000000E+00  0.00000000000E+00  0.15498682677E+03  0.16087814354E+04  0.16012984701E+04 0.  0.
        1    1    3    3  502    0  0.25639493630E+02 -0.21807432105E+03 -0.69605617695E+03  0.72986847763E+03  0.50400001928E-02 0.  1.
       -1    1    3    3    0  502 -0.25639493630E+02  0.21807432105E+03  0.85104300372E+03  0.87891295777E+03  0.50400001928E-02 0. -1.
</event>
<event>
 5   0  0.7901257E-05  0.1559092E+04  0.7818609E-02  0.8846081E-01
       -2   -1    0    0    0  501  0.00000000000E+00  0.00000000000E+00  0.46752714911E+03  0.46752714911E+03  0.25500000920E-02 0.  1.
        2   -1    0    0  501    0  0.00000000000E+00  0.00000000000E+00 -0.12998011262E+04  0.12998011262E+04  0.25500000920E-02 0. -1.
    10030    2    1    2    0    0  0.00000000000E+00  0.00000000000E+00 -0.83227397710E+03  0.17673282753E+04  0.15590924475E+04 0.  0.
        2    1    3    3  502    0  0.39077800309E+03 -0.61630716699E+03 -0.72688677726E+03  0.10300030868E+04  0.25500000920E-02 0. -1.
       -2    1    3    3    0  502 -0.39077800309E+03  0.61630716699E+03 -0.10538719984E+03  0.73732518856E+03  0.25500000920E-02 0.  1.
</event>
<event>
 5   0  0.8037548E-05  0.1599350E+04  0.7818609E-02  0.8820947E-01
        2   -1    0    0  501    0  0.00000000000E+00  0.00000000000E+00  0.12037608706E+04  0.12037608706E+04  0.25500000920E-02 0. -1.
       -2   -1    0    0    0  501  0.00000000000E+00  0.00000000000E+00 -0.53123513511E+03  0.53123513511E+03  0.25500000920E-02 0.  1.
    10030    2    1    2    0    0  0.00000000000E+00  0.00000000000E+00  0.67252573548E+03  0.17349960057E+04  0.15993499539E+04 0.  0.
        5    1    3    3  502    0 -0.31782641619E+03  0.57851683904E+03 -0.15342261577E+03  0.67768425753E+03  0.46999998093E+01 0.  1.
       -5    1    3    3    0  502  0.31782641619E+03 -0.57851683904E+03  0.82594835126E+03  0.10573117482E+04  0.46999998093E+01 0. -1.
</event>
<event>
 5   0  0.8037548E-05  0.1602648E+04  0.7818609E-02  0.8818923E-01
        2   -1    0    0  501    0  0.00000000000E+00  0.00000000000E+00  0.13223553936E+04  0.13223553936E+04  0.25500000920E-02 0.  1.
       -2   -1    0    0    0  501  0.00000000000E+00  0.00000000000E+00 -0.48558791405E+03  0.48558791406E+03  0.25500000920E-02 0. -1.
    10030    2    1    2    0    0  0.00000000000E+00  0.00000000000E+00  0.83676747958E+03  0.18079433077E+04  0.16026475561E+04 0.  0.
        5    1    3    3  502    0 -0.16087091394E+03 -0.71540832126E+03  0.78289936218E+03  0.10726798303E+04  0.46999998093E+01 0. -1.
       -5    1    3    3    0  502  0.16087091394E+03  0.71540832126E+03  0.53868117400E+02  0.73526347737E+03  0.46999998093E+01 0.  1.
</event>
<event>
 5   0  0.8037548E-05  0.1597959E+04  0.7818609E-02  0.8821803E-01
       -2   -1    0    0    0  501  0.00000000000E+00  0.00000000000E+00  0.43173714679E+03  0.43173714680E+03  0.25500000920E-02 0.  1.
        2   -1    0    0  501    0  0.00000000000E+00  0.00000000000E+00 -0.14786034404E+04  0.14786034404E+04  0.25500000920E-02 0. -1.
    10030    2    1    2    0    0  0.00000000000E+00  0.00000000000E+00 -0.10468662936E+04  0.19103405872E+04  0.15979587362E+04 0.  0.
        5    1    3    3  502    0  0.24043467849E+03  0.63981665088E+02  0.38422769120E+03  0.45777231980E+03  0.46999998093E+01 0.  1.
       -5    1    3    3    0  502 -0.24043467849E+03 -0.63981665088E+02 -0.14310939848E+04  0.14525682674E+04  0.46999998093E+01 0. -1.
</event>
<event>
 5   0  0.4504463E-05  0.1600785E+04  0.7818609E-02  0.8820066E-01
       -1   -1    0    0    0  501  0.00000000000E+00  0.00000000000E+00  0.69302669719E+03  0.69302669721E+03  0.50400001928E-02 0.  1.
        1   -1    0    0  501    0  0.00000000000E+00  0.00000000000E+00 -0.92439159812E+03  0.92439159814E+03  0.50400001928E-02 0. -1.
    10030    2    1    2    0    0  0.00000000000E+00  0.00000000000E+00 -0.23136490093E+03  0.16174182954E+04  0.16007848777E+04 0.  0.
        1    1    3    3  502    0 -0.49263754076E+03 -0.40103574335E+03 -0.60767807270E+03  0.87908705716E+03  0.50400001928E-02 0. -1.
       -1    1    3    3    0  502  0.49263754076E+03  0.40103574335E+03  0.37631317177E+03  0.73833123819E+03  0.50400001928E-02 0.  1.
</event>
<event>
 5   0  0.4256406E-05  0.1598621E+04  0.7818609E-02  0.8821395E-01
        1   -1    0    0  501    0  0.00000000000E+00  0.00000000000E+00  0.18339826394E+04  0.18339826394E+04  0.50400001928E-02 0. -1.
       -1   -1    0    0    0  501  0.00000000000E+00  0.00000000000E+00 -0.34836618526E+03  0.34836618529E+03  0.50400001928E-02 0.  1.
    10030    2    1    2    0    0  0.00000000000E+00  0.00000000000E+00  0.14856164542E+04  0.21823488247E+04  0.15986213260E+04 0.  0.
        3    1    3    3  502    0  0.59805428098E+03 -0.45087589800E+03  0.36169199099E+03  0.83173259221E+03  0.10100000352E+00 0. -1.
       -3    1    3    3    0  502 -0.59805428098E+03  0.45087589800E+03  0.11239244632E+04  0.13506162325E+04  0.10100000352E+00 0.  1.
</event>
<event>
 5   0  0.4256406E-05  0.1600812E+04  0.7818609E-02  0.8820049E-01
        1   -1    0    0  501    0  0.00000000000E+00  0.00000000000E+00  0.45209339202E+03  0.45209339205E+03  0.50400001928E-02 0. -1.
       -1   -1    0    0    0  501  0.00000000000E+00  0.00000000000E+00 -0.14170742556E+04  0.14170742556E+04  0.50400001928E-02 0.  1.
    10030    2    1    2    0    0  0.00000000000E+00  0.00000000000E+00 -0.96498086357E+03  0.18691676476E+04  0.16008121776E+04 0.  0.
        3    1    3    3  502    0 -0.94285738899E+02  0.59651599027E+03  0.13085674173E+03  0.61793577681E+03  0.10100000352E+00 0. -1.
       -3    1    3    3    0  502  0.94285738899E+02 -0.59651599027E+03 -0.10958376053E+04  0.12512318708E+04  0.10100000352E+00 0.  1.
</event>
<event>
 5   0  0.8694033E-05  0.1602121E+04  0.7818609E-02  0.8819246E-01
        2   -1    0    0  501    0  0.00000000000E+00  0.00000000000E+00  0.11571063302E+04  0.11571063302E+04  0.25500000920E-02 0.  1.
       -2   -1    0    0    0  501  0.00000000000E+00  0.00000000000E+00 -0.55457094525E+03  0.55457094525E+03  0.25500000920E-02 0. -1.
    10030    2    1    2    0    0  0.00000000000E+00  0.00000000000E+00  0.60253538498E+03  0.17116772755E+04  0.16021205339E+04 0.  0.
        1    1    3    3  502    0  0.20658247118E+03  0.58300595491E+03 -0.24258539599E+03  0.66439441240E+03  0.50400001928E-02 0. -1.
       -1    1    3    3    0  502 -0.20658247118E+03 -0.58300595491E+03  0.84512078097E+03  0.10472828631E+04  0.50400001928E-02 0.  1.
</event>
<event>
 5   0  0.4314657E-05  0.1598891E+04  0.7818609E-02  0.8821229E-01
       -1   -1    0    0    0  501  0.00000000000E+00  0.00000000000E+00  0.11916678637E+04  0.11916678638E+04  0.50400001928E-02 0.  1.
        1   -1    0    0  501    0  0.00000000000E+00  0.00000000000E+00 -0.53631848598E+03  0.53631848600E+03  0.50400001928E-02 0. -1.
    10030    2    1    2    0    0  0.00000000000E+00  0.00000000000E+00  0.65534937777E+03  0.17279863498E+04  0.15988914966E+04 0.  0.
        5    1    3    3  502    0 -0.29794259771E+03  0.24327154674E+02  0.11289761960E+04  0.11678916658E+04  0.46999998093E+01 0.  1.
       -5    1    3    3    0  502  0.29794259771E+03 -0.24327154674E+02 -0.47362681825E+03  0.56009468391E+03  0.46999998093E+01 0. -1.
</event>
<event>
 5   0  0.8694033E-05  0.1601225E+04  0.7818609E-02  0.8819796E-01
       -2   -1    0    0    0  501  0.00000000000E+00  0.00000000000E+00  0.36584755606E+03  0.36584755607E+03  0.25500000920E-02 0. -1.
        2   -1    0    0  501    0  0.00000000000E+00  0.00000000000E+00 -0.17520415866E+04  0.17520415866E+04  0.25500000920E-02 0.  1.
    10030    2    1    2    0    0  0.00000000000E+00  0.00000000000E+00 -0.13861940305E+04  0.21178891426E+04  0.16012246970E+04 0.  0.
        1    1    3    3  502    0  0.58222013102E+03  0.47344717994E+03 -0.32405687038E+03  0.81740159556E+03  0.50400001928E-02 0. -1.
       -1    1    3    3    0  502 -0.58222013102E+03 -0.47344717994E+03 -0.10621371601E+04  0.13004875471E+04  0.50400001928E-02 0.  1.
</event>
<event>
 5   0  0.7849690E-05  0.1598717E+04  0.7818609E-02  0.8821336E-01
        2   -1    0    0  501    0  0.00000000000E+00  0.00000000000E+00  0.82750180703E+03  0.82750180704E+03  0.25500000920E-02 0.  1.
       -2   -1    0    0    0  501  0.00000000000E+00  0.00000000000E+00 -0.77217261677E+03  0.77217261677E+03  0.25500000920E-02 0. -1.
    10030    2    1    2    0    0  0.00000000000E+00  0.00000000000E+00  0.55329190266E+02  0.15996744238E+04  0.15987172805E+04 0.  0.
        3    1    3    3  502    0 -0.73749730970E+03 -0.12806129671E+03  0.30831825623E+03  0.80954439956E+03  0.10100000352E+00 0. -1.
       -3    1    3    3    0  502  0.73749730970E+03  0.12806129671E+03 -0.25298906597E+03  0.79013002425E+03  0.10100000352E+00 0.  1.
</event>
<event>
 5   0  0.7901257E-05  0.1605492E+04  0.7818609E-02  0.8817181E-01
        2   -1    0    0  501    0  0.00000000000E+00  0.00000000000E+00  0.10982523495E+04  0.10982523495E+04  0.25500000920E-02 0.  1.
       -2   -1    0    0    0  501  0.00000000000E+00  0.00000000000E+00 -0.58675148860E+03  0.58675148861E+03  0.25500000920E-02 0. -1.
    10030    2    1    2    0    0  0.00000000000E+00  0.00000000000E+00  0.51150086087E+03  0.16850038381E+04  0.16054920753E+04 0.  0.
        2    1    3    3  502    0 -0.14015067041E+03 -0.47462349472E+03  0.91910620717E+03  0.10438706300E+04  0.25500000920E-02 0.  1.
       -2    1    3    3    0  502  0.14015067041E+03  0.47462349472E+03 -0.40760534630E+03  0.64113320807E+03  0.25500000920E-02 0. -1.
</event>
<event>
 5   0  0.4211419E-05  0.1601458E+04  0.7818609E-02  0.8819653E-01
       -1   -1    0    0    0  501  0.00000000000E+00  0.00000000000E+00  0.84098383588E+03  0.84098383589E+03  0.50400001928E-02 0.  1.
        1   -1    0    0  501    0  0.00000000000E+00  0.00000000000E+00 -0.76240081205E+03  0.76240081207E+03  0.50400001928E-02 0. -1.
    10030    2    1    2    0    0  0.00000000000E+00  0.00000000000E+00  0.78583023827E+02  0.16033846480E+04  0.16014577852E+04 0.  0.
        2    1    3    3  502    0  0.76492376132E+03  0.15875595728E+03 -0.13657559239E+03  0.79307295191E+03  0.25500000920E-02 0.  1.
       -2    1    3    3    0  502 -0.76492376132E+03 -0.15875595728E+03  0.21515861621E+03  0.81031169605E+03  0.25500000920E-02 0. -1.
</event>
<event>
 5   0  0.8037548E-05  0.1599691E+04  0.7818609E-02  0.8820738E-01
       -2   -1    0    0    0  501  0.00000000000E+00  0.00000000000E+00  0.14523195439E+04  0.14523195439E+04  0.25500000920E-02 0.  1.
        2   -1    0    0  501    0  0.00000000000E+00  0.00000000000E+00 -0.44050406488E+03  0.44050406489E+03  0.25500000920E-02 0. -1.
    10030    2    1    2    0    0  0.00000000000E+00  0.00000000000E+00  0.10118154790E+04  0.18928236088E+04  0.15996907984E+04 0.  0.
        5    1    3    3  502    0  0.12130224883E+03  0.17215463658E+03 -0.40709251105E+03  0.45836432782E+03  0.46999998093E+01 0. -1.
       -5    1    3    3    0  502 -0.12130224883E+03 -0.17215463658E+03  0.14189079901E+04  0.14344592810E+04  0.46999998093E+01 0.  1.
</event>
<event>
 5   0  0.3042125E-05  0.1600532E+04  0.7818609E-02  0.8820221E-01
        3   -1    0    0  501    0  0.00000000000E+00  0.00000000000E+00  0.44841987784E+03  0.44841988922E+03  0.10100000352E+00 0.  1.
       -3   -1    0    0    0  501  0.00000000000E+00  0.00000000000E+00 -0.14281827594E+04  0.14281827629E+04  0.10100000352E+00 0. -1.
    10030    2    1    2    0    0  0.00000000000E+00  0.00000000000E+00 -0.97976288151E+03  0.18766026521E+04  0.16005318522E+04 0.  0.
        1    1    3    3  502    0 -0.38783675926E+03  0.43659428355E+03  0.15166674897E+03  0.60335290091E+03  0.50400001928E-02 0. -1.
       -1    1    3    3    0  502  0.38783675926E+03 -0.43659428355E+03 -0.11314296305E+04  0.12732497512E+04  0.50400001928E-02 0.  1.
</event>
<event>
 5   0  0.8037548E-05  0.1599636E+04  0.7818609E-02  0.8820772E-01
        2   -1    0    0  501    0  0.00000000000E+00  0.00000000000E+00  0.10027682761E+04  0.10027682761E+04  0.25500000920E-02 0. -1.
       -2   -1    0    0    0  501  0.00000000000E+00  0.00000000000E+00 -0.63794271017E+03  0.63794271017E+03  0.25500000920E-02 0.  1.
    10030    2    1    2    0    0  0.00000000000E+00  0.00000000000E+00  0.36482556591E+03  0.16407109863E+04  0.15996358482E+04 0.  0.
        5    1    3    3  502    0 -0.20952000575E+03  0.66756675322E+03  0.57984489201E+03  0.90872778740E+03  0.46999998093E+01 0. -1.
       -5    1    3    3    0  502  0.20952000575E+03 -0.66756675322E+03 -0.21501932610E+03  0.73198319885E+03  0.46999998093E+01 0.  1.
</event>
<event>
 5   0  0.8694033E-05  0.1596447E+04  0.7818609E-02  0.8822733E-01
       -2   -1    0    0    0  501  0.00000000000E+00  0.00000000000E+00  0.87904492947E+03  0.87904492948E+03  0.25500000920E-02 0. -1.
        2   -1    0    0  501    0  0.00000000000E+00  0.00000000000E+00 -0.72483334441E+03  0.72483334441E+03  0.25500000920E-02 0.  1.
    10030    2    1    2    0    0  0.00000000000E+00  0.00000000000E+00  0.15421158507E+03  0.16038782739E+04  0.15964474011E+04 0.  0.
        1    1    3    3  502    0  0.48069809592E+01  0.99060429619E+02  0.87283094851E+03  0.87844746029E+03  0.50400001928E-02 0. -1.
       -1    1    3    3    0  502 -0.48069809592E+01 -0.99060429619E+02 -0.71861936344E+03  0.72543081360E+03  0.50400001928E-02 0.  1.
</event>
<event>
 5   0  0.8620155E-05  0.1595257E+04  0.7818609E-02  0.8823467E-01
        2   -1    0    0  501    0  0.00000000000E+00  0.00000000000E+00  0.64449270294E+03  0.64449270294E+03  0.25500000920E-02 0. -1.
       -2   -1    0    0    0  501  0.00000000000E+00  0.00000000000E+00 -0.98715095347E+03  0.98715095348E+03  0.25500000920E-02 0.  1.
    10030    2    1    2    0    0  0.00000000000E+00  0.00000000000E+00 -0.34265825054E+03  0.16316436564E+04  0.15952574541E+04 0.  0.
        4    1    3    3  502    0  0.43142484689E+03  0.60486695831E+03 -0.46815269379E+03  0.87815715756E+03  0.12699999809E+01 0.  1.
       -4    1    3    3    0  502 -0.43142484689E+03 -0.60486695831E+03  0.12549444325E+03  0.75348649886E+03  0.12699999809E+01 0. -1.
</event>
<event>
 5   0  0.4211419E-05  0.1600890E+04  0.7818609E-02  0.8820001E-01
        1   -1    0    0  501    0  0.00000000000E+00  0.00000000000E+00  0.94795316604E+03  0.94795316605E+03  0.50400001928E-02 0. -1.
       -1   -1    0    0    0  501  0.00000000000E+00  0.00000000000E+00 -0.67589050786E+03  0.67589050788E+03  0.50400001928E-02 0.  1.
    10030    2    1    2    0    0  0.00000000000E+00  0.00000000000E+00  0.27206265817E+03  0.16238436739E+04  0.16008904358E+04 0.  0.
        2    1    3    3  502    0  0.34491387583E+03  0.10191158183E+03 -0.58931665225E+03  0.69039529899E+03  0.25500000920E-02 0.  1.
       -2    1    3    3    0  502 -0.34491387583E+03 -0.10191158183E+03  0.86137931042E+03  0.93344837494E+03  0.25500000920E-02 0. -1.
</event>
<event>
 5   0  0.4211419E-05  0.1594772E+04  0.7818609E-02  0.8823766E-01
        1   -1    0    0  501    0  0.00000000000E+00  0.00000000000E+00  0.20581054612E+04  0.20581054612E+04  0.50400001928E-02 0. -1.
       -1   -1    0    0    0  501  0.00000000000E+00  0.00000000000E+00 -0.30893658085E+03  0.30893658089E+03  0.50400001928E-02 0.  1.
    10030    2    1    2    0    0  0.00000000000E+00  0.00000000000E+00  0.17491688804E+04  0.23670420421E+04  0.15947715376E+04 0.  0.
        2    1    3    3  502    0  0.36824141312E+03  0.67555658267E+03  0.56379185371E+03  0.95385517194E+03  0.25500000920E-02 0. -1.
       -2    1    3    3    0  502 -0.36824141312E+03 -0.67555658267E+03  0.11853770267E+04  0.14131868702E+04  0.25500000920E-02 0.  1.
</event>
<event>
 5   0  0.8037548E-05  0.1596396E+04  0.7818609E-02  0.8822765E-01
       -2   -1    0    0    0  501  0.00000000000E+00  0.00000000000E+00  0.21954856051E+03  0.21954856052E+03  0.25500000920E-02 0.  1.
        2   -1    0    0  501    0  0.00000000000E+00  0.00000000000E+00 -0.29019549008E+04  0.29019549008E+04  0.25500000920E-02 0. -1.
    10030    2    1    2    0    0  0.00000000000E+00  0.00000000000E+00 -0.26824063403E+04  0.31215034614E+04  0.15963959674E+04 0.  0.
        5    1    3    3  502    0 -0.48690895210E+03  0.11681247337E+03 -0.12578346125E+03  0.51630325458E+03  0.46999998093E+01 0.  1.
       -5    1    3    3    0  502  0.48690895210E+03 -0.11681247337E+03 -0.25566228791E+04  0.26052002068E+04  0.46999998093E+01 0. -1.
</event>
<event>
 5   0  0.7849690E-05  0.1599616E+04  0.7818609E-02  0.8820784E-01
       -2   -1    0    0    0  501  0.00000000000E+00  0.00000000000E+00  0.22607689390E+03  0.22607689392E+03  0.25500000920E-02 0. -1.
        2   -1    0    0  501    0  0.00000000000E+00  0.00000000000E+00 -0.28295373097E+04  0.28295373097E+04  0.25500000920E-02 0.  1.
    10030    2    1    2    0    0  0.00000000000E+00  0.00000000000E+00 -0.26034604158E+04  0.30556142036E+04  0.15996162117E+04 0.  0.
        3    1    3    3  502    0  0.34188479933E+03  0.25998743393E+03 -0.25905454931E+04  0.26259102506E+04  0.10100000352E+00 0.  1.
       -3    1    3    3    0  502 -0.34188479933E+03 -0.25998743393E+03 -0.12914922629E+02  0.42970395302E+03  0.10100000352E+00 0. -1.
</event>
<event>
 5   0  0.4211419E-05  0.1600629E+04  0.7818609E-02  0.8820162E-01
        1   -1    0    0  501    0  0.00000000000E+00  0.00000000000E+00  0.20060262484E+04  0.20060262484E+04  0.50400001928E-02 0.  1.
       -1   -1    0    0    0  501  0.00000000000E+00  0.00000000000E+00 -0.31928939836E+03  0.31928939840E+03  0.50400001928E-02 0. -1.
    10030    2    1    2    0    0  0.00000000000E+00  0.00000000000E+00  0.16867368500E+04  0.23253156468E+04  0.16006285190E+04 0.  0.
        2    1    3    3  502    0  0.25355061590E+03  0.48560874137E+03  0.16909579805E+04  0.17774821114E+04  0.25500000920E-02 0.  1.
       -2    1    3    3    0  502 -0.25355061590E+03 -0.48560874137E+03 -0.42211305051E+01  0.54783353536E+03  0.25500000920E-02 0. -1.
</event>
<event>
 5   0  0.7901257E-05  0.1594711E+04  0.7818609E-02  0.8823804E-01
        2   -1    0    0  501    0  0.00000000000E+00  0.00000000000E+00  0.84651493006E+03  0.84651493006E+03  0.25500000920E-02 0. -1.
       -2   -1    0    0    0  501  0.00000000000E+00  0.00000000000E+00 -0.75105093416E+03  0.75105093416E+03  0.25500000920E-02 0.  1.
    10030    2    1    2    0    0  0.00000000000E+00  0.00000000000E+00  0.95463995899E+02  0.15975658642E+04  0.15947110447E+04 0.  0.
        2    1    3    3  502    0 -0.53376396106E+03 -0.21106881018E+03 -0.50672227808E+03  0.76565101441E+03  0.25500000920E-02 0.  1.
       -2    1    3    3    0  502  0.53376396106E+03  0.21106881018E+03  0.60218627398E+03  0.83191484981E+03  0.25500000920E-02 0. -1.
</event>
<event>
 5   0  0.4211419E-05  0.1605058E+04  0.7818609E-02  0.8817447E-01
       -1   -1    0    0    0  501  0.00000000000E+00  0.00000000000E+00  0.71144392707E+03  0.71144392708E+03  0.50400001928E-02 0.  1.
        1   -1    0    0  501    0  0.00000000000E+00  0.00000000000E+00 -0.90527575870E+03  0.90527575871E+03  0.50400001928E-02 0. -1.
    10030    2    1    2    0    0  0.00000000000E+00  0.00000000000E+00 -0.19383183163E+03  0.16167196858E+04  0.16050581807E+04 0.  0.
        2    1    3    3  502    0 -0.11343107322E+03  0.48999937035E+03  0.53299713879E+03  0.73283827771E+03  0.25500000920E-02 0.  1.
       -2    1    3    3    0  502  0.11343107322E+03 -0.48999937035E+03 -0.72682897042E+03  0.88388140809E+03  0.25500000920E-02 0. -1.
</event>
<event>
 5   0  0.4256406E-05  0.1637302E+04  0.7818609E-02  0.8797954E-01
        1   -1    0    0  501    0  0.00000000000E+00  0.00000000000E+00  0.54785905841E+03  0.54785905844E+03  0.50400001928E-02 0.  1.
       -1   -1    0    0    0  501  0.00000000000E+00  0.00000000000E+00 -0.12232879772E+04  0.12232879772E+04  0.50400001928E-02 0. -1.
    10030    2    1    2    0    0  0.00000000000E+00  0.00000000000E+00 -0.67542891879E+03  0.17711470357E+04  0.16373019262E+04 0.  0.
        3    1    3    3  502    0 -0.50328003935E+02  0.80896018084E+03 -0.21324342135E+03  0.83810634714E+03  0.10100000352E+00 0. -1.
       -3    1    3    3    0  502  0.50328003935E+02 -0.80896018084E+03 -0.46218549744E+03  0.93304068851E+03  0.10100000352E+00 0.  1.
</event>
<event>
 5   0  0.7849690E-05  0.1601732E+04  0.7818609E-02  0.8819484E-01
        2   -1    0    0  501    0  0.00000000000E+00  0.00000000000E+00  0.15797149515E+04  0.15797149515E+04  0.25500000920E-02 0. -1.
       -2   -1    0    0    0  501  0.00000000000E+00  0.00000000000E+00 -0.40601420852E+03  0.40601420853E+03  0.25500000920E-02 0.  1.
    10030    2    1    2    0    0  0.00000000000E+00  0.00000000000E+00  0.11737007429E+04  0.19857291600E+04  0.16017324567E+04 0.  0.
        3    1    3    3  502    0 -0.15972340240E+03 -0.23128623978E+03 -0.34285571062E+03  0.44334516856E+03  0.10100000352E+00 0.  1.
       -3    1    3    3    0  502  0.15972340240E+03  0.23128623978E+03  0.15165564536E+04  0.15423839914E+04  0.10100000352E+00 0. -1.
</event>
<event>
 5   0  0.4211419E-05  0.1600599E+04  0.7818609E-02  0.8820180E-01
        1   -1    0    0  501    0  0.00000000000E+00  0.00000000000E+00  0.15065202886E+04  0.15065202887E+04  0.50400001928E-02 0. -1.
       -1   -1    0    0    0  501  0.00000000000E+00  0.00000000000E+00 -0.42513805404E+03  0.42513805407E+03  0.50400001928E-02 0.  1.
    10030    2    1    2    0    0  0.00000000000E+00  0.00000000000E+00  0.10813822346E+04  0.19316583427E+04  0.16005987679E+04 0.  0.
        2    1    3    3  502    0 -0.18478178158E+03  0.24534502253E+03 -0.35117584024E+03  0.46654362889E+03  0.25500000920E-02 0.  1.
       -2    1    3    3    0  502  0.18478178158E+03 -0.24534502253E+03  0.14325580748E+04  0.14651147138E+04  0.25500000920E-02 0. -1.
</event>
<event>
 5   0  0.8694033E-05  0.1609454E+04  0.7818609E-02  0.8814761E-01
       -2   -1    0    0    0  501  0.00000000000E+00  0.00000000000E+00  0.44185395144E+03  0.44185395144E+03  0.25500000920E-02 0.  1.
        2   -1    0    0  501    0  0.00000000000E+00  0.00000000000E+00 -0.14656091420E+04  0.14656091420E+04  0.25500000920E-02 0. -1.
    10030    2    1    2    0    0  0.00000000000E+00  0.00000000000E+00 -0.10237551906E+04  0.19074630935E+04  0.16094535603E+04 0.  0.
        1    1    3    3  502    0  0.21187424082E+03  0.69842811172E+03 -0.11015722537E+03  0.73812406511E+03  0.50400001928E-02 0.  1.
       -1    1    3    3    0  502 -0.21187424082E+03 -0.69842811172E+03 -0.91359796521E+03  0.11693390283E+04  0.50400001928E-02 0. -1.
</event>
<event>
 5   0  0.7849690E-05  0.1599657E+04  0.7818609E-02  0.8820759E-01
        2   -1    0    0  501    0  0.00000000000E+00  0.00000000000E+00  0.15626828115E+04  0.15626828115E+04  0.25500000920E-02 0.  1.
       -2   -1    0    0    0  501  0.00000000000E+00  0.00000000000E+00 -0.40937653173E+03  0.40937653174E+03  0.25500000920E-02 0. -1.
    10030    2    1    2    0    0  0.00000000000E+00  0.00000000000E+00  0.11533062798E+04  0.19720593433E+04  0.15996570502E+04 0.  0.
        3    1    3    3  502    0  0.34123951412E+03 -0.72130102543E+03  0.64424488499E+03  0.10255589000E+04  0.10100000352E+00 0.  1.
       -3    1    3    3    0  502 -0.34123951412E+03  0.72130102543E+03  0.50906139481E+03  0.94650044330E+03  0.10100000352E+00 0. -1.
</event>
<event>
 5   0  0.4504463E-05  0.1592626E+04  0.7818609E-02  0.8825091E-01
       -1   -1    0    0    0  501  0.00000000000E+00  0.00000000000E+00  0.91639650083E+03  0.91639650084E+03  0.50400001928E-02 0.  1.
        1   -1    0    0  501    0  0.00000000000E+00  0.00000000000E+00 -0.69196494099E+03  0.69196494101E+03  0.50400001928E-02 0. -1.
    10030    2    1    2    0    0  0.00000000000E+00  0.00000000000E+00  0.22443155984E+03  0.16083614419E+04  0.15926258200E+04 0.  0.
        1    1    3    3  502    0  0.68804333376E+03 -0.39973508333E+03  0.14288830108E+03  0.80846077987E+03  0.50400001928E-02 0.  1.
       -1    1    3    3    0  502 -0.68804333376E+03  0.39973508333E+03  0.81543258758E+02  0.79990066199E+03  0.50400001928E-02 0. -1.
</event>
<event>
 5   0  0.4504463E-05  0.1602259E+04  0.7818609E-02  0.8819162E-01
       -1   -1    0    0    0  501  0.00000000000E+00  0.00000000000E+00  0.75293756349E+03  0.75293756350E+03  0.50400001928E-02 0.  1.
        1   -1    0    0  501    0  0.00000000000E+00  0.00000000000E+00 -0.85240546725E+03  0.85240546726E+03  0.50400001928E-02 0. -1.
    10030    2    1    2    0    0  0.00000000000E+00  0.00000000000E+00 -0.99467903764E+02  0.16053430308E+04  0.16022585255E+04 0.  0.
        1    1    3    3  502    0  0.25015673815E+03  0.18316359023E+03 -0.78985813194E+03  0.84853000127E+03  0.50400001928E-02 0. -1.
       -1    1    3    3    0  502 -0.25015673815E+03 -0.18316359023E+03  0.69039022818E+03  0.75681302950E+03  0.50400001928E-02 0.  1.
</event>
<event>
 5   0  0.8694033E-05  0.1600950E+04  0.7818609E-02  0.8819965E-01
        2   -1    0    0  501    0  0.00000000000E+00  0.00000000000E+00  0.12043828152E+04  0.12043828152E+04  0.25500000920E-02 0. -1.
       -2   -1    0    0    0  501  0.00000000000E+00  0.00000000000E+00 -0.53202377607E+03  0.53202377608E+03  0.25500000920E-02 0.  1.
    10030    2    1    2    0    0  0.00000000000E+00  0.00000000000E+00  0.67235903913E+03  0.17364065913E+04  0.16009500844E+04 0.  0.
        1    1    3    3  502    0 -0.40147586102E+03 -0.22454281570E+03 -0.37435014669E+03  0.59307704004E+03  0.50400001928E-02 0.  1.
       -1    1    3    3    0  502  0.40147586102E+03  0.22454281570E+03  0.10467091858E+04  0.11433295513E+04  0.50400001928E-02 0. -1.
</event>
<event>
 5   0  0.4211419E-05  0.1596855E+04  0.7818609E-02  0.8822483E-01
        1   -1    0    0  501    0  0.00000000000E+00  0.00000000000E+00  0.91452099993E+03  0.91452099995E+03  0.50400001928E-02 0. -1.
       -1   -1    0    0    0  501  0.00000000000E+00  0.00000000000E+00 -0.69707117747E+03  0.69707117749E+03  0.50400001928E-02 0.  1.
    10030    2    1    2    0    0  0.00000000000E+00  0.00000000000E+00  0.21744982246E+03  0.16115921774E+04  0.15968546963E+04 0.  0.
        2    1    3    3  502    0 -0.51134965458E+03  0.59962610970E+03 -0.20741083187E+02  0.78832742767E+03  0.25500000920E-02 0.  1.
       -2    1    3    3    0  502  0.51134965458E+03 -0.59962610970E+03  0.23819090565E+03  0.82326474977E+03  0.25500000920E-02 0. -1.
</event>
<event>
 5   0  0.4504463E-05  0.1640059E+04  0.7818609E-02  0.8796309E-01
       -1   -1    0    0    0  501  0.00000000000E+00  0.00000000000E+00  0.10274728330E+04  0.10274728331E+04  0.50400001928E-02 0. -1.
        1   -1    0    0  501    0  0.00000000000E+00  0.00000000000E+00 -0.65446838170E+03  0.65446838172E+03  0.50400001928E-02 0.  1.
    10030    2    1    2    0    0  0.00000000000E+00  0.00000000000E+00  0.37300445134E+03  0.16819412148E+04  0.16400591237E+04 0.  0.
        1    1    3    3  502    0  0.52460817451E+03  0.10874257349E+03 -0.45016527875E+03  0.69977672315E+03  0.50400001928E-02 0.  1.
       -1    1    3    3    0  502 -0.52460817451E+03 -0.10874257349E+03  0.82316973009E+03  0.98216449163E+03  0.50400001928E-02 0. -1.
</event>
<event>
 5   0  0.7849690E-05  0.1603239E+04  0.7818609E-02  0.8818561E-01
       -2   -1    0    0    0  501  0.00000000000E+00  0.00000000000E+00  0.46531576629E+03  0.46531576630E+03  0.25500000920E-02 0. -1.
        2   -1    0    0  501    0  0.00000000000E+00  0.00000000000E+00 -0.13809847485E+04  0.13809847485E+04  0.25500000920E-02 0.  1.
    10030    2    1    2    0    0  0.00000000000E+00  0.00000000000E+00 -0.91566898221E+03  0.18463005148E+04  0.16032391918E+04 0.  0.
        3    1    3    3  502    0  0.29759988412E+03 -0.24157313319E+03 -0.12686101323E+04  0.13252527863E+04  0.10100000352E+00 0.  1.
       -3    1    3    3    0  502 -0.29759988412E+03  0.24157313319E+03  0.35294115010E+03  0.52104772847E+03  0.10100000352E+00 0. -1.
</event>
<event>
 5   0  0.4373026E-05  0.1599203E+04  0.7818609E-02  0.8821037E-01
       -1   -1    0    0    0  501  0.00000000000E+00  0.00000000000E+00  0.86453246658E+03  0.86453246660E+03  0.50400001928E-02 0. -1.
        1   -1    0    0  501    0  0.00000000000E+00  0.00000000000E+00 -0.73954764585E+03  0.73954764587E+03  0.50400001928E-02 0.  1.
    10030    2    1    2    0    0  0.00000000000E+00  0.00000000000E+00  0.12498482074E+03  0.16040801125E+04  0.15992034898E+04 0.  0.
        4    1    3    3  502    0  0.38771829962E+03 -0.23757743303E+03 -0.59723112792E+03  0.75063649632E+03  0.12699999809E+01 0.  1.
       -4    1    3    3    0  502 -0.38771829962E+03  0.23757743303E+03  0.72221594866E+03  0.85344361615E+03  0.12699999809E+01 0. -1.
</event>
<event>
 5   0  0.4373026E-05  0.1601947E+04  0.7818609E-02  0.8819353E-01
        1   -1    0    0  501    0  0.00000000000E+00  0.00000000000E+00  0.15796302645E+04  0.15796302645E+04  0.50400001928E-02 0.  1.
       -1   -1    0    0    0  501  0.00000000000E+00  0.00000000000E+00 -0.40614495243E+03  0.40614495246E+03  0.50400001928E-02 0. -1.
    10030    2    1    2    0    0  0.00000000000E+00  0.00000000000E+00  0.11734853121E+04  0.19857752170E+04  0.16019473882E+04 0.  0.
        4    1    3    3  502    0 -0.11390870288E+03 -0.76420781576E+03  0.32504749749E+03  0.83823998162E+03  0.12699999809E+01 0. -1.
       -4    1    3    3    0  502  0.11390870288E+03  0.76420781576E+03  0.84843781460E+03  0.11475352354E+04  0.12699999809E+01 0.  1.
</event>
<event>
 5   0  0.4373026E-05  0.1598587E+04  0.7818609E-02  0.8821417E-01
       -1   -1    0    0    0  501  0.00000000000E+00  0.00000000000E+00  0.40756609897E+03  0.40756609900E+03  0.50400001928E-02 0.  1.
        1   -1    0    0  501    0  0.00000000000E+00  0.00000000000E+00 -0.15675245062E+04  0.15675245062E+04  0.50400001928E-02 0. -1.
    10030    2    1    2    0    0  0.00000000000E+00  0.00000000000E+00 -0.11599584073E+04  0.19750906052E+04  0.15985866859E+04 0.  0.
        4    1    3    3  502    0 -0.23260303870E+03 -0.75374899720E+03 -0.73929226788E+03  0.10811088727E+04  0.12699999809E+01 0. -1.
       -4    1    3    3    0  502  0.23260303870E+03  0.75374899720E+03 -0.42066613937E+03  0.89398173254E+03  0.12699999809E+01 0.  1.
</event>
<event>
 5   0  0.7901257E-05  0.1598531E+04  0.7818609E-02  0.8821451E-01
        2   -1    0    0  501    0  0.00000000000E+00  0.00000000000E+00  0.10163468980E+04  0.10163468980E+04  0.25500000920E-02 0. -1.
       -2   -1    0    0    0  501  0.00000000000E+00  0.00000000000E+00 -0.62855048328E+03  0.62855048328E+03  0.25500000920E-02 0.  1.
    10030    2    1    2    0    0  0.00000000000E+00  0.00000000000E+00  0.38779641471E+03  0.16448973813E+04  0.15985309930E+04 0.  0.
        2    1    3    3  502    0 -0.71684247959E+03  0.35349600944E+03  0.19560916447E+03  0.82285206111E+03  0.25500000920E-02 0.  1.
       -2    1    3    3    0  502  0.71684247959E+03 -0.35349600944E+03  0.19218725024E+03  0.82204532016E+03  0.25500000920E-02 0. -1.
</event>
<event>
 5   0  0.8620155E-05  0.1599014E+04  0.7818609E-02  0.8821154E-01
        2   -1    0    0  501    0  0.00000000000E+00  0.00000000000E+00  0.69988610744E+03  0.69988610744E+03  0.25500000920E-02 0.  1.
       -2   -1    0    0    0  501  0.00000000000E+00  0.00000000000E+00 -0.91330752936E+03  0.91330752937E+03  0.25500000920E-02 0. -1.
    10030    2    1    2    0    0  0.00000000000E+00  0.00000000000E+00 -0.21342142193E+03  0.16131936368E+04  0.15990137606E+04 0.  0.
        4    1    3    3  502    0 -0.21556595805E+00 -0.66583550508E+03  0.33978904257E+03  0.74752603476E+03  0.12699999809E+01 0.  1.
       -4    1    3    3    0  502  0.21556595805E+00  0.66583550508E+03 -0.55321046450E+03  0.86566760204E+03  0.12699999809E+01 0. -1.
</event>
<event>
 5   0  0.7849690E-05  0.1593699E+04  0.7818609E-02  0.8824428E-01
        2   -1    0    0  501    0  0.00000000000E+00  0.00000000000E+00  0.16200647557E+04  0.16200647557E+04  0.25500000920E-02 0. -1.
       -2   -1    0    0    0  501  0.00000000000E+00  0.00000000000E+00 -0.39194063932E+03  0.39194063933E+03  0.25500000920E-02 0.  1.
    10030    2    1    2    0    0  0.00000000000E+00  0.00000000000E+00  0.12281241164E+04  0.20120053950E+04  0.15936991135E+04 0.  0.
        3    1    3    3  502    0 -0.72797141648E+03  0.78496208699E+02  0.21710414488E+03  0.76370037182E+03  0.10100000352E+00 0. -1.
       -3    1    3    3    0  502  0.72797141648E+03 -0.78496208699E+02  0.10110199715E+04  0.12483050232E+04  0.10100000352E+00 0.  1.
</event>
<event>
 5   0  0.4256406E-05  0.1600333E+04  0.7818609E-02  0.8820344E-01
       -1   -1    0    0    0  501  0.00000000000E+00  0.00000000000E+00  0.73936526953E+03  0.73936526955E+03  0.50400001928E-02 0.  1.
        1   -1    0    0  501    0  0.00000000000E+00  0.00000000000E+00 -0.86596746344E+03  0.86596746346E+03  0.50400001928E-02 0. -1.
    10030    2    1    2    0    0  0.00000000000E+00  0.00000000000E+00 -0.12660219391E+03  0.16053327330E+04  0.16003327992E+04 0.  0.
        3    1    3    3  502    0 -0.28456176735E+03 -0.38661858135E+03  0.57886844418E+03  0.75202261452E+03  0.10100000352E+00 0.  1.
       -3    1    3    3    0  502  0.28456176735E+03  0.38661858135E+03 -0.70547063810E+03  0.85331011848E+03  0.10100000352E+00 0. -1.
</event>
<event>
 5   0  0.8037548E-05  0.1599893E+04  0.7818609E-02  0.8820614E-01
       -2   -1    0    0    0  501  0.00000000000E+00  0.00000000000E+00  0.36309186921E+03  0.36309186922E+03  0.25500000920E-02 0. -1.
        2   -1    0    0  501    0  0.00000000000E+00  0.00000000000E+00 -0.17624042402E+04  0.17624042402E+04  0.25500000920E-02 0.  1.
    10030    2    1    2    0    0  0.00000000000E+00  0.00000000000E+00 -0.13993123710E+04  0.21254961094E+04  0.15998933088E+04 0.  0.
        5    1    3    3  502    0 -0.77725305380E+03  0.49724333419E+02 -0.94208077963E+03  0.12223473747E+04  0.46999998093E+01 0. -1.
       -5    1    3    3    0  502  0.77725305380E+03 -0.49724333419E+02 -0.45723159134E+03  0.90314873476E+03  0.46999998093E+01 0.  1.
</event>
<event>
 5   0  0.7901257E-05  0.1600570E+04  0.7818609E-02  0.8820198E-01
        2   -1    0    0  501    0  0.00000000000E+00  0.00000000000E+00  0.20703391409E+04  0.20703391409E+04  0.25500000920E-02 0.  1.
       -2   -1    0    0    0  501  0.00000000000E+00  0.00000000000E+00 -0.30934827414E+03  0.30934827415E+03  0.25500000920E-02 0. -1.
    10030    2    1    2    0    0  0.00000000000E+00  0.00000000000E+00  0.17609908667E+04  0.23796874150E+04  0.16005696987E+04 0.  0.
        2    1    3    3  502    0  0.28504941544E+03 -0.74626019678E+03  0.80921716440E+03  0.11370971241E+04  0.25500000920E-02 0. -1.
       -2    1    3    3    0  502 -0.28504941544E+03  0.74626019678E+03  0.95177370231E+03  0.12425902909E+04  0.25500000920E-02 0.  1.
</event>
<event>
 5   0  0.4256406E-05  0.1592377E+04  0.7818609E-02  0.8825245E-01
        1   -1    0    0  501    0  0.00000000000E+00  0.00000000000E+00  0.15954162256E+04  0.15954162256E+04  0.50400001928E-02 0. -1.
       -1   -1    0    0    0  501  0.00000000000E+00  0.00000000000E+00 -0.39733571087E+03  0.39733571090E+03  0.50400001928E-02 0.  1.
    10030    2    1    2    0    0  0.00000000000E+00  0.00000000000E+00  0.11980805148E+04  0.19927519365E+04  0.15923766391E+04 0.  0.
        3    1    3    3  502    0 -0.17339155576E+03  0.34500172280E+03  0.14704049321E+04  0.15202570489E+04  0.10100000352E+00 0. -1.
       -3    1    3    3    0  502  0.17339155576E+03 -0.34500172280E+03 -0.27232441732E+03  0.47249488761E+03  0.10100000352E+00 0.  1.
</event>
<event>
 5   0  0.8037548E-05  0.1600936E+04  0.7818609E-02  0.8819973E-01
        2   -1    0    0  501    0  0.00000000000E+00  0.00000000000E+00  0.13779882750E+04  0.13779882750E+04  0.25500000920E-02 0. -1.
       -2   -1    0    0    0  501  0.00000000000E+00  0.00000000000E+00 -0.46498899538E+03  0.46498899538E+03  0.25500000920E-02 0.  1.
    10030    2    1    2    0    0  0.00000000000E+00  0.00000000000E+00  0.91299927958E+03  0.18429772703E+04  0.16009364555E+04 0.  0.
        5    1    3    3  502    0 -0.15522336186E+03 -0.72160260236E+03  0.99961043711E+02  0.74486167042E+03  0.46999998093E+01 0.  1.
       -5    1    3    3    0  502  0.15522336186E+03  0.72160260236E+03  0.81303823587E+03  0.10981155999E+04  0.46999998093E+01 0. -1.
</event>
<event>
 5   0  0.4314657E-05  0.1597299E+04  0.7818609E-02  0.8822209E-01
        1   -1    0    0  501    0  0.00000000000E+00  0.00000000000E+00  0.20184042632E+04  0.20184042632E+04  0.50400001928E-02 0.  1.
       -1   -1    0    0    0  501  0.00000000000E+00  0.00000000000E+00 -0.31601255078E+03  0.31601255082E+03  0.50400001928E-02 0. -1.
    10030    2    1    2    0    0  0.00000000000E+00  0.00000000000E+00  0.17023917124E+04  0.23344168140E+04  0.15972990700E+04 0.  0.
        5    1    3    3  502    0  0.28546328162E+03 -0.68404424010E+03  0.12857567835E+04  0.14841153607E+04  0.46999998093E+01 0. -1.
       -5    1    3    3    0  502 -0.28546328162E+03  0.68404424010E+03  0.41663492898E+03  0.85030145337E+03  0.46999998093E+01 0.  1.
</event>
<event>
 5   0  0.8037548E-05  0.1600537E+04  0.7818609E-02  0.8820218E-01
        2   -1    0    0  501    0  0.00000000000E+00  0.00000000000E+00  0.10576195198E+04  0.10576195198E+04  0.25500000920E-02 0.  1.
       -2   -1    0    0    0  501  0.00000000000E+00  0.00000000000E+00 -0.60553906944E+03  0.60553906944E+03  0.25500000920E-02 0. -1.
    10030    2    1    2    0    0  0.00000000000E+00  0.00000000000E+00  0.45208045036E+03  0.16631585892E+04  0.16005373346E+04 0.  0.
        5    1    3    3  502    0 -0.32830053815E+03  0.72974127389E+03  0.21542894669E+03  0.82869493255E+03  0.46999998093E+01 0.  1.
       -5    1    3    3    0  502  0.32830053815E+03 -0.72974127389E+03  0.23665150368E+03  0.83446365670E+03  0.46999998093E+01 0. -1.
</event>
<event>
 5   0  0.8694033E-05  0.1608340E+04  0.7818609E-02  0.8815441E-01
       -2   -1    0    0    0  501  0.00000000000E+00  0.00000000000E+00  0.11619146619E+04  0.11619146619E+04  0.25500000920E-02 0. -1.
        2   -1    0    0  501    0  0.00000000000E+00  0.00000000000E+00 -0.55657192342E+03  0.55657192342E+03  0.25500000920E-02 0.  1.
    10030    2    1    2    0    0  0.00000000000E+00  0.00000000000E+00  0.60534273851E+03  0.17184865853E+04  0.16083396137E+04 0.  0.
        1    1    3    3  502    0  0.24809597744E+03 -0.59022683232E+03  0.82258534986E+03  0.10423847588E+04  0.50400001928E-02 0. -1.
       -1    1    3    3    0  502 -0.24809597744E+03  0.59022683232E+03 -0.21724261135E+03  0.67610182652E+03  0.50400001928E-02 0.  1.
</event>
<event>
 5   0  0.8620155E-05  0.1599378E+04  0.7818609E-02  0.8820930E-01
       -2   -1    0    0    0  501  0.00000000000E+00  0.00000000000E+00  0.46677993792E+03  0.46677993792E+03  0.25500000920E-02 0. -1.
        2   -1    0    0  501    0  0.00000000000E+00  0.00000000000E+00 -0.13700304276E+04  0.13700304276E+04  0.25500000920E-02 0.  1.
    10030    2    1    2    0    0  0.00000000000E+00  0.00000000000E+00 -0.90325048965E+03  0.18368103655E+04  0.15993782766E+04 0.  0.
        4    1    3    3  502    0 -0.51533035377E+02  0.79341151188E+03 -0.35320864687E+03  0.87000887469E+03  0.12699999809E+01 0.  1.
       -4    1    3    3    0  502  0.51533035377E+02 -0.79341151188E+03 -0.55004184278E+03  0.96680149080E+03  0.12699999809E+01 0. -1.
</event>
<event>
 5   0  0.4256406E-05  0.1604153E+04  0.7818609E-02  0.8818001E-01
        1   -1    0    0  501    0  0.00000000000E+00  0.00000000000E+00  0.12574903360E+04  0.12574903360E+04  0.50400001928E-02 0. -1.
       -1   -1    0    0    0  501  0.00000000000E+00  0.00000000000E+00 -0.51159566688E+03  0.51159566691E+03  0.50400001928E-02 0.  1.
    10030    2    1    2    0    0  0.00000000000E+00  0.00000000000E+00  0.74589466908E+03  0.17690860029E+04  0.16041528693E+04 0.  0.
        3    1    3    3  502    0  0.71187039680E+03  0.34402004164E+03  0.22409839432E+03  0.82178424871E+03  0.10100000352E+00 0.  1.
       -3    1    3    3    0  502 -0.71187039680E+03 -0.34402004164E+03  0.52179627476E+03  0.94730175417E+03  0.10100000352E+00 0. -1.
</event>
<event>
 5   0  0.4373026E-05  0.1600403E+04  0.7818609E-02  0.8820300E-01
       -1   -1    0    0    0  501  0.00000000000E+00  0.00000000000E+00  0.69261636638E+03  0.69261636639E+03  0.50400001928E-02 0. -1.
        1   -1    0    0  501    0  0.00000000000E+00  0.00000000000E+00 -0.92449853956E+03  0.92449853957E+03  0.50400001928E-02 0.  1.
    10030    2    1    2    0    0  0.00000000000E+00  0.00000000000E+00 -0.23188217318E+03  0.16171149060E+04  0.16004034731E+04 0.  0.
        4    1    3    3  502    0  0.30562183943E+03 -0.59779556818E+03 -0.55586873615E+03  0.87163978501E+03  0.12699999809E+01 0.  1.
       -4    1    3    3    0  502 -0.30562183943E+03  0.59779556818E+03  0.32398656297E+03  0.74547512096E+03  0.12699999809E+01 0. -1.
</event>
<event>
 5   0  0.8694033E-05  0.1595283E+04  0.7818609E-02  0.8823451E-01
        2   -1    0    0  501    0  0.00000000000E+00  0.00000000000E+00  0.12335960925E+04  0.12335960925E+04  0.25500000920E-02 0.  1.
       -2   -1    0    0    0  501  0.00000000000E+00  0.00000000000E+00 -0.51575417114E+03  0.51575417115E+03  0.25500000920E-02 0. -1.
    10030    2    1    2    0    0  0.00000000000E+00  0.00000000000E+00  0.71784192138E+03  0.17493502637E+04  0.15952834610E+04 0.  0.
        1    1    3    3  502    0 -0.10624840183E+03  0.28420282978E+03  0.11678438998E+04  0.12066148291E+04  0.50400001928E-02 0.  1.
       -1    1    3    3    0  502  0.10624840183E+03 -0.28420282978E+03 -0.45000197844E+03  0.54273543460E+03  0.50400001928E-02 0. -1.
</event>
<event>
 5   0  0.4504463E-05  0.1598736E+04  0.7818609E-02  0.8821325E-01
        1   -1    0    0  501    0  0.00000000000E+00  0.00000000000E+00  0.38834413368E+03  0.38834413371E+03  0.50400001928E-02 0.  1.
       -1   -1    0    0    0  501  0.00000000000E+00  0.00000000000E+00 -0.16454193450E+04  0.16454193451E+04  0.50400001928E-02 0. -1.
    10030    2    1    2    0    0  0.00000000000E+00  0.00000000000E+00 -0.12570752114E+04  0.20337634788E+04  0.15987356881E+04 0.  0.
        1    1    3    3  502    0 -0.31034303527E+03 -0.22527283182E+03  0.26368799264E+03  0.46539446257E+03  0.50400001928E-02 0.  1.
       -1    1    3    3    0  502  0.31034303527E+03  0.22527283182E+03 -0.15207632040E+04  0.15683690162E+04  0.50400001928E-02 0. -1.
</event>
<event>
 5   0  0.8620155E-05  0.1598787E+04  0.7818609E-02  0.8821293E-01
       -2   -1    0    0    0  501  0.00000000000E+00  0.00000000000E+00  0.42147889238E+03  0.42147889239E+03  0.25500000920E-02 0. -1.
        2   -1    0    0  501    0  0.00000000000E+00  0.00000000000E+00 -0.15161614303E+04  0.15161614303E+04  0.25500000920E-02 0.  1.
    10030    2    1    2    0    0  0.00000000000E+00  0.00000000000E+00 -0.10946825379E+04  0.19376403227E+04  0.15987870907E+04 0.  0.
        4    1    3    3  502    0 -0.12517889970E+03  0.69068740790E+03 -0.83767445004E+02  0.70692110600E+03  0.12699999809E+01 0. -1.
       -4    1    3    3    0  502  0.12517889970E+03 -0.69068740790E+03 -0.10109150929E+04  0.12307192167E+04  0.12699999809E+01 0.  1.
</event>
<event>
 5   0  0.8037548E-05  0.1597722E+04  0.7818609E-02  0.8821948E-01
       -2   -1    0    0    0  501  0.00000000000E+00  0.00000000000E+00  0.46266834733E+03  0.46266834734E+03  0.25500000920E-02 0. -1.
        2   -1    0    0  501    0  0.00000000000E+00  0.00000000000E+00 -0.13793448233E+04  0.13793448233E+04  0.25500000920E-02 0.  1.
    10030    2    1    2    0    0  0.00000000000E+00  0.00000000000E+00 -0.91667647601E+03  0.18420131707E+04  0.15977223661E+04 0.  0.
        5    1    3    3  502    0  0.31349385857E+03  0.19529446057E+03 -0.12749774861E+04  0.13274064961E+04  0.46999998093E+01 0.  1.
       -5    1    3    3    0  502 -0.31349385857E+03 -0.19529446057E+03  0.35830101012E+03  0.51460667460E+03  0.46999998093E+01 0. -1.
</event>
<event>
 5   0  0.8037548E-05  0.1600800E+04  0.7818609E-02  0.8820056E-01
       -2   -1    0    0    0  501  0.00000000000E+00  0.00000000000E+00  0.98973254992E+03  0.98973254993E+03  0.25500000920E-02 0. -1.
        2   -1    0    0  501    0  0.00000000000E+00  0.00000000000E+00 -0.64728643820E+03  0.64728643821E+03  0.25500000920E-02 0.  1.
    10030    2    1    2    0    0  0.00000000000E+00  0.00000000000E+00  0.34244611172E+03  0.16370189881E+04  0.16008003711E+04 0.  0.
        5    1    3    3  502    0 -0.37494083262E+03  0.58897081036E+03  0.57142264118E+03  0.90222678318E+03  0.46999998093E+01 0. -1.
       -5    1    3    3    0  502  0.37494083262E+03 -0.58897081036E+03 -0.22897652946E+03  0.73479220496E+03  0.46999998093E+01 0.  1.
</event>
<event>
 5   0  0.4373026E-05  0.1600349E+04  0.7818609E-02  0.8820334E-01
       -1   -1    0    0    0  501  0.00000000000E+00  0.00000000000E+00  0.69330756323E+03  0.69330756325E+03  0.50400001928E-02 0.  1.
        1   -1    0    0  501    0  0.00000000000E+00  0.00000000000E+00 -0.92351423360E+03  0.92351423361E+03  0.50400001928E-02 0. -1.
    10030    2    1    2    0    0  0.00000000000E+00  0.00000000000E+00 -0.23020667037E+03  0.16168217969E+04  0.16003492156E+04 0.  0.
        4    1    3    3  502    0 -0.29389022217E+03  0.72068407212E+03  0.72606829979E+02  0.78168430914E+03  0.12699999809E+01 0.  1.
       -4    1    3    3    0  502  0.29389022217E+03 -0.72068407212E+03 -0.30281350035E+03  0.83513748772E+03  0.12699999809E+01 0. -1.
</event>
<event>
 5   0  0.4373026E-05  0.1595671E+04  0.7818609E-02  0.8823212E-01
       -1   -1    0    0    0  501  0.00000000000E+00  0.00000000000E+00  0.98083030681E+03  0.98083030682E+03  0.50400001928E-02 0. -1.
        1   -1    0    0  501    0  0.00000000000E+00  0.00000000000E+00 -0.64898247777E+03  0.64898247779E+03  0.50400001928E-02 0.  1.
    10030    2    1    2    0    0  0.00000000000E+00  0.00000000000E+00  0.33184782903E+03  0.16298127846E+04  0.15956712479E+04 0.  0.
        4    1    3    3  502    0 -0.17773991079E+03 -0.77718408862E+03  0.19713064731E+03  0.82126042672E+03  0.12699999809E+01 0.  1.
       -4    1    3    3    0  502  0.17773991079E+03  0.77718408862E+03  0.13471718172E+03  0.80855235789E+03  0.12699999809E+01 0. -1.
</event>
<event>
 5   0  0.4504463E-05  0.1601073E+04  0.7818609E-02  0.8819889E-01
       -1   -1    0    0    0  501  0.00000000000E+00  0.00000000000E+00  0.57363005408E+03  0.57363005410E+03  0.50400001928E-02 0. -1.
        1   -1    0    0  501    0  0.00000000000E+00  0.00000000000E+00 -0.11171990137E+04  0.11171990137E+04  0.50400001928E-02 0.  1.
    10030    2    1    2    0    0  0.00000000000E+00  0.00000000000E+00 -0.54356895963E+03  0.16908290678E+04  0.16010733034E+04 0.  0.
        1    1    3    3  502    0  0.56239937757E+03 -0.48111993179E+03 -0.59399431749E+03  0.94899878709E+03  0.50400001928E-02 0.  1.
       -1    1    3    3    0  502 -0.56239937757E+03  0.48111993179E+03  0.50425357860E+02  0.74183028073E+03  0.50400001928E-02 0. -1.
</event>
<event>
 5   0  0.8037548E-05  0.1600866E+04  0.7818609E-02  0.8820016E-01
       -2   -1    0    0    0  501  0.00000000000E+00  0.00000000000E+00  0.39845523164E+03  0.39845523165E+03  0.25500000920E-02 0.  1.
        2   -1    0    0  501    0  0.00000000000E+00  0.00000000000E+00 -0.16079415081E+04  0.16079415081E+04  0.25500000920E-02 0. -1.
    10030    2    1    2    0    0  0.00000000000E+00  0.00000000000E+00 -0.12094862764E+04  0.20063967397E+04  0.16008656484E+04 0.  0.
        5    1    3    3  502    0 -0.67114000313E+03 -0.24401174103E+03 -0.15163726395E+03  0.73005930128E+03  0.46999998093E+01 0.  1.
       -5    1    3    3    0  502  0.67114000313E+03  0.24401174103E+03 -0.10578490125E+04  0.12763374384E+04  0.46999998093E+01 0. -1.
</event>
<event>
 5   0  0.8620155E-05  0.1602475E+04  0.7818609E-02  0.8819029E-01
        2   -1    0    0  501    0  0.00000000000E+00  0.00000000000E+00  0.22187372118E+04  0.22187372118E+04  0.25500000920E-02 0. -1.
       -2   -1    0    0    0  501  0.00000000000E+00  0.00000000000E+00 -0.28934554439E+03  0.28934554440E+03  0.25500000920E-02 0.  1.
    10030    2    1    2    0    0  0.00000000000E+00  0.00000000000E+00  0.19293916674E+04  0.25080827562E+04  0.16024752434E+04 0.  0.
        4    1    3    3  502    0  0.15069703079E+03 -0.13788423238E+03  0.21773017342E+04  0.21868621611E+04  0.12699999809E+01 0. -1.
       -4    1    3    3    0  502 -0.15069703079E+03  0.13788423238E+03 -0.24791006682E+03  0.32122059516E+03  0.12699999809E+01 0.  1.
</event>
<event>
 5   0  0.8694033E-05  0.1599646E+04  0.7818609E-02  0.8820766E-01
        2   -1    0    0  501    0  0.00000000000E+00  0.00000000000E+00  0.11523124569E+04  0.11523124569E+04  0.25500000920E-02 0. -1.
       -2   -1    0    0    0  501  0.00000000000E+00  0.00000000000E+00 -0.55515895457E+03  0.55515895458E+03  0.25500000920E-02 0.  1.
    10030    2    1    2    0    0  0.00000000000E+00  0.00000000000E+00  0.59715350228E+03  0.17074714114E+04  0.15996456844E+04 0.  0.
        1    1    3    3  502    0 -0.79161384471E+03 -0.10453162557E+03  0.24923027023E+03  0.83647777466E+03  0.50400001928E-02 0. -1.
       -1    1    3    3    0  502  0.79161384471E+03  0.10453162557E+03  0.34792323205E+03  0.87099363678E+03  0.50400001928E-02 0.  1.
</event>
<event>
 5   0  0.8694033E-05  0.1598821E+04  0.7818609E-02  0.8821273E-01
       -2   -1    0    0    0  501  0.00000000000E+00  0.00000000000E+00  0.47200038170E+03  0.47200038170E+03  0.25500000920E-02 0.  1.
        2   -1    0    0  501    0  0.00000000000E+00  0.00000000000E+00 -0.13539328341E+04  0.13539328341E+04  0.25500000920E-02 0. -1.
    10030    2    1    2    0    0  0.00000000000E+00  0.00000000000E+00 -0.88193245241E+03  0.18259332158E+04  0.15988205834E+04 0.  0.
        1    1    3    3  502    0 -0.24821054719E+03 -0.32267467695E+03 -0.12266845740E+04  0.12924714569E+04  0.50400001928E-02 0. -1.
       -1    1    3    3    0  502  0.24821054719E+03  0.32267467695E+03  0.34475212155E+03  0.53346175891E+03  0.50400001928E-02 0.  1.
</event>
<event>
 5   0  0.4211419E-05  0.1603265E+04  0.7818609E-02  0.8818545E-01
        1   -1    0    0  501    0  0.00000000000E+00  0.00000000000E+00  0.21489972049E+04  0.21489972049E+04  0.50400001928E-02 0.  1.
       -1   -1    0    0    0  501  0.00000000000E+00  0.00000000000E+00 -0.29902983920E+03  0.29902983924E+03  0.50400001928E-02 0. -1.
    10030    2    1    2    0    0  0.00000000000E+00  0.00000000000E+00  0.18499673657E+04  0.24480270441E+04  0.16032645305E+04 0.  0.
        2    1    3    3  502    0 -0.54098093147E+03  0.45632546520E+03  0.14997987134E+04  0.16583996742E+04  0.25500000920E-02 0.  1.
       -2    1    3    3    0  502  0.54098093147E+03 -0.45632546520E+03  0.35016865226E+03  0.78962736998E+03  0.25500000920E-02 0. -1.
</event>
<event>
 5   0  0.4314657E-05  0.1601504E+04  0.7818609E-02  0.8819624E-01
        1   -1    0    0  501    0  0.00000000000E+00  0.00000000000E+00  0.60438222389E+03  0.60438222391E+03  0.50400001928E-02 0.  1.
       -1   -1    0    0    0  501  0.00000000000E+00  0.00000000000E+00 -0.10609245202E+04  0.10609245202E+04  0.50400001928E-02 0. -1.
    10030    2    1    2    0    0  0.00000000000E+00  0.00000000000E+00 -0.45654229627E+03  0.16653067441E+04  0.16015041941E+04 0.  0.
        5    1    3    3  502    0  0.44807380333E+03  0.46215625853E+03  0.26696231627E+03  0.69688557801E+03  0.46999998093E+01 0. -1.
       -5    1    3    3    0  502 -0.44807380333E+03 -0.46215625853E+03 -0.72350461254E+03  0.96842116607E+03  0.46999998093E+01 0.  1.
</event>
<event>
 5   0  0.8037548E-05  0.1599648E+04  0.7818609E-02  0.8820764E-01
        2   -1    0    0  501    0  0.00000000000E+00  0.00000000000E+00  0.92661073150E+03  0.92661073150E+03  0.25500000920E-02 0. -1.
       -2   -1    0    0    0  501  0.00000000000E+00  0.00000000000E+00 -0.69038573203E+03  0.69038573203E+03  0.25500000920E-02 0.  1.
    10030    2    1    2    0    0  0.00000000000E+00  0.00000000000E+00  0.23622499947E+03  0.16169964635E+04  0.15996484966E+04 0.  0.
        5    1    3    3  502    0 -0.49087686565E+02  0.68288933668E+03 -0.29983156286E+03  0.74744130419E+03  0.46999998093E+01 0.  1.
       -5    1    3    3    0  502  0.49087686565E+02 -0.68288933668E+03  0.53605656233E+03  0.86955515934E+03  0.46999998093E+01 0. -1.
</event>
<event>
 5   0  0.4373026E-05  0.1599574E+04  0.7818609E-02  0.8820810E-01
        1   -1    0    0  501    0  0.00000000000E+00  0.00000000000E+00  0.13642083171E+04  0.13642083171E+04  0.50400001928E-02 0.  1.
       -1   -1    0    0    0  501  0.00000000000E+00  0.00000000000E+00 -0.46888655672E+03  0.46888655674E+03  0.50400001928E-02 0. -1.
    10030    2    1    2    0    0  0.00000000000E+00  0.00000000000E+00  0.89532176038E+03  0.18330948738E+04  0.15995736188E+04 0.  0.
        4    1    3    3  502    0 -0.22645314276E+03  0.35157120664E+03 -0.33360996363E+03  0.53495846562E+03  0.12699999809E+01 0. -1.
       -4    1    3    3    0  502  0.22645314276E+03 -0.35157120664E+03  0.12289317240E+04  0.12981364082E+04  0.12699999809E+01 0.  1.
</event>
<event>
 5   0  0.7901257E-05  0.1604329E+04  0.7818609E-02  0.8817893E-01
        2   -1    0    0  501    0  0.00000000000E+00  0.00000000000E+00  0.13379348650E+04  0.13379348650E+04  0.25500000920E-02 0.  1.
       -2   -1    0    0    0  501  0.00000000000E+00  0.00000000000E+00 -0.48094132110E+03  0.48094132111E+03  0.25500000920E-02 0. -1.
    10030    2    1    2    0    0  0.00000000000E+00  0.00000000000E+00  0.85699354393E+03  0.18188761861E+04  0.16043293447E+04 0.  0.
        2    1    3    3  502    0  0.59857600063E+03 -0.33499337551E+03  0.89998991517E+03  0.11315898716E+04  0.25500000920E-02 0. -1.
       -2    1    3    3    0  502 -0.59857600063E+03  0.33499337551E+03 -0.42996371247E+02  0.68728631451E+03  0.25500000920E-02 0.  1.
</event>
<event>
 5   0  0.4504463E-05  0.1600460E+04  0.7818609E-02  0.8820266E-01
        1   -1    0    0  501    0  0.00000000000E+00  0.00000000000E+00  0.14458335049E+04  0.14458335049E+04  0.50400001928E-02 0.  1.
       -1   -1    0    0    0  501  0.00000000000E+00  0.00000000000E+00 -0.44290562451E+03  0.44290562454E+03  0.50400001928E-02 0. -1.
    10030    2    1    2    0    0  0.00000000000E+00  0.00000000000E+00  0.10029278804E+04  0.18887391295E+04  0.16004596733E+04 0.  0.
        1    1    3    3  502    0  0.69253259036E+03  0.39049382498E+03  0.60885496563E+03  0.10013946201E+04  0.50400001928E-02 0. -1.
       -1    1    3    3    0  502 -0.69253259036E+03 -0.39049382498E+03  0.39407291479E+03  0.88734450934E+03  0.50400001928E-02 0.  1.
</event>
<event>
 5   0  0.7849690E-05  0.1602837E+04  0.7818609E-02  0.8818807E-01
       -2   -1    0    0    0  501  0.00000000000E+00  0.00000000000E+00  0.11993386549E+04  0.11993386549E+04  0.25500000920E-02 0. -1.
        2   -1    0    0  501    0  0.00000000000E+00  0.00000000000E+00 -0.53552155735E+03  0.53552155736E+03  0.25500000920E-02 0.  1.
    10030    2    1    2    0    0  0.00000000000E+00  0.00000000000E+00  0.66381709751E+03  0.17348602122E+04  0.16028371149E+04 0.  0.
        3    1    3    3  502    0  0.45255426890E+03 -0.12879655027E+03  0.10340960482E+04  0.11361111586E+04  0.10100000352E+00 0. -1.
       -3    1    3    3    0  502 -0.45255426890E+03  0.12879655027E+03 -0.37027895069E+03  0.59874905360E+03  0.10100000352E+00 0.  1.
</event>
<event>
 5   0  0.8037548E-05  0.1595078E+04  0.7818609E-02  0.8823577E-01
       -2   -1    0    0    0  501  0.00000000000E+00  0.00000000000E+00  0.87325648237E+03  0.87325648238E+03  0.25500000920E-02 0. -1.
        2   -1    0    0  501    0  0.00000000000E+00  0.00000000000E+00 -0.72838707464E+03  0.72838707464E+03  0.25500000920E-02 0.  1.
    10030    2    1    2    0    0  0.00000000000E+00  0.00000000000E+00  0.14486940774E+03  0.16016435570E+04  0.15950783487E+04 0.  0.
        5    1    3    3  502    0 -0.16148495442E+03 -0.47885791032E+03  0.69195417049E+03  0.85685760359E+03  0.46999998093E+01 0. -1.
       -5    1    3    3    0  502  0.16148495442E+03  0.47885791032E+03 -0.54708476275E+03  0.74478595342E+03  0.46999998093E+01 0.  1.
</event>
<event>
 5   0  0.4504463E-05  0.1602305E+04  0.7818609E-02  0.8819133E-01
       -1   -1    0    0    0  501  0.00000000000E+00  0.00000000000E+00  0.33344935644E+03  0.33344935648E+03  0.50400001928E-02 0. -1.
        1   -1    0    0  501    0  0.00000000000E+00  0.00000000000E+00 -0.19248670067E+04  0.19248670067E+04  0.50400001928E-02 0.  1.
    10030    2    1    2    0    0  0.00000000000E+00  0.00000000000E+00 -0.15914176503E+04  0.22583163632E+04  0.16023054199E+04 0.  0.
        1    1    3    3  502    0  0.22876153125E+03 -0.19506853270E+03  0.25093113636E+03  0.39159929245E+03  0.50400001928E-02 0. -1.
       -1    1    3    3    0  502 -0.22876153125E+03  0.19506853270E+03 -0.18423487866E+04  0.18667170707E+04  0.50400001928E-02 0.  1.
</event>
<event>
 5   0  0.4373026E-05  0.1600369E+04  0.7818609E-02  0.8820322E-01
       -1   -1    0    0    0  501  0.00000000000E+00  0.00000000000E+00  0.42057826934E+03  0.42057826937E+03  0.50400001928E-02 0.  1.
        1   -1    0    0  501    0  0.00000000000E+00  0.00000000000E+00 -0.15224156199E+04  0.15224156199E+04  0.50400001928E-02 0. -1.
    10030    2    1    2    0    0  0.00000000000E+00  0.00000000000E+00 -0.11018373506E+04  0.19429938893E+04  0.16003686159E+04 0.  0.
        4    1    3    3  502    0  0.52226272036E+01 -0.19201722240E+03  0.39216975051E+03  0.43668823621E+03  0.12699999809E+01 0.  1.
       -4    1    3    3    0  502 -0.52226272036E+01  0.19201722240E+03 -0.14940071011E+04  0.15063056531E+04  0.12699999809E+01 0. -1.
</event>
<event>
 5   0  0.4314657E-05  0.1598437E+04  0.7818609E-02  0.8821509E-01
       -1   -1    0    0    0  501  0.00000000000E+00  0.00000000000E+00  0.64731833123E+03  0.64731833125E+03  0.50400001928E-02 0. -1.
        1   -1    0    0  501    0  0.00000000000E+00  0.00000000000E+00 -0.98676416193E+03  0.98676416194E+03  0.50400001928E-02 0.  1.
    10030    2    1    2    0    0  0.00000000000E+00  0.00000000000E+00 -0.33944583070E+03  0.16340824932E+04  0.15984374003E+04 0.  0.
        5    1    3    3  502    0  0.99896553155E+02  0.65196952632E+02 -0.97759766850E+03  0.98486001819E+03  0.46999998093E+01 0.  1.
       -5    1    3    3    0  502 -0.99896553155E+02 -0.65196952632E+02  0.63815183781E+03  0.64922247501E+03  0.46999998093E+01 0. -1.
</event>
<event>
 5   0  0.4314657E-05  0.1599683E+04  0.7818609E-02  0.8820743E-01
        1   -1    0    0  501    0  0.00000000000E+00  0.00000000000E+00  0.10914952694E+04  0.10914952694E+04  0.50400001928E-02 0. -1.
       -1   -1    0    0    0  501  0.00000000000E+00  0.00000000000E+00 -0.58611894431E+03  0.58611894434E+03  0.50400001928E-02 0.  1.
    10030    2    1    2    0    0  0.00000000000E+00  0.00000000000E+00  0.50537632505E+03  0.16776142137E+04  0.15996825373E+04 0.  0.
        5    1    3    3  502    0 -0.46230233300E+03  0.20135711290E+03 -0.39840870075E+03  0.64266610059E+03  0.46999998093E+01 0.  1.
       -5    1    3    3    0  502  0.46230233300E+03 -0.20135711290E+03  0.90378502579E+03  0.10349481131E+04  0.46999998093E+01 0. -1.
</event>
<event>
 5   0  0.8037548E-05  0.1650419E+04  0.7818609E-02  0.8790159E-01
        2   -1    0    0  501    0  0.00000000000E+00  0.00000000000E+00  0.67509698903E+03  0.67509698903E+03  0.25500000920E-02 0. -1.
       -2   -1    0    0    0  501  0.00000000000E+00  0.00000000000E+00 -0.10087004490E+04  0.10087004490E+04  0.25500000920E-02 0.  1.
    10030    2    1    2    0    0  0.00000000000E+00  0.00000000000E+00 -0.33360346000E+03  0.16837974381E+04  0.16504188995E+04 0.  0.
        5    1    3    3  502    0 -0.24916535186E+03  0.11554453462E+03 -0.96068742761E+03  0.99918783801E+03  0.46999998093E+01 0.  1.
       -5    1    3    3    0  502  0.24916535186E+03 -0.11554453462E+03  0.62708396762E+03  0.68460960006E+03  0.46999998093E+01 0. -1.
</event>
<event>
 5   0  0.8037548E-05  0.1601366E+04  0.7818609E-02  0.8819709E-01
        2   -1    0    0  501    0  0.00000000000E+00  0.00000000000E+00  0.88138661716E+03  0.88138661716E+03  0.25500000920E-02 0.  1.
       -2   -1    0    0    0  501  0.00000000000E+00  0.00000000000E+00 -0.72736880311E+03  0.72736880312E+03  0.25500000920E-02 0. -1.
    10030    2    1    2    0    0  0.00000000000E+00  0.00000000000E+00  0.15401781404E+03  0.16087554203E+04  0.16013658280E+04 0.  0.
        5    1    3    3  502    0  0.53433809402E+03 -0.55658301333E+03 -0.13791566800E+03  0.78380142315E+03  0.46999998093E+01 0. -1.
       -5    1    3    3    0  502 -0.53433809402E+03  0.55658301333E+03  0.29193348204E+03  0.82495399713E+03  0.46999998093E+01 0.  1.
</event>
<event>
 5   0  0.7849690E-05  0.1604552E+04  0.7818609E-02  0.8817756E-01
        2   -1    0    0  501    0  0.00000000000E+00  0.00000000000E+00  0.11516756256E+04  0.11516756256E+04  0.25500000920E-02 0. -1.
       -2   -1    0    0    0  501  0.00000000000E+00  0.00000000000E+00 -0.55887875748E+03  0.55887875749E+03  0.25500000920E-02 0.  1.
    10030    2    1    2    0    0  0.00000000000E+00  0.00000000000E+00  0.59279686815E+03  0.17105543831E+04  0.16045523272E+04 0.  0.
        3    1    3    3  502    0  0.18171782274E+03  0.22044331776E+03 -0.50281524474E+03  0.57830770701E+03  0.10100000352E+00 0.  1.
       -3    1    3    3    0  502 -0.18171782274E+03 -0.22044331776E+03  0.10956121129E+04  0.11322466761E+04  0.10100000352E+00 0. -1.
</event>
<event>
 5   0  0.8037548E-05  0.1600544E+04  0.7818609E-02  0.8820214E-01
        2   -1    0    0  501    0  0.00000000000E+00  0.00000000000E+00  0.98739676568E+03  0.98739676569E+03  0.25500000920E-02 0. -1.
       -2   -1    0    0    0  501  0.00000000000E+00  0.00000000000E+00 -0.64860980144E+03  0.64860980144E+03  0.25500000920E-02 0.  1.
    10030    2    1    2    0    0  0.00000000000E+00  0.00000000000E+00  0.33878696425E+03  0.16360065671E+04  0.16005439327E+04 0.  0.
        5    1    3    3  502    0  0.18868493589E+03 -0.15898405753E+03 -0.60874581957E+03  0.65686490119E+03  0.46999998093E+01 0.  1.
       -5    1    3    3    0  502 -0.18868493589E+03  0.15898405753E+03  0.94753278381E+03  0.97914166594E+03  0.46999998093E+01 0. -1.
</event>
<event>
 5   0  0.4211419E-05  0.1598259E+04  0.7818609E-02  0.8821618E-01
       -1   -1    0    0    0  501  0.00000000000E+00  0.00000000000E+00  0.71032683925E+03  0.71032683927E+03  0.50400001928E-02 0.  1.
        1   -1    0    0  501    0  0.00000000000E+00  0.00000000000E+00 -0.89903375587E+03  0.89903375588E+03  0.50400001928E-02 0. -1.
    10030    2    1    2    0    0  0.00000000000E+00  0.00000000000E+00 -0.18870691662E+03  0.16093605951E+04  0.15982588103E+04 0.  0.
        2    1    3    3  502    0 -0.12132685338E+03 -0.25455798121E+03  0.65856211076E+03  0.71639655561E+03  0.25500000920E-02 0.  1.
       -2    1    3    3    0  502  0.12132685338E+03  0.25455798121E+03 -0.84726902738E+03  0.89296403954E+03  0.25500000920E-02 0. -1.
</event>
<event>
 5   0  0.7849690E-05  0.1601884E+04  0.7818609E-02  0.8819391E-01
        2   -1    0    0  501    0  0.00000000000E+00  0.00000000000E+00  0.11050409749E+04  0.11050409749E+04  0.25500000920E-02 0.  1.
       -2   -1    0    0    0  501  0.00000000000E+00  0.00000000000E+00 -0.58052884702E+03  0.58052884703E+03  0.25500000920E-02 0. -1.
    10030    2    1    2    0    0  0.00000000000E+00  0.00000000000E+00  0.52451212785E+03  0.16855698219E+04  0.16018840945E+04 0.  0.
        3    1    3    3  502    0 -0.24151924379E+03 -0.36895443297E+03 -0.44129129256E+03  0.62385650099E+03  0.10100000352E+00 0. -1.
       -3    1    3    3    0  502  0.24151924379E+03  0.36895443297E+03  0.96580342041E+03  0.10617133209E+04  0.10100000352E+00 0.  1.
</event>
<event>
 5   0  0.7901257E-05  0.1598026E+04  0.7818609E-02  0.8821761E-01
        2   -1    0    0  501    0  0.00000000000E+00  0.00000000000E+00  0.54354682836E+03  0.54354682837E+03  0.25500000920E-02 0.  1.
       -2   -1    0    0    0  501  0.00000000000E+00  0.00000000000E+00 -0.11745481904E+04  0.11745481904E+04  0.25500000920E-02 0. -1.
    10030    2    1    2    0    0  0.00000000000E+00  0.00000000000E+00 -0.63100136206E+03  0.17180950188E+04  0.15980262121E+04 0.  0.
        2    1    3    3  502    0  0.29784136097E+03  0.20878096110E+03 -0.10803771622E+04  0.11399621830E+04  0.25500000920E-02 0. -1.
       -2    1    3    3    0  502 -0.29784136097E+03 -0.20878096110E+03  0.44937580017E+03  0.57813283578E+03  0.25500000920E-02 0.  1.
</event>
<event>
 5   0  0.7849690E-05  0.1586676E+04  0.7818609E-02  0.8828775E-01
       -2   -1    0    0    0  501  0.00000000000E+00  0.00000000000E+00  0.23364788630E+03  0.23364788632E+03  0.25500000920E-02 0. -1.
        2   -1    0    0  501    0  0.00000000000E+00  0.00000000000E+00 -0.26937348035E+04  0.26937348035E+04  0.25500000920E-02 0.  1.
    10030    2    1    2    0    0  0.00000000000E+00  0.00000000000E+00 -0.24600869172E+04  0.29273826898E+04  0.15866763288E+04 0.  0.
        3    1    3    3  502    0 -0.35622184540E+03 -0.31202852303E+03 -0.24043680670E+04  0.24505594492E+04  0.10100000352E+00 0.  1.
       -3    1    3    3    0  502  0.35622184540E+03  0.31202852303E+03 -0.55718850217E+02  0.47682324062E+03  0.10100000352E+00 0. -1.
</event>
<event>
 5   0  0.4211419E-05  0.1599450E+04  0.7818609E-02  0.8820886E-01
       -1   -1    0    0    0  501  0.00000000000E+00  0.00000000000E+00  0.42164279768E+03  0.42164279771E+03  0.50400001928E-02 0. -1.
        1   -1    0    0  501    0  0.00000000000E+00  0.00000000000E+00 -0.15168284158E+04  0.15168284158E+04  0.50400001928E-02 0.  1.
    10030    2    1    2    0    0  0.00000000000E+00  0.00000000000E+00 -0.10951856181E+04  0.19384712135E+04  0.15994496264E+04 0.  0.
        2    1    3    3  502    0 -0.41396988948E+03  0.43239771202E+03 -0.11902991820E+04  0.13323479251E+04  0.25500000920E-02 0.  1.
       -2    1    3    3    0  502  0.41396988948E+03 -0.43239771202E+03  0.95113563881E+02  0.60612328845E+03  0.25500000920E-02 0. -1.
</event>
<event>
 5   0  0.7901257E-05  0.1599441E+04  0.7818609E-02  0.8820891E-01
        2   -1    0    0  501    0  0.00000000000E+00  0.00000000000E+00  0.15095613082E+04  0.15095613082E+04  0.25500000920E-02 0.  1.
       -2   -1    0    0    0  501  0.00000000000E+00  0.00000000000E+00 -0.42366814237E+03  0.42366814238E+03  0.25500000920E-02 0. -1.
    10030    2    1    2    0    0  0.00000000000E+00  0.00000000000E+00  0.10858931658E+04  0.19332294505E+04  0.15994411965E+04 0.  0.
        2    1    3    3  502    0 -0.66241445195E+03  0.38684983189E+03  0.81619443023E+03  0.11200977844E+04  0.25500000920E-02 0.  1.
       -2    1    3    3    0  502  0.66241445195E+03 -0.38684983189E+03  0.26969873555E+03  0.81313166618E+03  0.25500000920E-02 0. -1.
</event>
<event>
 5   0  0.4373026E-05  0.1598218E+04  0.7818609E-02  0.8821644E-01
       -1   -1    0    0    0  501  0.00000000000E+00  0.00000000000E+00  0.82694708679E+03  0.82694708681E+03  0.50400001928E-02 0. -1.
        1   -1    0    0  501    0  0.00000000000E+00  0.00000000000E+00 -0.77220768378E+03  0.77220768380E+03  0.50400001928E-02 0.  1.
    10030    2    1    2    0    0  0.00000000000E+00  0.00000000000E+00  0.54739403012E+02  0.15991547706E+04  0.15982176254E+04 0.  0.
        4    1    3    3  502    0 -0.23804830099E+03 -0.53719361416E+03  0.56928612328E+03  0.81812729802E+03  0.12699999809E+01 0. -1.
       -4    1    3    3    0  502  0.23804830099E+03  0.53719361416E+03 -0.51454672027E+03  0.78102747259E+03  0.12699999809E+01 0.  1.
</event>
<event>
 5   0  0.4373026E-05  0.1604496E+04  0.7818609E-02  0.8817791E-01
        1   -1    0    0  501    0  0.00000000000E+00  0.00000000000E+00  0.41213454863E+03  0.41213454866E+03  0.50400001928E-02 0.  1.
       -1   -1    0    0    0  501  0.00000000000E+00  0.00000000000E+00 -0.15616307815E+04  0.15616307815E+04  0.50400001928E-02 0. -1.
    10030    2    1    2    0    0  0.00000000000E+00  0.00000000000E+00 -0.11494962328E+04  0.19737653301E+04  0.16044961792E+04 0.  0.
        4    1    3    3  502    0 -0.35528236876E+03  0.38148699478E+03  0.17538154665E+03  0.55001653479E+03  0.12699999809E+01 0.  1.
       -4    1    3    3    0  502  0.35528236876E+03 -0.38148699478E+03 -0.13248777795E+04  0.14237487953E+04  0.12699999809E+01 0. -1.
</event>
<event>
 5   0  0.8620155E-05  0.1601569E+04  0.7818609E-02  0.8819585E-01
       -2   -1    0    0    0  501  0.00000000000E+00  0.00000000000E+00  0.46497099353E+03  0.46497099354E+03  0.25500000920E-02 0. -1.
        2   -1    0    0  501    0  0.00000000000E+00  0.00000000000E+00 -0.13791304568E+04  0.13791304568E+04  0.25500000920E-02 0.  1.
    10030    2    1    2    0    0  0.00000000000E+00  0.00000000000E+00 -0.91415946328E+03  0.18441014503E+04  0.16015688043E+04 0.  0.
        4    1    3    3  502    0  0.43346051603E+03 -0.67194360026E+03 -0.40745003715E+03  0.89744825286E+03  0.12699999809E+01 0. -1.
       -4    1    3    3    0  502 -0.43346051603E+03  0.67194360026E+03 -0.50670942613E+03  0.94665319749E+03  0.12699999809E+01 0.  1.
</event>
<event>
 5   0  0.4256406E-05  0.1598506E+04  0.7818609E-02  0.8821467E-01
       -1   -1    0    0    0  501  0.00000000000E+00  0.00000000000E+00  0.55636501729E+03  0.55636501732E+03  0.50400001928E-02 0.  1.
        1   -1    0    0  501    0  0.00000000000E+00  0.00000000000E+00 -0.11481762083E+04  0.11481762083E+04  0.50400001928E-02 0. -1.
    10030    2    1    2    0    0  0.00000000000E+00  0.00000000000E+00 -0.59181119098E+03  0.17045412256E+04  0.15985056472E+04 0.  0.
        3    1    3    3  502    0 -0.24008081225E+03  0.95559636926E+02 -0.11024058212E+04  0.11322848782E+04  0.10100000352E+00 0. -1.
       -3    1    3    3    0  502  0.24008081225E+03 -0.95559636926E+02  0.51059463017E+03  0.57225634743E+03  0.10100000352E+00 0.  1.
</event>
<event>
 5   0  0.3042125E-05  0.1613614E+04  0.7818609E-02  0.8812228E-01
       -4   -1    0    0    0  501  0.00000000000E+00  0.00000000000E+00  0.96918906131E+03  0.96918989340E+03  0.12699999809E+01 0.  1.
        4   -1    0    0  501    0  0.00000000000E+00  0.00000000000E+00 -0.67162939491E+03  0.67163059565E+03  0.12699999809E+01 0. -1.
    10030    2    1    2    0    0  0.00000000000E+00  0.00000000000E+00  0.29755966640E+03  0.16408204890E+04  0.16136139942E+04 0.  0.
        5    1    3    3  502    0 -0.29139825052E+03 -0.66215981118E+03 -0.21437877784E+03  0.75455212301E+03  0.46999998093E+01 0. -1.
       -5    1    3    3    0  502  0.29139825052E+03  0.66215981118E+03  0.51193844424E+03  0.88626836604E+03  0.46999998093E+01 0.  1.
</event>
<event>
 5   0  0.7849690E-05  0.1599442E+04  0.7818609E-02  0.8820891E-01
        2   -1    0    0  501    0  0.00000000000E+00  0.00000000000E+00  0.14135124899E+04  0.14135124899E+04  0.25500000920E-02 0. -1.
       -2   -1    0    0    0  501  0.00000000000E+00  0.00000000000E+00 -0.45245718854E+03  0.45245718854E+03  0.25500000920E-02 0.  1.
    10030    2    1    2    0    0  0.00000000000E+00  0.00000000000E+00  0.96105530136E+03  0.18659696784E+04  0.15994422617E+04 0.  0.
        3    1    3    3  502    0 -0.38926067577E+03 -0.10795929423E+03  0.12857399541E+04  0.13477040932E+04  0.10100000352E+00 0. -1.
       -3    1    3    3    0  502  0.38926067577E+03  0.10795929423E+03 -0.32468465278E+03  0.51826558526E+03  0.10100000352E+00 0.  1.
</event>
<event>
 5   0  0.7849690E-05  0.1559048E+04  0.7818609E-02  0.8846109E-01
       -2   -1    0    0    0  501  0.00000000000E+00  0.00000000000E+00  0.11287654133E+04  0.11287654134E+04  0.25500000920E-02 0.  1.
        2   -1    0    0  501    0  0.00000000000E+00  0.00000000000E+00 -0.53833828492E+03  0.53833828493E+03  0.25500000920E-02 0. -1.
    10030    2    1    2    0    0  0.00000000000E+00  0.00000000000E+00  0.59042712843E+03  0.16671036983E+04  0.15590479617E+04 0.  0.
        3    1    3    3  502    0  0.54397512916E+03  0.50841943680E+03  0.54198622303E+03  0.92094969516E+03  0.10100000352E+00 0.  1.
       -3    1    3    3    0  502 -0.54397512916E+03 -0.50841943680E+03  0.48440905393E+02  0.74615400312E+03  0.10100000352E+00 0. -1.
</event>
<event>
 5   0  0.7901257E-05  0.1600564E+04  0.7818609E-02  0.8820202E-01
        2   -1    0    0  501    0  0.00000000000E+00  0.00000000000E+00  0.77086269049E+03  0.77086269050E+03  0.25500000920E-02 0. -1.
       -2   -1    0    0    0  501  0.00000000000E+00  0.00000000000E+00 -0.83082395467E+03  0.83082395468E+03  0.25500000920E-02 0.  1.
    10030    2    1    2    0    0  0.00000000000E+00  0.00000000000E+00 -0.59961264180E+02  0.16016866452E+04  0.16005638869E+04 0.  0.
        2    1    3    3  502    0  0.11801162722E+03  0.34051796720E+03 -0.74502504943E+03  0.82761195885E+03  0.25500000920E-02 0.  1.
       -2    1    3    3    0  502 -0.11801162722E+03 -0.34051796720E+03  0.68506378525E+03  0.77407468632E+03  0.25500000920E-02 0. -1.
</event>
<event>
 5   0  0.4504463E-05  0.1592621E+04  0.7818609E-02  0.8825094E-01
       -1   -1    0    0    0  501  0.00000000000E+00  0.00000000000E+00  0.93485441924E+03  0.93485441925E+03  0.50400001928E-02 0. -1.
        1   -1    0    0  501    0  0.00000000000E+00  0.00000000000E+00 -0.67829853098E+03  0.67829853100E+03  0.50400001928E-02 0.  1.
    10030    2    1    2    0    0  0.00000000000E+00  0.00000000000E+00  0.25655588825E+03  0.16131529503E+04  0.15926209584E+04 0.  0.
        1    1    3    3  502    0  0.41524715452E+03 -0.21772372875E+03  0.78021895223E+03  0.91026119045E+03  0.50400001928E-02 0. -1.
       -1    1    3    3    0  502 -0.41524715452E+03  0.21772372875E+03 -0.52366306398E+03  0.70289175980E+03  0.50400001928E-02 0.  1.
</event>
<event>
 5   0  0.8620155E-05  0.1599440E+04  0.7818609E-02  0.8820892E-01
       -2   -1    0    0    0  501  0.00000000000E+00  0.00000000000E+00  0.40175784991E+03  0.40175784991E+03  0.25500000920E-02 0.  1.
        2   -1    0    0  501    0  0.00000000000E+00  0.00000000000E+00 -0.15918852280E+04  0.15918852280E+04  0.25500000920E-02 0. -1.
    10030    2    1    2    0    0  0.00000000000E+00  0.00000000000E+00 -0.11901273781E+04  0.19936430779E+04  0.15994403853E+04 0.  0.
        4    1    3    3  502    0  0.21705812822E+03  0.38265680369E+03 -0.14275015069E+04  0.14937545399E+04  0.12699999809E+01 0. -1.
       -4    1    3    3    0  502 -0.21705812822E+03 -0.38265680369E+03  0.23737412885E+03  0.49988853796E+03  0.12699999809E+01 0.  1.
</event>
<event>
 5   0  0.4256406E-05  0.1599266E+04  0.7818609E-02  0.8820999E-01
       -1   -1    0    0    0  501  0.00000000000E+00  0.00000000000E+00  0.46264082983E+03  0.46264082986E+03  0.50400001928E-02 0. -1.
        1   -1    0    0  501    0  0.00000000000E+00  0.00000000000E+00 -0.13820944681E+04  0.13820944681E+04  0.50400001928E-02 0.  1.
    10030    2    1    2    0    0  0.00000000000E+00  0.00000000000E+00 -0.91945363822E+03  0.18447352979E+04  0.15992664964E+04 0.  0.
        3    1    3    3  502    0 -0.35204077322E+03  0.47720116920E+03 -0.10784952870E+04  0.12307744538E+04  0.10100000352E+00 0. -1.
       -3    1    3    3    0  502  0.35204077322E+03 -0.47720116920E+03  0.15904164874E+03  0.61396084413E+03  0.10100000352E+00 0.  1.
</event>
<event>
 5   0  0.7849690E-05  0.1602508E+04  0.7818609E-02  0.8819009E-01
       -2   -1    0    0    0  501  0.00000000000E+00  0.00000000000E+00  0.43393292685E+03  0.43393292685E+03  0.25500000920E-02 0. -1.
        2   -1    0    0  501    0  0.00000000000E+00  0.00000000000E+00 -0.14795101769E+04  0.14795101769E+04  0.25500000920E-02 0.  1.
    10030    2    1    2    0    0  0.00000000000E+00  0.00000000000E+00 -0.10455772501E+04  0.19134431038E+04  0.16025082607E+04 0.  0.
        3    1    3    3  502    0 -0.15934133650E+02 -0.52471391522E+03  0.19999871906E+03  0.56176337302E+03  0.10100000352E+00 0. -1.
       -3    1    3    3    0  502  0.15934133650E+02  0.52471391522E+03 -0.12455759692E+04  0.13516797308E+04  0.10100000352E+00 0.  1.
</event>
<event>
 5   0  0.7849690E-05  0.1602115E+04  0.7818609E-02  0.8819249E-01
        2   -1    0    0  501    0  0.00000000000E+00  0.00000000000E+00  0.23518334738E+04  0.23518334738E+04  0.25500000920E-02 0. -1.
       -2   -1    0    0    0  501  0.00000000000E+00  0.00000000000E+00 -0.27284816300E+03  0.27284816301E+03  0.25500000920E-02 0.  1.
    10030    2    1    2    0    0  0.00000000000E+00  0.00000000000E+00  0.20789853108E+04  0.26246816368E+04  0.16021154054E+04 0.  0.
        3    1    3    3  502    0  0.70485694514E+03  0.37709370049E+02  0.16599762044E+04  0.18038199242E+04  0.10100000352E+00 0. -1.
       -3    1    3    3    0  502 -0.70485694514E+03 -0.37709370049E+02  0.41900910638E+03  0.82086171256E+03  0.10100000352E+00 0.  1.
</event>
<event>
 5   0  0.4373026E-05  0.1599435E+04  0.7818609E-02  0.8820895E-01
       -1   -1    0    0    0  501  0.00000000000E+00  0.00000000000E+00  0.26640925136E+04  0.26640925136E+04  0.50400001928E-02 0. -1.
        1   -1    0    0  501    0  0.00000000000E+00  0.00000000000E+00 -0.24006236183E+03  0.24006236188E+03  0.50400001928E-02 0.  1.
    10030    2    1    2    0    0  0.00000000000E+00  0.00000000000E+00  0.24240301517E+04  0.29041548754E+04  0.15994353266E+04 0.  0.
        4    1    3    3  502    0  0.15076999230E+03  0.60341951153E+03  0.21247732614E+04  0.22139353475E+04  0.12699999809E+01 0. -1.
       -4    1    3    3    0  502 -0.15076999230E+03 -0.60341951153E+03  0.29925689029E+03  0.69021952795E+03  0.12699999809E+01 0.  1.
</event>
<event>
 5   0  0.4504463E-05  0.1597334E+04  0.7818609E-02  0.8822188E-01
        1   -1    0    0  501    0  0.00000000000E+00  0.00000000000E+00  0.14011479175E+04  0.14011479175E+04  0.50400001928E-02 0.  1.
       -1   -1    0    0    0  501  0.00000000000E+00  0.00000000000E+00 -0.45524738309E+03  0.45524738312E+03  0.50400001928E-02 0. -1.
    10030    2    1    2    0    0  0.00000000000E+00  0.00000000000E+00  0.94590053443E+03  0.18563953006E+04  0.15973339323E+04 0.  0.
        1    1    3    3  502    0 -0.59431065451E+03 -0.27867282729E+01  0.10930119808E+04  0.12441415153E+04  0.50400001928E-02 0.  1.
       -1    1    3    3    0  502  0.59431065451E+03  0.27867282729E+01 -0.14711144642E+03  0.61225378529E+03  0.50400001928E-02 0. -1.
</event>
<event>
 5   0  0.8694033E-05  0.1598301E+04  0.7818609E-02  0.8821592E-01
        2   -1    0    0  501    0  0.00000000000E+00  0.00000000000E+00  0.11304951130E+04  0.11304951130E+04  0.25500000920E-02 0.  1.
       -2   -1    0    0    0  501  0.00000000000E+00  0.00000000000E+00 -0.56492196519E+03  0.56492196519E+03  0.25500000920E-02 0. -1.
    10030    2    1    2    0    0  0.00000000000E+00  0.00000000000E+00  0.56557314776E+03  0.16954170781E+04  0.15983009990E+04 0.  0.
        1    1    3    3  502    0  0.66231774655E+03 -0.38614876184E+03  0.52202512650E+03  0.92751598175E+03  0.50400001928E-02 0.  1.
       -1    1    3    3    0  502 -0.66231774655E+03  0.38614876184E+03  0.43548021267E+02  0.76790109640E+03  0.50400001928E-02 0. -1.
</event>
<event>
 5   0  0.4373026E-05  0.1600921E+04  0.7818609E-02  0.8819982E-01
       -1   -1    0    0    0  501  0.00000000000E+00  0.00000000000E+00  0.96139989392E+03  0.96139989394E+03  0.50400001928E-02 0. -1.
        1   -1    0    0  501    0  0.00000000000E+00  0.00000000000E+00 -0.66646263843E+03  0.66646263845E+03  0.50400001928E-02 0.  1.
    10030    2    1    2    0    0  0.00000000000E+00  0.00000000000E+00  0.29493725549E+03  0.16278625324E+04  0.16009211223E+04 0.  0.
        4    1    3    3  502    0 -0.17467303469E+03 -0.67917346205E+03  0.53990158709E+03  0.88503254022E+03  0.12699999809E+01 0. -1.
       -4    1    3    3    0  502  0.17467303469E+03  0.67917346205E+03 -0.24496433160E+03  0.74282999217E+03  0.12699999809E+01 0.  1.
</event>
<event>
 5   0  0.8037548E-05  0.1600042E+04  0.7818609E-02  0.8820522E-01
       -2   -1    0    0    0  501  0.00000000000E+00  0.00000000000E+00  0.39239968501E+03  0.39239968502E+03  0.25500000920E-02 0.  1.
        2   -1    0    0  501    0  0.00000000000E+00  0.00000000000E+00 -0.16310752820E+04  0.16310752820E+04  0.25500000920E-02 0. -1.
    10030    2    1    2    0    0  0.00000000000E+00  0.00000000000E+00 -0.12386755970E+04  0.20234749671E+04  0.16000417831E+04 0.  0.
        5    1    3    3  502    0  0.49016165102E+03 -0.11535896118E+03 -0.14054969466E+04  0.14929869024E+04  0.46999998093E+01 0. -1.
       -5    1    3    3    0  502 -0.49016165102E+03  0.11535896118E+03  0.16682134953E+03  0.53048806463E+03  0.46999998093E+01 0.  1.
</event>
<event>
 5   0  0.4211419E-05  0.1603416E+04  0.7818609E-02  0.8818452E-01
       -1   -1    0    0    0  501  0.00000000000E+00  0.00000000000E+00  0.55244482935E+03  0.55244482938E+03  0.50400001928E-02 0.  1.
        1   -1    0    0  501    0  0.00000000000E+00  0.00000000000E+00 -0.11634386644E+04  0.11634386644E+04  0.50400001928E-02 0. -1.
    10030    2    1    2    0    0  0.00000000000E+00  0.00000000000E+00 -0.61099383505E+03  0.17158834938E+04  0.16034159466E+04 0.  0.
        2    1    3    3  502    0 -0.31297254709E+03  0.55623941276E+03 -0.82468872403E+03  0.10428161828E+04  0.25500000920E-02 0. -1.
       -2    1    3    3    0  502  0.31297254709E+03 -0.55623941276E+03  0.21369488898E+03  0.67306731099E+03  0.25500000920E-02 0.  1.
</event>
<event>
 5   0  0.4314657E-05  0.1599346E+04  0.7818609E-02  0.8820950E-01
        1   -1    0    0  501    0  0.00000000000E+00  0.00000000000E+00  0.87952227156E+03  0.87952227158E+03  0.50400001928E-02 0.  1.
       -1   -1    0    0    0  501  0.00000000000E+00  0.00000000000E+00 -0.72707308399E+03  0.72707308401E+03  0.50400001928E-02 0. -1.
    10030    2    1    2    0    0  0.00000000000E+00  0.00000000000E+00  0.15244918757E+03  0.16065953556E+04  0.15993460794E+04 0.  0.
        5    1    3    3  502    0  0.12587482486E+03 -0.68514618472E+03  0.47066852712E+03  0.84072630409E+03  0.46999998093E+01 0.  1.
       -5    1    3    3    0  502 -0.12587482486E+03  0.68514618472E+03 -0.31821933955E+03  0.76586905149E+03  0.46999998093E+01 0. -1.
</event>
<event>
 5   0  0.4504463E-05  0.1600495E+04  0.7818609E-02  0.8820244E-01
       -1   -1    0    0    0  501  0.00000000000E+00  0.00000000000E+00  0.84011071811E+03  0.84011071813E+03  0.50400001928E-02 0.  1.
        1   -1    0    0  501    0  0.00000000000E+00  0.00000000000E+00 -0.76227623028E+03  0.76227623030E+03  0.50400001928E-02 0. -1.
    10030    2    1    2    0    0  0.00000000000E+00  0.00000000000E+00  0.77834487836E+02  0.16023869484E+04  0.16004954623E+04 0.  0.
        1    1    3    3  502    0 -0.60127830995E+03 -0.29065235553E+03 -0.40249158164E+03  0.77975244220E+03  0.50400001928E-02 0. -1.
       -1    1    3    3    0  502  0.60127830995E+03  0.29065235553E+03  0.48032606947E+03  0.82263450623E+03  0.50400001928E-02 0.  1.
</event>
<event>
 5   0  0.8037548E-05  0.1595949E+04  0.7818609E-02  0.8823041E-01
        2   -1    0    0  501    0  0.00000000000E+00  0.00000000000E+00  0.16136371600E+04  0.16136371600E+04  0.25500000920E-02 0. -1.
       -2   -1    0    0    0  501  0.00000000000E+00  0.00000000000E+00 -0.39461346348E+03  0.39461346348E+03  0.25500000920E-02 0.  1.
    10030    2    1    2    0    0  0.00000000000E+00  0.00000000000E+00  0.12190236965E+04  0.20082506234E+04  0.15959485562E+04 0.  0.
        5    1    3    3  502    0 -0.17570246396E+03  0.46972043642E+03 -0.17150485271E+03  0.53004211977E+03  0.46999998093E+01 0.  1.
       -5    1    3    3    0  502  0.17570246396E+03 -0.46972043642E+03  0.13905285492E+04  0.14782085037E+04  0.46999998093E+01 0. -1.
</event>
<event>
 5   0  0.4211419E-05  0.1601647E+04  0.7818609E-02  0.8819537E-01
       -1   -1    0    0    0  501  0.00000000000E+00  0.00000000000E+00  0.36443538265E+03  0.36443538268E+03  0.50400001928E-02 0. -1.
        1   -1    0    0  501    0  0.00000000000E+00  0.00000000000E+00 -0.17597589769E+04  0.17597589769E+04  0.50400001928E-02 0.  1.
    10030    2    1    2    0    0  0.00000000000E+00  0.00000000000E+00 -0.13953235942E+04  0.21241943596E+04  0.16016471973E+04 0.  0.
        2    1    3    3  502    0 -0.18182775731E+03 -0.23623871207E+03  0.28810285936E+03  0.41457607262E+03  0.25500000920E-02 0. -1.
       -2    1    3    3    0  502  0.18182775731E+03  0.23623871207E+03 -0.16834264536E+04  0.17096182869E+04  0.25500000920E-02 0.  1.
</event>
<event>
 5   0  0.4256406E-05  0.1602436E+04  0.7818609E-02  0.8819053E-01
        1   -1    0    0  501    0  0.00000000000E+00  0.00000000000E+00  0.11699051409E+04  0.11699051409E+04  0.50400001928E-02 0.  1.
       -1   -1    0    0    0  501  0.00000000000E+00  0.00000000000E+00 -0.54871962151E+03  0.54871962153E+03  0.50400001928E-02 0. -1.
    10030    2    1    2    0    0  0.00000000000E+00  0.00000000000E+00  0.62118551936E+03  0.17186247624E+04  0.16024355290E+04 0.  0.
        3    1    3    3  502    0 -0.59327417634E+03  0.12475726816E+03  0.87241829287E+03  0.10623804931E+04  0.10100000352E+00 0.  1.
       -3    1    3    3    0  502  0.59327417634E+03 -0.12475726816E+03 -0.25123277351E+03  0.65624426927E+03  0.10100000352E+00 0. -1.
</event>
<event>
 5   0  0.7849690E-05  0.1606823E+04  0.7818609E-02  0.8816367E-01
       -2   -1    0    0    0  501  0.00000000000E+00  0.00000000000E+00  0.58454495929E+03  0.58454495929E+03  0.25500000920E-02 0. -1.
        2   -1    0    0  501    0  0.00000000000E+00  0.00000000000E+00 -0.11042269074E+04  0.11042269074E+04  0.25500000920E-02 0.  1.
    10030    2    1    2    0    0  0.00000000000E+00  0.00000000000E+00 -0.51968194808E+03  0.16887718667E+04  0.16068232916E+04 0.  0.
        3    1    3    3  502    0  0.50955963054E+03 -0.39983566608E+03 -0.75942632879E+03  0.99812220494E+03  0.10100000352E+00 0. -1.
       -3    1    3    3    0  502 -0.50955963054E+03  0.39983566608E+03  0.23974438071E+03  0.69064966172E+03  0.10100000352E+00 0.  1.
</event>
<event>
 5   0  0.8037548E-05  0.1599300E+04  0.7818609E-02  0.8820978E-01
        2   -1    0    0  501    0  0.00000000000E+00  0.00000000000E+00  0.12494838800E+04  0.12494838800E+04  0.25500000920E-02 0. -1.
       -2   -1    0    0    0  501  0.00000000000E+00  0.00000000000E+00 -0.51176320819E+03  0.51176320819E+03  0.25500000920E-02 0.  1.
    10030    2    1    2    0    0  0.00000000000E+00  0.00000000000E+00  0.73772067179E+03  0.17612470882E+04  0.15992996955E+04 0.  0.
        5    1    3    3  502    0 -0.56663915616E+03  0.21833055340E+03  0.94180172187E+03  0.11206073073E+04  0.46999998093E+01 0. -1.
       -5    1    3    3    0  502  0.56663915616E+03 -0.21833055340E+03 -0.20408105008E+03  0.64063978088E+03  0.46999998093E+01 0.  1.
</event>
<event>
 5   0  0.8694033E-05  0.1602814E+04  0.7818609E-02  0.8818821E-01
        2   -1    0    0  501    0  0.00000000000E+00  0.00000000000E+00  0.99985104120E+03  0.99985104121E+03  0.25500000920E-02 0.  1.
       -2   -1    0    0    0  501  0.00000000000E+00  0.00000000000E+00 -0.64234875835E+03  0.64234875836E+03  0.25500000920E-02 0. -1.
    10030    2    1    2    0    0  0.00000000000E+00  0.00000000000E+00  0.35750228285E+03  0.16421997996E+04  0.16028138692E+04 0.  0.
        1    1    3    3  502    0  0.38921781438E+03  0.70053805401E+03  0.17567696355E+03  0.82043065989E+03  0.50400001928E-02 0. -1.
       -1    1    3    3    0  502 -0.38921781438E+03 -0.70053805401E+03  0.18182531930E+03  0.82176913967E+03  0.50400001928E-02 0.  1.
</event>
<event>
 5   0  0.4373026E-05  0.1617736E+04  0.7818609E-02  0.8809726E-01
        1   -1    0    0  501    0  0.00000000000E+00  0.00000000000E+00  0.11310651354E+04  0.11310651354E+04  0.50400001928E-02 0. -1.
       -1   -1    0    0    0  501  0.00000000000E+00  0.00000000000E+00 -0.57845259498E+03  0.57845259500E+03  0.50400001928E-02 0.  1.
    10030    2    1    2    0    0  0.00000000000E+00  0.00000000000E+00  0.55261254039E+03  0.17095177304E+04  0.16177361499E+04 0.  0.
        4    1    3    3  502    0 -0.23207161172E+03  0.51684818615E+02 -0.54069199224E+03  0.59065895135E+03  0.12699999809E+01 0.  1.
       -4    1    3    3    0  502  0.23207161172E+03 -0.51684818615E+02  0.10933045326E+04  0.11188587790E+04  0.12699999809E+01 0. -1.
</event>
<event>
 5   0  0.4256406E-05  0.1602240E+04  0.7818609E-02  0.8819173E-01
        1   -1    0    0  501    0  0.00000000000E+00  0.00000000000E+00  0.23166740407E+04  0.23166740407E+04  0.50400001928E-02 0.  1.
       -1   -1    0    0    0  501  0.00000000000E+00  0.00000000000E+00 -0.27703214161E+03  0.27703214165E+03  0.50400001928E-02 0. -1.
    10030    2    1    2    0    0  0.00000000000E+00  0.00000000000E+00  0.20396418991E+04  0.25937061823E+04  0.16022398959E+04 0.  0.
        3    1    3    3  502    0  0.68871866618E+03 -0.23231113955E+03  0.47447196383E+03  0.86800087636E+03  0.10100000352E+00 0. -1.
       -3    1    3    3    0  502 -0.68871866618E+03  0.23231113955E+03  0.15651699353E+04  0.17257053060E+04  0.10100000352E+00 0.  1.
</event>
<event>
 5   0  0.4504463E-05  0.1602012E+04  0.7818609E-02  0.8819313E-01
       -1   -1    0    0    0  501  0.00000000000E+00  0.00000000000E+00  0.61443984528E+03  0.61443984531E+03  0.50400001928E-02 0.  1.
        1   -1    0    0  501    0  0.00000000000E+00  0.00000000000E+00 -0.10442209522E+04  0.10442209522E+04  0.50400001928E-02 0. -1.
    10030    2    1    2    0    0  0.00000000000E+00  0.00000000000E+00 -0.42978110687E+03  0.16586607975E+04  0.16020124348E+04 0.  0.
        1    1    3    3  502    0  0.12507961225E+03 -0.76095678850E+03  0.93572488318E+01  0.77122480607E+03  0.50400001928E-02 0.  1.
       -1    1    3    3    0  502 -0.12507961225E+03  0.76095678850E+03 -0.43913835571E+03  0.88743599141E+03  0.50400001928E-02 0. -1.
</event>
<event>
 5   0  0.7901257E-05  0.1600396E+04  0.7818609E-02  0.8820305E-01
        2   -1    0    0  501    0  0.00000000000E+00  0.00000000000E+00  0.68697664205E+03  0.68697664205E+03  0.25500000920E-02 0.  1.
       -2   -1    0    0    0  501  0.00000000000E+00  0.00000000000E+00 -0.93207925148E+03  0.93207925149E+03  0.25500000920E-02 0. -1.
    10030    2    1    2    0    0  0.00000000000E+00  0.00000000000E+00 -0.24510260944E+03  0.16190558935E+04  0.16003957939E+04 0.  0.
        2    1    3    3  502    0  0.27167852436E+03  0.31253872532E+03 -0.81524422275E+03  0.91439204839E+03  0.25500000920E-02 0. -1.
       -2    1    3    3    0  502 -0.27167852436E+03 -0.31253872532E+03  0.57014161331E+03  0.70466384515E+03  0.25500000920E-02 0.  1.
</event>
<event>
 5   0  0.4504463E-05  0.1605026E+04  0.7818609E-02  0.8817467E-01
       -1   -1    0    0    0  501  0.00000000000E+00  0.00000000000E+00  0.11330833000E+04  0.11330833000E+04  0.50400001928E-02 0.  1.
        1   -1    0    0  501    0  0.00000000000E+00  0.00000000000E+00 -0.56838433680E+03  0.56838433682E+03  0.50400001928E-02 0. -1.
    10030    2    1    2    0    0  0.00000000000E+00  0.00000000000E+00  0.56469896319E+03  0.17014676368E+04  0.16050256073E+04 0.  0.
        1    1    3    3  502    0 -0.79172111803E+02  0.85349061104E+02  0.11240844264E+04  0.11300966698E+04  0.50400001928E-02 0.  1.
       -1    1    3    3    0  502  0.79172111803E+02 -0.85349061104E+02 -0.55938546317E+03  0.57137096701E+03  0.50400001928E-02 0. -1.
</event>
<event>
 5   0  0.3042125E-05  0.1599841E+04  0.7818609E-02  0.8820646E-01
        4   -1    0    0  501    0  0.00000000000E+00  0.00000000000E+00  0.56958506220E+03  0.56958647806E+03  0.12699999809E+01 0. -1.
       -4   -1    0    0    0  501  0.00000000000E+00  0.00000000000E+00 -0.11233981168E+04  0.11233988347E+04  0.12699999809E+01 0.  1.
    10030    2    1    2    0    0  0.00000000000E+00  0.00000000000E+00 -0.55381305463E+03  0.16929853128E+04  0.15998407326E+04 0.  0.
        3    1    3    3  502    0 -0.18506091196E+03  0.77622756293E+03 -0.33578597202E+03  0.86575342898E+03  0.10100000352E+00 0.  1.
       -3    1    3    3    0  502  0.18506091196E+03 -0.77622756293E+03 -0.21802708261E+03  0.82723188378E+03  0.10100000352E+00 0. -1.
</event>
<event>
 5   0  0.4373026E-05  0.1598014E+04  0.7818609E-02  0.8821769E-01
        1   -1    0    0  501    0  0.00000000000E+00  0.00000000000E+00  0.65786363581E+03  0.65786363583E+03  0.50400001928E-02 0. -1.
       -1   -1    0    0    0  501  0.00000000000E+00  0.00000000000E+00 -0.97043272590E+03  0.97043272591E+03  0.50400001928E-02 0.  1.
    10030    2    1    2    0    0  0.00000000000E+00  0.00000000000E+00 -0.31256909009E+03  0.16282963617E+04  0.15980142695E+04 0.  0.
        4    1    3    3  502    0  0.31841099791E+03 -0.37546762108E+03 -0.79753460572E+03  0.93724306255E+03  0.12699999809E+01 0.  1.
       -4    1    3    3    0  502 -0.31841099791E+03  0.37546762108E+03  0.48496551563E+03  0.69105329919E+03  0.12699999809E+01 0. -1.
</event>
<event>
 5   0  0.7849690E-05  0.1600269E+04  0.7818609E-02  0.8820383E-01
        2   -1    0    0  501    0  0.00000000000E+00  0.00000000000E+00  0.10448823854E+04  0.10448823854E+04  0.25500000920E-02 0. -1.
       -2   -1    0    0    0  501  0.00000000000E+00  0.00000000000E+00 -0.61271538405E+03  0.61271538406E+03  0.25500000920E-02 0.  1.
    10030    2    1    2    0    0  0.00000000000E+00  0.00000000000E+00  0.43216700132E+03  0.16575977694E+04  0.16002693674E+04 0.  0.
        3    1    3    3  502    0  0.47675507478E+03 -0.62252816772E+03  0.38109774694E+03  0.87182121094E+03  0.10100000352E+00 0.  1.
       -3    1    3    3    0  502 -0.47675507478E+03  0.62252816772E+03  0.51069254374E+02  0.78577655849E+03  0.10100000352E+00 0. -1.
</event>
<event>
 5   0  0.7849690E-05  0.1597439E+04  0.7818609E-02  0.8822123E-01
        2   -1    0    0  501    0  0.00000000000E+00  0.00000000000E+00  0.20232459511E+04  0.20232459511E+04  0.25500000920E-02 0. -1.
       -2   -1    0    0    0  501  0.00000000000E+00  0.00000000000E+00 -0.31531167714E+03  0.31531167715E+03  0.25500000920E-02 0.  1.
    10030    2    1    2    0    0  0.00000000000E+00  0.00000000000E+00  0.17079342740E+04  0.23385576283E+04  0.15974392935E+04 0.  0.
        3    1    3    3  502    0  0.60976785636E+03  0.29802609831E+02  0.16079297257E+04  0.17199253028E+04  0.10100000352E+00 0. -1.
       -3    1    3    3    0  502 -0.60976785636E+03 -0.29802609831E+02  0.10000454823E+03  0.61863232543E+03  0.10100000352E+00 0.  1.
</event>
<event>
 5   0  0.4211419E-05  0.1600762E+04  0.7818609E-02  0.8820080E-01
       -1   -1    0    0    0  501  0.00000000000E+00  0.00000000000E+00  0.50952379454E+03  0.50952379456E+03  0.50400001928E-02 0. -1.
        1   -1    0    0  501    0  0.00000000000E+00  0.00000000000E+00 -0.12572713147E+04  0.12572713147E+04  0.50400001928E-02 0.  1.
    10030    2    1    2    0    0  0.00000000000E+00  0.00000000000E+00 -0.74774752011E+03  0.17667951092E+04  0.16007618824E+04 0.  0.
        2    1    3    3  502    0 -0.11046667340E+03 -0.76326601894E+02  0.49700438249E+03  0.51482229197E+03  0.25500000920E-02 0. -1.
       -2    1    3    3    0  502  0.11046667340E+03  0.76326601894E+02 -0.12447519026E+04  0.12519728173E+04  0.25500000920E-02 0.  1.
</event>
<event>
 5   0  0.3042125E-05  0.1599767E+04  0.7818609E-02  0.8820691E-01
        3   -1    0    0  501    0  0.00000000000E+00  0.00000000000E+00  0.42378345123E+03  0.42378346327E+03  0.10100000352E+00 0.  1.
       -3   -1    0    0    0  501  0.00000000000E+00  0.00000000000E+00 -0.15097663063E+04  0.15097663096E+04  0.10100000352E+00 0. -1.
    10030    2    1    2    0    0  0.00000000000E+00  0.00000000000E+00 -0.10859828550E+04  0.19335497729E+04  0.15997674715E+04 0.  0.
        3    1    3    3  502    0 -0.30528859612E+03  0.69283055270E+03 -0.85490286564E+03  0.11419606918E+04  0.10100000352E+00 0. -1.
       -3    1    3    3    0  502  0.30528859612E+03 -0.69283055270E+03 -0.23107998939E+03  0.79158908113E+03  0.10100000352E+00 0.  1.
</event>
<event>
 5   0  0.4314657E-05  0.1594852E+04  0.7818609E-02  0.8823717E-01
        1   -1    0    0  501    0  0.00000000000E+00  0.00000000000E+00  0.13847760895E+04  0.13847760895E+04  0.50400001928E-02 0. -1.
       -1   -1    0    0    0  501  0.00000000000E+00  0.00000000000E+00 -0.45919912574E+03  0.45919912577E+03  0.50400001928E-02 0.  1.
    10030    2    1    2    0    0  0.00000000000E+00  0.00000000000E+00  0.92557696373E+03  0.18439752153E+04  0.15948516792E+04 0.  0.
        5    1    3    3  502    0 -0.73799781607E+03 -0.28821186038E+03  0.56722537807E+03  0.97440934546E+03  0.46999998093E+01 0.  1.
       -5    1    3    3    0  502  0.73799781607E+03  0.28821186038E+03  0.35835158566E+03  0.86956586980E+03  0.46999998093E+01 0. -1.
</event>
<event>
 5   0  0.8037548E-05  0.1597770E+04  0.7818609E-02  0.8821919E-01
        2   -1    0    0  501    0  0.00000000000E+00  0.00000000000E+00  0.14205322028E+04  0.14205322028E+04  0.25500000920E-02 0. -1.
       -2   -1    0    0    0  501  0.00000000000E+00  0.00000000000E+00 -0.44928032611E+03  0.44928032611E+03  0.25500000920E-02 0.  1.
    10030    2    1    2    0    0  0.00000000000E+00  0.00000000000E+00  0.97125187668E+03  0.18698125289E+04  0.15977699100E+04 0.  0.
        5    1    3    3  502    0 -0.20149229129E+03  0.28086500220E+03 -0.35721664165E+03  0.49710171191E+03  0.46999998093E+01 0.  1.
       -5    1    3    3    0  502  0.20149229129E+03 -0.28086500220E+03  0.13284685183E+04  0.13727108170E+04  0.46999998093E+01 0. -1.
</event>
<event>
 5   0  0.8694033E-05  0.1599632E+04  0.7818609E-02  0.8820774E-01
        2   -1    0    0  501    0  0.00000000000E+00  0.00000000000E+00  0.15109443047E+04  0.15109443047E+04  0.25500000920E-02 0. -1.
       -2   -1    0    0    0  501  0.00000000000E+00  0.00000000000E+00 -0.42338148086E+03  0.42338148087E+03  0.25500000920E-02 0.  1.
    10030    2    1    2    0    0  0.00000000000E+00  0.00000000000E+00  0.10875628238E+04  0.19343257856E+04  0.15996322543E+04 0.  0.
        1    1    3    3  502    0 -0.11304488525E+03  0.79144416813E+03  0.57195468647E+03  0.98300314382E+03  0.50400001928E-02 0. -1.
       -1    1    3    3    0  502  0.11304488525E+03 -0.79144416813E+03  0.51560813734E+03  0.95132264173E+03  0.50400001928E-02 0.  1.
</event>
<event>
 5   0  0.4314657E-05  0.1605044E+04  0.7818609E-02  0.8817456E-01
        1   -1    0    0  501    0  0.00000000000E+00  0.00000000000E+00  0.14736386937E+04  0.14736386937E+04  0.50400001928E-02 0. -1.
       -1   -1    0    0    0  501  0.00000000000E+00  0.00000000000E+00 -0.43704143094E+03  0.43704143097E+03  0.50400001928E-02 0.  1.
    10030    2    1    2    0    0  0.00000000000E+00  0.00000000000E+00  0.10365972627E+04  0.19106801247E+04  0.16050435052E+04 0.  0.
        5    1    3    3  502    0  0.32759431091E+03 -0.67594908971E+03  0.85456693970E+03  0.11377749992E+04  0.46999998093E+01 0. -1.
       -5    1    3    3    0  502 -0.32759431091E+03  0.67594908971E+03  0.18203032304E+03  0.77290512544E+03  0.46999998093E+01 0.  1.
</event>
<event>
 5   0  0.4373026E-05  0.1597347E+04  0.7818609E-02  0.8822180E-01
        1   -1    0    0  501    0  0.00000000000E+00  0.00000000000E+00  0.87697747231E+03  0.87697747232E+03  0.50400001928E-02 0.  1.
       -1   -1    0    0    0  501  0.00000000000E+00  0.00000000000E+00 -0.72736080308E+03  0.72736080310E+03  0.50400001928E-02 0. -1.
    10030    2    1    2    0    0  0.00000000000E+00  0.00000000000E+00  0.14961666923E+03  0.16043382754E+04  0.15973465980E+04 0.  0.
        4    1    3    3  502    0 -0.74443420020E+03  0.47344600018E+02  0.36145838445E+03  0.82890142126E+03  0.12699999809E+01 0.  1.
       -4    1    3    3    0  502  0.74443420020E+03 -0.47344600018E+02 -0.21184171522E+03  0.77543685416E+03  0.12699999809E+01 0. -1.
</event>
<event>
 5   0  0.8620155E-05  0.1596045E+04  0.7818609E-02  0.8822982E-01
        2   -1    0    0  501    0  0.00000000000E+00  0.00000000000E+00  0.70422755790E+03  0.70422755790E+03  0.25500000920E-02 0. -1.
       -2   -1    0    0    0  501  0.00000000000E+00  0.00000000000E+00 -0.90430928614E+03  0.90430928614E+03  0.25500000920E-02 0.  1.
    10030    2    1    2    0    0  0.00000000000E+00  0.00000000000E+00 -0.20008172824E+03  0.16085368440E+04  0.15960445109E+04 0.  0.
        4    1    3    3  502    0 -0.24535584851E+03 -0.72903779161E+03  0.11408933424E+03  0.77763332174E+03  0.12699999809E+01 0.  1.
       -4    1    3    3    0  502  0.24535584851E+03  0.72903779161E+03 -0.31417106248E+03  0.83090352231E+03  0.12699999809E+01 0. -1.
</event>
<event>
 5   0  0.7849690E-05  0.1599908E+04  0.7818609E-02  0.8820604E-01
        2   -1    0    0  501    0  0.00000000000E+00  0.00000000000E+00  0.11522247637E+04  0.11522247637E+04  0.25500000920E-02 0.  1.
       -2   -1    0    0    0  501  0.00000000000E+00  0.00000000000E+00 -0.55538338359E+03  0.55538338360E+03  0.25500000920E-02 0. -1.
    10030    2    1    2    0    0  0.00000000000E+00  0.00000000000E+00  0.59684138006E+03  0.17076081473E+04  0.15999081072E+04 0.  0.
        3    1    3    3  502    0  0.76287033267E+03 -0.66898800657E+01  0.41575089194E+02  0.76403167291E+03  0.10100000352E+00 0. -1.
       -3    1    3    3    0  502 -0.76287033267E+03  0.66898800657E+01  0.55526629087E+03  0.94357647435E+03  0.10100000352E+00 0.  1.
</event>
<event>
 5   0  0.8037548E-05  0.1598682E+04  0.7818609E-02  0.8821358E-01
       -2   -1    0    0    0  501  0.00000000000E+00  0.00000000000E+00  0.12290052508E+04  0.12290052508E+04  0.25500000920E-02 0. -1.
        2   -1    0    0  501    0  0.00000000000E+00  0.00000000000E+00 -0.51988863899E+03  0.51988863900E+03  0.25500000920E-02 0.  1.
    10030    2    1    2    0    0  0.00000000000E+00  0.00000000000E+00  0.70911661184E+03  0.17488938898E+04  0.15986817910E+04 0.  0.
        5    1    3    3  502    0  0.54968701340E+02  0.76492499146E+03  0.10801172245E+03  0.77448074403E+03  0.46999998093E+01 0.  1.
       -5    1    3    3    0  502 -0.54968701340E+02 -0.76492499146E+03  0.60110488939E+03  0.97441314581E+03  0.46999998093E+01 0. -1.
</event>
<event>
 5   0  0.8037548E-05  0.1601098E+04  0.7818609E-02  0.8819874E-01
       -2   -1    0    0    0  501  0.00000000000E+00  0.00000000000E+00  0.83558492017E+03  0.83558492017E+03  0.25500000920E-02 0.  1.
        2   -1    0    0  501    0  0.00000000000E+00  0.00000000000E+00 -0.76698208784E+03  0.76698208785E+03  0.25500000920E-02 0. -1.
    10030    2    1    2    0    0  0.00000000000E+00  0.00000000000E+00  0.68602832324E+02  0.16025670080E+04  0.16010979566E+04 0.  0.
        5    1    3    3  502    0  0.56695437760E+03  0.43944281100E+03 -0.32142490719E+03  0.78605553963E+03  0.46999998093E+01 0. -1.
       -5    1    3    3    0  502 -0.56695437760E+03 -0.43944281100E+03  0.39002773952E+03  0.81651146839E+03  0.46999998093E+01 0.  1.
</event>
<event>
 5   0  0.8037548E-05  0.1592958E+04  0.7818609E-02  0.8824886E-01
       -2   -1    0    0    0  501  0.00000000000E+00  0.00000000000E+00  0.64870176899E+03  0.64870176900E+03  0.25500000920E-02 0. -1.
        2   -1    0    0  501    0  0.00000000000E+00  0.00000000000E+00 -0.97792055643E+03  0.97792055644E+03  0.25500000920E-02 0.  1.
    10030    2    1    2    0    0  0.00000000000E+00  0.00000000000E+00 -0.32921878744E+03  0.16266223254E+04  0.15929579968E+04 0.  0.
        5    1    3    3  502    0  0.16147309695E+03 -0.96559211058E+02  0.62567083977E+03  0.65336309355E+03  0.46999998093E+01 0. -1.
       -5    1    3    3    0  502 -0.16147309695E+03  0.96559211058E+02 -0.95488962722E+03  0.97325923188E+03  0.46999998093E+01 0.  1.
</event>
<event>
 5   0  0.4314657E-05  0.1598477E+04  0.7818609E-02  0.8821484E-01
        1   -1    0    0  501    0  0.00000000000E+00  0.00000000000E+00  0.10633150371E+04  0.10633150371E+04  0.50400001928E-02 0.  1.
       -1   -1    0    0    0  501  0.00000000000E+00  0.00000000000E+00 -0.60074559760E+03  0.60074559762E+03  0.50400001928E-02 0. -1.
    10030    2    1    2    0    0  0.00000000000E+00  0.00000000000E+00  0.46256943947E+03  0.16640606347E+04  0.15984765590E+04 0.  0.
        5    1    3    3  502    0 -0.40278324103E+03  0.34490220243E+03  0.85378867922E+03  0.10050716727E+04  0.46999998093E+01 0.  1.
       -5    1    3    3    0  502  0.40278324103E+03 -0.34490220243E+03 -0.39121923975E+03  0.65898896200E+03  0.46999998093E+01 0. -1.
</event>
<event>
 5   0  0.8694033E-05  0.1600903E+04  0.7818609E-02  0.8819993E-01
       -2   -1    0    0    0  501  0.00000000000E+00  0.00000000000E+00  0.32128141255E+03  0.32128141256E+03  0.25500000920E-02 0.  1.
        2   -1    0    0  501    0  0.00000000000E+00  0.00000000000E+00 -0.19942733145E+04  0.19942733145E+04  0.25500000920E-02 0. -1.
    10030    2    1    2    0    0  0.00000000000E+00  0.00000000000E+00 -0.16729919020E+04  0.23155547271E+04  0.16009034293E+04 0.  0.
        1    1    3    3  502    0 -0.61447978231E+03 -0.27461265135E+03 -0.20980781056E+03  0.70499420462E+03  0.50400001928E-02 0.  1.
       -1    1    3    3    0  502  0.61447978231E+03  0.27461265135E+03 -0.14631840914E+04  0.16105605225E+04  0.50400001928E-02 0. -1.
</event>
<event>
 5   0  0.4211419E-05  0.1599027E+04  0.7818609E-02  0.8821146E-01
       -1   -1    0    0    0  501  0.00000000000E+00  0.00000000000E+00  0.54230810542E+03  0.54230810545E+03  0.50400001928E-02 0.  1.
        1   -1    0    0  501    0  0.00000000000E+00  0.00000000000E+00 -0.11787061341E+04  0.11787061341E+04  0.50400001928E-02 0. -1.
    10030    2    1    2    0    0  0.00000000000E+00  0.00000000000E+00 -0.63639802867E+03  0.17210142395E+04  0.15990270673E+04 0.  0.
        2    1    3    3  502    0 -0.47633827199E+03  0.19009380225E+02  0.37260909975E+03  0.60505954015E+03  0.25500000920E-02 0.  1.
       -2    1    3    3    0  502  0.47633827199E+03 -0.19009380225E+02 -0.10090071284E+04  0.11159546994E+04  0.25500000920E-02 0. -1.
</event>
<event>
 5   0  0.4211419E-05  0.1601380E+04  0.7818609E-02  0.8819701E-01
        1   -1    0    0  501    0  0.00000000000E+00  0.00000000000E+00  0.96628601710E+03  0.96628601711E+03  0.50400001928E-02 0. -1.
       -1   -1    0    0    0  501  0.00000000000E+00  0.00000000000E+00 -0.66347291458E+03  0.66347291460E+03  0.50400001928E-02 0.  1.
    10030    2    1    2    0    0  0.00000000000E+00  0.00000000000E+00  0.30281310252E+03  0.16297589317E+04  0.16013801549E+04 0.  0.
        2    1    3    3  502    0 -0.12712654514E+03  0.85317697478E+02 -0.64843726064E+03  0.66626657501E+03  0.25500000920E-02 0.  1.
       -2    1    3    3    0  502  0.12712654514E+03 -0.85317697478E+02  0.95125036317E+03  0.96349235670E+03  0.25500000920E-02 0. -1.
</event>
<event>
 5   0  0.4256406E-05  0.1596676E+04  0.7818609E-02  0.8822593E-01
       -1   -1    0    0    0  501  0.00000000000E+00  0.00000000000E+00  0.10346863687E+04  0.10346863687E+04  0.50400001928E-02 0.  1.
        1   -1    0    0  501    0  0.00000000000E+00  0.00000000000E+00 -0.61597735025E+03  0.61597735027E+03  0.50400001928E-02 0. -1.
    10030    2    1    2    0    0  0.00000000000E+00  0.00000000000E+00  0.41870901845E+03  0.16506637190E+04  0.15966757564E+04 0.  0.
        3    1    3    3  502    0 -0.59683456290E+03 -0.48147403570E+03 -0.20223189528E+02  0.76709694962E+03  0.10100000352E+00 0.  1.
       -3    1    3    3    0  502  0.59683456290E+03  0.48147403570E+03  0.43893220797E+03  0.88356676936E+03  0.10100000352E+00 0. -1.
</event>
<event>
 5   0  0.8694033E-05  0.1597803E+04  0.7818609E-02  0.8821899E-01
       -2   -1    0    0    0  501  0.00000000000E+00  0.00000000000E+00  0.47545964397E+03  0.47545964398E+03  0.25500000920E-02 0. -1.
        2   -1    0    0  501    0  0.00000000000E+00  0.00000000000E+00 -0.13423721354E+04  0.13423721354E+04  0.25500000920E-02 0.  1.
    10030    2    1    2    0    0  0.00000000000E+00  0.00000000000E+00 -0.86691249146E+03  0.18178317794E+04  0.15978032139E+04 0.  0.
        1    1    3    3  502    0  0.61192042313E+03 -0.88758018987E+02 -0.10090046116E+04  0.11833912694E+04  0.50400001928E-02 0.  1.
       -1    1    3    3    0  502 -0.61192042313E+03  0.88758018987E+02  0.14209212012E+03  0.63444051006E+03  0.50400001928E-02 0. -1.
</event>
<event>
 5   0  0.4373026E-05  0.1600201E+04  0.7818609E-02  0.8820424E-01
       -1   -1    0    0    0  501  0.00000000000E+00  0.00000000000E+00  0.62377519474E+03  0.62377519476E+03  0.50400001928E-02 0.  1.
        1   -1    0    0  501    0  0.00000000000E+00  0.00000000000E+00 -0.10262687411E+04  0.10262687411E+04  0.50400001928E-02 0. -1.
    10030    2    1    2    0    0  0.00000000000E+00  0.00000000000E+00 -0.40249354636E+03  0.16500439359E+04  0.16002012172E+04 0.  0.
        4    1    3    3  502    0  0.78776243709E+03  0.76253046530E+02 -0.32227025871E+03  0.85454310421E+03  0.12699999809E+01 0.  1.
       -4    1    3    3    0  502 -0.78776243709E+03 -0.76253046530E+02 -0.80223287649E+02  0.79550083166E+03  0.12699999809E+01 0. -1.
</event>
<event>
 5   0  0.4373026E-05  0.1603453E+04  0.7818609E-02  0.8818430E-01
        1   -1    0    0  501    0  0.00000000000E+00  0.00000000000E+00  0.12054915600E+04  0.12054915600E+04  0.50400001928E-02 0. -1.
       -1   -1    0    0    0  501  0.00000000000E+00  0.00000000000E+00 -0.53319741756E+03  0.53319741758E+03  0.50400001928E-02 0.  1.
    10030    2    1    2    0    0  0.00000000000E+00  0.00000000000E+00  0.67229414239E+03  0.17386889775E+04  0.16034525084E+04 0.  0.
        4    1    3    3  502    0  0.36446974727E+03 -0.68353644620E+03  0.56022316276E+03  0.95598738221E+03  0.12699999809E+01 0. -1.
       -4    1    3    3    0  502 -0.36446974727E+03  0.68353644620E+03  0.11207097963E+03  0.78270159533E+03  0.12699999809E+01 0.  1.
</event>
<event>
 5   0  0.4314657E-05  0.1601036E+04  0.7818609E-02  0.8819912E-01
       -1   -1    0    0    0  501  0.00000000000E+00  0.00000000000E+00  0.35896263971E+03  0.35896263975E+03  0.50400001928E-02 0. -1.
        1   -1    0    0  501    0  0.00000000000E+00  0.00000000000E+00 -0.17852259510E+04  0.17852259510E+04  0.50400001928E-02 0.  1.
    10030    2    1    2    0    0  0.00000000000E+00  0.00000000000E+00 -0.14262633113E+04  0.21441885908E+04  0.16010364392E+04 0.  0.
        5    1    3    3  502    0 -0.56882439151E+03 -0.17314698024E+03  0.46693757818E+01  0.59463010200E+03  0.46999998093E+01 0. -1.
       -5    1    3    3    0  502  0.56882439151E+03  0.17314698024E+03 -0.14309326871E+04  0.15495584887E+04  0.46999998093E+01 0.  1.
</event>
<event>
 5   0  0.7901257E-05  0.1599945E+04  0.7818609E-02  0.8820582E-01
        2   -1    0    0  501    0  0.00000000000E+00  0.00000000000E+00  0.10224295077E+04  0.10224295077E+04  0.25500000920E-02 0.  1.
       -2   -1    0    0    0  501  0.00000000000E+00  0.00000000000E+00 -0.62591664226E+03  0.62591664226E+03  0.25500000920E-02 0. -1.
    10030    2    1    2    0    0  0.00000000000E+00  0.00000000000E+00  0.39651286545E+03  0.16483461500E+04  0.15999445546E+04 0.  0.
        2    1    3    3  502    0 -0.16681653699E+03  0.18909196127E+03 -0.58390242354E+03  0.63602324411E+03  0.25500000920E-02 0. -1.
       -2    1    3    3    0  502  0.16681653699E+03 -0.18909196127E+03  0.98041528899E+03  0.10123229059E+04  0.25500000920E-02 0.  1.
</event>
<event>
 5   0  0.8620155E-05  0.1597991E+04  0.7818609E-02  0.8821783E-01
       -2   -1    0    0    0  501  0.00000000000E+00  0.00000000000E+00  0.26936410456E+03  0.26936410457E+03  0.25500000920E-02 0.  1.
        2   -1    0    0  501    0  0.00000000000E+00  0.00000000000E+00 -0.23700021185E+04  0.23700021185E+04  0.25500000920E-02 0. -1.
    10030    2    1    2    0    0  0.00000000000E+00  0.00000000000E+00 -0.21006380140E+04  0.26393662231E+04  0.15979906113E+04 0.  0.
        4    1    3    3  502    0  0.32015827503E+03  0.49424710222E+03 -0.19422410773E+04  0.20295525454E+04  0.12699999809E+01 0. -1.
       -4    1    3    3    0  502 -0.32015827503E+03 -0.49424710222E+03 -0.15839693668E+03  0.60981367775E+03  0.12699999809E+01 0.  1.
</event>
<event>
 5   0  0.8037548E-05  0.1583777E+04  0.7818609E-02  0.8830577E-01
        2   -1    0    0  501    0  0.00000000000E+00  0.00000000000E+00  0.10354634334E+04  0.10354634334E+04  0.25500000920E-02 0. -1.
       -2   -1    0    0    0  501  0.00000000000E+00  0.00000000000E+00 -0.60561072724E+03  0.60561072725E+03  0.25500000920E-02 0.  1.
    10030    2    1    2    0    0  0.00000000000E+00  0.00000000000E+00  0.42985270617E+03  0.16410741607E+04  0.15837774628E+04 0.  0.
        5    1    3    3  502    0 -0.63519696261E+03  0.22624209211E+03  0.64516457149E+03  0.93323098954E+03  0.46999998093E+01 0. -1.
       -5    1    3    3    0  502  0.63519696261E+03 -0.22624209211E+03 -0.21531186532E+03  0.70784317111E+03  0.46999998093E+01 0.  1.
</event>
<event>
 5   0  0.7849690E-05  0.1591109E+04  0.7818609E-02  0.8826028E-01
       -2   -1    0    0    0  501  0.00000000000E+00  0.00000000000E+00  0.70554914036E+03  0.70554914037E+03  0.25500000920E-02 0. -1.
        2   -1    0    0  501    0  0.00000000000E+00  0.00000000000E+00 -0.89704214171E+03  0.89704214172E+03  0.25500000920E-02 0.  1.
    10030    2    1    2    0    0  0.00000000000E+00  0.00000000000E+00 -0.19149300135E+03  0.16025912821E+04  0.15911094393E+04 0.  0.
        3    1    3    3  502    0  0.77257901757E+03 -0.11125151513E+03  0.59155577438E+02  0.78278645272E+03  0.10100000352E+00 0.  1.
       -3    1    3    3    0  502 -0.77257901757E+03  0.11125151513E+03 -0.25064857879E+03  0.81980482937E+03  0.10100000352E+00 0. -1.
</event>
<event>
 5   0  0.8037548E-05  0.1601455E+04  0.7818609E-02  0.8819655E-01
       -2   -1    0    0    0  501  0.00000000000E+00  0.00000000000E+00  0.61561728656E+03  0.61561728657E+03  0.25500000920E-02 0. -1.
        2   -1    0    0  501    0  0.00000000000E+00  0.00000000000E+00 -0.10414984535E+04  0.10414984536E+04  0.25500000920E-02 0.  1.
    10030    2    1    2    0    0  0.00000000000E+00  0.00000000000E+00 -0.42588116698E+03  0.16571157401E+04  0.16014549034E+04 0.  0.
        5    1    3    3  502    0  0.21118706265E+03 -0.10658406480E+03  0.57861914592E+03  0.62512586278E+03  0.46999998093E+01 0. -1.
       -5    1    3    3    0  502 -0.21118706265E+03  0.10658406480E+03 -0.10045003129E+04  0.10319898773E+04  0.46999998093E+01 0.  1.
</event>
<event>
 5   0  0.7901257E-05  0.1603330E+04  0.7818609E-02  0.8818505E-01
       -2   -1    0    0    0  501  0.00000000000E+00  0.00000000000E+00  0.43607092808E+03  0.43607092809E+03  0.25500000920E-02 0.  1.
        2   -1    0    0  501    0  0.00000000000E+00  0.00000000000E+00 -0.14737670065E+04  0.14737670065E+04  0.25500000920E-02 0. -1.
    10030    2    1    2    0    0  0.00000000000E+00  0.00000000000E+00 -0.10376960785E+04  0.19098379346E+04  0.16033302172E+04 0.  0.
        2    1    3    3  502    0 -0.21498584393E+03  0.13413381995E+03  0.38711141141E+03  0.46267271326E+03  0.25500000920E-02 0.  1.
       -2    1    3    3    0  502  0.21498584393E+03 -0.13413381995E+03 -0.14248074899E+04  0.14471652214E+04  0.25500000920E-02 0. -1.
</event>
<event>
 5   0  0.4504463E-05  0.1600178E+04  0.7818609E-02  0.8820438E-01
        1   -1    0    0  501    0  0.00000000000E+00  0.00000000000E+00  0.87115674371E+03  0.87115674372E+03  0.50400001928E-02 0. -1.
       -1   -1    0    0    0  501  0.00000000000E+00  0.00000000000E+00 -0.73481930980E+03  0.73481930982E+03  0.50400001928E-02 0.  1.
    10030    2    1    2    0    0  0.00000000000E+00  0.00000000000E+00  0.13633743390E+03  0.16059760535E+04  0.16001784865E+04 0.  0.
        1    1    3    3  502    0 -0.55653883883E+03  0.53540096213E+03  0.27809904789E+03  0.82080981344E+03  0.50400001928E-02 0.  1.
       -1    1    3    3    0  502  0.55653883883E+03 -0.53540096213E+03 -0.14176161399E+03  0.78516624010E+03  0.50400001928E-02 0. -1.
</event>
<event>
 5   0  0.4373026E-05  0.1603994E+04  0.7818609E-02  0.8818098E-01
        1   -1    0    0  501    0  0.00000000000E+00  0.00000000000E+00  0.12815839131E+04  0.12815839131E+04  0.50400001928E-02 0. -1.
       -1   -1    0    0    0  501  0.00000000000E+00  0.00000000000E+00 -0.50187854438E+03  0.50187854440E+03  0.50400001928E-02 0.  1.
    10030    2    1    2    0    0  0.00000000000E+00  0.00000000000E+00  0.77970536870E+03  0.17834624575E+04  0.16039943501E+04 0.  0.
        4    1    3    3  502    0  0.55899200755E+03 -0.21459066696E+03  0.98310173364E+03  0.11510915908E+04  0.12699999809E+01 0. -1.
       -4    1    3    3    0  502 -0.55899200755E+03  0.21459066696E+03 -0.20339636495E+03  0.63237086668E+03  0.12699999809E+01 0.  1.
</event>
<event>
 5   0  0.8620155E-05  0.1600894E+04  0.7818609E-02  0.8819999E-01
       -2   -1    0    0    0  501  0.00000000000E+00  0.00000000000E+00  0.58752588263E+03  0.58752588264E+03  0.25500000920E-02 0. -1.
        2   -1    0    0  501    0  0.00000000000E+00  0.00000000000E+00 -0.10905310616E+04  0.10905310616E+04  0.25500000920E-02 0.  1.
    10030    2    1    2    0    0  0.00000000000E+00  0.00000000000E+00 -0.50300517894E+03  0.16780569442E+04  0.16008937810E+04 0.  0.
        4    1    3    3  502    0  0.26292569561E+03  0.47950952821E+03 -0.86418812004E+03  0.10226837384E+04  0.12699999809E+01 0.  1.
       -4    1    3    3    0  502 -0.26292569561E+03 -0.47950952821E+03  0.36118294110E+03  0.65537320582E+03  0.12699999809E+01 0. -1.
</event>
<event>
 5   0  0.8620155E-05  0.1593926E+04  0.7818609E-02  0.8824288E-01
        2   -1    0    0  501    0  0.00000000000E+00  0.00000000000E+00  0.96750386798E+03  0.96750386798E+03  0.25500000920E-02 0.  1.
       -2   -1    0    0    0  501  0.00000000000E+00  0.00000000000E+00 -0.65648305209E+03  0.65648305209E+03  0.25500000920E-02 0. -1.
    10030    2    1    2    0    0  0.00000000000E+00  0.00000000000E+00  0.31102081589E+03  0.16239869201E+04  0.15939258354E+04 0.  0.
        4    1    3    3  502    0 -0.70516324288E+02  0.44905525237E+03 -0.51145383812E+03  0.68425858642E+03  0.12699999809E+01 0. -1.
       -4    1    3    3    0  502  0.70516324288E+02 -0.44905525237E+03  0.82247465401E+03  0.93972833365E+03  0.12699999809E+01 0.  1.
</event>
<event>
 5   0  0.4211419E-05  0.1600455E+04  0.7818609E-02  0.8820269E-01
        1   -1    0    0  501    0  0.00000000000E+00  0.00000000000E+00  0.11518773705E+04  0.11518773705E+04  0.50400001928E-02 0.  1.
       -1   -1    0    0    0  501  0.00000000000E+00  0.00000000000E+00 -0.55593058068E+03  0.55593058070E+03  0.50400001928E-02 0. -1.
    10030    2    1    2    0    0  0.00000000000E+00  0.00000000000E+00  0.59594678982E+03  0.17078079512E+04  0.16004547547E+04 0.  0.
        2    1    3    3  502    0  0.57315086847E+03  0.20512608523E+03  0.85222213202E+03  0.10473114108E+04  0.25500000920E-02 0.  1.
       -2    1    3    3    0  502 -0.57315086847E+03 -0.20512608523E+03 -0.25627534221E+03  0.66049654041E+03  0.25500000920E-02 0. -1.
</event>
<event>
 5   0  0.4211419E-05  0.1598307E+04  0.7818609E-02  0.8821589E-01
        1   -1    0    0  501    0  0.00000000000E+00  0.00000000000E+00  0.58049347260E+03  0.58049347262E+03  0.50400001928E-02 0.  1.
       -1   -1    0    0    0  501  0.00000000000E+00  0.00000000000E+00 -0.11001776523E+04  0.11001776523E+04  0.50400001928E-02 0. -1.
    10030    2    1    2    0    0  0.00000000000E+00  0.00000000000E+00 -0.51968417968E+03  0.16806711249E+04  0.15983065361E+04 0.  0.
        2    1    3    3  502    0 -0.12403868027E+03  0.23774416570E+03 -0.10514567967E+04  0.10851125646E+04  0.25500000920E-02 0. -1.
       -2    1    3    3    0  502  0.12403868027E+03 -0.23774416570E+03  0.53177261702E+03  0.59555856030E+03  0.25500000920E-02 0.  1.
</event>
<event>
 5   0  0.7901257E-05  0.1595576E+04  0.7818609E-02  0.8823271E-01
       -2   -1    0    0    0  501  0.00000000000E+00  0.00000000000E+00  0.32179517141E+03  0.32179517142E+03  0.25500000920E-02 0. -1.
        2   -1    0    0  501    0  0.00000000000E+00  0.00000000000E+00 -0.19778586956E+04  0.19778586956E+04  0.25500000920E-02 0.  1.
    10030    2    1    2    0    0  0.00000000000E+00  0.00000000000E+00 -0.16560635242E+04  0.22996538671E+04  0.15955756052E+04 0.  0.
        2    1    3    3  502    0  0.11500533128E+03  0.67477425965E+03 -0.14186336233E+04  0.15751405921E+04  0.25500000920E-02 0. -1.
       -2    1    3    3    0  502 -0.11500533128E+03 -0.67477425965E+03 -0.23742990090E+03  0.72451327494E+03  0.25500000920E-02 0.  1.
</event>
<event>
 5   0  0.7849690E-05  0.1600410E+04  0.7818609E-02  0.8820296E-01
        2   -1    0    0  501    0  0.00000000000E+00  0.00000000000E+00  0.19715154725E+04  0.19715154725E+04  0.25500000920E-02 0. -1.
       -2   -1    0    0    0  501  0.00000000000E+00  0.00000000000E+00 -0.32478982653E+03  0.32478982654E+03  0.25500000920E-02 0.  1.
    10030    2    1    2    0    0  0.00000000000E+00  0.00000000000E+00  0.16467256460E+04  0.22963052990E+04  0.16004101578E+04 0.  0.
        3    1    3    3  502    0  0.54426623061E+03 -0.53199560614E+03  0.46874637473E+03  0.89385022725E+03  0.10100000352E+00 0.  1.
       -3    1    3    3    0  502 -0.54426623061E+03  0.53199560614E+03  0.11779792712E+04  0.14024550718E+04  0.10100000352E+00 0. -1.
</event>
<event>
 5   0  0.7901257E-05  0.1599700E+04  0.7818609E-02  0.8820732E-01
        2   -1    0    0  501    0  0.00000000000E+00  0.00000000000E+00  0.95399211318E+03  0.95399211318E+03  0.25500000920E-02 0.  1.
       -2   -1    0    0    0  501  0.00000000000E+00  0.00000000000E+00 -0.67061342424E+03  0.67061342425E+03  0.25500000920E-02 0. -1.
    10030    2    1    2    0    0  0.00000000000E+00  0.00000000000E+00  0.28337868894E+03  0.16246055374E+04  0.15996998690E+04 0.  0.
        2    1    3    3  502    0  0.26095187723E+03 -0.46576058953E+03  0.74655518422E+03  0.91780904990E+03  0.25500000920E-02 0.  1.
       -2    1    3    3    0  502 -0.26095187723E+03  0.46576058953E+03 -0.46317649529E+03  0.70679648753E+03  0.25500000920E-02 0. -1.
</event>
<event>
 5   0  0.8694033E-05  0.1628505E+04  0.7818609E-02  0.8803225E-01
       -2   -1    0    0    0  501  0.00000000000E+00  0.00000000000E+00  0.89907930083E+03  0.89907930084E+03  0.25500000920E-02 0. -1.
        2   -1    0    0  501    0  0.00000000000E+00  0.00000000000E+00 -0.73742895151E+03  0.73742895151E+03  0.25500000920E-02 0.  1.
    10030    2    1    2    0    0  0.00000000000E+00  0.00000000000E+00  0.16165034932E+03  0.16365082524E+04  0.16285049661E+04 0.  0.
        1    1    3    3  502    0 -0.17883481566E+03 -0.26887709379E+03 -0.67033098572E+03  0.74405672720E+03  0.50400001928E-02 0.  1.
       -1    1    3    3    0  502  0.17883481566E+03  0.26887709379E+03  0.83198133504E+03  0.89245152515E+03  0.50400001928E-02 0. -1.
</event>
<event>
 5   0  0.4314657E-05  0.1598682E+04  0.7818609E-02  0.8821358E-01
       -1   -1    0    0    0  501  0.00000000000E+00  0.00000000000E+00  0.29899540364E+03  0.29899540369E+03  0.50400001928E-02 0. -1.
        1   -1    0    0  501    0  0.00000000000E+00  0.00000000000E+00 -0.21369763295E+04  0.21369763295E+04  0.50400001928E-02 0.  1.
    10030    2    1    2    0    0  0.00000000000E+00  0.00000000000E+00 -0.18379809259E+04  0.24359717332E+04  0.15986820826E+04 0.  0.
        5    1    3    3  502    0  0.45096588282E+02  0.12842410682E+03 -0.21191671218E+04  0.21235389880E+04  0.46999998093E+01 0.  1.
       -5    1    3    3    0  502 -0.45096588282E+02 -0.12842410682E+03  0.28118619593E+03  0.31243274519E+03  0.46999998093E+01 0. -1.
</event>
<event>
 5   0  0.8037548E-05  0.1602074E+04  0.7818609E-02  0.8819275E-01
        2   -1    0    0  501    0  0.00000000000E+00  0.00000000000E+00  0.12577763938E+04  0.12577763938E+04  0.25500000920E-02 0. -1.
       -2   -1    0    0    0  501  0.00000000000E+00  0.00000000000E+00 -0.51015472318E+03  0.51015472319E+03  0.25500000920E-02 0.  1.
    10030    2    1    2    0    0  0.00000000000E+00  0.00000000000E+00  0.74762167060E+03  0.17679311170E+04  0.16020743653E+04 0.  0.
        5    1    3    3  502    0 -0.42867054421E+03  0.63966410274E+03  0.13025912132E+03  0.78097255297E+03  0.46999998093E+01 0.  1.
       -5    1    3    3    0  502  0.42867054421E+03 -0.63966410274E+03  0.61736254927E+03  0.98695856400E+03  0.46999998093E+01 0. -1.
</event>
<event>
 5   0  0.8620155E-05  0.1599011E+04  0.7818609E-02  0.8821156E-01
        2   -1    0    0  501    0  0.00000000000E+00  0.00000000000E+00  0.14027292556E+04  0.14027292556E+04  0.25500000920E-02 0. -1.
       -2   -1    0    0    0  501  0.00000000000E+00  0.00000000000E+00 -0.45568954930E+03  0.45568954931E+03  0.25500000920E-02 0.  1.
    10030    2    1    2    0    0  0.00000000000E+00  0.00000000000E+00  0.94703970631E+03  0.18584188049E+04  0.15990110222E+04 0.  0.
        4    1    3    3  502    0  0.53507656342E+03  0.59158629259E+03  0.53638972654E+03  0.96124753416E+03  0.12699999809E+01 0. -1.
       -4    1    3    3    0  502 -0.53507656342E+03 -0.59158629259E+03  0.41064997977E+03  0.89717127076E+03  0.12699999809E+01 0.  1.
</event>
<event>
 5   0  0.7901257E-05  0.1599512E+04  0.7818609E-02  0.8820848E-01
       -2   -1    0    0    0  501  0.00000000000E+00  0.00000000000E+00  0.45962016335E+03  0.45962016335E+03  0.25500000920E-02 0. -1.
        2   -1    0    0  501    0  0.00000000000E+00  0.00000000000E+00 -0.13916045583E+04  0.13916045583E+04  0.25500000920E-02 0.  1.
    10030    2    1    2    0    0  0.00000000000E+00  0.00000000000E+00 -0.93198439496E+03  0.18512247217E+04  0.15995118185E+04 0.  0.
        2    1    3    3  502    0 -0.72366728956E+03 -0.34035792961E+03 -0.45619562304E+03  0.92068035317E+03  0.25500000920E-02 0. -1.
       -2    1    3    3    0  502  0.72366728956E+03  0.34035792961E+03 -0.47578877192E+03  0.93054436849E+03  0.25500000920E-02 0.  1.
</event>
<event>
 5   0  0.4256406E-05  0.1601587E+04  0.7818609E-02  0.8819574E-01
       -1   -1    0    0    0  501  0.00000000000E+00  0.00000000000E+00  0.37027312488E+03  0.37027312492E+03  0.50400001928E-02 0.  1.
        1   -1    0    0  501    0  0.00000000000E+00  0.00000000000E+00 -0.17318839420E+04  0.17318839421E+04  0.50400001928E-02 0. -1.
    10030    2    1    2    0    0  0.00000000000E+00  0.00000000000E+00 -0.13616108172E+04  0.21021570670E+04  0.16015868121E+04 0.  0.
        3    1    3    3  502    0 -0.53715006892E+03  0.52616173142E+03 -0.10423963609E+04  0.12852885075E+04  0.10100000352E+00 0. -1.
       -3    1    3    3    0  502  0.53715006892E+03 -0.52616173142E+03 -0.31921445630E+03  0.81686855948E+03  0.10100000352E+00 0.  1.
</event>
<event>
 5   0  0.4314657E-05  0.1594164E+04  0.7818609E-02  0.8824142E-01
       -1   -1    0    0    0  501  0.00000000000E+00  0.00000000000E+00  0.39797433107E+03  0.39797433110E+03  0.50400001928E-02 0.  1.
        1   -1    0    0  501    0  0.00000000000E+00  0.00000000000E+00 -0.15964331643E+04  0.15964331643E+04  0.50400001928E-02 0. -1.
    10030    2    1    2    0    0  0.00000000000E+00  0.00000000000E+00 -0.11984588333E+04  0.19944074954E+04  0.15941636311E+04 0.  0.
        5    1    3    3  502    0 -0.19122850227E+02  0.27070986964E+02  0.39709450893E+03  0.39850302477E+03  0.46999998093E+01 0.  1.
       -5    1    3    3    0  502  0.19122850227E+02 -0.27070986964E+02 -0.15955533422E+04  0.15959044707E+04  0.46999998093E+01 0. -1.
</event>
<event>
 5   0  0.8694033E-05  0.1605716E+04  0.7818609E-02  0.8817044E-01
       -2   -1    0    0    0  501  0.00000000000E+00  0.00000000000E+00  0.32216883410E+03  0.32216883411E+03  0.25500000920E-02 0. -1.
        2   -1    0    0  501    0  0.00000000000E+00  0.00000000000E+00 -0.20007549869E+04  0.20007549869E+04  0.25500000920E-02 0.  1.
    10030    2    1    2    0    0  0.00000000000E+00  0.00000000000E+00 -0.16785861528E+04  0.23229238210E+04  0.16057159169E+04 0.  0.
        1    1    3    3  502    0 -0.56348661714E+03  0.33847109521E+03 -0.17241445245E+03  0.67956353156E+03  0.50400001928E-02 0. -1.
       -1    1    3    3    0  502  0.56348661714E+03 -0.33847109521E+03 -0.15061717003E+04  0.16433602894E+04  0.50400001928E-02 0.  1.
</event>
<event>
 5   0  0.8037548E-05  0.1598313E+04  0.7818609E-02  0.8821585E-01
       -2   -1    0    0    0  501  0.00000000000E+00  0.00000000000E+00  0.37814418689E+03  0.37814418690E+03  0.25500000920E-02 0. -1.
        2   -1    0    0  501    0  0.00000000000E+00  0.00000000000E+00 -0.16889095162E+04  0.16889095162E+04  0.25500000920E-02 0.  1.
    10030    2    1    2    0    0  0.00000000000E+00  0.00000000000E+00 -0.13107653293E+04  0.20670537031E+04  0.15983132556E+04 0.  0.
        5    1    3    3  502    0  0.62743102108E+03  0.26035284075E+03 -0.11101511464E+03  0.68833112205E+03  0.46999998093E+01 0. -1.
       -5    1    3    3    0  502 -0.62743102108E+03 -0.26035284075E+03 -0.11997502146E+04  0.13787225810E+04  0.46999998093E+01 0.  1.
</event>
<event>
 5   0  0.8037548E-05  0.1609205E+04  0.7818609E-02  0.8814913E-01
        2   -1    0    0  501    0  0.00000000000E+00  0.00000000000E+00  0.40599099095E+03  0.40599099096E+03  0.25500000920E-02 0.  1.
       -2   -1    0    0    0  501  0.00000000000E+00  0.00000000000E+00 -0.15945801923E+04  0.15945801923E+04  0.25500000920E-02 0. -1.
    10030    2    1    2    0    0  0.00000000000E+00  0.00000000000E+00 -0.11885892014E+04  0.20005711833E+04  0.16092050117E+04 0.  0.
        5    1    3    3  502    0  0.49328945881E+03 -0.32284527583E+03 -0.12749983043E+04  0.14047086275E+04  0.46999998093E+01 0. -1.
       -5    1    3    3    0  502 -0.49328945881E+03  0.32284527583E+03  0.86409102915E+02  0.59586255577E+03  0.46999998093E+01 0.  1.
</event>
<event>
 5   0  0.4373026E-05  0.1597261E+04  0.7818609E-02  0.8822232E-01
        1   -1    0    0  501    0  0.00000000000E+00  0.00000000000E+00  0.86059633432E+03  0.86059633433E+03  0.50400001928E-02 0.  1.
       -1   -1    0    0    0  501  0.00000000000E+00  0.00000000000E+00 -0.74112644547E+03  0.74112644549E+03  0.50400001928E-02 0. -1.
    10030    2    1    2    0    0  0.00000000000E+00  0.00000000000E+00  0.11946988885E+03  0.16017227798E+04  0.15972610335E+04 0.  0.
        4    1    3    3  502    0  0.21643998818E+03  0.34027011325E+03  0.75099284403E+03  0.85242118881E+03  0.12699999809E+01 0.  1.
       -4    1    3    3    0  502 -0.21643998818E+03 -0.34027011325E+03 -0.63152295518E+03  0.74930159100E+03  0.12699999809E+01 0. -1.
</event>
<event>
 5   0  0.4373026E-05  0.1599820E+04  0.7818609E-02  0.8820659E-01
       -1   -1    0    0    0  501  0.00000000000E+00  0.00000000000E+00  0.38146254860E+03  0.38146254863E+03  0.50400001928E-02 0. -1.
        1   -1    0    0  501    0  0.00000000000E+00  0.00000000000E+00 -0.16773750372E+04  0.16773750372E+04  0.50400001928E-02 0.  1.
    10030    2    1    2    0    0  0.00000000000E+00  0.00000000000E+00 -0.12959124886E+04  0.20588375858E+04  0.15998196857E+04 0.  0.
        4    1    3    3  502    0  0.10508446034E+03  0.11583848764E+02  0.37243074341E+03  0.38714751826E+03  0.12699999809E+01 0. -1.
       -4    1    3    3    0  502 -0.10508446034E+03 -0.11583848764E+02 -0.16683432320E+04  0.16716900676E+04  0.12699999809E+01 0.  1.
</event>
<event>
 5   0  0.4211419E-05  0.1600831E+04  0.7818609E-02  0.8820038E-01
        1   -1    0    0  501    0  0.00000000000E+00  0.00000000000E+00  0.83800396140E+03  0.83800396141E+03  0.50400001928E-02 0. -1.
       -1   -1    0    0    0  501  0.00000000000E+00  0.00000000000E+00 -0.76451279300E+03  0.76451279302E+03  0.50400001928E-02 0.  1.
    10030    2    1    2    0    0  0.00000000000E+00  0.00000000000E+00  0.73491168398E+02  0.16025167544E+04  0.16008307207E+04 0.  0.
        2    1    3    3  502    0 -0.38184760314E+03  0.70264784551E+03  0.70591877113E+02  0.80281056293E+03  0.25500000920E-02 0.  1.
       -2    1    3    3    0  502  0.38184760314E+03 -0.70264784551E+03  0.28992912846E+01  0.79970619150E+03  0.25500000920E-02 0. -1.
</event>
<event>
 5   0  0.8694033E-05  0.1599258E+04  0.7818609E-02  0.8821004E-01
       -2   -1    0    0    0  501  0.00000000000E+00  0.00000000000E+00  0.42751542556E+03  0.42751542557E+03  0.25500000920E-02 0.  1.
        2   -1    0    0  501    0  0.00000000000E+00  0.00000000000E+00 -0.14956335344E+04  0.14956335344E+04  0.25500000920E-02 0. -1.
    10030    2    1    2    0    0  0.00000000000E+00  0.00000000000E+00 -0.10681181089E+04  0.19231489600E+04  0.15992578366E+04 0.  0.
        1    1    3    3  502    0  0.40030362299E+03 -0.24070398820E+03 -0.13145206001E+04  0.13950432999E+04  0.50400001928E-02 0.  1.
       -1    1    3    3    0  502 -0.40030362299E+03  0.24070398820E+03  0.24640249122E+03  0.52810566009E+03  0.50400001928E-02 0. -1.
</event>
<event>
 5   0  0.8037548E-05  0.1597173E+04  0.7818609E-02  0.8822286E-01
       -2   -1    0    0    0  501  0.00000000000E+00  0.00000000000E+00  0.49401982756E+03  0.49401982757E+03  0.25500000920E-02 0. -1.
        2   -1    0    0  501    0  0.00000000000E+00  0.00000000000E+00 -0.12909213507E+04  0.12909213507E+04  0.25500000920E-02 0.  1.
    10030    2    1    2    0    0  0.00000000000E+00  0.00000000000E+00 -0.79690152315E+03  0.17849411783E+04  0.15971734321E+04 0.  0.
        5    1    3    3  502    0 -0.26365955872E+01  0.79808722960E+03 -0.42943114690E+03  0.90630203443E+03  0.46999998093E+01 0. -1.
       -5    1    3    3    0  502  0.26365955872E+01 -0.79808722960E+03 -0.36747037625E+03  0.87863914385E+03  0.46999998093E+01 0.  1.
</event>
<event>
 5   0  0.7849690E-05  0.1600679E+04  0.7818609E-02  0.8820131E-01
        2   -1    0    0  501    0  0.00000000000E+00  0.00000000000E+00  0.84167930713E+03  0.84167930714E+03  0.25500000920E-02 0.  1.
       -2   -1    0    0    0  501  0.00000000000E+00  0.00000000000E+00 -0.76102994919E+03  0.76102994919E+03  0.25500000920E-02 0. -1.
    10030    2    1    2    0    0  0.00000000000E+00  0.00000000000E+00  0.80649357946E+02  0.16027092563E+04  0.16006788064E+04 0.  0.
        3    1    3    3  502    0  0.18733607537E+03  0.41188484930E+03 -0.62066362175E+03  0.76809327284E+03  0.10100000352E+00 0. -1.
       -3    1    3    3    0  502 -0.18733607537E+03 -0.41188484930E+03  0.70131297969E+03  0.83461598349E+03  0.10100000352E+00 0.  1.
</event>
<event>
 5   0  0.4373026E-05  0.1603451E+04  0.7818609E-02  0.8818431E-01
       -1   -1    0    0    0  501  0.00000000000E+00  0.00000000000E+00  0.29442944942E+03  0.29442944946E+03  0.50400001928E-02 0.  1.
        1   -1    0    0  501    0  0.00000000000E+00  0.00000000000E+00 -0.21830821879E+04  0.21830821880E+04  0.50400001928E-02 0. -1.
    10030    2    1    2    0    0  0.00000000000E+00  0.00000000000E+00 -0.18886527385E+04  0.24775116374E+04  0.16034508869E+04 0.  0.
        4    1    3    3  502    0  0.11298164164E+03 -0.94589249457E+02 -0.21619788494E+04  0.21669947244E+04  0.12699999809E+01 0. -1.
       -4    1    3    3    0  502 -0.11298164164E+03  0.94589249457E+02  0.27332611088E+03  0.31051691299E+03  0.12699999809E+01 0.  1.
</event>
<event>
 5   0  0.8694033E-05  0.1601855E+04  0.7818609E-02  0.8819409E-01
       -2   -1    0    0    0  501  0.00000000000E+00  0.00000000000E+00  0.45176650400E+03  0.45176650401E+03  0.25500000920E-02 0.  1.
        2   -1    0    0  501    0  0.00000000000E+00  0.00000000000E+00 -0.14199481855E+04  0.14199481855E+04  0.25500000920E-02 0. -1.
    10030    2    1    2    0    0  0.00000000000E+00  0.00000000000E+00 -0.96818168148E+03  0.18717146895E+04  0.16018552090E+04 0.  0.
        1    1    3    3  502    0 -0.15674364382E+03 -0.53060305971E+03  0.19258852272E+03  0.58583147402E+03  0.50400001928E-02 0.  1.
       -1    1    3    3    0  502  0.15674364382E+03  0.53060305971E+03 -0.11607702042E+04  0.12858832155E+04  0.50400001928E-02 0. -1.
</event>
<event>
 5   0  0.4373026E-05  0.1601315E+04  0.7818609E-02  0.8819741E-01
       -1   -1    0    0    0  501  0.00000000000E+00  0.00000000000E+00  0.82809255936E+03  0.82809255938E+03  0.50400001928E-02 0.  1.
        1   -1    0    0  501    0  0.00000000000E+00  0.00000000000E+00 -0.77413132766E+03  0.77413132768E+03  0.50400001928E-02 0. -1.
    10030    2    1    2    0    0  0.00000000000E+00  0.00000000000E+00  0.53961231702E+02  0.16022238871E+04  0.16013149502E+04 0.  0.
        4    1    3    3  502    0  0.35303018057E+03  0.25101151521E+03 -0.64676159667E+03  0.77842100755E+03  0.12699999809E+01 0. -1.
       -4    1    3    3    0  502 -0.35303018057E+03 -0.25101151521E+03  0.70072282838E+03  0.82380287950E+03  0.12699999809E+01 0.  1.
</event>
<event>
 5   0  0.7849690E-05  0.1600102E+04  0.7818609E-02  0.8820486E-01
        2   -1    0    0  501    0  0.00000000000E+00  0.00000000000E+00  0.98826304710E+03  0.98826304710E+03  0.25500000920E-02 0. -1.
       -2   -1    0    0    0  501  0.00000000000E+00  0.00000000000E+00 -0.64768316050E+03  0.64768316051E+03  0.25500000920E-02 0.  1.
    10030    2    1    2    0    0  0.00000000000E+00  0.00000000000E+00  0.34057988659E+03  0.16359462076E+04  0.16001016640E+04 0.  0.
        3    1    3    3  502    0  0.10288081248E+03  0.38086925230E+03 -0.54131574617E+03  0.66982728832E+03  0.10100000352E+00 0.  1.
       -3    1    3    3    0  502 -0.10288081248E+03 -0.38086925230E+03  0.88189563276E+03  0.96611891929E+03  0.10100000352E+00 0. -1.
</event>
<event>
 5   0  0.8620155E-05  0.1599769E+04  0.7818609E-02  0.8820690E-01
       -2   -1    0    0    0  501  0.00000000000E+00  0.00000000000E+00  0.68347780587E+03  0.68347780587E+03  0.25500000920E-02 0.  1.
        2   -1    0    0  501    0  0.00000000000E+00  0.00000000000E+00 -0.93611753689E+03  0.93611753689E+03  0.25500000920E-02 0. -1.
    10030    2    1    2    0    0  0.00000000000E+00  0.00000000000E+00 -0.25263973102E+03  0.16195953428E+04  0.15997694336E+04 0.  0.
        4    1    3    3  502    0  0.79059061018E+03 -0.11882225783E+03 -0.15236229287E+03  0.81386001441E+03  0.12699999809E+01 0. -1.
       -4    1    3    3    0  502 -0.79059061018E+03  0.11882225783E+03 -0.10027743815E+03  0.80573532836E+03  0.12699999809E+01 0.  1.
</event>
<event>
 5   0  0.4504463E-05  0.1602935E+04  0.7818609E-02  0.8818747E-01
        1   -1    0    0  501    0  0.00000000000E+00  0.00000000000E+00  0.64870745856E+03  0.64870745858E+03  0.50400001928E-02 0.  1.
       -1   -1    0    0    0  501  0.00000000000E+00  0.00000000000E+00 -0.99019976265E+03  0.99019976266E+03  0.50400001928E-02 0. -1.
    10030    2    1    2    0    0  0.00000000000E+00  0.00000000000E+00 -0.34149230409E+03  0.16389072212E+04  0.16029347729E+04 0.  0.
        1    1    3    3  502    0 -0.46004612543E+03  0.45262553961E+02 -0.84015956232E+03  0.95893650807E+03  0.50400001928E-02 0. -1.
       -1    1    3    3    0  502  0.46004612543E+03 -0.45262553961E+02  0.49866725823E+03  0.67997071317E+03  0.50400001928E-02 0.  1.
</event>
<event>
 5   0  0.8694033E-05  0.1600205E+04  0.7818609E-02  0.8820422E-01
       -2   -1    0    0    0  501  0.00000000000E+00  0.00000000000E+00  0.39179334267E+03  0.39179334268E+03  0.25500000920E-02 0.  1.
        2   -1    0    0  501    0  0.00000000000E+00  0.00000000000E+00 -0.16339320287E+04  0.16339320287E+04  0.25500000920E-02 0. -1.
    10030    2    1    2    0    0  0.00000000000E+00  0.00000000000E+00 -0.12421386861E+04  0.20257253714E+04  0.16002046010E+04 0.  0.
        1    1    3    3  502    0  0.39988774082E+03 -0.32833312026E+03  0.15150367513E+03  0.53913468328E+03  0.50400001928E-02 0.  1.
       -1    1    3    3    0  502 -0.39988774082E+03  0.32833312026E+03 -0.13936423612E+04  0.14865906881E+04  0.50400001928E-02 0. -1.
</event>
<event>
 5   0  0.4314657E-05  0.1613605E+04  0.7818609E-02  0.8812234E-01
        1   -1    0    0  501    0  0.00000000000E+00  0.00000000000E+00  0.10525849771E+04  0.10525849771E+04  0.50400001928E-02 0.  1.
       -1   -1    0    0    0  501  0.00000000000E+00  0.00000000000E+00 -0.61841080252E+03  0.61841080254E+03  0.50400001928E-02 0. -1.
    10030    2    1    2    0    0  0.00000000000E+00  0.00000000000E+00  0.43417417453E+03  0.16709957796E+04  0.16136045617E+04 0.  0.
        5    1    3    3  502    0  0.40981922909E+03  0.42071908997E+03  0.78988907613E+03  0.98432880471E+03  0.46999998093E+01 0.  1.
       -5    1    3    3    0  502 -0.40981922909E+03 -0.42071908997E+03 -0.35571490160E+03  0.68666697489E+03  0.46999998093E+01 0. -1.
</event>
<event>
 5   0  0.4314657E-05  0.1597879E+04  0.7818609E-02  0.8821852E-01
        1   -1    0    0  501    0  0.00000000000E+00  0.00000000000E+00  0.13523389944E+04  0.13523389944E+04  0.50400001928E-02 0. -1.
       -1   -1    0    0    0  501  0.00000000000E+00  0.00000000000E+00 -0.47200036723E+03  0.47200036725E+03  0.50400001928E-02 0.  1.
    10030    2    1    2    0    0  0.00000000000E+00  0.00000000000E+00  0.88033862721E+03  0.18243393617E+04  0.15978792220E+04 0.  0.
        5    1    3    3  502    0 -0.57174344605E+03 -0.42142084878E+03  0.22546946579E+02  0.71064516792E+03  0.46999998093E+01 0.  1.
       -5    1    3    3    0  502  0.57174344605E+03  0.42142084878E+03  0.85779168063E+03  0.11136941938E+04  0.46999998093E+01 0. -1.
</event>
<event>
 5   0  0.4373026E-05  0.1597529E+04  0.7818609E-02  0.8822067E-01
        1   -1    0    0  501    0  0.00000000000E+00  0.00000000000E+00  0.95363634134E+03  0.95363634135E+03  0.50400001928E-02 0.  1.
       -1   -1    0    0    0  501  0.00000000000E+00  0.00000000000E+00 -0.66904427749E+03  0.66904427751E+03  0.50400001928E-02 0. -1.
    10030    2    1    2    0    0  0.00000000000E+00  0.00000000000E+00  0.28459206385E+03  0.16226806189E+04  0.15975292636E+04 0.  0.
        4    1    3    3  502    0  0.79218176639E+03 -0.63540964346E+02  0.22377059113E+03  0.82562963580E+03  0.12699999809E+01 0. -1.
       -4    1    3    3    0  502 -0.79218176639E+03  0.63540964346E+02  0.60821472722E+02  0.79705098306E+03  0.12699999809E+01 0.  1.
</event>
<event>
 5   0  0.4256406E-05  0.1600664E+04  0.7818609E-02  0.8820140E-01
       -1   -1    0    0    0  501  0.00000000000E+00  0.00000000000E+00  0.19741421820E+03  0.19741421826E+03  0.50400001928E-02 0. -1.
        1   -1    0    0  501    0  0.00000000000E+00  0.00000000000E+00 -0.32446038289E+04  0.32446038289E+04  0.50400001928E-02 0.  1.
    10030    2    1    2    0    0  0.00000000000E+00  0.00000000000E+00 -0.30471896107E+04  0.34420180472E+04  0.16006635229E+04 0.  0.
        3    1    3    3  502    0 -0.18931539700E+03  0.71338605641E+03 -0.85812254871E+03  0.11318720351E+04  0.10100000352E+00 0. -1.
       -3    1    3    3    0  502  0.18931539700E+03 -0.71338605641E+03 -0.21890670620E+04  0.23101460121E+04  0.10100000352E+00 0.  1.
</event>
<event>
 5   0  0.4256406E-05  0.1597799E+04  0.7818609E-02  0.8821901E-01
       -1   -1    0    0    0  501  0.00000000000E+00  0.00000000000E+00  0.27951527990E+03  0.27951527994E+03  0.50400001928E-02 0. -1.
        1   -1    0    0  501    0  0.00000000000E+00  0.00000000000E+00 -0.22833834108E+04  0.22833834108E+04  0.50400001928E-02 0.  1.
    10030    2    1    2    0    0  0.00000000000E+00  0.00000000000E+00 -0.20038681309E+04  0.25628986907E+04  0.15977991779E+04 0.  0.
        3    1    3    3  502    0 -0.56136186657E+03 -0.10611852949E+03 -0.18976776175E+04  0.19818094352E+04  0.10100000352E+00 0.  1.
       -3    1    3    3    0  502  0.56136186657E+03  0.10611852949E+03 -0.10619051344E+03  0.58108925552E+03  0.10100000352E+00 0. -1.
</event>
<event>
 5   0  0.4373026E-05  0.1603126E+04  0.7818609E-02  0.8818630E-01
        1   -1    0    0  501    0  0.00000000000E+00  0.00000000000E+00  0.12162034005E+04  0.12162034006E+04  0.50400001928E-02 0.  1.
       -1   -1    0    0    0  501  0.00000000000E+00  0.00000000000E+00 -0.52828610319E+03  0.52828610322E+03  0.50400001928E-02 0. -1.
    10030    2    1    2    0    0  0.00000000000E+00  0.00000000000E+00  0.68791729735E+03  0.17444895038E+04  0.16031261400E+04 0.  0.
        4    1    3    3  502    0 -0.62717792915E+03  0.46469545531E+03  0.14565979539E+03  0.79404811561E+03  0.12699999809E+01 0. -1.
       -4    1    3    3    0  502  0.62717792915E+03 -0.46469545531E+03  0.54225750196E+03  0.95044138816E+03  0.12699999809E+01 0.  1.
</event>
<event>
 5   0  0.4256406E-05  0.1612774E+04  0.7818609E-02  0.8812739E-01
       -1   -1    0    0    0  501  0.00000000000E+00  0.00000000000E+00  0.73313515251E+03  0.73313515253E+03  0.50400001928E-02 0. -1.
        1   -1    0    0  501    0  0.00000000000E+00  0.00000000000E+00 -0.88695772356E+03  0.88695772358E+03  0.50400001928E-02 0.  1.
    10030    2    1    2    0    0  0.00000000000E+00  0.00000000000E+00 -0.15382257105E+03  0.16200928761E+04  0.16127738663E+04 0.  0.
        3    1    3    3  502    0  0.10476692144E+03  0.62612676070E+03 -0.57640927958E+03  0.85747215470E+03  0.10100000352E+00 0.  1.
       -3    1    3    3    0  502 -0.10476692144E+03 -0.62612676070E+03  0.42258670853E+03  0.76262072141E+03  0.10100000352E+00 0. -1.
</event>
<event>
 5   0  0.4504463E-05  0.1599495E+04  0.7818609E-02  0.8820858E-01
       -1   -1    0    0    0  501  0.00000000000E+00  0.00000000000E+00  0.69896446289E+03  0.69896446291E+03  0.50400001928E-02 0.  1.
        1   -1    0    0  501    0  0.00000000000E+00  0.00000000000E+00 -0.91506231290E+03  0.91506231291E+03  0.50400001928E-02 0. -1.
    10030    2    1    2    0    0  0.00000000000E+00  0.00000000000E+00 -0.21609785001E+03  0.16140267758E+04  0.15994949679E+04 0.  0.
        1    1    3    3  502    0  0.47887353184E+03  0.34097496918E+03  0.43910632301E+03  0.73375619386E+03  0.50400001928E-02 0.  1.
       -1    1    3    3    0  502 -0.47887353184E+03 -0.34097496918E+03 -0.65520417301E+03  0.88027058196E+03  0.50400001928E-02 0. -1.
</event>
<event>
 5   0  0.4314657E-05  0.1581314E+04  0.7818609E-02  0.8832111E-01
        1   -1    0    0  501    0  0.00000000000E+00  0.00000000000E+00  0.13816218978E+04  0.13816218978E+04  0.50400001928E-02 0. -1.
       -1   -1    0    0    0  501  0.00000000000E+00  0.00000000000E+00 -0.45246707158E+03  0.45246707161E+03  0.50400001928E-02 0.  1.
    10030    2    1    2    0    0  0.00000000000E+00  0.00000000000E+00  0.92915482625E+03  0.18340889694E+04  0.15813139020E+04 0.  0.
        5    1    3    3  502    0 -0.13018624675E+03 -0.49569675407E+03 -0.23369987350E+03  0.56329517281E+03  0.46999998093E+01 0.  1.
       -5    1    3    3    0  502  0.13018624675E+03  0.49569675407E+03  0.11628546997E+04  0.12707937966E+04  0.46999998093E+01 0. -1.
</event>
<event>
 5   0  0.7849690E-05  0.1601420E+04  0.7818609E-02  0.8819676E-01
       -2   -1    0    0    0  501  0.00000000000E+00  0.00000000000E+00  0.27443808712E+03  0.27443808714E+03  0.25500000920E-02 0. -1.
        2   -1    0    0  501    0  0.00000000000E+00  0.00000000000E+00 -0.23361793172E+04  0.23361793172E+04  0.25500000920E-02 0.  1.
    10030    2    1    2    0    0  0.00000000000E+00  0.00000000000E+00 -0.20617412301E+04  0.26106174044E+04  0.16014200986E+04 0.  0.
        3    1    3    3  502    0  0.72295558539E+03 -0.33524092606E+03 -0.11580391057E+04  0.14057403165E+04  0.10100000352E+00 0. -1.
       -3    1    3    3    0  502 -0.72295558539E+03  0.33524092606E+03 -0.90370212440E+03  0.12048770878E+04  0.10100000352E+00 0.  1.
</event>
<event>
 5   0  0.7901257E-05  0.1601250E+04  0.7818609E-02  0.8819781E-01
        2   -1    0    0  501    0  0.00000000000E+00  0.00000000000E+00  0.26315482027E+04  0.26315482027E+04  0.25500000920E-02 0.  1.
       -2   -1    0    0    0  501  0.00000000000E+00  0.00000000000E+00 -0.24358292453E+03  0.24358292454E+03  0.25500000920E-02 0. -1.
    10030    2    1    2    0    0  0.00000000000E+00  0.00000000000E+00  0.23879652782E+04  0.28751311273E+04  0.16012497710E+04 0.  0.
        2    1    3    3  502    0 -0.20764491474E+02  0.45937272161E+03  0.23707843387E+04  0.24149684972E+04  0.25500000920E-02 0.  1.
       -2    1    3    3    0  502  0.20764491474E+02 -0.45937272161E+03  0.17180939462E+02  0.46016263011E+03  0.25500000920E-02 0. -1.
</event>
<event>
 5   0  0.4314657E-05  0.1584108E+04  0.7818609E-02  0.8830371E-01
        1   -1    0    0  501    0  0.00000000000E+00  0.00000000000E+00  0.69939462905E+03  0.69939462907E+03  0.50400001928E-02 0. -1.
       -1   -1    0    0    0  501  0.00000000000E+00  0.00000000000E+00 -0.89698948321E+03  0.89698948323E+03  0.50400001928E-02 0.  1.
    10030    2    1    2    0    0  0.00000000000E+00  0.00000000000E+00 -0.19759485416E+03  0.15963841123E+04  0.15841081111E+04 0.  0.
        5    1    3    3  502    0  0.59042773768E+03  0.44138964410E+03 -0.39069324984E+03  0.83432190239E+03  0.46999998093E+01 0.  1.
       -5    1    3    3    0  502 -0.59042773768E+03 -0.44138964410E+03  0.19309839568E+03  0.76206220990E+03  0.46999998093E+01 0. -1.
</event>
<event>
 5   0  0.7849690E-05  0.1606739E+04  0.7818609E-02  0.8816419E-01
        2   -1    0    0  501    0  0.00000000000E+00  0.00000000000E+00  0.18818541612E+04  0.18818541612E+04  0.25500000920E-02 0.  1.
       -2   -1    0    0    0  501  0.00000000000E+00  0.00000000000E+00 -0.34296083712E+03  0.34296083713E+03  0.25500000920E-02 0. -1.
    10030    2    1    2    0    0  0.00000000000E+00  0.00000000000E+00  0.15388933241E+04  0.22248149984E+04  0.16067386576E+04 0.  0.
        3    1    3    3  502    0  0.57093129559E+03 -0.56095932935E+03  0.86502307112E+03  0.11785172197E+04  0.10100000352E+00 0.  1.
       -3    1    3    3    0  502 -0.57093129559E+03  0.56095932935E+03  0.67387025298E+03  0.10462977786E+04  0.10100000352E+00 0. -1.
</event>
<event>
 5   0  0.8694033E-05  0.1607206E+04  0.7818609E-02  0.8816133E-01
        2   -1    0    0  501    0  0.00000000000E+00  0.00000000000E+00  0.17967608881E+04  0.17967608881E+04  0.25500000920E-02 0.  1.
       -2   -1    0    0    0  501  0.00000000000E+00  0.00000000000E+00 -0.35941204345E+03  0.35941204346E+03  0.25500000920E-02 0. -1.
    10030    2    1    2    0    0  0.00000000000E+00  0.00000000000E+00  0.14373488447E+04  0.21561729316E+04  0.16072056526E+04 0.  0.
        1    1    3    3  502    0  0.64322654732E+03  0.20403229012E+03  0.13040770411E+04  0.14683277890E+04  0.50400001928E-02 0.  1.
       -1    1    3    3    0  502 -0.64322654732E+03 -0.20403229012E+03  0.13327180353E+03  0.68784514262E+03  0.50400001928E-02 0. -1.
</event>
<event>
 5   0  0.8620155E-05  0.1597826E+04  0.7818609E-02  0.8821885E-01
        2   -1    0    0  501    0  0.00000000000E+00  0.00000000000E+00  0.11240226810E+04  0.11240226811E+04  0.25500000920E-02 0. -1.
       -2   -1    0    0    0  501  0.00000000000E+00  0.00000000000E+00 -0.56783733161E+03  0.56783733161E+03  0.25500000920E-02 0.  1.
    10030    2    1    2    0    0  0.00000000000E+00  0.00000000000E+00  0.55618534944E+03  0.16918600127E+04  0.15978260730E+04 0.  0.
        4    1    3    3  502    0  0.39233485112E+02  0.61934627899E+03 -0.25463822503E+03  0.67079901475E+03  0.12699999809E+01 0.  1.
       -4    1    3    3    0  502 -0.39233485112E+02 -0.61934627899E+03  0.81082357447E+03  0.10210609979E+04  0.12699999809E+01 0. -1.
</event>
<event>
 5   0  0.7901257E-05  0.1594259E+04  0.7818609E-02  0.8824082E-01
        2   -1    0    0  501    0  0.00000000000E+00  0.00000000000E+00  0.15151716811E+04  0.15151716811E+04  0.25500000920E-02 0. -1.
       -2   -1    0    0    0  501  0.00000000000E+00  0.00000000000E+00 -0.41936877933E+03  0.41936877934E+03  0.25500000920E-02 0.  1.
    10030    2    1    2    0    0  0.00000000000E+00  0.00000000000E+00  0.10958029018E+04  0.19345404604E+04  0.15942593244E+04 0.  0.
        2    1    3    3  502    0  0.71476807495E+03  0.17081301328E+03  0.17321473517E+03  0.75503233769E+03  0.25500000920E-02 0.  1.
       -2    1    3    3    0  502 -0.71476807495E+03 -0.17081301328E+03  0.92258816659E+03  0.11795081227E+04  0.25500000920E-02 0. -1.
</event>
<event>
 5   0  0.4314657E-05  0.1596164E+04  0.7818609E-02  0.8822908E-01
       -1   -1    0    0    0  501  0.00000000000E+00  0.00000000000E+00  0.51931641090E+03  0.51931641092E+03  0.50400001928E-02 0.  1.
        1   -1    0    0  501    0  0.00000000000E+00  0.00000000000E+00 -0.12264875000E+04  0.12264875000E+04  0.50400001928E-02 0. -1.
    10030    2    1    2    0    0  0.00000000000E+00  0.00000000000E+00 -0.70717108908E+03  0.17458039109E+04  0.15961642604E+04 0.  0.
        5    1    3    3  502    0 -0.38812176578E+03 -0.43892310281E+03  0.23908239875E+03  0.63283052916E+03  0.46999998093E+01 0.  1.
       -5    1    3    3    0  502  0.38812176578E+03  0.43892310281E+03 -0.94625348783E+03  0.11129733817E+04  0.46999998093E+01 0. -1.
</event>
<event>
 5   0  0.7901257E-05  0.1600556E+04  0.7818609E-02  0.8820206E-01
        2   -1    0    0  501    0  0.00000000000E+00  0.00000000000E+00  0.80703666998E+03  0.80703666998E+03  0.25500000920E-02 0.  1.
       -2   -1    0    0    0  501  0.00000000000E+00  0.00000000000E+00 -0.79357609932E+03  0.79357609932E+03  0.25500000920E-02 0. -1.
    10030    2    1    2    0    0  0.00000000000E+00  0.00000000000E+00  0.13460570664E+02  0.16006127693E+04  0.16005561691E+04 0.  0.
        2    1    3    3  502    0  0.44498185792E+02 -0.12722727960E+03 -0.78214369396E+03  0.79367224169E+03  0.25500000920E-02 0. -1.
       -2    1    3    3    0  502 -0.44498185792E+02  0.12722727960E+03  0.79560426463E+03  0.80694052762E+03  0.25500000920E-02 0.  1.
</event>
<event>
 5   0  0.4314657E-05  0.1632892E+04  0.7818609E-02  0.8800592E-01
       -1   -1    0    0    0  501  0.00000000000E+00  0.00000000000E+00  0.39943275090E+03  0.39943275093E+03  0.50400001928E-02 0. -1.
        1   -1    0    0  501    0  0.00000000000E+00  0.00000000000E+00 -0.16688259349E+04  0.16688259349E+04  0.50400001928E-02 0.  1.
    10030    2    1    2    0    0  0.00000000000E+00  0.00000000000E+00 -0.12693931840E+04  0.20682586858E+04  0.16328915873E+04 0.  0.
        5    1    3    3  502    0  0.16109278009E+03 -0.56970357698E+03 -0.13467694580E+04  0.14711638632E+04  0.46999998093E+01 0.  1.
       -5    1    3    3    0  502 -0.16109278009E+03  0.56970357698E+03  0.77376273994E+02  0.59709482262E+03  0.46999998093E+01 0. -1.
</event>
<event>
 5   0  0.4211419E-05  0.1599628E+04  0.7818609E-02  0.8820777E-01
        1   -1    0    0  501    0  0.00000000000E+00  0.00000000000E+00  0.57107832693E+03  0.57107832696E+03  0.50400001928E-02 0. -1.
       -1   -1    0    0    0  501  0.00000000000E+00  0.00000000000E+00 -0.11201652578E+04  0.11201652578E+04  0.50400001928E-02 0.  1.
    10030    2    1    2    0    0  0.00000000000E+00  0.00000000000E+00 -0.54908693083E+03  0.16912435847E+04  0.15996275833E+04 0.  0.
        2    1    3    3  502    0 -0.31039801404E+03 -0.33163882828E+03 -0.97055611344E+03  0.10715924640E+04  0.25500000920E-02 0.  1.
       -2    1    3    3    0  502  0.31039801404E+03  0.33163882828E+03  0.42146918261E+03  0.61965112074E+03  0.25500000920E-02 0. -1.
</event>
<event>
 5   0  0.4211419E-05  0.1574705E+04  0.7818609E-02  0.8836240E-01
       -1   -1    0    0    0  501  0.00000000000E+00  0.00000000000E+00  0.13859583455E+04  0.13859583455E+04  0.50400001928E-02 0. -1.
        1   -1    0    0  501    0  0.00000000000E+00  0.00000000000E+00 -0.44728891486E+03  0.44728891489E+03  0.50400001928E-02 0.  1.
    10030    2    1    2    0    0  0.00000000000E+00  0.00000000000E+00  0.93866943066E+03  0.18332472604E+04  0.15747048034E+04 0.  0.
        2    1    3    3  502    0 -0.29411299046E+03  0.72661624872E+03  0.38338838648E+03  0.87261691420E+03  0.25500000920E-02 0. -1.
       -2    1    3    3    0  502  0.29411299046E+03 -0.72661624872E+03  0.55528104419E+03  0.96063034623E+03  0.25500000920E-02 0.  1.
</event>
<event>
 5   0  0.4373026E-05  0.1574754E+04  0.7818609E-02  0.8836209E-01
       -1   -1    0    0    0  501  0.00000000000E+00  0.00000000000E+00  0.14178620296E+04  0.14178620296E+04  0.50400001928E-02 0. -1.
        1   -1    0    0  501    0  0.00000000000E+00  0.00000000000E+00 -0.43725178659E+03  0.43725178662E+03  0.50400001928E-02 0.  1.
    10030    2    1    2    0    0  0.00000000000E+00  0.00000000000E+00  0.98061024298E+03  0.18551138162E+04  0.15747542102E+04 0.  0.
        4    1    3    3  502    0 -0.26340425434E+02  0.52499511084E+03 -0.20027539007E+03  0.56251713679E+03  0.12699999809E+01 0.  1.
       -4    1    3    3    0  502  0.26340425434E+02 -0.52499511084E+03  0.11808856330E+04  0.12925966794E+04  0.12699999809E+01 0. -1.
</event>
<event>
 5   0  0.8694033E-05  0.1601526E+04  0.7818609E-02  0.8819611E-01
        2   -1    0    0  501    0  0.00000000000E+00  0.00000000000E+00  0.15889702217E+04  0.15889702217E+04  0.25500000920E-02 0. -1.
       -2   -1    0    0    0  501  0.00000000000E+00  0.00000000000E+00 -0.40354549457E+03  0.40354549458E+03  0.25500000920E-02 0.  1.
    10030    2    1    2    0    0  0.00000000000E+00  0.00000000000E+00  0.11854247271E+04  0.19925157163E+04  0.16015264893E+04 0.  0.
        1    1    3    3  502    0 -0.20813589265E+03 -0.45547702411E+02 -0.36763331086E+03  0.42491104278E+03  0.50400001928E-02 0.  1.
       -1    1    3    3    0  502  0.20813589265E+03  0.45547702411E+02  0.15530580380E+04  0.15676046735E+04  0.50400001928E-02 0. -1.
</event>
<event>
 5   0  0.8620155E-05  0.1600007E+04  0.7818609E-02  0.8820544E-01
       -2   -1    0    0    0  501  0.00000000000E+00  0.00000000000E+00  0.75196317867E+03  0.75196317868E+03  0.25500000920E-02 0.  1.
        2   -1    0    0  501    0  0.00000000000E+00  0.00000000000E+00 -0.85111322631E+03  0.85111322632E+03  0.25500000920E-02 0. -1.
    10030    2    1    2    0    0  0.00000000000E+00  0.00000000000E+00 -0.99150047642E+02  0.16030764050E+04  0.16000072588E+04 0.  0.
        4    1    3    3  502    0  0.58934466742E+03 -0.38715580802E+03 -0.42817211147E+03  0.82495437852E+03  0.12699999809E+01 0. -1.
       -4    1    3    3    0  502 -0.58934466742E+03  0.38715580802E+03  0.32902206383E+03  0.77812202647E+03  0.12699999809E+01 0.  1.
</event>
<event>
 5   0  0.4256406E-05  0.1596643E+04  0.7818609E-02  0.8822613E-01
       -1   -1    0    0    0  501  0.00000000000E+00  0.00000000000E+00  0.54172409679E+03  0.54172409681E+03  0.50400001928E-02 0. -1.
        1   -1    0    0  501    0  0.00000000000E+00  0.00000000000E+00 -0.11764609935E+04  0.11764609935E+04  0.50400001928E-02 0.  1.
    10030    2    1    2    0    0  0.00000000000E+00  0.00000000000E+00 -0.63473689670E+03  0.17181850903E+04  0.15966430649E+04 0.  0.
        3    1    3    3  502    0 -0.75983893417E+03  0.15898439246E+03 -0.11694925159E+03  0.78505310685E+03  0.10100000352E+00 0. -1.
       -3    1    3    3    0  502  0.75983893417E+03 -0.15898439246E+03 -0.51778764511E+03  0.93313198346E+03  0.10100000352E+00 0.  1.
</event>
<event>
 5   0  0.7849690E-05  0.1597307E+04  0.7818609E-02  0.8822204E-01
       -2   -1    0    0    0  501  0.00000000000E+00  0.00000000000E+00  0.60072722669E+03  0.60072722669E+03  0.25500000920E-02 0.  1.
        2   -1    0    0  501    0  0.00000000000E+00  0.00000000000E+00 -0.10617922076E+04  0.10617922076E+04  0.25500000920E-02 0. -1.
    10030    2    1    2    0    0  0.00000000000E+00  0.00000000000E+00 -0.46106498089E+03  0.16625194343E+04  0.15973070941E+04 0.  0.
        3    1    3    3  502    0  0.78856320489E+03  0.23437473924E+02 -0.35997311752E+03  0.86715736682E+03  0.10100000352E+00 0. -1.
       -3    1    3    3    0  502 -0.78856320489E+03 -0.23437473924E+02 -0.10109186336E+03  0.79536206745E+03  0.10100000352E+00 0.  1.
</event>
<event>
 5   0  0.4256406E-05  0.1597739E+04  0.7818609E-02  0.8821938E-01
       -1   -1    0    0    0  501  0.00000000000E+00  0.00000000000E+00  0.35370019888E+03  0.35370019892E+03  0.50400001928E-02 0.  1.
        1   -1    0    0  501    0  0.00000000000E+00  0.00000000000E+00 -0.18043310566E+04  0.18043310566E+04  0.50400001928E-02 0. -1.
    10030    2    1    2    0    0  0.00000000000E+00  0.00000000000E+00 -0.14506308577E+04  0.21580312555E+04  0.15977387191E+04 0.  0.
        3    1    3    3  502    0 -0.11672744887E+03 -0.71561039273E+03 -0.11782837510E+04  0.13835014057E+04  0.10100000352E+00 0. -1.
       -3    1    3    3    0  502  0.11672744887E+03  0.71561039273E+03 -0.27234710670E+03  0.77452984980E+03  0.10100000352E+00 0.  1.
</event>
<event>
 5   0  0.4211419E-05  0.1599374E+04  0.7818609E-02  0.8820932E-01
       -1   -1    0    0    0  501  0.00000000000E+00  0.00000000000E+00  0.50945570655E+03  0.50945570658E+03  0.50400001928E-02 0.  1.
        1   -1    0    0  501    0  0.00000000000E+00  0.00000000000E+00 -0.12552603694E+04  0.12552603694E+04  0.50400001928E-02 0. -1.
    10030    2    1    2    0    0  0.00000000000E+00  0.00000000000E+00 -0.74580466286E+03  0.17647160760E+04  0.15993743257E+04 0.  0.
        2    1    3    3  502    0 -0.22410924881E+02 -0.50106979594E+03 -0.10601279997E+04  0.11727934881E+04  0.25500000920E-02 0. -1.
       -2    1    3    3    0  502  0.22410924881E+02  0.50106979594E+03  0.31432333686E+03  0.59192258789E+03  0.25500000920E-02 0.  1.
</event>
<event>
 5   0  0.7901257E-05  0.1598590E+04  0.7818609E-02  0.8821415E-01
       -2   -1    0    0    0  501  0.00000000000E+00  0.00000000000E+00  0.74845097451E+03  0.74845097451E+03  0.25500000920E-02 0. -1.
        2   -1    0    0  501    0  0.00000000000E+00  0.00000000000E+00 -0.85359256939E+03  0.85359256939E+03  0.25500000920E-02 0.  1.
    10030    2    1    2    0    0  0.00000000000E+00  0.00000000000E+00 -0.10514159488E+03  0.16020435439E+04  0.15985896164E+04 0.  0.
        2    1    3    3  502    0 -0.67878026099E+03  0.84712736353E+02 -0.46692912618E+03  0.82821597382E+03  0.25500000920E-02 0.  1.
       -2    1    3    3    0  502  0.67878026099E+03 -0.84712736353E+02  0.36178753130E+03  0.77382757008E+03  0.25500000920E-02 0. -1.
</event>
<event>
 5   0  0.4314657E-05  0.1598186E+04  0.7818609E-02  0.8821663E-01
        1   -1    0    0  501    0  0.00000000000E+00  0.00000000000E+00  0.45753675330E+03  0.45753675333E+03  0.50400001928E-02 0. -1.
       -1   -1    0    0    0  501  0.00000000000E+00  0.00000000000E+00 -0.13956244535E+04  0.13956244535E+04  0.50400001928E-02 0.  1.
    10030    2    1    2    0    0  0.00000000000E+00  0.00000000000E+00 -0.93808770020E+03  0.18531612068E+04  0.15981858231E+04 0.  0.
        5    1    3    3  502    0  0.24160814017E+03  0.44785146264E+03 -0.11834393521E+04  0.12882143518E+04  0.46999998093E+01 0.  1.
       -5    1    3    3    0  502 -0.24160814017E+03 -0.44785146264E+03  0.24535165189E+03  0.56494685509E+03  0.46999998093E+01 0. -1.
</event>
<event>
 5   0  0.4504463E-05  0.1591392E+04  0.7818609E-02  0.8825854E-01
       -1   -1    0    0    0  501  0.00000000000E+00  0.00000000000E+00  0.41431165733E+03  0.41431165737E+03  0.50400001928E-02 0. -1.
        1   -1    0    0  501    0  0.00000000000E+00  0.00000000000E+00 -0.15281548449E+04  0.15281548449E+04  0.50400001928E-02 0.  1.
    10030    2    1    2    0    0  0.00000000000E+00  0.00000000000E+00 -0.11138431876E+04  0.19424665023E+04  0.15913923042E+04 0.  0.
        1    1    3    3  502    0  0.67394940164E+03  0.40697590066E+03 -0.69766352503E+03  0.10519370579E+04  0.50400001928E-02 0. -1.
       -1    1    3    3    0  502 -0.67394940164E+03 -0.40697590066E+03 -0.41617966254E+03  0.89052944433E+03  0.50400001928E-02 0.  1.
</event>
<event>
 5   0  0.8620155E-05  0.1597434E+04  0.7818609E-02  0.8822126E-01
       -2   -1    0    0    0  501  0.00000000000E+00  0.00000000000E+00  0.36234356281E+03  0.36234356282E+03  0.25500000920E-02 0.  1.
        2   -1    0    0  501    0  0.00000000000E+00  0.00000000000E+00 -0.17606183302E+04  0.17606183302E+04  0.25500000920E-02 0. -1.
    10030    2    1    2    0    0  0.00000000000E+00  0.00000000000E+00 -0.13982747674E+04  0.21229618930E+04  0.15974338403E+04 0.  0.
        4    1    3    3  502    0  0.25402972099E+03 -0.28399624196E+03 -0.16320435960E+04  0.16759334345E+04  0.12699999809E+01 0. -1.
       -4    1    3    3    0  502 -0.25402972099E+03  0.28399624196E+03  0.23376882864E+03  0.44702845853E+03  0.12699999809E+01 0.  1.
</event>
<event>
 5   0  0.4504463E-05  0.1603944E+04  0.7818609E-02  0.8818129E-01
        1   -1    0    0  501    0  0.00000000000E+00  0.00000000000E+00  0.90496277962E+03  0.90496277964E+03  0.50400001928E-02 0. -1.
       -1   -1    0    0    0  501  0.00000000000E+00  0.00000000000E+00 -0.71070203673E+03  0.71070203674E+03  0.50400001928E-02 0.  1.
    10030    2    1    2    0    0  0.00000000000E+00  0.00000000000E+00  0.19426074290E+03  0.16156648164E+04  0.16039437530E+04 0.  0.
        1    1    3    3  502    0  0.79489387563E+03 -0.92827920526E+02  0.44928949179E+02  0.80155592871E+03  0.50400001928E-02 0. -1.
       -1    1    3    3    0  502 -0.79489387563E+03  0.92827920526E+02  0.14933179372E+03  0.81410888767E+03  0.50400001928E-02 0.  1.
</event>
<event>
 5   0  0.8620155E-05  0.1600617E+04  0.7818609E-02  0.8820169E-01
       -2   -1    0    0    0  501  0.00000000000E+00  0.00000000000E+00  0.32832145430E+03  0.32832145431E+03  0.25500000920E-02 0.  1.
        2   -1    0    0  501    0  0.00000000000E+00  0.00000000000E+00 -0.19508134002E+04  0.19508134002E+04  0.25500000920E-02 0. -1.
    10030    2    1    2    0    0  0.00000000000E+00  0.00000000000E+00 -0.16224919459E+04  0.22791348545E+04  0.16006172467E+04 0.  0.
        4    1    3    3  502    0 -0.48910712474E+02  0.46800136292E+03 -0.17330280850E+04  0.17957743426E+04  0.12699999809E+01 0. -1.
       -4    1    3    3    0  502  0.48910712474E+02 -0.46800136292E+03  0.11053613908E+03  0.48336051187E+03  0.12699999809E+01 0.  1.
</event>
<event>
 5   0  0.8037548E-05  0.1596546E+04  0.7818609E-02  0.8822672E-01
        2   -1    0    0  501    0  0.00000000000E+00  0.00000000000E+00  0.69869921526E+03  0.69869921526E+03  0.25500000920E-02 0.  1.
       -2   -1    0    0    0  501  0.00000000000E+00  0.00000000000E+00 -0.91203781773E+03  0.91203781773E+03  0.25500000920E-02 0. -1.
    10030    2    1    2    0    0  0.00000000000E+00  0.00000000000E+00 -0.21333860247E+03  0.16107370330E+04  0.15965464071E+04 0.  0.
        5    1    3    3  502    0  0.27648950190E+03  0.61044535304E+03  0.33092319569E+03  0.74741034590E+03  0.46999998093E+01 0.  1.
       -5    1    3    3    0  502 -0.27648950190E+03 -0.61044535304E+03 -0.54426179816E+03  0.86332668709E+03  0.46999998093E+01 0. -1.
</event>
<event>
 5   0  0.4373026E-05  0.1600031E+04  0.7818609E-02  0.8820529E-01
       -1   -1    0    0    0  501  0.00000000000E+00  0.00000000000E+00  0.55603570778E+03  0.55603570780E+03  0.50400001928E-02 0. -1.
        1   -1    0    0  501    0  0.00000000000E+00  0.00000000000E+00 -0.11510493924E+04  0.11510493924E+04  0.50400001928E-02 0.  1.
    10030    2    1    2    0    0  0.00000000000E+00  0.00000000000E+00 -0.59501368465E+03  0.17070851002E+04  0.16000307043E+04 0.  0.
        4    1    3    3  502    0  0.37549252346E+03 -0.58709946629E+03  0.12164334602E+03  0.70744549968E+03  0.12699999809E+01 0. -1.
       -4    1    3    3    0  502 -0.37549252346E+03  0.58709946629E+03 -0.71665703067E+03  0.99963960056E+03  0.12699999809E+01 0.  1.
</event>
<event>
 5   0  0.8037548E-05  0.1593478E+04  0.7818609E-02  0.8824565E-01
        2   -1    0    0  501    0  0.00000000000E+00  0.00000000000E+00  0.19131153291E+04  0.19131153291E+04  0.25500000920E-02 0.  1.
       -2   -1    0    0    0  501  0.00000000000E+00  0.00000000000E+00 -0.33181123938E+03  0.33181123939E+03  0.25500000920E-02 0. -1.
    10030    2    1    2    0    0  0.00000000000E+00  0.00000000000E+00  0.15813040897E+04  0.22449265685E+04  0.15934781686E+04 0.  0.
        5    1    3    3  502    0 -0.25543544804E+03  0.38905136658E+03 -0.12036969903E+03  0.48074857088E+03  0.46999998093E+01 0. -1.
       -5    1    3    3    0  502  0.25543544804E+03 -0.38905136658E+03  0.17016737888E+04  0.17641779976E+04  0.46999998093E+01 0.  1.
</event>
<event>
 5   0  0.4211419E-05  0.1598284E+04  0.7818609E-02  0.8821603E-01
        1   -1    0    0  501    0  0.00000000000E+00  0.00000000000E+00  0.12170558586E+04  0.12170558586E+04  0.50400001928E-02 0.  1.
       -1   -1    0    0    0  501  0.00000000000E+00  0.00000000000E+00 -0.52473155759E+03  0.52473155761E+03  0.50400001928E-02 0. -1.
    10030    2    1    2    0    0  0.00000000000E+00  0.00000000000E+00  0.69232430104E+03  0.17417874163E+04  0.15982835999E+04 0.  0.
        2    1    3    3  502    0  0.51574476654E+03 -0.31468838921E+03 -0.22387642845E+03  0.64431521923E+03  0.25500000920E-02 0. -1.
       -2    1    3    3    0  502 -0.51574476654E+03  0.31468838921E+03  0.91620072948E+03  0.10974721970E+04  0.25500000920E-02 0.  1.
</event>
<event>
 5   0  0.7901257E-05  0.1600718E+04  0.7818609E-02  0.8820107E-01
       -2   -1    0    0    0  501  0.00000000000E+00  0.00000000000E+00  0.10724531762E+04  0.10724531762E+04  0.25500000920E-02 0. -1.
        2   -1    0    0  501    0  0.00000000000E+00  0.00000000000E+00 -0.59729808843E+03  0.59729808844E+03  0.25500000920E-02 0.  1.
    10030    2    1    2    0    0  0.00000000000E+00  0.00000000000E+00  0.47515508774E+03  0.16697512646E+04  0.16007176292E+04 0.  0.
        2    1    3    3  502    0 -0.71771395264E+03  0.14203029669E+03 -0.10089787049E+03  0.73855690591E+03  0.25500000920E-02 0.  1.
       -2    1    3    3    0  502  0.71771395264E+03 -0.14203029669E+03  0.57605295822E+03  0.93119435870E+03  0.25500000920E-02 0. -1.
</event>
<event>
 5   0  0.4314657E-05  0.1599861E+04  0.7818609E-02  0.8820633E-01
       -1   -1    0    0    0  501  0.00000000000E+00  0.00000000000E+00  0.38723344598E+03  0.38723344601E+03  0.50400001928E-02 0. -1.
        1   -1    0    0  501    0  0.00000000000E+00  0.00000000000E+00 -0.16524631122E+04  0.16524631122E+04  0.50400001928E-02 0.  1.
    10030    2    1    2    0    0  0.00000000000E+00  0.00000000000E+00 -0.12652296662E+04  0.20396965582E+04  0.15998612256E+04 0.  0.
        5    1    3    3  502    0  0.67781059278E+03  0.22596153450E+03 -0.17403110872E+03  0.73538747036E+03  0.46999998093E+01 0. -1.
       -5    1    3    3    0  502 -0.67781059278E+03 -0.22596153450E+03 -0.10911985575E+04  0.13043090878E+04  0.46999998093E+01 0.  1.
</event>
</LesHouchesEvents>
